<LesHouchesEvents version="3.0">
<header>
<!--
#*********************************************************************
#                                                                    *
#                        MadGraph5_aMC@NLO                           *
#                                                                    *
#                           Going Beyond                             *
#                                                                    *
#                   http://madgraph.hep.uiuc.edu                     *
#                   http://madgraph.phys.ucl.ac.be                   *
#                   http://amcatnlo.cern.ch                          *
#                                                                    *
#                     The MadGraph5_aMC@NLO team                     *
#                                                                    *
#....................................................................*
#                                                                    *
# This file contains all the information necessary to reproduce      *
# the events generated:                                              *
#                                                                    *
# 1. software version                                                *
# 2. proc_card          : code generation info including model       *
# 3. param_card         : model primary parameters in the LH format  *
# 4. run_card           : running parameters (collider and cuts)     *
# 5. pythia_card        : present only if pythia has been run        *
# 6. pgs_card           : present only if pgs has been run           *
# 7. delphes_cards      : present only if delphes has been run       *
#                                                                    *
#                                                                    *
#*********************************************************************
-->
<MGVersion>
#5.2.2.3
</MGVersion>
<MG5ProcCard>
#************************************************************
#*                     MadGraph5_aMC@NLO                    *
#*                                                          *
#*                *                       *                 *
#*                  *        * *        *                   *
#*                    * * * * 5 * * * *                     *
#*                  *        * *        *                   *
#*                *                       *                 *
#*                                                          *
#*                                                          *
#*         VERSION 2.2.3                 2015-02-10         *
#*                                                          *
#*    The MadGraph5_aMC@NLO Development Team - Find us at   *
#*    https://server06.fynu.ucl.ac.be/projects/madgraph     *
#*                                                          *
#************************************************************
#*                                                          *
#*               Command File for MadGraph5_aMC@NLO         *
#*                                                          *
#*     run as ./bin/mg5_aMC  filename                       *
#*                                                          *
#************************************************************
set group_subprocesses Auto
set ignore_six_quark_processes False
set loop_optimized_output True
set gauge unitary
set complex_mass_scheme False
import model sm
define p = g u c d s u~ c~ d~ s~
define j = g u c d s u~ c~ d~ s~
define l+ = e+ mu+
define l- = e- mu-
define vl = ve vm vt
define vl~ = ve~ vm~ vt~
import model Zprime_UFO
generate p p > zph, zph > j j
add process p p > zph, zph > b b~
output Dijet_signal
</MG5ProcCard>
<MGProcCard>
#*********************************************************************
#                        MadGraph/MadEvent                           *
#                   http://madgraph.hep.uiuc.edu                     *
#                                                                    *
#                          proc_card.dat                             *
#*********************************************************************
#                                                                    *
#            This Files is generated by MADGRAPH 5                   *
#                                                                    *
# WARNING: This Files is generated for MADEVENT (compatibility issue)*
#          This files is NOT a valid MG4 proc_card.dat               *
#          Running this in MG4 will NEVER reproduce the result of MG5*
#                                                                    *
#*********************************************************************
#*********************************************************************
# Process(es) requested : mg2 input                                  *
#*********************************************************************
# Begin PROCESS # This is TAG. Do not modify this line
p p > zph , zph > j j           #Process
# Be carefull the coupling are here in MG5 convention
          
end_coup           # End the couplings input

done               # this tells MG there are no more procs
# End PROCESS  # This is TAG. Do not modify this line
#*********************************************************************
# Model information                                                  *
#*********************************************************************
# Begin MODEL  # This is TAG. Do not modify this line
Zprime_UFO
# End   MODEL  # This is TAG. Do not modify this line
#*********************************************************************
# Start multiparticle definitions                                    *
#*********************************************************************
# Begin MULTIPARTICLES # This is TAG. Do not modify this line

# End  MULTIPARTICLES # This is TAG. Do not modify this line
</MGProcCard>
<MGRunCard>
#*********************************************************************
#                       MadGraph5_aMC@NLO                            *
#                                                                    *
#                     run_card.dat MadEvent                          *
#                                                                    *
#  This file is used to set the parameters of the run.               *
#                                                                    *
#  Some notation/conventions:                                        *
#                                                                    *
#   Lines starting with a '# ' are info or comments                  *
#                                                                    *
#   mind the format:   value    = variable     ! comment             *
#*********************************************************************
#
#*******************                                                 
# Running parameters
#*******************                                                 
#                                                                    
#*********************************************************************
# Tag name for the run (one word)                                    *
#*********************************************************************
  tag_1     = run_tag ! name of the run 
#*********************************************************************
# Run to generate the grid pack                                      *
#*********************************************************************
  .false.     = gridpack  !True = setting up the grid pack
#*********************************************************************
# Number of events and rnd seed                                      *
# Warning: Do not generate more than 1M events in a single run       *
# If you want to run Pythia, avoid more than 50k events in a run.    *
#*********************************************************************
  2000 = nevents ! Number of unweighted events requested 
 2748 = iseed   ! rnd seed (0=assigned automatically=default))
#*********************************************************************
# Collider type and energy                                           *
# lpp: 0=No PDF, 1=proton, -1=antiproton, 2=photon from proton,      *
#                                         3=photon from electron     *
#*********************************************************************
        1     = lpp1    ! beam 1 type 
        1     = lpp2    ! beam 2 type
     4000     = ebeam1  ! beam 1 total energy in GeV
     4000     = ebeam2  ! beam 2 total energy in GeV
#*********************************************************************
# Beam polarization from -100 (left-handed) to 100 (right-handed)    *
#*********************************************************************
        0     = polbeam1 ! beam polarization for beam 1
        0     = polbeam2 ! beam polarization for beam 2
#*********************************************************************
# PDF CHOICE: this automatically fixes also alpha_s and its evol.    *
#*********************************************************************
 'nn23lo1'    = pdlabel     ! PDF set                                     
 230000    = lhaid     ! if pdlabel=lhapdf, this is the lhapdf number
#*********************************************************************
# Renormalization and factorization scales                           *
#*********************************************************************
 F        = fixed_ren_scale  ! if .true. use fixed ren scale
 F        = fixed_fac_scale  ! if .true. use fixed fac scale
 91.1880  = scale            ! fixed ren scale
 91.1880  = dsqrt_q2fact1    ! fixed fact scale for pdf1
 91.1880  = dsqrt_q2fact2    ! fixed fact scale for pdf2
 1        = scalefact        ! scale factor for event-by-event scales
#*********************************************************************
# Matching - Warning! ickkw > 1 is still beta
#*********************************************************************
 0        = ickkw            ! 0 no matching, 1 MLM, 2 CKKW matching
 1        = highestmult      ! for ickkw=2, highest mult group
 1        = ktscheme         ! for ickkw=1, 1 Durham kT, 2 Pythia pTE
 1        = alpsfact         ! scale factor for QCD emission vx
 F        = chcluster        ! cluster only according to channel diag
 T        = pdfwgt           ! for ickkw=1, perform pdf reweighting
 5        = asrwgtflavor     ! highest quark flavor for a_s reweight
 T        = clusinfo         ! include clustering tag in output
 3.0      = lhe_version       ! Change the way clustering information pass to shower.        
#*********************************************************************
#**********************************************************
#
#**********************************************************
# Automatic ptj and mjj cuts if xqcut > 0
# (turn off for VBF and single top processes)
#**********************************************************
   T  = auto_ptj_mjj  ! Automatic setting of ptj and mjj
#**********************************************************
#                                                                    
#**********************************
# BW cutoff (M+/-bwcutoff*Gamma)
#**********************************
  15  = bwcutoff      ! (M+/-bwcutoff*Gamma)
#**********************************************************
# Apply pt/E/eta/dr/mij cuts on decay products or not
# (note that etmiss/ptll/ptheavy/ht/sorted cuts always apply)
#**********************************************************
   T  = cut_decays    ! Cut decay products 
#*************************************************************
# Number of helicities to sum per event (0 = all helicities)
# 0 gives more stable result, but longer run time (needed for
# long decay chains e.g.).
# Use >=2 if most helicities contribute, e.g. pure QCD.
#*************************************************************
   0  = nhel          ! Number of helicities used per event
#*******************                                                 
# Standard Cuts
#*******************                                                 
#                                                                    
#*********************************************************************
# Minimum and maximum pt's (for max, -1 means no cut)                *
#*********************************************************************
 20  = ptj       ! minimum pt for the jets 
  0  = ptb       ! minimum pt for the b 
 10  = pta       ! minimum pt for the photons 
 10  = ptl       ! minimum pt for the charged leptons 
  0  = misset    ! minimum missing Et (sum of neutrino's momenta)
  0  = ptheavy   ! minimum pt for one heavy final state
 1.0 = ptonium   ! minimum pt for the quarkonium states
 -1  = ptjmax    ! maximum pt for the jets
 -1  = ptbmax    ! maximum pt for the b
 -1  = ptamax    ! maximum pt for the photons
 -1  = ptlmax    ! maximum pt for the charged leptons
 -1  = missetmax ! maximum missing Et (sum of neutrino's momenta)
#*********************************************************************
# Minimum and maximum E's (in the center of mass frame)              *
#*********************************************************************
  0  = ej     ! minimum E for the jets 
  0  = eb     ! minimum E for the b 
  0  = ea     ! minimum E for the photons 
  0  = el     ! minimum E for the charged leptons 
 -1   = ejmax ! maximum E for the jets
 -1   = ebmax ! maximum E for the b
 -1   = eamax ! maximum E for the photons
 -1   = elmax ! maximum E for the charged leptons
#*********************************************************************
# Maximum and minimum absolute rapidity (for max, -1 means no cut)   *
#*********************************************************************
   5  = etaj    ! max rap for the jets 
  -1  = etab    ! max rap for the b
 2.5  = etaa    ! max rap for the photons 
 2.5  = etal    ! max rap for the charged leptons 
 0.6  = etaonium ! max rap for the quarkonium states
   0  = etajmin ! min rap for the jets
   0  = etabmin ! min rap for the b
   0  = etaamin ! min rap for the photons
   0  = etalmin ! main rap for the charged leptons
#*********************************************************************
# Minimum and maximum DeltaR distance                                *
#*********************************************************************
 0.4 = drjj    ! min distance between jets 
 0   = drbb    ! min distance between b's 
 0.4 = drll    ! min distance between leptons 
 0.4 = draa    ! min distance between gammas 
 0   = drbj    ! min distance between b and jet 
 0.4 = draj    ! min distance between gamma and jet 
 0.4 = drjl    ! min distance between jet and lepton 
 0   = drab    ! min distance between gamma and b 
 0   = drbl    ! min distance between b and lepton 
 0.4 = dral    ! min distance between gamma and lepton 
 -1  = drjjmax ! max distance between jets
 -1  = drbbmax ! max distance between b's
 -1  = drllmax ! max distance between leptons
 -1  = draamax ! max distance between gammas
 -1  = drbjmax ! max distance between b and jet
 -1  = drajmax ! max distance between gamma and jet
 -1  = drjlmax ! max distance between jet and lepton
 -1  = drabmax ! max distance between gamma and b
 -1  = drblmax ! max distance between b and lepton
 -1  = dralmax ! maxdistance between gamma and lepton
#*********************************************************************
# Minimum and maximum invariant mass for pairs                       *
# WARNING: for four lepton final state mmll cut require to have      *
#          different lepton masses for each flavor!                  *           
#*********************************************************************
 0   = mmjj    ! min invariant mass of a jet pair 
 0   = mmbb    ! min invariant mass of a b pair 
 0   = mmaa    ! min invariant mass of gamma gamma pair
 0   = mmll    ! min invariant mass of l+l- (same flavour) lepton pair
 -1  = mmjjmax ! max invariant mass of a jet pair
 -1  = mmbbmax ! max invariant mass of a b pair
 -1  = mmaamax ! max invariant mass of gamma gamma pair
 -1  = mmllmax ! max invariant mass of l+l- (same flavour) lepton pair
#*********************************************************************
# Minimum and maximum invariant mass for all letpons                 *
#*********************************************************************
 0   = mmnl    ! min invariant mass for all letpons (l+- and vl) 
 -1  = mmnlmax ! max invariant mass for all letpons (l+- and vl) 
#*********************************************************************
# Minimum and maximum pt for 4-momenta sum of leptons                *
#*********************************************************************
 0   = ptllmin  ! Minimum pt for 4-momenta sum of leptons(l and vl)
 -1  = ptllmax  ! Maximum pt for 4-momenta sum of leptons(l and vl)
#*********************************************************************
# Inclusive cuts                                                     *
#*********************************************************************
 0  = xptj ! minimum pt for at least one jet  
 0  = xptb ! minimum pt for at least one b 
 0  = xpta ! minimum pt for at least one photon 
 0  = xptl ! minimum pt for at least one charged lepton 
#*********************************************************************
# Control the pt's of the jets sorted by pt                          *
#*********************************************************************
 0   = ptj1min ! minimum pt for the leading jet in pt
 0   = ptj2min ! minimum pt for the second jet in pt
 0   = ptj3min ! minimum pt for the third jet in pt
 0   = ptj4min ! minimum pt for the fourth jet in pt
 -1  = ptj1max ! maximum pt for the leading jet in pt 
 -1  = ptj2max ! maximum pt for the second jet in pt
 -1  = ptj3max ! maximum pt for the third jet in pt
 -1  = ptj4max ! maximum pt for the fourth jet in pt
 0   = cutuse  ! reject event if fails any (0) / all (1) jet pt cuts
#*********************************************************************
# Control the pt's of leptons sorted by pt                           *
#*********************************************************************
 0   = ptl1min ! minimum pt for the leading lepton in pt
 0   = ptl2min ! minimum pt for the second lepton in pt
 0   = ptl3min ! minimum pt for the third lepton in pt
 0   = ptl4min ! minimum pt for the fourth lepton in pt
 -1  = ptl1max ! maximum pt for the leading lepton in pt 
 -1  = ptl2max ! maximum pt for the second lepton in pt
 -1  = ptl3max ! maximum pt for the third lepton in pt
 -1  = ptl4max ! maximum pt for the fourth lepton in pt
#*********************************************************************
# Control the Ht(k)=Sum of k leading jets                            *
#*********************************************************************
 0   = htjmin ! minimum jet HT=Sum(jet pt)
 -1  = htjmax ! maximum jet HT=Sum(jet pt)
 0   = ihtmin  !inclusive Ht for all partons (including b)
 -1  = ihtmax  !inclusive Ht for all partons (including b)
 0   = ht2min ! minimum Ht for the two leading jets
 0   = ht3min ! minimum Ht for the three leading jets
 0   = ht4min ! minimum Ht for the four leading jets
 -1  = ht2max ! maximum Ht for the two leading jets
 -1  = ht3max ! maximum Ht for the three leading jets
 -1  = ht4max ! maximum Ht for the four leading jets
#***********************************************************************
# Photon-isolation cuts, according to hep-ph/9801442                   *
# When ptgmin=0, all the other parameters are ignored                  *
# When ptgmin>0, pta and draj are not going to be used                 *
#***********************************************************************
   0 = ptgmin ! Min photon transverse momentum
 0.4 = R0gamma ! Radius of isolation code
 1.0 = xn ! n parameter of eq.(3.4) in hep-ph/9801442
 1.0 = epsgamma ! epsilon_gamma parameter of eq.(3.4) in hep-ph/9801442
 .true. = isoEM ! isolate photons from EM energy (photons and leptons)
#*********************************************************************
# WBF cuts                                                           *
#*********************************************************************
 0   = xetamin ! minimum rapidity for two jets in the WBF case  
 0   = deltaeta ! minimum rapidity for two jets in the WBF case 
#*********************************************************************
# KT DURHAM CUT                                                      *
#*********************************************************************
 -1    =  ktdurham        
 0.4  =  dparameter 
#*********************************************************************
# maximal pdg code for quark to be considered as a light jet         *
# (otherwise b cuts are applied)                                     *
#*********************************************************************
 4 = maxjetflavor    ! Maximum jet pdg code
#*********************************************************************
# Jet measure cuts                                                   *
#*********************************************************************
 0   = xqcut   ! minimum kt jet measure between partons
#*********************************************************************
#
#*********************************************************************
# Store info for systematics studies                                 *
# WARNING: If use_syst is T, matched Pythia output is                *
#          meaningful ONLY if plotted taking matchscale              *
#          reweighting into account!                                 *
#*********************************************************************
   F  = use_syst      ! Enable systematics studies
#
#**************************************
# Parameter of the systematics study
#  will be used by SysCalc (if installed)
#**************************************                                  
#
0.5 1 2 = sys_scalefact  # factorization/renormalization scale factor
0.5 1 2 = sys_alpsfact  # \alpha_s emission scale factors
30 50 = sys_matchscale # variation of merging scale
# PDF sets and number of members (0 or none for all members).
CT10nlo.LHgrid = sys_pdf # matching scales
# MSTW2008nlo68cl.LHgrid 1  = sys_pdf
</MGRunCard>
<slha>
######################################################################
## PARAM_CARD AUTOMATICALY GENERATED BY MG5 FOLLOWING UFO MODEL   ####
######################################################################
##                                                                  ##
##  Width set on Auto will be computed following the information    ##
##        present in the decay.py files of the model.               ##
##        See  arXiv:1402.1178 for more details.                    ##
##                                                                  ##
######################################################################

###################################
## INFORMATION FOR CKMBLOCK
###################################
Block ckmblock 
    1 2.277360e-01 # cabi 

###################################
## INFORMATION FOR FRBLOCK
###################################
Block frblock 
    1 1.400000e+00 # gz 

###################################
## INFORMATION FOR MASS
###################################
Block mass 
    1 5.040000e-03 # MD 
    2 2.550000e-03 # MU 
    3 1.010000e-01 # MS 
    4 1.270000e+00 # MC 
    5 4.700000e+00 # MB 
    6 1.720000e+02 # MT 
   11 5.110000e-04 # Me 
   13 1.056600e-01 # MM 
   15 1.777000e+00 # MTA 
   23 9.118760e+01 # MZ 
   25 1.200000e+02 # MH 
  10030 3.900000e+03 # MZph 
  10031 3.000000e+02 # MZpl 
## Dependent parameters, given by model restrictions.
## Those values should be edited following the 
## analytical expression. MG5 ignores those values 
## but they are important for interfacing the output of MG5
## to external program such as Pythia.
  12 0.000000 # ve : 0.0 
  14 0.000000 # vm : 0.0 
  16 0.000000 # vt : 0.0 
  21 0.000000 # g : 0.0 
  22 0.000000 # a : 0.0 
  24 79.824360 # w+ : cmath.sqrt(MZ__exp__2/2. + cmath.sqrt(MZ__exp__4/4. - (aEW*cmath.pi*MZ__exp__2)/(Gf*sqrt__2))) 

###################################
## INFORMATION FOR SMINPUTS
###################################
Block sminputs 
    1 1.279000e+02 # aEWM1 
    2 1.166370e-05 # Gf 
    3 1.184000e-01 # aS 

###################################
## INFORMATION FOR YUKAWA
###################################
Block yukawa 
    1 5.040000e-03 # ymdo 
    2 2.550000e-03 # ymup 
    3 1.010000e-01 # yms 
    4 1.270000e+00 # ymc 
    5 4.700000e+00 # ymb 
    6 1.720000e+02 # ymt 
   11 5.110000e-04 # yme 
   13 1.056600e-01 # ymm 
   15 1.777000e+00 # ymtau 

###################################
## INFORMATION FOR DECAY
###################################
DECAY   6 1.508336e+00 # WT 
DECAY  23 2.495200e+00 # WZ 
DECAY  24 2.085000e+00 # WW 
DECAY  25 5.753088e-03 # WH 
## Dependent parameters, given by model restrictions.
## Those values should be edited following the 
## analytical expression. MG5 ignores those values 
## but they are important for interfacing the output of MG5
## to external program such as Pythia.
DECAY  1 0.000000 # d : 0.0 
DECAY  2 0.000000 # u : 0.0 
DECAY  3 0.000000 # s : 0.0 
DECAY  4 0.000000 # c : 0.0 
DECAY  5 0.000000 # b : 0.0 
DECAY  11 0.000000 # e- : 0.0 
DECAY  12 0.000000 # ve : 0.0 
DECAY  13 0.000000 # mu- : 0.0 
DECAY  14 0.000000 # vm : 0.0 
DECAY  15 0.000000 # ta- : 0.0 
DECAY  16 0.000000 # vt : 0.0 
DECAY  21 0.000000 # g : 0.0 
DECAY  22 0.000000 # a : 0.0 
DECAY  10030 0.308725 # zph : (gz__exp__2*MZph*(5 + cmath.sqrt(1 - (4*MT__exp__2)/MZph__exp__2)))/(144.*cmath.pi) 
DECAY  10031 0.132629 # zpl : (5*gz__exp__2*MZpl)/(144.*cmath.pi) 
#===========================================================
# QUANTUM NUMBERS OF NEW STATE(S) (NON SM PDG CODE)
#===========================================================

Block QNUMBERS 10030  # zph 
        1 0  # 3 times electric charge
        2 3  # number of spin states (2S+1)
        3 1  # colour rep (1: singlet, 3: triplet, 8: octet)
        4 0  # Particle/Antiparticle distinction (0=own anti)
Block QNUMBERS 10031  # zpl 
        1 0  # 3 times electric charge
        2 3  # number of spin states (2S+1)
        3 1  # colour rep (1: singlet, 3: triplet, 8: octet)
        4 0  # Particle/Antiparticle distinction (0=own anti)
</slha>
## END BANNER##
<MGGenerationInfo>
#  Number of Events        :         3945
#  Integrated weight (pb)  :  0.14884E-03
#  Max wgt                 :  0.66663E-07
#  Average wgt             :  0.37729E-07
</MGGenerationInfo>
</header>
<init>
     2212     2212  0.40000000000E+04  0.40000000000E+04 0 0  247000  247000 2   1
  0.14895556454E-03  0.69392837205E-06  0.66663100000E-07   0
</init>
<event>
 5   0  0.5805753E-07  0.3834803E+04  0.7818609E-02  0.8038727E-01
        2   -1    0    0  501    0  0.00000000000E+00  0.00000000000E+00  0.26942073010E+04  0.26942073010E+04  0.25500000920E-02 0.  1.
       -2   -1    0    0    0  501  0.00000000000E+00  0.00000000000E+00 -0.13645677241E+04  0.13645677241E+04  0.25500000920E-02 0. -1.
    10030    2    1    2    0    0  0.00000000000E+00  0.00000000000E+00  0.13296395769E+04  0.40587750251E+04  0.38348029023E+04 0.  0.
        1    1    3    3  502    0 -0.16577233358E+04  0.12405424151E+03 -0.34649292863E+03  0.16980852342E+04  0.50400001928E-02 0. -1.
       -1    1    3    3    0  502  0.16577233358E+04 -0.12405424151E+03  0.16761325056E+04  0.23606897909E+04  0.50400001928E-02 0.  1.
</event>
<event>
 5   0  0.6095665E-07  0.3704111E+04  0.7818609E-02  0.8067051E-01
        2   -1    0    0  501    0  0.00000000000E+00  0.00000000000E+00  0.31429783825E+04  0.31429783825E+04  0.25500000920E-02 0.  1.
       -2   -1    0    0    0  501  0.00000000000E+00  0.00000000000E+00 -0.10913563931E+04  0.10913563931E+04  0.25500000920E-02 0. -1.
    10030    2    1    2    0    0  0.00000000000E+00  0.00000000000E+00  0.20516219893E+04  0.42343347756E+04  0.37041109871E+04 0.  0.
        4    1    3    3  502    0  0.16582933991E+04 -0.40787308075E+01  0.19685791959E+04  0.25739579051E+04  0.12699999809E+01 0.  1.
       -4    1    3    3    0  502 -0.16582933991E+04  0.40787308075E+01  0.83042793403E+02  0.16603768705E+04  0.12699999809E+01 0. -1.
</event>
<event>
 5   0  0.5872444E-07  0.3871280E+04  0.7818609E-02  0.8031029E-01
        2   -1    0    0  501    0  0.00000000000E+00  0.00000000000E+00  0.23625324565E+04  0.23625324565E+04  0.25500000920E-02 0.  1.
       -2   -1    0    0    0  501  0.00000000000E+00  0.00000000000E+00 -0.15858840715E+04  0.15858840715E+04  0.25500000920E-02 0. -1.
    10030    2    1    2    0    0  0.00000000000E+00  0.00000000000E+00  0.77664838500E+03  0.39484165279E+04  0.38712801970E+04 0.  0.
        3    1    3    3  502    0  0.95352272668E+03 -0.12673120484E+04 -0.74347910854E+03  0.17515840297E+04  0.10100000352E+00 0. -1.
       -3    1    3    3    0  502 -0.95352272668E+03  0.12673120484E+04  0.15201274935E+04  0.21968324982E+04  0.10100000352E+00 0.  1.
</event>
<event>
 5   0  0.5805753E-07  0.3932964E+04  0.7818609E-02  0.8018208E-01
        2   -1    0    0  501    0  0.00000000000E+00  0.00000000000E+00  0.25024444630E+04  0.25024444630E+04  0.25500000920E-02 0. -1.
       -2   -1    0    0    0  501  0.00000000000E+00  0.00000000000E+00 -0.15453093131E+04  0.15453093131E+04  0.25500000920E-02 0.  1.
    10030    2    1    2    0    0  0.00000000000E+00  0.00000000000E+00  0.95713514995E+03  0.40477537761E+04  0.39329636328E+04 0.  0.
        1    1    3    3  502    0 -0.10163354422E+04 -0.10582588638E+04  0.18260560237E+04  0.23425051025E+04  0.50400001928E-02 0. -1.
       -1    1    3    3    0  502  0.10163354422E+04  0.10582588638E+04 -0.86892087370E+03  0.17052486736E+04  0.50400001928E-02 0.  1.
</event>
<event>
 5   0  0.5805753E-07  0.3823716E+04  0.7818609E-02  0.8041085E-01
       -2   -1    0    0    0  501  0.00000000000E+00  0.00000000000E+00  0.20135619884E+04  0.20135619884E+04  0.25500000920E-02 0. -1.
        2   -1    0    0  501    0  0.00000000000E+00  0.00000000000E+00 -0.18152911301E+04  0.18152911301E+04  0.25500000920E-02 0.  1.
    10030    2    1    2    0    0  0.00000000000E+00  0.00000000000E+00  0.19827085831E+03  0.38288531184E+04  0.38237161073E+04 0.  0.
        1    1    3    3  502    0 -0.64614272416E+03 -0.17924525864E+04 -0.58602461425E+02  0.19062583621E+04  0.50400001928E-02 0. -1.
       -1    1    3    3    0  502  0.64614272416E+03  0.17924525864E+04  0.25687331974E+03  0.19225947563E+04  0.50400001928E-02 0.  1.
</event>
<event>
 5   0  0.2666813E-07  0.3767003E+04  0.7818609E-02  0.8053273E-01
        1   -1    0    0  501    0  0.00000000000E+00  0.00000000000E+00  0.18570481129E+04  0.18570481129E+04  0.50400001928E-02 0.  1.
       -1   -1    0    0    0  501  0.00000000000E+00  0.00000000000E+00 -0.19103320707E+04  0.19103320707E+04  0.50400001928E-02 0. -1.
    10030    2    1    2    0    0  0.00000000000E+00  0.00000000000E+00 -0.53283957802E+02  0.37673801837E+04  0.37670033539E+04 0.  0.
        1    1    3    3  502    0 -0.35016879262E+03  0.18505366053E+04 -0.48531968779E+01  0.18833819221E+04  0.50400001928E-02 0.  1.
       -1    1    3    3    0  502  0.35016879262E+03 -0.18505366053E+04 -0.48430760925E+02  0.18839982616E+04  0.50400001928E-02 0. -1.
</event>
<event>
 5   0  0.1876027E-07  0.3937870E+04  0.7818609E-02  0.8017199E-01
        1   -1    0    0  501    0  0.00000000000E+00  0.00000000000E+00  0.18558420346E+04  0.18558420346E+04  0.50400001928E-02 0.  1.
       -1   -1    0    0    0  501  0.00000000000E+00  0.00000000000E+00 -0.20889196033E+04  0.20889196034E+04  0.50400001928E-02 0. -1.
    10030    2    1    2    0    0  0.00000000000E+00  0.00000000000E+00 -0.23307756873E+03  0.39447616380E+04  0.39378698845E+04 0.  0.
        3    1    3    3  502    0 -0.26382890523E+03  0.17326484161E+04 -0.10153428977E+04  0.20254869625E+04  0.10100000352E+00 0.  1.
       -3    1    3    3    0  502  0.26382890523E+03 -0.17326484161E+04  0.78226532901E+03  0.19192746755E+04  0.10100000352E+00 0. -1.
</event>
<event>
 5   0  0.6095665E-07  0.3886075E+04  0.7818609E-02  0.8027932E-01
       -2   -1    0    0    0  501  0.00000000000E+00  0.00000000000E+00  0.21426255032E+04  0.21426255032E+04  0.25500000920E-02 0. -1.
        2   -1    0    0  501    0  0.00000000000E+00  0.00000000000E+00 -0.17620412656E+04  0.17620412657E+04  0.25500000920E-02 0.  1.
    10030    2    1    2    0    0  0.00000000000E+00  0.00000000000E+00  0.38058423754E+03  0.39046667688E+04  0.38860749110E+04 0.  0.
        4    1    3    3  502    0  0.12247463716E+04  0.14818494828E+04  0.47361877973E+03  0.19799489705E+04  0.12699999809E+01 0. -1.
       -4    1    3    3    0  502 -0.12247463716E+04 -0.14818494828E+04 -0.93034542189E+02  0.19247177983E+04  0.12699999809E+01 0.  1.
</event>
<event>
 5   0  0.5735179E-07  0.3888975E+04  0.7818609E-02  0.8027326E-01
       -2   -1    0    0    0  501  0.00000000000E+00  0.00000000000E+00  0.23202533583E+04  0.23202533583E+04  0.25500000920E-02 0. -1.
        2   -1    0    0  501    0  0.00000000000E+00  0.00000000000E+00 -0.16295769010E+04  0.16295769010E+04  0.25500000920E-02 0.  1.
    10030    2    1    2    0    0  0.00000000000E+00  0.00000000000E+00  0.69067645721E+03  0.39498302593E+04  0.38889748146E+04 0.  0.
        5    1    3    3  502    0  0.10355121501E+04  0.12354521216E+03 -0.13215197405E+04  0.16834444888E+04  0.46999998093E+01 0.  1.
       -5    1    3    3    0  502 -0.10355121501E+04 -0.12354521216E+03  0.20121961977E+04  0.22663857705E+04  0.46999998093E+01 0. -1.
</event>
<event>
 5   0  0.5805753E-07  0.2710539E+04  0.7818609E-02  0.8331594E-01
       -2   -1    0    0    0  501  0.00000000000E+00  0.00000000000E+00  0.16179143046E+04  0.16179143046E+04  0.25500000920E-02 0.  1.
        2   -1    0    0  501    0  0.00000000000E+00  0.00000000000E+00 -0.11352609114E+04  0.11352609114E+04  0.25500000920E-02 0. -1.
    10030    2    1    2    0    0  0.00000000000E+00  0.00000000000E+00  0.48265339326E+03  0.27531752160E+04  0.27105385945E+04 0.  0.
        1    1    3    3  502    0  0.17492278898E+03 -0.12194034635E+04 -0.33254910756E+03  0.12759826401E+04  0.50400001928E-02 0. -1.
       -1    1    3    3    0  502 -0.17492278898E+03  0.12194034635E+04  0.81520250082E+03  0.14771925759E+04  0.50400001928E-02 0.  1.
</event>
<event>
 5   0  0.5735179E-07  0.2756816E+04  0.7818609E-02  0.8316802E-01
       -2   -1    0    0    0  501  0.00000000000E+00  0.00000000000E+00  0.92931350449E+03  0.92931350450E+03  0.25500000920E-02 0.  1.
        2   -1    0    0  501    0  0.00000000000E+00  0.00000000000E+00 -0.20445289757E+04  0.20445289757E+04  0.25500000920E-02 0. -1.
    10030    2    1    2    0    0  0.00000000000E+00  0.00000000000E+00 -0.11152154712E+04  0.29738424802E+04  0.27568158353E+04 0.  0.
        5    1    3    3  502    0  0.54925276498E+03  0.10615128679E+04  0.18310565011E+03  0.12091476078E+04  0.46999998093E+01 0.  1.
       -5    1    3    3    0  502 -0.54925276498E+03 -0.10615128679E+04 -0.12983211213E+04  0.17646948724E+04  0.46999998093E+01 0. -1.
</event>
<event>
 5   0  0.5735179E-07  0.3940973E+04  0.7818609E-02  0.8016561E-01
        2   -1    0    0  501    0  0.00000000000E+00  0.00000000000E+00  0.17801609430E+04  0.17801609430E+04  0.25500000920E-02 0.  1.
       -2   -1    0    0    0  501  0.00000000000E+00  0.00000000000E+00 -0.21811601516E+04  0.21811601516E+04  0.25500000920E-02 0. -1.
    10030    2    1    2    0    0  0.00000000000E+00  0.00000000000E+00 -0.40099920869E+03  0.39613210946E+04  0.39409725258E+04 0.  0.
        5    1    3    3  502    0 -0.25485414745E+03 -0.79305578069E+03  0.15944716272E+04  0.17989580228E+04  0.46999998093E+01 0.  1.
       -5    1    3    3    0  502  0.25485414745E+03  0.79305578069E+03 -0.19954708359E+04  0.21623630719E+04  0.46999998093E+01 0. -1.
</event>
<event>
 5   0  0.1860500E-07  0.3782088E+04  0.7818609E-02  0.8050010E-01
       -1   -1    0    0    0  501  0.00000000000E+00  0.00000000000E+00  0.12975163796E+04  0.12975163796E+04  0.50400001928E-02 0. -1.
        1   -1    0    0  501    0  0.00000000000E+00  0.00000000000E+00 -0.27560709009E+04  0.27560709009E+04  0.50400001928E-02 0.  1.
    10030    2    1    2    0    0  0.00000000000E+00  0.00000000000E+00 -0.14585545213E+04  0.40535872806E+04  0.37820878558E+04 0.  0.
        5    1    3    3  502    0  0.55094297209E+03  0.90826651927E+03 -0.24060442284E+04  0.26301249300E+04  0.46999998093E+01 0.  1.
       -5    1    3    3    0  502 -0.55094297209E+03 -0.90826651927E+03  0.94748970703E+03  0.14234623506E+04  0.46999998093E+01 0. -1.
</event>
<event>
 5   0  0.2666813E-07  0.3858261E+04  0.7818609E-02  0.8033767E-01
       -1   -1    0    0    0  501  0.00000000000E+00  0.00000000000E+00  0.15024409906E+04  0.15024409906E+04  0.50400001928E-02 0.  1.
        1   -1    0    0  501    0  0.00000000000E+00  0.00000000000E+00 -0.24769984093E+04  0.24769984093E+04  0.50400001928E-02 0. -1.
    10030    2    1    2    0    0  0.00000000000E+00  0.00000000000E+00 -0.97455741872E+03  0.39794394000E+04  0.38582607190E+04 0.  0.
        1    1    3    3  502    0 -0.50119222054E+03 -0.22640946777E+03  0.14198742690E+04  0.15226614295E+04  0.50400001928E-02 0.  1.
       -1    1    3    3    0  502  0.50119222054E+03  0.22640946777E+03 -0.23944316877E+04  0.24567779705E+04  0.50400001928E-02 0. -1.
</event>
<event>
 5   0  0.1876027E-07  0.2548483E+04  0.7818609E-02  0.8385914E-01
        1   -1    0    0  501    0  0.00000000000E+00  0.00000000000E+00  0.15731029647E+04  0.15731029647E+04  0.50400001928E-02 0.  1.
       -1   -1    0    0    0  501  0.00000000000E+00  0.00000000000E+00 -0.10321587107E+04  0.10321587107E+04  0.50400001928E-02 0. -1.
    10030    2    1    2    0    0  0.00000000000E+00  0.00000000000E+00  0.54094425403E+03  0.26052616754E+04  0.25484834140E+04 0.  0.
        3    1    3    3  502    0 -0.13272514564E+03 -0.11531594156E+04 -0.26688058355E+03  0.11910574538E+04  0.10100000352E+00 0. -1.
       -3    1    3    3    0  502  0.13272514564E+03  0.11531594156E+04  0.80782483758E+03  0.14142042217E+04  0.10100000352E+00 0.  1.
</event>
<event>
 5   0  0.1876027E-07  0.3930049E+04  0.7818609E-02  0.8018808E-01
        1   -1    0    0  501    0  0.00000000000E+00  0.00000000000E+00  0.18942557502E+04  0.18942557502E+04  0.50400001928E-02 0. -1.
       -1   -1    0    0    0  501  0.00000000000E+00  0.00000000000E+00 -0.20384376624E+04  0.20384376625E+04  0.50400001928E-02 0.  1.
    10030    2    1    2    0    0  0.00000000000E+00  0.00000000000E+00 -0.14418191221E+03  0.39326934127E+04  0.39300494977E+04 0.  0.
        3    1    3    3  502    0  0.69815989158E+03 -0.14893028074E+04 -0.11479291879E+04  0.20057894997E+04  0.10100000352E+00 0.  1.
       -3    1    3    3    0  502 -0.69815989158E+03  0.14893028074E+04  0.10037472757E+04  0.19269039130E+04  0.10100000352E+00 0. -1.
</event>
<event>
 5   0  0.6095665E-07  0.3903287E+04  0.7818609E-02  0.8024346E-01
       -2   -1    0    0    0  501  0.00000000000E+00  0.00000000000E+00  0.12624245958E+04  0.12624245958E+04  0.25500000920E-02 0.  1.
        2   -1    0    0  501    0  0.00000000000E+00  0.00000000000E+00 -0.30171403286E+04  0.30171403286E+04  0.25500000920E-02 0. -1.
    10030    2    1    2    0    0  0.00000000000E+00  0.00000000000E+00 -0.17547157327E+04  0.42795649244E+04  0.39032869020E+04 0.  0.
        4    1    3    3  502    0  0.84396534008E+03  0.14545216226E+04  0.20857662382E+03  0.16945254400E+04  0.12699999809E+01 0.  1.
       -4    1    3    3    0  502 -0.84396534008E+03 -0.14545216226E+04 -0.19632923566E+04  0.25850394844E+04  0.12699999809E+01 0. -1.
</event>
<event>
 5   0  0.1860500E-07  0.4115353E+04  0.7818609E-02  0.7981672E-01
       -1   -1    0    0    0  501  0.00000000000E+00  0.00000000000E+00  0.27135604717E+04  0.27135604717E+04  0.50400001928E-02 0.  1.
        1   -1    0    0  501    0  0.00000000000E+00  0.00000000000E+00 -0.15603240040E+04  0.15603240040E+04  0.50400001928E-02 0. -1.
    10030    2    1    2    0    0  0.00000000000E+00  0.00000000000E+00  0.11532364677E+04  0.42738844757E+04  0.41153534673E+04 0.  0.
        4    1    3    3  502    0 -0.19999452214E+04 -0.35980650682E+03  0.91280159270E+03  0.22276557121E+04  0.12699999809E+01 0.  1.
       -4    1    3    3    0  502  0.19999452214E+04  0.35980650682E+03  0.24043487498E+03  0.20462287636E+04  0.12699999809E+01 0. -1.
</event>
<event>
 5   0  0.2666813E-07  0.4133602E+04  0.7818609E-02  0.7978124E-01
        1   -1    0    0  501    0  0.00000000000E+00  0.00000000000E+00  0.24095815429E+04  0.24095815429E+04  0.50400001928E-02 0. -1.
       -1   -1    0    0    0  501  0.00000000000E+00  0.00000000000E+00 -0.17727833102E+04  0.17727833102E+04  0.50400001928E-02 0.  1.
    10030    2    1    2    0    0  0.00000000000E+00  0.00000000000E+00  0.63679823267E+03  0.41823648531E+04  0.41336017921E+04 0.  0.
        1    1    3    3  502    0  0.14778825602E+04 -0.65405397660E+03  0.16219069155E+04  0.22896518313E+04  0.50400001928E-02 0. -1.
       -1    1    3    3    0  502 -0.14778825602E+04  0.65405397660E+03 -0.98510868282E+03  0.18927130218E+04  0.50400001928E-02 0.  1.
</event>
<event>
 5   0  0.3959190E-07  0.3624999E+04  0.7818609E-02  0.8084789E-01
        2   -1    0    0  501    0  0.00000000000E+00  0.00000000000E+00  0.28017318444E+04  0.28017318444E+04  0.25500000920E-02 0. -1.
       -2   -1    0    0    0  501  0.00000000000E+00  0.00000000000E+00 -0.11725439804E+04  0.11725439804E+04  0.25500000920E-02 0.  1.
    10030    2    1    2    0    0  0.00000000000E+00  0.00000000000E+00  0.16291878640E+04  0.39742758248E+04  0.36249986532E+04 0.  0.
        2    1    3    3  502    0 -0.95555502501E+03  0.12187207423E+04  0.18470226997E+04  0.24103648078E+04  0.25500000920E-02 0. -1.
       -2    1    3    3    0  502  0.95555502501E+03 -0.12187207423E+04 -0.21783483573E+03  0.15639110170E+04  0.25500000920E-02 0.  1.
</event>
<event>
 5   0  0.1876027E-07  0.3938075E+04  0.7818609E-02  0.8017157E-01
        1   -1    0    0  501    0  0.00000000000E+00  0.00000000000E+00  0.23822387123E+04  0.23822387123E+04  0.50400001928E-02 0.  1.
       -1   -1    0    0    0  501  0.00000000000E+00  0.00000000000E+00 -0.16275061782E+04  0.16275061782E+04  0.50400001928E-02 0. -1.
    10030    2    1    2    0    0  0.00000000000E+00  0.00000000000E+00  0.75473253406E+03  0.40097448905E+04  0.39380747693E+04 0.  0.
        3    1    3    3  502    0 -0.51810661801E+03  0.42550961671E+03 -0.15077095505E+04  0.16500548477E+04  0.10100000352E+00 0. -1.
       -3    1    3    3    0  502  0.51810661801E+03 -0.42550961671E+03  0.22624420846E+04  0.23596900428E+04  0.10100000352E+00 0.  1.
</event>
<event>
 5   0  0.5805753E-07  0.3869216E+04  0.7818609E-02  0.8031462E-01
        2   -1    0    0  501    0  0.00000000000E+00  0.00000000000E+00  0.26445445816E+04  0.26445445816E+04  0.25500000920E-02 0.  1.
       -2   -1    0    0    0  501  0.00000000000E+00  0.00000000000E+00 -0.14152563404E+04  0.14152563404E+04  0.25500000920E-02 0. -1.
    10030    2    1    2    0    0  0.00000000000E+00  0.00000000000E+00  0.12292882412E+04  0.40598009220E+04  0.38692161927E+04 0.  0.
        1    1    3    3  502    0  0.61672074805E+03  0.14988720605E+04 -0.49367421444E+03  0.16943069866E+04  0.50400001928E-02 0. -1.
       -1    1    3    3    0  502 -0.61672074805E+03 -0.14988720605E+04  0.17229624556E+04  0.23654939354E+04  0.50400001928E-02 0.  1.
</event>
<event>
 5   0  0.1860500E-07  0.3186917E+04  0.7818609E-02  0.8192281E-01
        1   -1    0    0  501    0  0.00000000000E+00  0.00000000000E+00  0.19757205295E+04  0.19757205295E+04  0.50400001928E-02 0. -1.
       -1   -1    0    0    0  501  0.00000000000E+00  0.00000000000E+00 -0.12851563515E+04  0.12851563515E+04  0.50400001928E-02 0.  1.
    10030    2    1    2    0    0  0.00000000000E+00  0.00000000000E+00  0.69056417796E+03  0.32608768810E+04  0.31869168720E+04 0.  0.
        4    1    3    3  502    0 -0.91347079993E+03 -0.21271978817E+03  0.16633660574E+04  0.19095724297E+04  0.12699999809E+01 0. -1.
       -4    1    3    3    0  502  0.91347079993E+03  0.21271978817E+03 -0.97280187940E+03  0.13513044513E+04  0.12699999809E+01 0.  1.
</event>
<event>
 5   0  0.3959190E-07  0.3909548E+04  0.7818609E-02  0.8023046E-01
       -2   -1    0    0    0  501  0.00000000000E+00  0.00000000000E+00  0.16942771308E+04  0.16942771308E+04  0.25500000920E-02 0. -1.
        2   -1    0    0  501    0  0.00000000000E+00  0.00000000000E+00 -0.22553227425E+04  0.22553227425E+04  0.25500000920E-02 0.  1.
    10030    2    1    2    0    0  0.00000000000E+00  0.00000000000E+00 -0.56104561172E+03  0.39495998734E+04  0.39095481812E+04 0.  0.
        2    1    3    3  502    0  0.10874083432E+04 -0.13893859412E+04 -0.11307452395E+04  0.20955750989E+04  0.25500000920E-02 0.  1.
       -2    1    3    3    0  502 -0.10874083432E+04  0.13893859412E+04  0.56969962782E+03  0.18540247745E+04  0.25500000920E-02 0. -1.
</event>
<event>
 5   0  0.1943459E-07  0.3879912E+04  0.7818609E-02  0.8029220E-01
       -1   -1    0    0    0  501  0.00000000000E+00  0.00000000000E+00  0.26707715658E+04  0.26707715658E+04  0.50400001928E-02 0.  1.
        1   -1    0    0  501    0  0.00000000000E+00  0.00000000000E+00 -0.14091166250E+04  0.14091166250E+04  0.50400001928E-02 0. -1.
    10030    2    1    2    0    0  0.00000000000E+00  0.00000000000E+00  0.12616549408E+04  0.40798881908E+04  0.38799116562E+04 0.  0.
        2    1    3    3  502    0 -0.11949983602E+04  0.89525811385E+03 -0.67152291307E+03  0.16372083539E+04  0.25500000920E-02 0. -1.
       -2    1    3    3    0  502  0.11949983602E+04 -0.89525811385E+03  0.19331778539E+04  0.24426798370E+04  0.25500000920E-02 0.  1.
</event>
<event>
 5   0  0.5805753E-07  0.2550638E+04  0.7818609E-02  0.8385164E-01
       -2   -1    0    0    0  501  0.00000000000E+00  0.00000000000E+00  0.10844075913E+04  0.10844075913E+04  0.25500000920E-02 0. -1.
        2   -1    0    0  501    0  0.00000000000E+00  0.00000000000E+00 -0.14998408399E+04  0.14998408399E+04  0.25500000920E-02 0.  1.
    10030    2    1    2    0    0  0.00000000000E+00  0.00000000000E+00 -0.41543324869E+03  0.25842484312E+04  0.25506381888E+04 0.  0.
        1    1    3    3  502    0  0.32261266517E+03  0.13205526369E+03  0.10352008489E+04  0.10923178667E+04  0.50400001928E-02 0. -1.
       -1    1    3    3    0  502 -0.32261266517E+03 -0.13205526369E+03 -0.14506340975E+04  0.14919305645E+04  0.50400001928E-02 0.  1.
</event>
<event>
 5   0  0.5872444E-07  0.4097572E+04  0.7818609E-02  0.7985147E-01
       -2   -1    0    0    0  501  0.00000000000E+00  0.00000000000E+00  0.18761183300E+04  0.18761183300E+04  0.25500000920E-02 0.  1.
        2   -1    0    0  501    0  0.00000000000E+00  0.00000000000E+00 -0.22373447877E+04  0.22373447877E+04  0.25500000920E-02 0. -1.
    10030    2    1    2    0    0  0.00000000000E+00  0.00000000000E+00 -0.36122645768E+03  0.41134631177E+04  0.40975717525E+04 0.  0.
        3    1    3    3  502    0 -0.19078722846E+04  0.73661392123E+03 -0.57881842936E+02  0.20459538218E+04  0.10100000352E+00 0. -1.
       -3    1    3    3    0  502  0.19078722846E+04 -0.73661392123E+03 -0.30334461475E+03  0.20675092959E+04  0.10100000352E+00 0.  1.
</event>
<event>
 5   0  0.1943459E-07  0.3958361E+04  0.7818609E-02  0.8013000E-01
       -1   -1    0    0    0  501  0.00000000000E+00  0.00000000000E+00  0.20408171775E+04  0.20408171775E+04  0.50400001928E-02 0. -1.
        1   -1    0    0  501    0  0.00000000000E+00  0.00000000000E+00 -0.19194053034E+04  0.19194053034E+04  0.50400001928E-02 0.  1.
    10030    2    1    2    0    0  0.00000000000E+00  0.00000000000E+00  0.12141187414E+03  0.39602224809E+04  0.39583609304E+04 0.  0.
        2    1    3    3  502    0 -0.12168286183E+04 -0.13390306866E+04 -0.74184351692E+03  0.19555068063E+04  0.25500000920E-02 0.  1.
       -2    1    3    3    0  502  0.12168286183E+04  0.13390306866E+04  0.86325539106E+03  0.20047156746E+04  0.25500000920E-02 0. -1.
</event>
<event>
 5   0  0.5805753E-07  0.2755239E+04  0.7818609E-02  0.8317301E-01
       -2   -1    0    0    0  501  0.00000000000E+00  0.00000000000E+00  0.11312388798E+04  0.11312388798E+04  0.25500000920E-02 0.  1.
        2   -1    0    0  501    0  0.00000000000E+00  0.00000000000E+00 -0.16776611650E+04  0.16776611650E+04  0.25500000920E-02 0. -1.
    10030    2    1    2    0    0  0.00000000000E+00  0.00000000000E+00 -0.54642228527E+03  0.28089000448E+04  0.27552390364E+04 0.  0.
        1    1    3    3  502    0 -0.10947098878E+03 -0.12003233595E+03  0.11214394187E+04  0.11331451932E+04  0.50400001928E-02 0.  1.
       -1    1    3    3    0  502  0.10947098878E+03  0.12003233595E+03 -0.16678617040E+04  0.16757548516E+04  0.50400001928E-02 0. -1.
</event>
<event>
 5   0  0.5805753E-07  0.3475637E+04  0.7818609E-02  0.8119588E-01
       -2   -1    0    0    0  501  0.00000000000E+00  0.00000000000E+00  0.18802293262E+04  0.18802293262E+04  0.25500000920E-02 0.  1.
        2   -1    0    0  501    0  0.00000000000E+00  0.00000000000E+00 -0.16061941789E+04  0.16061941789E+04  0.25500000920E-02 0. -1.
    10030    2    1    2    0    0  0.00000000000E+00  0.00000000000E+00  0.27403514732E+03  0.34864235051E+04  0.34756371495E+04 0.  0.
        1    1    3    3  502    0 -0.43051064454E+03 -0.15411122325E+03 -0.15447665179E+04  0.16110224328E+04  0.50400001928E-02 0. -1.
       -1    1    3    3    0  502  0.43051064454E+03  0.15411122325E+03  0.18188016652E+04  0.18754010722E+04  0.50400001928E-02 0.  1.
</event>
<event>
 5   0  0.1860500E-07  0.3936079E+04  0.7818609E-02  0.8017567E-01
       -1   -1    0    0    0  501  0.00000000000E+00  0.00000000000E+00  0.15981578365E+04  0.15981578365E+04  0.50400001928E-02 0.  1.
        1   -1    0    0  501    0  0.00000000000E+00  0.00000000000E+00 -0.24235277197E+04  0.24235277197E+04  0.50400001928E-02 0. -1.
    10030    2    1    2    0    0  0.00000000000E+00  0.00000000000E+00 -0.82536988320E+03  0.40216855562E+04  0.39360791746E+04 0.  0.
        5    1    3    3  502    0 -0.17334844101E+04 -0.86379442152E+03 -0.55732047093E+02  0.19375853927E+04  0.46999998093E+01 0. -1.
       -5    1    3    3    0  502  0.17334844101E+04  0.86379442152E+03 -0.76963783611E+03  0.20841001635E+04  0.46999998093E+01 0.  1.
</event>
<event>
 5   0  0.5872444E-07  0.3871505E+04  0.7818609E-02  0.8030982E-01
       -2   -1    0    0    0  501  0.00000000000E+00  0.00000000000E+00  0.13518275623E+04  0.13518275623E+04  0.25500000920E-02 0.  1.
        2   -1    0    0  501    0  0.00000000000E+00  0.00000000000E+00 -0.27719057936E+04  0.27719057937E+04  0.25500000920E-02 0. -1.
    10030    2    1    2    0    0  0.00000000000E+00  0.00000000000E+00 -0.14200782313E+04  0.41237333560E+04  0.38715054705E+04 0.  0.
        3    1    3    3  502    0 -0.58703257189E+03 -0.40632256619E+03 -0.26265492412E+04  0.27218497745E+04  0.10100000352E+00 0. -1.
       -3    1    3    3    0  502  0.58703257189E+03  0.40632256619E+03  0.12064710099E+04  0.14018835815E+04  0.10100000352E+00 0.  1.
</event>
<event>
 5   0  0.1860500E-07  0.3161472E+04  0.7818609E-02  0.8199067E-01
       -1   -1    0    0    0  501  0.00000000000E+00  0.00000000000E+00  0.27700208569E+04  0.27700208569E+04  0.50400001928E-02 0.  1.
        1   -1    0    0  501    0  0.00000000000E+00  0.00000000000E+00 -0.90206065038E+03  0.90206065039E+03  0.50400001928E-02 0. -1.
    10030    2    1    2    0    0  0.00000000000E+00  0.00000000000E+00  0.18679602065E+04  0.36720815073E+04  0.31614723252E+04 0.  0.
        4    1    3    3  502    0  0.12697016191E+04 -0.13877363837E+03 -0.14773733258E+03  0.12857792410E+04  0.12699999809E+01 0. -1.
       -4    1    3    3    0  502 -0.12697016191E+04  0.13877363837E+03  0.20156975391E+04  0.23863022663E+04  0.12699999809E+01 0.  1.
</event>
<event>
 5   0  0.1860500E-07  0.3888224E+04  0.7818609E-02  0.8027483E-01
        1   -1    0    0  501    0  0.00000000000E+00  0.00000000000E+00  0.31564839349E+04  0.31564839349E+04  0.50400001928E-02 0. -1.
       -1   -1    0    0    0  501  0.00000000000E+00  0.00000000000E+00 -0.11973994811E+04  0.11973994811E+04  0.50400001928E-02 0.  1.
    10030    2    1    2    0    0  0.00000000000E+00  0.00000000000E+00  0.19590844538E+04  0.43538834161E+04  0.38882243896E+04 0.  0.
        4    1    3    3  502    0  0.92090128896E+02 -0.10912429752E+04  0.27782424640E+04  0.29862894408E+04  0.12699999809E+01 0. -1.
       -4    1    3    3    0  502 -0.92090128896E+02  0.10912429752E+04 -0.81915801015E+03  0.13675939753E+04  0.12699999809E+01 0.  1.
</event>
<event>
 5   0  0.1876027E-07  0.3937139E+04  0.7818609E-02  0.8017349E-01
        1   -1    0    0  501    0  0.00000000000E+00  0.00000000000E+00  0.23377853967E+04  0.23377853967E+04  0.50400001928E-02 0. -1.
       -1   -1    0    0    0  501  0.00000000000E+00  0.00000000000E+00 -0.16576656809E+04  0.16576656809E+04  0.50400001928E-02 0.  1.
    10030    2    1    2    0    0  0.00000000000E+00  0.00000000000E+00  0.68011971578E+03  0.39954510777E+04  0.39371393786E+04 0.  0.
        3    1    3    3  502    0  0.12139066846E+04 -0.13156290425E+04  0.11712247407E+04  0.21392093445E+04  0.10100000352E+00 0. -1.
       -3    1    3    3    0  502 -0.12139066846E+04  0.13156290425E+04 -0.49110502490E+03  0.18562417332E+04  0.10100000352E+00 0.  1.
</event>
<event>
 5   0  0.3959190E-07  0.2433587E+04  0.7818609E-02  0.8427035E-01
        2   -1    0    0  501    0  0.00000000000E+00  0.00000000000E+00  0.13244092493E+04  0.13244092493E+04  0.25500000920E-02 0.  1.
       -2   -1    0    0    0  501  0.00000000000E+00  0.00000000000E+00 -0.11179218008E+04  0.11179218008E+04  0.25500000920E-02 0. -1.
    10030    2    1    2    0    0  0.00000000000E+00  0.00000000000E+00  0.20648744849E+03  0.24423310501E+04  0.24335866312E+04 0.  0.
        2    1    3    3  502    0  0.32122800790E+03  0.40744539110E+03  0.12078287136E+04  0.13145529207E+04  0.25500000920E-02 0.  1.
       -2    1    3    3    0  502 -0.32122800790E+03 -0.40744539110E+03 -0.10013412652E+04  0.11277781294E+04  0.25500000920E-02 0. -1.
</event>
<event>
 5   0  0.3959190E-07  0.3574043E+04  0.7818609E-02  0.8096463E-01
       -2   -1    0    0    0  501  0.00000000000E+00  0.00000000000E+00  0.13483851019E+04  0.13483851019E+04  0.25500000920E-02 0.  1.
        2   -1    0    0  501    0  0.00000000000E+00  0.00000000000E+00 -0.23683484701E+04  0.23683484701E+04  0.25500000920E-02 0. -1.
    10030    2    1    2    0    0  0.00000000000E+00  0.00000000000E+00 -0.10199633682E+04  0.37167335721E+04  0.35740429731E+04 0.  0.
        2    1    3    3  502    0 -0.63446908908E+03 -0.16485433194E+03  0.12188332669E+04  0.13839373210E+04  0.25500000920E-02 0.  1.
       -2    1    3    3    0  502  0.63446908908E+03  0.16485433194E+03 -0.22387966351E+04  0.23327962511E+04  0.25500000920E-02 0. -1.
</event>
<event>
 5   0  0.5735179E-07  0.3930118E+04  0.7818609E-02  0.8018794E-01
        2   -1    0    0  501    0  0.00000000000E+00  0.00000000000E+00  0.14999593978E+04  0.14999593978E+04  0.25500000920E-02 0.  1.
       -2   -1    0    0    0  501  0.00000000000E+00  0.00000000000E+00 -0.25743744059E+04  0.25743744059E+04  0.25500000920E-02 0. -1.
    10030    2    1    2    0    0  0.00000000000E+00  0.00000000000E+00 -0.10744150081E+04  0.40743338038E+04  0.39301181070E+04 0.  0.
        5    1    3    3  502    0  0.13432753450E+04  0.14135733043E+04 -0.78871418729E+03  0.21034900281E+04  0.46999998093E+01 0.  1.
       -5    1    3    3    0  502 -0.13432753450E+04 -0.14135733043E+04 -0.28570082080E+03  0.19708437757E+04  0.46999998093E+01 0. -1.
</event>
<event>
 5   0  0.1876027E-07  0.2729991E+04  0.7818609E-02  0.8325339E-01
       -1   -1    0    0    0  501  0.00000000000E+00  0.00000000000E+00  0.98384519379E+03  0.98384519380E+03  0.50400001928E-02 0. -1.
        1   -1    0    0  501    0  0.00000000000E+00  0.00000000000E+00 -0.18938072839E+04  0.18938072839E+04  0.50400001928E-02 0.  1.
    10030    2    1    2    0    0  0.00000000000E+00  0.00000000000E+00 -0.90996209012E+03  0.28776524777E+04  0.27299913511E+04 0.  0.
        3    1    3    3  502    0  0.86452901368E+03 -0.88752603855E+03 -0.10587633584E+04  0.16297523566E+04  0.10100000352E+00 0. -1.
       -3    1    3    3    0  502 -0.86452901368E+03  0.88752603855E+03  0.14880126826E+03  0.12479001211E+04  0.10100000352E+00 0.  1.
</event>
<event>
 5   0  0.1860500E-07  0.2876864E+04  0.7818609E-02  0.8279794E-01
       -1   -1    0    0    0  501  0.00000000000E+00  0.00000000000E+00  0.16568591802E+04  0.16568591802E+04  0.50400001928E-02 0.  1.
        1   -1    0    0  501    0  0.00000000000E+00  0.00000000000E+00 -0.12488007188E+04  0.12488007188E+04  0.50400001928E-02 0. -1.
    10030    2    1    2    0    0  0.00000000000E+00  0.00000000000E+00  0.40805846135E+03  0.29056598990E+04  0.28768642201E+04 0.  0.
        5    1    3    3  502    0  0.16240496462E+03  0.34438330976E+02 -0.12390842263E+04  0.12501652615E+04  0.46999998093E+01 0. -1.
       -5    1    3    3    0  502 -0.16240496462E+03 -0.34438330976E+02  0.16471426877E+04  0.16554946375E+04  0.46999998093E+01 0.  1.
</event>
<event>
 5   0  0.3959190E-07  0.3741093E+04  0.7818609E-02  0.8058916E-01
       -2   -1    0    0    0  501  0.00000000000E+00  0.00000000000E+00  0.25128511501E+04  0.25128511501E+04  0.25500000920E-02 0. -1.
        2   -1    0    0  501    0  0.00000000000E+00  0.00000000000E+00 -0.13924201000E+04  0.13924201000E+04  0.25500000920E-02 0.  1.
    10030    2    1    2    0    0  0.00000000000E+00  0.00000000000E+00  0.11204310501E+04  0.39052712502E+04  0.37410931289E+04 0.  0.
        2    1    3    3  502    0  0.70307844911E+03  0.16644976456E+04  0.10652582236E+04  0.20975335041E+04  0.25500000920E-02 0. -1.
       -2    1    3    3    0  502 -0.70307844911E+03 -0.16644976456E+04  0.55172826442E+02  0.18077377461E+04  0.25500000920E-02 0.  1.
</event>
<event>
 5   0  0.5872444E-07  0.3920808E+04  0.7818609E-02  0.8020715E-01
        2   -1    0    0  501    0  0.00000000000E+00  0.00000000000E+00  0.15834231296E+04  0.15834231296E+04  0.25500000920E-02 0. -1.
       -2   -1    0    0    0  501  0.00000000000E+00  0.00000000000E+00 -0.24271365771E+04  0.24271365771E+04  0.25500000920E-02 0.  1.
    10030    2    1    2    0    0  0.00000000000E+00  0.00000000000E+00 -0.84371344749E+03  0.40105597068E+04  0.39208081794E+04 0.  0.
        3    1    3    3  502    0 -0.60087916646E+03 -0.46952463477E+03 -0.22692090641E+04  0.23939128936E+04  0.10100000352E+00 0.  1.
       -3    1    3    3    0  502  0.60087916646E+03  0.46952463477E+03  0.14254956166E+04  0.16166468132E+04  0.10100000352E+00 0. -1.
</event>
<event>
 5   0  0.6095665E-07  0.3901560E+04  0.7818609E-02  0.8024705E-01
       -2   -1    0    0    0  501  0.00000000000E+00  0.00000000000E+00  0.15099031595E+04  0.15099031595E+04  0.25500000920E-02 0.  1.
        2   -1    0    0  501    0  0.00000000000E+00  0.00000000000E+00 -0.25203891003E+04  0.25203891003E+04  0.25500000920E-02 0. -1.
    10030    2    1    2    0    0  0.00000000000E+00  0.00000000000E+00 -0.10104859408E+04  0.40302922598E+04  0.39015604395E+04 0.  0.
        4    1    3    3  502    0  0.12410129298E+04 -0.70338597855E+03 -0.18798161491E+04  0.23597828912E+04  0.12699999809E+01 0. -1.
       -4    1    3    3    0  502 -0.12410129298E+04  0.70338597855E+03  0.86933020821E+03  0.16705093686E+04  0.12699999809E+01 0.  1.
</event>
<event>
 5   0  0.3959190E-07  0.3962889E+04  0.7818609E-02  0.8012075E-01
       -2   -1    0    0    0  501  0.00000000000E+00  0.00000000000E+00  0.16982127501E+04  0.16982127501E+04  0.25500000920E-02 0.  1.
        2   -1    0    0  501    0  0.00000000000E+00  0.00000000000E+00 -0.23119137847E+04  0.23119137847E+04  0.25500000920E-02 0. -1.
    10030    2    1    2    0    0  0.00000000000E+00  0.00000000000E+00 -0.61370103462E+03  0.40101265347E+04  0.39628885759E+04 0.  0.
        2    1    3    3  502    0  0.50528375569E+03 -0.80981758570E+03 -0.20639253281E+04  0.22739621712E+04  0.25500000920E-02 0. -1.
       -2    1    3    3    0  502 -0.50528375569E+03  0.80981758570E+03  0.14502242935E+04  0.17361643636E+04  0.25500000920E-02 0.  1.
</event>
<event>
 5   0  0.5805753E-07  0.3680162E+04  0.7818609E-02  0.8072372E-01
        2   -1    0    0  501    0  0.00000000000E+00  0.00000000000E+00  0.21973764879E+04  0.21973764879E+04  0.25500000920E-02 0. -1.
       -2   -1    0    0    0  501  0.00000000000E+00  0.00000000000E+00 -0.15408822940E+04  0.15408822940E+04  0.25500000920E-02 0.  1.
    10030    2    1    2    0    0  0.00000000000E+00  0.00000000000E+00  0.65649419387E+03  0.37382587819E+04  0.36801622375E+04 0.  0.
        1    1    3    3  502    0 -0.55033243605E+03 -0.54064519803E+03 -0.13686743408E+04  0.15711245881E+04  0.50400001928E-02 0.  1.
       -1    1    3    3    0  502  0.55033243605E+03  0.54064519803E+03  0.20251685346E+04  0.21671341938E+04  0.50400001928E-02 0. -1.
</event>
<event>
 5   0  0.1876027E-07  0.2970955E+04  0.7818609E-02  0.8252074E-01
       -1   -1    0    0    0  501  0.00000000000E+00  0.00000000000E+00  0.13221777066E+04  0.13221777066E+04  0.50400001928E-02 0. -1.
        1   -1    0    0  501    0  0.00000000000E+00  0.00000000000E+00 -0.16689463105E+04  0.16689463105E+04  0.50400001928E-02 0.  1.
    10030    2    1    2    0    0  0.00000000000E+00  0.00000000000E+00 -0.34676860386E+03  0.29911240171E+04  0.29709551362E+04 0.  0.
        3    1    3    3  502    0 -0.10972729702E+04  0.98356523468E+03  0.15600026102E+02  0.14736525754E+04  0.10100000352E+00 0. -1.
       -3    1    3    3    0  502  0.10972729702E+04 -0.98356523468E+03 -0.36236862996E+03  0.15174714417E+04  0.10100000352E+00 0.  1.
</event>
<event>
 5   0  0.5735179E-07  0.3784617E+04  0.7818609E-02  0.8049464E-01
        2   -1    0    0  501    0  0.00000000000E+00  0.00000000000E+00  0.12556808542E+04  0.12556808542E+04  0.25500000920E-02 0. -1.
       -2   -1    0    0    0  501  0.00000000000E+00  0.00000000000E+00 -0.28517051344E+04  0.28517051344E+04  0.25500000920E-02 0.  1.
    10030    2    1    2    0    0  0.00000000000E+00  0.00000000000E+00 -0.15960242802E+04  0.41073859886E+04  0.37846170422E+04 0.  0.
        5    1    3    3  502    0 -0.30695930403E+03  0.10167272650E+04 -0.24977391257E+04  0.27141630710E+04  0.46999998093E+01 0.  1.
       -5    1    3    3    0  502  0.30695930403E+03 -0.10167272650E+04  0.90171484551E+03  0.13932229177E+04  0.46999998093E+01 0. -1.
</event>
<event>
 5   0  0.1860500E-07  0.4060224E+04  0.7818609E-02  0.7992506E-01
       -1   -1    0    0    0  501  0.00000000000E+00  0.00000000000E+00  0.26321126268E+04  0.26321126269E+04  0.50400001928E-02 0.  1.
        1   -1    0    0  501    0  0.00000000000E+00  0.00000000000E+00 -0.15657974371E+04  0.15657974371E+04  0.50400001928E-02 0. -1.
    10030    2    1    2    0    0  0.00000000000E+00  0.00000000000E+00  0.10663151897E+04  0.41979100640E+04  0.40602242329E+04 0.  0.
        5    1    3    3  502    0  0.50196247016E+03 -0.48985757312E+03  0.25028613306E+04  0.25992813803E+04  0.46999998093E+01 0.  1.
       -5    1    3    3    0  502 -0.50196247016E+03  0.48985757312E+03 -0.14365461409E+04  0.15986286837E+04  0.46999998093E+01 0. -1.
</event>
<event>
 5   0  0.1876027E-07  0.2552186E+04  0.7818609E-02  0.8384626E-01
        1   -1    0    0  501    0  0.00000000000E+00  0.00000000000E+00  0.12448192624E+04  0.12448192624E+04  0.50400001928E-02 0. -1.
       -1   -1    0    0    0  501  0.00000000000E+00  0.00000000000E+00 -0.13081519458E+04  0.13081519459E+04  0.50400001928E-02 0.  1.
    10030    2    1    2    0    0  0.00000000000E+00  0.00000000000E+00 -0.63332683487E+02  0.25529712082E+04  0.25521855264E+04 0.  0.
        3    1    3    3  502    0 -0.99908466204E+03  0.47441571259E+03 -0.66839375604E+03  0.12922811821E+04  0.10100000352E+00 0. -1.
       -3    1    3    3    0  502  0.99908466204E+03 -0.47441571259E+03  0.60506107256E+03  0.12606900261E+04  0.10100000352E+00 0.  1.
</event>
<event>
 5   0  0.5805753E-07  0.3008076E+04  0.7818609E-02  0.8241428E-01
       -2   -1    0    0    0  501  0.00000000000E+00  0.00000000000E+00  0.95298196240E+03  0.95298196240E+03  0.25500000920E-02 0. -1.
        2   -1    0    0  501    0  0.00000000000E+00  0.00000000000E+00 -0.23737394934E+04  0.23737394934E+04  0.25500000920E-02 0.  1.
    10030    2    1    2    0    0  0.00000000000E+00  0.00000000000E+00 -0.14207575310E+04  0.33267214558E+04  0.30080764091E+04 0.  0.
        1    1    3    3  502    0 -0.94142921493E+03  0.36683267243E+03  0.52176592513E+03  0.11371432878E+04  0.50400001928E-02 0. -1.
       -1    1    3    3    0  502  0.94142921493E+03 -0.36683267243E+03 -0.19425234562E+04  0.21895781681E+04  0.50400001928E-02 0.  1.
</event>
<event>
 5   0  0.2666813E-07  0.3875398E+04  0.7818609E-02  0.8030165E-01
       -1   -1    0    0    0  501  0.00000000000E+00  0.00000000000E+00  0.34539694314E+04  0.34539694314E+04  0.50400001928E-02 0. -1.
        1   -1    0    0  501    0  0.00000000000E+00  0.00000000000E+00 -0.10870617749E+04  0.10870617750E+04  0.50400001928E-02 0.  1.
    10030    2    1    2    0    0  0.00000000000E+00  0.00000000000E+00  0.23669076564E+04  0.45410312063E+04  0.38753983747E+04 0.  0.
        1    1    3    3  502    0  0.31582796030E+02  0.96245108869E+03  0.31537401689E+04  0.32974818611E+04  0.50400001928E-02 0. -1.
       -1    1    3    3    0  502 -0.31582796030E+02 -0.96245108869E+03 -0.78683251254E+03  0.12435493452E+04  0.50400001928E-02 0.  1.
</event>
<event>
 5   0  0.1876027E-07  0.3380886E+04  0.7818609E-02  0.8142613E-01
        1   -1    0    0  501    0  0.00000000000E+00  0.00000000000E+00  0.14714703566E+04  0.14714703566E+04  0.50400001928E-02 0.  1.
       -1   -1    0    0    0  501  0.00000000000E+00  0.00000000000E+00 -0.19420020033E+04  0.19420020033E+04  0.50400001928E-02 0. -1.
    10030    2    1    2    0    0  0.00000000000E+00  0.00000000000E+00 -0.47053164672E+03  0.34134723599E+04  0.33808864993E+04 0.  0.
        3    1    3    3  502    0 -0.16895296588E+03 -0.79681523411E+03  0.12602735212E+04  0.15005828802E+04  0.10100000352E+00 0.  1.
       -3    1    3    3    0  502  0.16895296588E+03  0.79681523411E+03 -0.17308051679E+04  0.19128894797E+04  0.10100000352E+00 0. -1.
</event>
<event>
 5   0  0.1943459E-07  0.3775478E+04  0.7818609E-02  0.8051438E-01
       -1   -1    0    0    0  501  0.00000000000E+00  0.00000000000E+00  0.20327641519E+04  0.20327641519E+04  0.50400001928E-02 0.  1.
        1   -1    0    0  501    0  0.00000000000E+00  0.00000000000E+00 -0.17530607940E+04  0.17530607940E+04  0.50400001928E-02 0. -1.
    10030    2    1    2    0    0  0.00000000000E+00  0.00000000000E+00  0.27970335788E+03  0.37858249460E+04  0.37754783211E+04 0.  0.
        2    1    3    3  502    0  0.88306727526E+03  0.30631195146E+03 -0.15047418534E+04  0.17714070310E+04  0.25500000920E-02 0. -1.
       -2    1    3    3    0  502 -0.88306727526E+03 -0.30631195146E+03  0.17844452112E+04  0.20144179150E+04  0.25500000920E-02 0.  1.
</event>
<event>
 5   0  0.1860500E-07  0.3866173E+04  0.7818609E-02  0.8032102E-01
       -1   -1    0    0    0  501  0.00000000000E+00  0.00000000000E+00  0.16529931212E+04  0.16529931213E+04  0.50400001928E-02 0. -1.
        1   -1    0    0  501    0  0.00000000000E+00  0.00000000000E+00 -0.22606400969E+04  0.22606400969E+04  0.50400001928E-02 0.  1.
    10030    2    1    2    0    0  0.00000000000E+00  0.00000000000E+00 -0.60764697566E+03  0.39136332182E+04  0.38661725413E+04 0.  0.
        5    1    3    3  502    0  0.78592948069E+03  0.17652116197E+04 -0.36057623547E+03  0.19656282768E+04  0.46999998093E+01 0. -1.
       -5    1    3    3    0  502 -0.78592948069E+03 -0.17652116197E+04 -0.24707074019E+03  0.19480049414E+04  0.46999998093E+01 0.  1.
</event>
<event>
 5   0  0.3959190E-07  0.3884215E+04  0.7818609E-02  0.8028320E-01
        2   -1    0    0  501    0  0.00000000000E+00  0.00000000000E+00  0.22792526062E+04  0.22792526062E+04  0.25500000920E-02 0. -1.
       -2   -1    0    0    0  501  0.00000000000E+00  0.00000000000E+00 -0.16548324473E+04  0.16548324473E+04  0.25500000920E-02 0.  1.
    10030    2    1    2    0    0  0.00000000000E+00  0.00000000000E+00  0.62442015891E+03  0.39340850536E+04  0.38842148079E+04 0.  0.
        2    1    3    3  502    0  0.43222218716E+03  0.15997708801E+04  0.13379808488E+04  0.21298534315E+04  0.25500000920E-02 0. -1.
       -2    1    3    3    0  502 -0.43222218716E+03 -0.15997708801E+04 -0.71356068988E+03  0.18042316221E+04  0.25500000920E-02 0.  1.
</event>
<event>
 5   0  0.5805753E-07  0.4055855E+04  0.7818609E-02  0.7993373E-01
       -2   -1    0    0    0  501  0.00000000000E+00  0.00000000000E+00  0.31268813611E+04  0.31268813611E+04  0.25500000920E-02 0.  1.
        2   -1    0    0  501    0  0.00000000000E+00  0.00000000000E+00 -0.13152048301E+04  0.13152048301E+04  0.25500000920E-02 0. -1.
    10030    2    1    2    0    0  0.00000000000E+00  0.00000000000E+00  0.18116765311E+04  0.44420861912E+04  0.40558547652E+04 0.  0.
        1    1    3    3  502    0  0.40547134115E+03 -0.13187037458E+04  0.25336814218E+04  0.28849485480E+04  0.50400001928E-02 0.  1.
       -1    1    3    3    0  502 -0.40547134115E+03  0.13187037458E+04 -0.72200489071E+03  0.15571376432E+04  0.50400001928E-02 0. -1.
</event>
<event>
 5   0  0.1860500E-07  0.3860240E+04  0.7818609E-02  0.8033350E-01
        1   -1    0    0  501    0  0.00000000000E+00  0.00000000000E+00  0.24429575030E+04  0.24429575030E+04  0.50400001928E-02 0.  1.
       -1   -1    0    0    0  501  0.00000000000E+00  0.00000000000E+00 -0.15249397895E+04  0.15249397896E+04  0.50400001928E-02 0. -1.
    10030    2    1    2    0    0  0.00000000000E+00  0.00000000000E+00  0.91801771342E+03  0.39678972925E+04  0.38602399410E+04 0.  0.
        4    1    3    3  502    0 -0.17710745196E+04  0.76062440149E+03  0.56234646416E+03  0.20078569652E+04  0.12699999809E+01 0.  1.
       -4    1    3    3    0  502  0.17710745196E+04 -0.76062440149E+03  0.35567124927E+03  0.19600403273E+04  0.12699999809E+01 0. -1.
</event>
<event>
 5   0  0.3959190E-07  0.3842527E+04  0.7818609E-02  0.8037090E-01
       -2   -1    0    0    0  501  0.00000000000E+00  0.00000000000E+00  0.34021212178E+04  0.34021212178E+04  0.25500000920E-02 0. -1.
        2   -1    0    0  501    0  0.00000000000E+00  0.00000000000E+00 -0.10849856088E+04  0.10849856088E+04  0.25500000920E-02 0.  1.
    10030    2    1    2    0    0  0.00000000000E+00  0.00000000000E+00  0.23171356090E+04  0.44871068266E+04  0.38425265443E+04 0.  0.
        2    1    3    3  502    0  0.79532145528E+02 -0.65143875102E+03 -0.95003743597E+03  0.11546726542E+04  0.25500000920E-02 0.  1.
       -2    1    3    3    0  502 -0.79532145528E+02  0.65143875102E+03  0.32671730449E+04  0.33324341725E+04  0.25500000920E-02 0. -1.
</event>
<event>
 5   0  0.1860500E-07  0.3834668E+04  0.7818609E-02  0.8038756E-01
       -1   -1    0    0    0  501  0.00000000000E+00  0.00000000000E+00  0.16928566382E+04  0.16928566382E+04  0.50400001928E-02 0.  1.
        1   -1    0    0  501    0  0.00000000000E+00  0.00000000000E+00 -0.21715776934E+04  0.21715776934E+04  0.50400001928E-02 0. -1.
    10030    2    1    2    0    0  0.00000000000E+00  0.00000000000E+00 -0.47872105521E+03  0.38644343315E+04  0.38346680240E+04 0.  0.
        5    1    3    3  502    0  0.14212350710E+04 -0.11069930310E+04  0.42209170972E+03  0.18502773304E+04  0.46999998093E+01 0.  1.
       -5    1    3    3    0  502 -0.14212350710E+04  0.11069930310E+04 -0.90081276493E+03  0.20141570012E+04  0.46999998093E+01 0. -1.
</event>
<event>
 5   0  0.3959190E-07  0.3890129E+04  0.7818609E-02  0.8027085E-01
       -2   -1    0    0    0  501  0.00000000000E+00  0.00000000000E+00  0.31757603291E+04  0.31757603291E+04  0.25500000920E-02 0.  1.
        2   -1    0    0  501    0  0.00000000000E+00  0.00000000000E+00 -0.11912977822E+04  0.11912977822E+04  0.25500000920E-02 0. -1.
    10030    2    1    2    0    0  0.00000000000E+00  0.00000000000E+00  0.19844625469E+04  0.43670581113E+04  0.38901291685E+04 0.  0.
        2    1    3    3  502    0 -0.72744200651E+03 -0.14976636131E+03 -0.10258504445E+04  0.12664797552E+04  0.25500000920E-02 0. -1.
       -2    1    3    3    0  502  0.72744200651E+03  0.14976636131E+03  0.30103129915E+04  0.31005783561E+04  0.25500000920E-02 0.  1.
</event>
<event>
 5   0  0.1943459E-07  0.3614351E+04  0.7818609E-02  0.8087212E-01
        1   -1    0    0  501    0  0.00000000000E+00  0.00000000000E+00  0.23455906082E+04  0.23455906082E+04  0.50400001928E-02 0.  1.
       -1   -1    0    0    0  501  0.00000000000E+00  0.00000000000E+00 -0.13923502936E+04  0.13923502936E+04  0.50400001928E-02 0. -1.
    10030    2    1    2    0    0  0.00000000000E+00  0.00000000000E+00  0.95324031463E+03  0.37379409018E+04  0.36143512679E+04 0.  0.
        2    1    3    3  502    0 -0.13687668311E+04  0.32011897504E+02  0.16965030531E+04  0.21800619277E+04  0.25500000920E-02 0.  1.
       -2    1    3    3    0  502  0.13687668311E+04 -0.32011897504E+02 -0.74326273849E+03  0.15578789741E+04  0.25500000920E-02 0. -1.
</event>
<event>
 5   0  0.1943459E-07  0.3835844E+04  0.7818609E-02  0.8038506E-01
       -1   -1    0    0    0  501  0.00000000000E+00  0.00000000000E+00  0.32655565468E+04  0.32655565468E+04  0.50400001928E-02 0. -1.
        1   -1    0    0  501    0  0.00000000000E+00  0.00000000000E+00 -0.11264312300E+04  0.11264312301E+04  0.50400001928E-02 0.  1.
    10030    2    1    2    0    0  0.00000000000E+00  0.00000000000E+00  0.21391253167E+04  0.43919877768E+04  0.38358440416E+04 0.  0.
        2    1    3    3  502    0  0.12973690034E+04  0.11750591108E+04  0.19671138514E+04  0.26331477644E+04  0.25500000920E-02 0.  1.
       -2    1    3    3    0  502 -0.12973690034E+04 -0.11750591108E+04  0.17201146535E+03  0.17588400124E+04  0.25500000920E-02 0. -1.
</event>
<event>
 5   0  0.1943459E-07  0.3807713E+04  0.7818609E-02  0.8044502E-01
       -1   -1    0    0    0  501  0.00000000000E+00  0.00000000000E+00  0.21576866779E+04  0.21576866779E+04  0.50400001928E-02 0.  1.
        1   -1    0    0  501    0  0.00000000000E+00  0.00000000000E+00 -0.16798872594E+04  0.16798872594E+04  0.50400001928E-02 0. -1.
    10030    2    1    2    0    0  0.00000000000E+00  0.00000000000E+00  0.47779941850E+03  0.38375739373E+04  0.38077134136E+04 0.  0.
        2    1    3    3  502    0  0.10524726032E+04  0.74490573388E+03  0.16506297534E+04  0.20945552549E+04  0.25500000920E-02 0.  1.
       -2    1    3    3    0  502 -0.10524726032E+04 -0.74490573388E+03 -0.11728303349E+04  0.17430186824E+04  0.25500000920E-02 0. -1.
</event>
<event>
 5   0  0.3959190E-07  0.3876330E+04  0.7818609E-02  0.8029970E-01
        2   -1    0    0  501    0  0.00000000000E+00  0.00000000000E+00  0.18468697279E+04  0.18468697279E+04  0.25500000920E-02 0.  1.
       -2   -1    0    0    0  501  0.00000000000E+00  0.00000000000E+00 -0.20339729816E+04  0.20339729816E+04  0.25500000920E-02 0. -1.
    10030    2    1    2    0    0  0.00000000000E+00  0.00000000000E+00 -0.18710325366E+03  0.38808427095E+04  0.38763297729E+04 0.  0.
        2    1    3    3  502    0 -0.59511508176E+02 -0.47212585841E+03 -0.19745787438E+04  0.20311094656E+04  0.25500000920E-02 0. -1.
       -2    1    3    3    0  502  0.59511508176E+02  0.47212585841E+03  0.17874754901E+04  0.18497332439E+04  0.25500000920E-02 0.  1.
</event>
<event>
 5   0  0.1860500E-07  0.4053104E+04  0.7818609E-02  0.7993919E-01
       -1   -1    0    0    0  501  0.00000000000E+00  0.00000000000E+00  0.28271734597E+04  0.28271734597E+04  0.50400001928E-02 0.  1.
        1   -1    0    0  501    0  0.00000000000E+00  0.00000000000E+00 -0.14526567823E+04  0.14526567823E+04  0.50400001928E-02 0. -1.
    10030    2    1    2    0    0  0.00000000000E+00  0.00000000000E+00  0.13745166774E+04  0.42798302420E+04  0.40531038481E+04 0.  0.
        5    1    3    3  502    0  0.82566955096E+03  0.18377854940E+04  0.45662598910E+03  0.20658448909E+04  0.46999998093E+01 0. -1.
       -5    1    3    3    0  502 -0.82566955096E+03 -0.18377854940E+04  0.91789068828E+03  0.22139853511E+04  0.46999998093E+01 0.  1.
</event>
<event>
 5   0  0.5735179E-07  0.3904629E+04  0.7818609E-02  0.8024067E-01
        2   -1    0    0  501    0  0.00000000000E+00  0.00000000000E+00  0.17882099148E+04  0.17882099148E+04  0.25500000920E-02 0.  1.
       -2   -1    0    0    0  501  0.00000000000E+00  0.00000000000E+00 -0.21314789161E+04  0.21314789161E+04  0.25500000920E-02 0. -1.
    10030    2    1    2    0    0  0.00000000000E+00  0.00000000000E+00 -0.34326900134E+03  0.39196888309E+04  0.39046289099E+04 0.  0.
        5    1    3    3  502    0  0.81481807547E+03 -0.49187793292E+03  0.15395329977E+04  0.18099879387E+04  0.46999998093E+01 0. -1.
       -5    1    3    3    0  502 -0.81481807547E+03  0.49187793292E+03 -0.18828019991E+04  0.21097008922E+04  0.46999998093E+01 0.  1.
</event>
<event>
 5   0  0.5872444E-07  0.3276504E+04  0.7818609E-02  0.8168900E-01
       -2   -1    0    0    0  501  0.00000000000E+00  0.00000000000E+00  0.21071894790E+04  0.21071894790E+04  0.25500000920E-02 0. -1.
        2   -1    0    0  501    0  0.00000000000E+00  0.00000000000E+00 -0.12736724114E+04  0.12736724114E+04  0.25500000920E-02 0.  1.
    10030    2    1    2    0    0  0.00000000000E+00  0.00000000000E+00  0.83351706763E+03  0.33808618903E+04  0.32765036883E+04 0.  0.
        3    1    3    3  502    0  0.67680204305E+03  0.90920907138E+03 -0.80377139830E+03  0.13895217205E+04  0.10100000352E+00 0.  1.
       -3    1    3    3    0  502 -0.67680204305E+03 -0.90920907138E+03  0.16372884659E+04  0.19913401698E+04  0.10100000352E+00 0. -1.
</event>
<event>
 5   0  0.3959190E-07  0.4095476E+04  0.7818609E-02  0.7985558E-01
       -2   -1    0    0    0  501  0.00000000000E+00  0.00000000000E+00  0.17021322878E+04  0.17021322878E+04  0.25500000920E-02 0.  1.
        2   -1    0    0  501    0  0.00000000000E+00  0.00000000000E+00 -0.24635166943E+04  0.24635166943E+04  0.25500000920E-02 0. -1.
    10030    2    1    2    0    0  0.00000000000E+00  0.00000000000E+00 -0.76138440651E+03  0.41656489820E+04  0.40954761905E+04 0.  0.
        2    1    3    3  502    0 -0.19155169995E+04  0.11835934735E+03  0.34569902401E+03  0.19500569545E+04  0.25500000920E-02 0.  1.
       -2    1    3    3    0  502  0.19155169995E+04 -0.11835934735E+03 -0.11070834305E+04  0.22155920276E+04  0.25500000920E-02 0. -1.
</event>
<event>
 5   0  0.1860500E-07  0.3167918E+04  0.7818609E-02  0.8197342E-01
        1   -1    0    0  501    0  0.00000000000E+00  0.00000000000E+00  0.13945032418E+04  0.13945032419E+04  0.50400001928E-02 0.  1.
       -1   -1    0    0    0  501  0.00000000000E+00  0.00000000000E+00 -0.17991542203E+04  0.17991542203E+04  0.50400001928E-02 0. -1.
    10030    2    1    2    0    0  0.00000000000E+00  0.00000000000E+00 -0.40465097848E+03  0.31936574622E+04  0.31679181762E+04 0.  0.
        4    1    3    3  502    0 -0.41735187572E+03 -0.11769949696E+04 -0.11846267858E+04  0.17212907893E+04  0.12699999809E+01 0. -1.
       -4    1    3    3    0  502  0.41735187572E+03  0.11769949696E+04  0.77997580730E+03  0.14723666729E+04  0.12699999809E+01 0.  1.
</event>
<event>
 5   0  0.5735179E-07  0.3256379E+04  0.7818609E-02  0.8174084E-01
       -2   -1    0    0    0  501  0.00000000000E+00  0.00000000000E+00  0.12587332032E+04  0.12587332032E+04  0.25500000920E-02 0.  1.
        2   -1    0    0  501    0  0.00000000000E+00  0.00000000000E+00 -0.21060868912E+04  0.21060868912E+04  0.25500000920E-02 0. -1.
    10030    2    1    2    0    0  0.00000000000E+00  0.00000000000E+00 -0.84735368802E+03  0.33648200944E+04  0.32563792769E+04 0.  0.
        5    1    3    3  502    0  0.55345984402E+03  0.14934097391E+04 -0.77315410557E+03  0.17704179757E+04  0.46999998093E+01 0.  1.
       -5    1    3    3    0  502 -0.55345984402E+03 -0.14934097391E+04 -0.74199582444E+02  0.15944021186E+04  0.46999998093E+01 0. -1.
</event>
<event>
 5   0  0.3959190E-07  0.3782556E+04  0.7818609E-02  0.8049909E-01
       -2   -1    0    0    0  501  0.00000000000E+00  0.00000000000E+00  0.11269817298E+04  0.11269817298E+04  0.25500000920E-02 0.  1.
        2   -1    0    0  501    0  0.00000000000E+00  0.00000000000E+00 -0.31739043554E+04  0.31739043554E+04  0.25500000920E-02 0. -1.
    10030    2    1    2    0    0  0.00000000000E+00  0.00000000000E+00 -0.20469226255E+04  0.43008860852E+04  0.37825558665E+04 0.  0.
        2    1    3    3  502    0  0.40996036776E+03 -0.19283281081E+03 -0.31112944111E+04  0.31441063768E+04  0.25500000920E-02 0. -1.
       -2    1    3    3    0  502 -0.40996036776E+03  0.19283281081E+03  0.10643717855E+04  0.11567797084E+04  0.25500000920E-02 0.  1.
</event>
<event>
 5   0  0.1943459E-07  0.2889180E+04  0.7818609E-02  0.8276104E-01
        1   -1    0    0  501    0  0.00000000000E+00  0.00000000000E+00  0.12731803176E+04  0.12731803176E+04  0.50400001928E-02 0. -1.
       -1   -1    0    0    0  501  0.00000000000E+00  0.00000000000E+00 -0.16390769167E+04  0.16390769167E+04  0.50400001928E-02 0.  1.
    10030    2    1    2    0    0  0.00000000000E+00  0.00000000000E+00 -0.36589659903E+03  0.29122572343E+04  0.28891801394E+04 0.  0.
        2    1    3    3  502    0 -0.64094364451E+03  0.10226267538E+04 -0.98318254577E+03  0.15566702128E+04  0.25500000920E-02 0.  1.
       -2    1    3    3    0  502  0.64094364451E+03 -0.10226267538E+04  0.61728594674E+03  0.13555870216E+04  0.25500000920E-02 0. -1.
</event>
<event>
 5   0  0.5872444E-07  0.3814497E+04  0.7818609E-02  0.8043051E-01
        2   -1    0    0  501    0  0.00000000000E+00  0.00000000000E+00  0.27928510463E+04  0.27928510463E+04  0.25500000920E-02 0.  1.
       -2   -1    0    0    0  501  0.00000000000E+00  0.00000000000E+00 -0.13024669194E+04  0.13024669194E+04  0.25500000920E-02 0. -1.
    10030    2    1    2    0    0  0.00000000000E+00  0.00000000000E+00  0.14903841269E+04  0.40953179657E+04  0.38144966109E+04 0.  0.
        3    1    3    3  502    0 -0.16984979465E+04 -0.52125287365E+03  0.59513385537E+00  0.17766823568E+04  0.10100000352E+00 0. -1.
       -3    1    3    3    0  502  0.16984979465E+04  0.52125287365E+03  0.14897889931E+04  0.23186356089E+04  0.10100000352E+00 0.  1.
</event>
<event>
 5   0  0.5872444E-07  0.3926740E+04  0.7818609E-02  0.8019491E-01
        2   -1    0    0  501    0  0.00000000000E+00  0.00000000000E+00  0.23190570121E+04  0.23190570121E+04  0.25500000920E-02 0.  1.
       -2   -1    0    0    0  501  0.00000000000E+00  0.00000000000E+00 -0.16622369892E+04  0.16622369892E+04  0.25500000920E-02 0. -1.
    10030    2    1    2    0    0  0.00000000000E+00  0.00000000000E+00  0.65682002297E+03  0.39812940013E+04  0.39267402998E+04 0.  0.
        3    1    3    3  502    0 -0.62579882399E+02 -0.91749300004E+03  0.20871891107E+04  0.22808042530E+04  0.10100000352E+00 0.  1.
       -3    1    3    3    0  502  0.62579882399E+02  0.91749300004E+03 -0.14303690877E+04  0.17004897483E+04  0.10100000352E+00 0. -1.
</event>
<event>
 5   0  0.1860500E-07  0.3841326E+04  0.7818609E-02  0.8037344E-01
       -1   -1    0    0    0  501  0.00000000000E+00  0.00000000000E+00  0.30565806522E+04  0.30565806522E+04  0.50400001928E-02 0. -1.
        1   -1    0    0  501    0  0.00000000000E+00  0.00000000000E+00 -0.12068864072E+04  0.12068864072E+04  0.50400001928E-02 0.  1.
    10030    2    1    2    0    0  0.00000000000E+00  0.00000000000E+00  0.18496942450E+04  0.42634670595E+04  0.38413256263E+04 0.  0.
        5    1    3    3  502    0  0.11257632939E+04  0.83983820512E+03  0.23788737521E+04  0.27625592524E+04  0.46999998093E+01 0. -1.
       -5    1    3    3    0  502 -0.11257632939E+04 -0.83983820512E+03 -0.52917950704E+03  0.15009078071E+04  0.46999998093E+01 0.  1.
</event>
<event>
 5   0  0.1876027E-07  0.3938280E+04  0.7818609E-02  0.8017114E-01
        1   -1    0    0  501    0  0.00000000000E+00  0.00000000000E+00  0.18720769049E+04  0.18720769049E+04  0.50400001928E-02 0.  1.
       -1   -1    0    0    0  501  0.00000000000E+00  0.00000000000E+00 -0.20712356602E+04  0.20712356602E+04  0.50400001928E-02 0. -1.
    10030    2    1    2    0    0  0.00000000000E+00  0.00000000000E+00 -0.19915875526E+03  0.39433125651E+04  0.39382800531E+04 0.  0.
        3    1    3    3  502    0  0.10792544594E+03  0.17009196220E+04  0.88795521635E+03  0.19217804086E+04  0.10100000352E+00 0.  1.
       -3    1    3    3    0  502 -0.10792544594E+03 -0.17009196220E+04 -0.10871139716E+04  0.20215321565E+04  0.10100000352E+00 0. -1.
</event>
<event>
 5   0  0.5805753E-07  0.3927789E+04  0.7818609E-02  0.8019274E-01
       -2   -1    0    0    0  501  0.00000000000E+00  0.00000000000E+00  0.15926462954E+04  0.15926462954E+04  0.25500000920E-02 0.  1.
        2   -1    0    0  501    0  0.00000000000E+00  0.00000000000E+00 -0.24216811945E+04  0.24216811945E+04  0.25500000920E-02 0. -1.
    10030    2    1    2    0    0  0.00000000000E+00  0.00000000000E+00 -0.82903489908E+03  0.40143274899E+04  0.39277889878E+04 0.  0.
        1    1    3    3  502    0 -0.16956001654E+04 -0.34838707851E+03 -0.13625581723E+04  0.22029521670E+04  0.50400001928E-02 0. -1.
       -1    1    3    3    0  502  0.16956001654E+04  0.34838707851E+03  0.53352327321E+03  0.18113753229E+04  0.50400001928E-02 0.  1.
</event>
<event>
 5   0  0.6095665E-07  0.3394554E+04  0.7818609E-02  0.8139244E-01
        2   -1    0    0  501    0  0.00000000000E+00  0.00000000000E+00  0.23126443583E+04  0.23126443583E+04  0.25500000920E-02 0. -1.
       -2   -1    0    0    0  501  0.00000000000E+00  0.00000000000E+00 -0.12456513156E+04  0.12456513156E+04  0.25500000920E-02 0.  1.
    10030    2    1    2    0    0  0.00000000000E+00  0.00000000000E+00  0.10669930427E+04  0.35582956739E+04  0.33945535715E+04 0.  0.
        4    1    3    3  502    0 -0.13567256941E+04  0.52930713505E+03 -0.38026063901E+03  0.15051479724E+04  0.12699999809E+01 0.  1.
       -4    1    3    3    0  502  0.13567256941E+04 -0.52930713505E+03  0.14472536818E+04  0.20531477016E+04  0.12699999809E+01 0. -1.
</event>
<event>
 5   0  0.6095665E-07  0.3627822E+04  0.7818609E-02  0.8084148E-01
       -2   -1    0    0    0  501  0.00000000000E+00  0.00000000000E+00  0.16057232203E+04  0.16057232203E+04  0.25500000920E-02 0.  1.
        2   -1    0    0  501    0  0.00000000000E+00  0.00000000000E+00 -0.20490907824E+04  0.20490907824E+04  0.25500000920E-02 0. -1.
    10030    2    1    2    0    0  0.00000000000E+00  0.00000000000E+00 -0.44336756205E+03  0.36548140027E+04  0.36278217430E+04 0.  0.
        4    1    3    3  502    0  0.69054679362E+03 -0.16694347707E+04 -0.57982600784E+02  0.18075483182E+04  0.12699999809E+01 0.  1.
       -4    1    3    3    0  502 -0.69054679362E+03  0.16694347707E+04 -0.38538496127E+03  0.18472656845E+04  0.12699999809E+01 0. -1.
</event>
<event>
 5   0  0.3959190E-07  0.3846905E+04  0.7818609E-02  0.8036164E-01
        2   -1    0    0  501    0  0.00000000000E+00  0.00000000000E+00  0.16314776726E+04  0.16314776726E+04  0.25500000920E-02 0.  1.
       -2   -1    0    0    0  501  0.00000000000E+00  0.00000000000E+00 -0.22676798450E+04  0.22676798450E+04  0.25500000920E-02 0. -1.
    10030    2    1    2    0    0  0.00000000000E+00  0.00000000000E+00 -0.63620217240E+03  0.38991575176E+04  0.38469047483E+04 0.  0.
        2    1    3    3  502    0  0.10844639849E+04 -0.70282042739E+03 -0.17621102884E+04  0.21851890893E+04  0.25500000920E-02 0. -1.
       -2    1    3    3    0  502 -0.10844639849E+04  0.70282042739E+03  0.11259081160E+04  0.17139684283E+04  0.25500000920E-02 0.  1.
</event>
<event>
 5   0  0.1860500E-07  0.3947980E+04  0.7818609E-02  0.8015124E-01
        1   -1    0    0  501    0  0.00000000000E+00  0.00000000000E+00  0.14649879610E+04  0.14649879610E+04  0.50400001928E-02 0. -1.
       -1   -1    0    0    0  501  0.00000000000E+00  0.00000000000E+00 -0.26598424652E+04  0.26598424652E+04  0.50400001928E-02 0.  1.
    10030    2    1    2    0    0  0.00000000000E+00  0.00000000000E+00 -0.11948545041E+04  0.41248304262E+04  0.39479803392E+04 0.  0.
        4    1    3    3  502    0 -0.12464855328E+04 -0.15302499553E+04 -0.56057000409E+03  0.20517386412E+04  0.12699999809E+01 0. -1.
       -4    1    3    3    0  502  0.12464855328E+04  0.15302499553E+04 -0.63428450002E+03  0.20730917850E+04  0.12699999809E+01 0.  1.
</event>
<event>
 5   0  0.6095665E-07  0.3867028E+04  0.7818609E-02  0.8031922E-01
        2   -1    0    0  501    0  0.00000000000E+00  0.00000000000E+00  0.22726807201E+04  0.22726807201E+04  0.25500000920E-02 0. -1.
       -2   -1    0    0    0  501  0.00000000000E+00  0.00000000000E+00 -0.16449635478E+04  0.16449635478E+04  0.25500000920E-02 0.  1.
    10030    2    1    2    0    0  0.00000000000E+00  0.00000000000E+00  0.62771717236E+03  0.39176442679E+04  0.38670282855E+04 0.  0.
        4    1    3    3  502    0  0.71266631176E+03  0.13254028647E+04  0.15437877029E+04  0.21558914885E+04  0.12699999809E+01 0. -1.
       -4    1    3    3    0  502 -0.71266631176E+03 -0.13254028647E+04 -0.91607053055E+03  0.17617527794E+04  0.12699999809E+01 0.  1.
</event>
<event>
 5   0  0.6095665E-07  0.3749177E+04  0.7818609E-02  0.8057150E-01
        2   -1    0    0  501    0  0.00000000000E+00  0.00000000000E+00  0.18596481418E+04  0.18596481418E+04  0.25500000920E-02 0.  1.
       -2   -1    0    0    0  501  0.00000000000E+00  0.00000000000E+00 -0.18896487233E+04  0.18896487233E+04  0.25500000920E-02 0. -1.
    10030    2    1    2    0    0  0.00000000000E+00  0.00000000000E+00 -0.30000581431E+02  0.37492968651E+04  0.37491768360E+04 0.  0.
        4    1    3    3  502    0  0.99414048155E+03 -0.32071518765E+02 -0.16039930236E+04  0.18873630048E+04  0.12699999809E+01 0. -1.
       -4    1    3    3    0  502 -0.99414048155E+03  0.32071518765E+02  0.15739924421E+04  0.18619338603E+04  0.12699999809E+01 0.  1.
</event>
<event>
 5   0  0.5872444E-07  0.3848712E+04  0.7818609E-02  0.8035781E-01
        2   -1    0    0  501    0  0.00000000000E+00  0.00000000000E+00  0.23710791979E+04  0.23710791979E+04  0.25500000920E-02 0. -1.
       -2   -1    0    0    0  501  0.00000000000E+00  0.00000000000E+00 -0.15617977257E+04  0.15617977257E+04  0.25500000920E-02 0.  1.
    10030    2    1    2    0    0  0.00000000000E+00  0.00000000000E+00  0.80928147218E+03  0.39328769237E+04  0.38487120437E+04 0.  0.
        3    1    3    3  502    0  0.93512695299E+03  0.26175796384E+03  0.21023470831E+04  0.23157812759E+04  0.10100000352E+00 0. -1.
       -3    1    3    3    0  502 -0.93512695299E+03 -0.26175796384E+03 -0.12930656109E+04  0.16170956478E+04  0.10100000352E+00 0.  1.
</event>
<event>
 5   0  0.1860500E-07  0.3765842E+04  0.7818609E-02  0.8053525E-01
        1   -1    0    0  501    0  0.00000000000E+00  0.00000000000E+00  0.20989094132E+04  0.20989094132E+04  0.50400001928E-02 0. -1.
       -1   -1    0    0    0  501  0.00000000000E+00  0.00000000000E+00 -0.16891589069E+04  0.16891589069E+04  0.50400001928E-02 0.  1.
    10030    2    1    2    0    0  0.00000000000E+00  0.00000000000E+00  0.40975050636E+03  0.37880683201E+04  0.37658420201E+04 0.  0.
        5    1    3    3  502    0  0.15633388385E+04  0.97192819684E+03 -0.19331041644E+03  0.18509629253E+04  0.46999998093E+01 0.  1.
       -5    1    3    3    0  502 -0.15633388385E+04 -0.97192819684E+03  0.60306092280E+03  0.19371053948E+04  0.46999998093E+01 0. -1.
</event>
<event>
 5   0  0.5735179E-07  0.3023963E+04  0.7818609E-02  0.8236921E-01
       -2   -1    0    0    0  501  0.00000000000E+00  0.00000000000E+00  0.97077709943E+03  0.97077709943E+03  0.25500000920E-02 0. -1.
        2   -1    0    0  501    0  0.00000000000E+00  0.00000000000E+00 -0.23549059704E+04  0.23549059704E+04  0.25500000920E-02 0.  1.
    10030    2    1    2    0    0  0.00000000000E+00  0.00000000000E+00 -0.13841288710E+04  0.33256830699E+04  0.30239634835E+04 0.  0.
        5    1    3    3  502    0 -0.60852339611E+03 -0.16008874594E+02  0.83004715752E+03  0.10293480370E+04  0.46999998093E+01 0. -1.
       -5    1    3    3    0  502  0.60852339611E+03  0.16008874594E+02 -0.22141760285E+04  0.22963350328E+04  0.46999998093E+01 0.  1.
</event>
<event>
 5   0  0.6095665E-07  0.3517112E+04  0.7818609E-02  0.8109747E-01
        2   -1    0    0  501    0  0.00000000000E+00  0.00000000000E+00  0.25585059266E+04  0.25585059266E+04  0.25500000920E-02 0. -1.
       -2   -1    0    0    0  501  0.00000000000E+00  0.00000000000E+00 -0.12087206951E+04  0.12087206951E+04  0.25500000920E-02 0.  1.
    10030    2    1    2    0    0  0.00000000000E+00  0.00000000000E+00  0.13497852315E+04  0.37672266218E+04  0.35171119187E+04 0.  0.
        4    1    3    3  502    0  0.97636888985E+03  0.80361820814E+03  0.19838526799E+04  0.23526095091E+04  0.12699999809E+01 0. -1.
       -4    1    3    3    0  502 -0.97636888985E+03 -0.80361820814E+03 -0.63406744840E+03  0.14146171127E+04  0.12699999809E+01 0.  1.
</event>
<event>
 5   0  0.6095665E-07  0.3856420E+04  0.7818609E-02  0.8034155E-01
        2   -1    0    0  501    0  0.00000000000E+00  0.00000000000E+00  0.12866438816E+04  0.12866438816E+04  0.25500000920E-02 0. -1.
       -2   -1    0    0    0  501  0.00000000000E+00  0.00000000000E+00 -0.28896831991E+04  0.28896831991E+04  0.25500000920E-02 0.  1.
    10030    2    1    2    0    0  0.00000000000E+00  0.00000000000E+00 -0.16030393175E+04  0.41763270807E+04  0.38564196908E+04 0.  0.
        4    1    3    3  502    0  0.10222623219E+04  0.79396667988E+03  0.74622968103E+03  0.14940762006E+04  0.12699999809E+01 0. -1.
       -4    1    3    3    0  502 -0.10222623219E+04 -0.79396667988E+03 -0.23492689985E+04  0.26822508801E+04  0.12699999809E+01 0.  1.
</event>
<event>
 5   0  0.5805753E-07  0.3888436E+04  0.7818609E-02  0.8027439E-01
       -2   -1    0    0    0  501  0.00000000000E+00  0.00000000000E+00  0.20612725430E+04  0.20612725430E+04  0.25500000920E-02 0.  1.
        2   -1    0    0  501    0  0.00000000000E+00  0.00000000000E+00 -0.18338105102E+04  0.18338105102E+04  0.25500000920E-02 0. -1.
    10030    2    1    2    0    0  0.00000000000E+00  0.00000000000E+00  0.22746203284E+03  0.38950830532E+04  0.38884358057E+04 0.  0.
        1    1    3    3  502    0 -0.14558229516E+04  0.12114035859E+04  0.55387279623E+03  0.19732445842E+04  0.50400001928E-02 0.  1.
       -1    1    3    3    0  502  0.14558229516E+04 -0.12114035859E+04 -0.32641076339E+03  0.19218384690E+04  0.50400001928E-02 0. -1.
</event>
<event>
 5   0  0.2666813E-07  0.3852579E+04  0.7818609E-02  0.8034965E-01
        1   -1    0    0  501    0  0.00000000000E+00  0.00000000000E+00  0.18028778702E+04  0.18028778702E+04  0.50400001928E-02 0. -1.
       -1   -1    0    0    0  501  0.00000000000E+00  0.00000000000E+00 -0.20581485396E+04  0.20581485396E+04  0.50400001928E-02 0.  1.
    10030    2    1    2    0    0  0.00000000000E+00  0.00000000000E+00 -0.25527066944E+03  0.38610264099E+04  0.38525785940E+04 0.  0.
        1    1    3    3  502    0  0.33210243531E+03  0.17366688576E+04 -0.89369335969E+03  0.19811609147E+04  0.50400001928E-02 0.  1.
       -1    1    3    3    0  502 -0.33210243531E+03 -0.17366688576E+04  0.63842269025E+03  0.18798654952E+04  0.50400001928E-02 0. -1.
</event>
<event>
 5   0  0.3959190E-07  0.3865960E+04  0.7818609E-02  0.8032146E-01
        2   -1    0    0  501    0  0.00000000000E+00  0.00000000000E+00  0.10589551513E+04  0.10589551513E+04  0.25500000920E-02 0. -1.
       -2   -1    0    0    0  501  0.00000000000E+00  0.00000000000E+00 -0.35283938247E+04  0.35283938247E+04  0.25500000920E-02 0.  1.
    10030    2    1    2    0    0  0.00000000000E+00  0.00000000000E+00 -0.24694386735E+04  0.45873489760E+04  0.38659595530E+04 0.  0.
        2    1    3    3  502    0  0.31852046322E+03 -0.64363979051E+03 -0.33642234725E+04  0.34400184648E+04  0.25500000920E-02 0.  1.
       -2    1    3    3    0  502 -0.31852046322E+03  0.64363979051E+03  0.89478479898E+03  0.11473305112E+04  0.25500000920E-02 0. -1.
</event>
<event>
 5   0  0.1860500E-07  0.4024046E+04  0.7818609E-02  0.7999713E-01
       -1   -1    0    0    0  501  0.00000000000E+00  0.00000000000E+00  0.17425582446E+04  0.17425582446E+04  0.50400001928E-02 0. -1.
        1   -1    0    0  501    0  0.00000000000E+00  0.00000000000E+00 -0.23231572775E+04  0.23231572775E+04  0.50400001928E-02 0.  1.
    10030    2    1    2    0    0  0.00000000000E+00  0.00000000000E+00 -0.58059903289E+03  0.40657155221E+04  0.40240461565E+04 0.  0.
        4    1    3    3  502    0  0.21576702437E+03 -0.14700065174E+04 -0.16610951086E+04  0.22286123806E+04  0.12699999809E+01 0.  1.
       -4    1    3    3    0  502 -0.21576702437E+03  0.14700065174E+04  0.10804960757E+04  0.18371031415E+04  0.12699999809E+01 0. -1.
</event>
<event>
 5   0  0.1943459E-07  0.3097039E+04  0.7818609E-02  0.8216551E-01
       -1   -1    0    0    0  501  0.00000000000E+00  0.00000000000E+00  0.17986684715E+04  0.17986684715E+04  0.50400001928E-02 0. -1.
        1   -1    0    0  501    0  0.00000000000E+00  0.00000000000E+00 -0.13331598926E+04  0.13331598926E+04  0.50400001928E-02 0.  1.
    10030    2    1    2    0    0  0.00000000000E+00  0.00000000000E+00  0.46550857888E+03  0.31318283641E+04  0.30970390157E+04 0.  0.
        2    1    3    3  502    0 -0.86942024419E+03 -0.12283282679E+04 -0.13635378690E+03  0.15110507106E+04  0.25500000920E-02 0.  1.
       -2    1    3    3    0  502  0.86942024419E+03  0.12283282679E+04  0.60186236578E+03  0.16207776535E+04  0.25500000920E-02 0. -1.
</event>
<event>
 5   0  0.5872444E-07  0.3888616E+04  0.7818609E-02  0.8027401E-01
       -2   -1    0    0    0  501  0.00000000000E+00  0.00000000000E+00  0.18459667678E+04  0.18459667678E+04  0.25500000920E-02 0.  1.
        2   -1    0    0  501    0  0.00000000000E+00  0.00000000000E+00 -0.20478880609E+04  0.20478880609E+04  0.25500000920E-02 0. -1.
    10030    2    1    2    0    0  0.00000000000E+00  0.00000000000E+00 -0.20192129307E+03  0.38938548288E+04  0.38886158487E+04 0.  0.
        3    1    3    3  502    0  0.18313416215E+04 -0.34055908126E+03 -0.65897318606E+03  0.19758639358E+04  0.10100000352E+00 0.  1.
       -3    1    3    3    0  502 -0.18313416215E+04  0.34055908126E+03  0.45705189299E+03  0.19179908930E+04  0.10100000352E+00 0. -1.
</event>
<event>
 5   0  0.2666813E-07  0.2917454E+04  0.7818609E-02  0.8267703E-01
       -1   -1    0    0    0  501  0.00000000000E+00  0.00000000000E+00  0.12492397441E+04  0.12492397441E+04  0.50400001928E-02 0. -1.
        1   -1    0    0  501    0  0.00000000000E+00  0.00000000000E+00 -0.17033439323E+04  0.17033439323E+04  0.50400001928E-02 0.  1.
    10030    2    1    2    0    0  0.00000000000E+00  0.00000000000E+00 -0.45410418815E+03  0.29525836764E+04  0.29174543274E+04 0.  0.
        1    1    3    3  502    0 -0.67688341449E+03  0.12776912544E+04 -0.31807254891E+02  0.14462633923E+04  0.50400001928E-02 0.  1.
       -1    1    3    3    0  502  0.67688341449E+03 -0.12776912544E+04 -0.42229693326E+03  0.15063202841E+04  0.50400001928E-02 0. -1.
</event>
<event>
 5   0  0.6095665E-07  0.3920646E+04  0.7818609E-02  0.8020749E-01
       -2   -1    0    0    0  501  0.00000000000E+00  0.00000000000E+00  0.19046385045E+04  0.19046385045E+04  0.25500000920E-02 0.  1.
        2   -1    0    0  501    0  0.00000000000E+00  0.00000000000E+00 -0.20176356734E+04  0.20176356734E+04  0.25500000920E-02 0. -1.
    10030    2    1    2    0    0  0.00000000000E+00  0.00000000000E+00 -0.11299716886E+03  0.39222741779E+04  0.39206461669E+04 0.  0.
        4    1    3    3  502    0 -0.35198374984E+03 -0.97293733421E+03  0.16092349587E+04  0.19131488133E+04  0.12699999809E+01 0.  1.
       -4    1    3    3    0  502  0.35198374984E+03  0.97293733421E+03 -0.17222321276E+04  0.20091253646E+04  0.12699999809E+01 0. -1.
</event>
<event>
 5   0  0.1860500E-07  0.3897546E+04  0.7818609E-02  0.8025540E-01
       -3   -1    0    0    0  501  0.00000000000E+00  0.00000000000E+00  0.20016538340E+04  0.20016538366E+04  0.10100000352E+00 0.  1.
        3   -1    0    0  501    0  0.00000000000E+00  0.00000000000E+00 -0.18972896535E+04  0.18972896561E+04  0.10100000352E+00 0. -1.
    10030    2    1    2    0    0  0.00000000000E+00  0.00000000000E+00  0.10436418059E+03  0.38989434927E+04  0.38975464689E+04 0.  0.
        2    1    3    3  502    0  0.44217318542E+03  0.41840228218E+03  0.19040991482E+04  0.19990425613E+04  0.25500000920E-02 0.  1.
       -2    1    3    3    0  502 -0.44217318542E+03 -0.41840228218E+03 -0.17997349676E+04  0.18999009314E+04  0.25500000920E-02 0. -1.
</event>
<event>
 5   0  0.5805753E-07  0.4003487E+04  0.7818609E-02  0.8003844E-01
        2   -1    0    0  501    0  0.00000000000E+00  0.00000000000E+00  0.26963078930E+04  0.26963078930E+04  0.25500000920E-02 0. -1.
       -2   -1    0    0    0  501  0.00000000000E+00  0.00000000000E+00 -0.14860973717E+04  0.14860973717E+04  0.25500000920E-02 0.  1.
    10030    2    1    2    0    0  0.00000000000E+00  0.00000000000E+00  0.12102105213E+04  0.41824052647E+04  0.40034865171E+04 0.  0.
        1    1    3    3  502    0 -0.20456609383E+03  0.19744402861E+04  0.87493968154E+03  0.21692812580E+04  0.50400001928E-02 0. -1.
       -1    1    3    3    0  502  0.20456609383E+03 -0.19744402861E+04  0.33527083979E+03  0.20131240067E+04  0.50400001928E-02 0.  1.
</event>
<event>
 5   0  0.5872444E-07  0.3945820E+04  0.7818609E-02  0.8015566E-01
       -2   -1    0    0    0  501  0.00000000000E+00  0.00000000000E+00  0.17354952775E+04  0.17354952775E+04  0.25500000920E-02 0. -1.
        2   -1    0    0  501    0  0.00000000000E+00  0.00000000000E+00 -0.22428030777E+04  0.22428030777E+04  0.25500000920E-02 0.  1.
    10030    2    1    2    0    0  0.00000000000E+00  0.00000000000E+00 -0.50730780022E+03  0.39782983551E+04  0.39458201427E+04 0.  0.
        3    1    3    3  502    0  0.55046294076E+03 -0.43243299084E+03 -0.21133869327E+04  0.22263000872E+04  0.10100000352E+00 0.  1.
       -3    1    3    3    0  502 -0.55046294076E+03  0.43243299084E+03  0.16060791325E+04  0.17519982679E+04  0.10100000352E+00 0. -1.
</event>
<event>
 5   0  0.1876027E-07  0.2651413E+04  0.7818609E-02  0.8350944E-01
        1   -1    0    0  501    0  0.00000000000E+00  0.00000000000E+00  0.15396837528E+04  0.15396837528E+04  0.50400001928E-02 0. -1.
       -1   -1    0    0    0  501  0.00000000000E+00  0.00000000000E+00 -0.11414667257E+04  0.11414667257E+04  0.50400001928E-02 0.  1.
    10030    2    1    2    0    0  0.00000000000E+00  0.00000000000E+00  0.39821702710E+03  0.26811504784E+04  0.26514130360E+04 0.  0.
        3    1    3    3  502    0  0.13492810288E+03  0.71831211249E+03  0.13175514173E+04  0.15066916179E+04  0.10100000352E+00 0. -1.
       -3    1    3    3    0  502 -0.13492810288E+03 -0.71831211249E+03 -0.91933439023E+03  0.11744588606E+04  0.10100000352E+00 0.  1.
</event>
<event>
 5   0  0.3959190E-07  0.3880892E+04  0.7818609E-02  0.8029015E-01
        2   -1    0    0  501    0  0.00000000000E+00  0.00000000000E+00  0.24008239806E+04  0.24008239806E+04  0.25500000920E-02 0. -1.
       -2   -1    0    0    0  501  0.00000000000E+00  0.00000000000E+00 -0.15683496478E+04  0.15683496478E+04  0.25500000920E-02 0.  1.
    10030    2    1    2    0    0  0.00000000000E+00  0.00000000000E+00  0.83247433281E+03  0.39691736283E+04  0.38808923944E+04 0.  0.
        2    1    3    3  502    0 -0.98729670031E+03 -0.11800352415E+04 -0.79306993744E+03  0.17309528796E+04  0.25500000920E-02 0.  1.
       -2    1    3    3    0  502  0.98729670031E+03  0.11800352415E+04  0.16255442702E+04  0.22382207488E+04  0.25500000920E-02 0. -1.
</event>
<event>
 5   0  0.3959190E-07  0.3918450E+04  0.7818609E-02  0.8021203E-01
        2   -1    0    0  501    0  0.00000000000E+00  0.00000000000E+00  0.20612872435E+04  0.20612872435E+04  0.25500000920E-02 0.  1.
       -2   -1    0    0    0  501  0.00000000000E+00  0.00000000000E+00 -0.18622163473E+04  0.18622163473E+04  0.25500000920E-02 0. -1.
    10030    2    1    2    0    0  0.00000000000E+00  0.00000000000E+00  0.19907089620E+03  0.39235035908E+04  0.39184501024E+04 0.  0.
        2    1    3    3  502    0  0.38271742689E+03 -0.32686314052E+03 -0.17963823160E+04  0.18655566372E+04  0.25500000920E-02 0. -1.
       -2    1    3    3    0  502 -0.38271742689E+03  0.32686314052E+03  0.19954532122E+04  0.20579469535E+04  0.25500000920E-02 0.  1.
</event>
<event>
 5   0  0.6095665E-07  0.2577352E+04  0.7818609E-02  0.8375935E-01
       -2   -1    0    0    0  501  0.00000000000E+00  0.00000000000E+00  0.74630853612E+03  0.74630853612E+03  0.25500000920E-02 0. -1.
        2   -1    0    0  501    0  0.00000000000E+00  0.00000000000E+00 -0.22251999933E+04  0.22251999933E+04  0.25500000920E-02 0.  1.
    10030    2    1    2    0    0  0.00000000000E+00  0.00000000000E+00 -0.14788914572E+04  0.29715085295E+04  0.25773519353E+04 0.  0.
        4    1    3    3  502    0  0.76694618757E+03  0.12574361663E+03 -0.19245925854E+04  0.20755905532E+04  0.12699999809E+01 0.  1.
       -4    1    3    3    0  502 -0.76694618757E+03 -0.12574361663E+03  0.44570112814E+03  0.89591797632E+03  0.12699999809E+01 0. -1.
</event>
<event>
 5   0  0.1943459E-07  0.2660125E+04  0.7818609E-02  0.8348060E-01
        1   -1    0    0  501    0  0.00000000000E+00  0.00000000000E+00  0.16640890544E+04  0.16640890544E+04  0.50400001928E-02 0.  1.
       -1   -1    0    0    0  501  0.00000000000E+00  0.00000000000E+00 -0.10630835938E+04  0.10630835938E+04  0.50400001928E-02 0. -1.
    10030    2    1    2    0    0  0.00000000000E+00  0.00000000000E+00  0.60100546066E+03  0.27271726482E+04  0.26601246379E+04 0.  0.
        2    1    3    3  502    0 -0.84774392073E+03 -0.10167140486E+04  0.16806245181E+03  0.13343995652E+04  0.25500000920E-02 0. -1.
       -2    1    3    3    0  502  0.84774392073E+03  0.10167140486E+04  0.43294300885E+03  0.13927730830E+04  0.25500000920E-02 0.  1.
</event>
<event>
 5   0  0.1876027E-07  0.3894009E+04  0.7818609E-02  0.8026276E-01
        1   -1    0    0  501    0  0.00000000000E+00  0.00000000000E+00  0.20736842200E+04  0.20736842200E+04  0.50400001928E-02 0.  1.
       -1   -1    0    0    0  501  0.00000000000E+00  0.00000000000E+00 -0.18280632985E+04  0.18280632985E+04  0.50400001928E-02 0. -1.
    10030    2    1    2    0    0  0.00000000000E+00  0.00000000000E+00  0.24562092152E+03  0.39017475185E+04  0.38940087392E+04 0.  0.
        3    1    3    3  502    0  0.38154173651E+03 -0.17811429792E+04  0.81176810356E+03  0.19942446874E+04  0.10100000352E+00 0.  1.
       -3    1    3    3    0  502 -0.38154173651E+03  0.17811429792E+04 -0.56614718205E+03  0.19075028312E+04  0.10100000352E+00 0. -1.
</event>
<event>
 5   0  0.1860500E-07  0.3912007E+04  0.7818609E-02  0.8022537E-01
        1   -1    0    0  501    0  0.00000000000E+00  0.00000000000E+00  0.22039113015E+04  0.22039113015E+04  0.50400001928E-02 0.  1.
       -1   -1    0    0    0  501  0.00000000000E+00  0.00000000000E+00 -0.17359817950E+04  0.17359817950E+04  0.50400001928E-02 0. -1.
    10030    2    1    2    0    0  0.00000000000E+00  0.00000000000E+00  0.46792950649E+03  0.39398930965E+04  0.39120071049E+04 0.  0.
        4    1    3    3  502    0  0.11536799366E+04 -0.80390883415E+03 -0.11353970102E+04  0.18073114821E+04  0.12699999809E+01 0. -1.
       -4    1    3    3    0  502 -0.11536799366E+04  0.80390883415E+03  0.16033265167E+04  0.21325816143E+04  0.12699999809E+01 0.  1.
</event>
<event>
 5   0  0.1943459E-07  0.3257553E+04  0.7818609E-02  0.8173781E-01
       -1   -1    0    0    0  501  0.00000000000E+00  0.00000000000E+00  0.10119746829E+04  0.10119746829E+04  0.50400001928E-02 0. -1.
        1   -1    0    0  501    0  0.00000000000E+00  0.00000000000E+00 -0.26215206920E+04  0.26215206920E+04  0.50400001928E-02 0.  1.
    10030    2    1    2    0    0  0.00000000000E+00  0.00000000000E+00 -0.16095460091E+04  0.36334953749E+04  0.32575528060E+04 0.  0.
        2    1    3    3  502    0  0.27185120797E+03  0.15610287575E+04 -0.38416166632E+03  0.16304275657E+04  0.25500000920E-02 0. -1.
       -2    1    3    3    0  502 -0.27185120797E+03 -0.15610287575E+04 -0.12253843427E+04  0.20030678092E+04  0.25500000920E-02 0.  1.
</event>
<event>
 5   0  0.2666813E-07  0.3893756E+04  0.7818609E-02  0.8026329E-01
       -1   -1    0    0    0  501  0.00000000000E+00  0.00000000000E+00  0.14458687731E+04  0.14458687731E+04  0.50400001928E-02 0. -1.
        1   -1    0    0  501    0  0.00000000000E+00  0.00000000000E+00 -0.26214924917E+04  0.26214924917E+04  0.50400001928E-02 0.  1.
    10030    2    1    2    0    0  0.00000000000E+00  0.00000000000E+00 -0.11756237186E+04  0.40673612648E+04  0.38937560954E+04 0.  0.
        1    1    3    3  502    0  0.19203548702E+04  0.30650820400E+03 -0.68481795695E+03  0.20617191227E+04  0.50400001928E-02 0.  1.
       -1    1    3    3    0  502 -0.19203548702E+04 -0.30650820400E+03 -0.49080576167E+03  0.20056421421E+04  0.50400001928E-02 0. -1.
</event>
<event>
 5   0  0.3959190E-07  0.3704731E+04  0.7818609E-02  0.8066914E-01
        2   -1    0    0  501    0  0.00000000000E+00  0.00000000000E+00  0.20600576118E+04  0.20600576118E+04  0.25500000920E-02 0.  1.
       -2   -1    0    0    0  501  0.00000000000E+00  0.00000000000E+00 -0.16656128238E+04  0.16656128238E+04  0.25500000920E-02 0. -1.
    10030    2    1    2    0    0  0.00000000000E+00  0.00000000000E+00  0.39444478794E+03  0.37256704356E+04  0.37047312324E+04 0.  0.
        2    1    3    3  502    0 -0.80022740776E+03  0.99688369902E+03  0.15453653564E+04  0.20055660294E+04  0.25500000920E-02 0.  1.
       -2    1    3    3    0  502  0.80022740776E+03 -0.99688369902E+03 -0.11509205684E+04  0.17201044062E+04  0.25500000920E-02 0. -1.
</event>
<event>
 5   0  0.1943459E-07  0.3958487E+04  0.7818609E-02  0.8012974E-01
       -1   -1    0    0    0  501  0.00000000000E+00  0.00000000000E+00  0.22519646338E+04  0.22519646338E+04  0.50400001928E-02 0.  1.
        1   -1    0    0  501    0  0.00000000000E+00  0.00000000000E+00 -0.17395498677E+04  0.17395498677E+04  0.50400001928E-02 0. -1.
    10030    2    1    2    0    0  0.00000000000E+00  0.00000000000E+00  0.51241476609E+03  0.39915145015E+04  0.39584869739E+04 0.  0.
        2    1    3    3  502    0 -0.12898983276E+04 -0.69358256335E+03 -0.10862573227E+04  0.18234169679E+04  0.25500000920E-02 0. -1.
       -2    1    3    3    0  502  0.12898983276E+04  0.69358256335E+03  0.15986720888E+04  0.21680975336E+04  0.25500000920E-02 0.  1.
</event>
<event>
 5   0  0.3959190E-07  0.3862479E+04  0.7818609E-02  0.8032878E-01
        2   -1    0    0  501    0  0.00000000000E+00  0.00000000000E+00  0.12086359683E+04  0.12086359683E+04  0.25500000920E-02 0.  1.
       -2   -1    0    0    0  501  0.00000000000E+00  0.00000000000E+00 -0.30858638766E+04  0.30858638766E+04  0.25500000920E-02 0. -1.
    10030    2    1    2    0    0  0.00000000000E+00  0.00000000000E+00 -0.18772279083E+04  0.42944998450E+04  0.38624790354E+04 0.  0.
        2    1    3    3  502    0 -0.45879948936E+03  0.87494917428E+03  0.90640599292E+03  0.13407478708E+04  0.25500000920E-02 0.  1.
       -2    1    3    3    0  502  0.45879948936E+03 -0.87494917428E+03 -0.27836339012E+04  0.29537519742E+04  0.25500000920E-02 0. -1.
</event>
<event>
 5   0  0.1860500E-07  0.3932506E+04  0.7818609E-02  0.8018302E-01
        1   -1    0    0  501    0  0.00000000000E+00  0.00000000000E+00  0.21359636406E+04  0.21359636406E+04  0.50400001928E-02 0.  1.
       -1   -1    0    0    0  501  0.00000000000E+00  0.00000000000E+00 -0.18100268607E+04  0.18100268607E+04  0.50400001928E-02 0. -1.
    10030    2    1    2    0    0  0.00000000000E+00  0.00000000000E+00  0.32593677991E+03  0.39459905013E+04  0.39325063575E+04 0.  0.
        4    1    3    3  502    0 -0.58431603172E+03 -0.16445351080E+04 -0.74580198945E+03  0.18979312861E+04  0.12699999809E+01 0. -1.
       -4    1    3    3    0  502  0.58431603172E+03  0.16445351080E+04  0.10717387694E+04  0.20480592152E+04  0.12699999809E+01 0.  1.
</event>
<event>
 5   0  0.1876027E-07  0.3767626E+04  0.7818609E-02  0.8053138E-01
        1   -1    0    0  501    0  0.00000000000E+00  0.00000000000E+00  0.20432943679E+04  0.20432943679E+04  0.50400001928E-02 0.  1.
       -1   -1    0    0    0  501  0.00000000000E+00  0.00000000000E+00 -0.17367791912E+04  0.17367791912E+04  0.50400001928E-02 0. -1.
    10030    2    1    2    0    0  0.00000000000E+00  0.00000000000E+00  0.30651517675E+03  0.37800735591E+04  0.37676258518E+04 0.  0.
        3    1    3    3  502    0  0.41428151453E+03 -0.13833789013E+04 -0.10604435203E+04  0.17916212847E+04  0.10100000352E+00 0. -1.
       -3    1    3    3    0  502 -0.41428151453E+03  0.13833789013E+04  0.13669586971E+04  0.19884522744E+04  0.10100000352E+00 0.  1.
</event>
<event>
 5   0  0.3959190E-07  0.3876776E+04  0.7818609E-02  0.8029877E-01
        2   -1    0    0  501    0  0.00000000000E+00  0.00000000000E+00  0.28839303679E+04  0.28839303679E+04  0.25500000920E-02 0.  1.
       -2   -1    0    0    0  501  0.00000000000E+00  0.00000000000E+00 -0.13028569963E+04  0.13028569963E+04  0.25500000920E-02 0. -1.
    10030    2    1    2    0    0  0.00000000000E+00  0.00000000000E+00  0.15810733716E+04  0.41867873642E+04  0.38767764221E+04 0.  0.
        2    1    3    3  502    0  0.19335302453E+04 -0.42419673774E+02  0.93138935979E+03  0.21465844446E+04  0.25500000920E-02 0. -1.
       -2    1    3    3    0  502 -0.19335302453E+04  0.42419673774E+02  0.64968401185E+03  0.20402029197E+04  0.25500000920E-02 0.  1.
</event>
<event>
 5   0  0.5805753E-07  0.3862771E+04  0.7818609E-02  0.8032817E-01
       -2   -1    0    0    0  501  0.00000000000E+00  0.00000000000E+00  0.12524281120E+04  0.12524281120E+04  0.25500000920E-02 0. -1.
        2   -1    0    0  501    0  0.00000000000E+00  0.00000000000E+00 -0.29784143080E+04  0.29784143080E+04  0.25500000920E-02 0.  1.
    10030    2    1    2    0    0  0.00000000000E+00  0.00000000000E+00 -0.17259861960E+04  0.42308424200E+04  0.38627709269E+04 0.  0.
        1    1    3    3  502    0  0.10502856755E+04  0.15255254757E+04 -0.14628282812E+04  0.23601259622E+04  0.50400001928E-02 0.  1.
       -1    1    3    3    0  502 -0.10502856755E+04 -0.15255254757E+04 -0.26315791488E+03  0.18707164578E+04  0.50400001928E-02 0. -1.
</event>
<event>
 5   0  0.5872444E-07  0.3960040E+04  0.7818609E-02  0.8012657E-01
       -2   -1    0    0    0  501  0.00000000000E+00  0.00000000000E+00  0.18017343114E+04  0.18017343114E+04  0.25500000920E-02 0. -1.
        2   -1    0    0  501    0  0.00000000000E+00  0.00000000000E+00 -0.21759472448E+04  0.21759472448E+04  0.25500000920E-02 0.  1.
    10030    2    1    2    0    0  0.00000000000E+00  0.00000000000E+00 -0.37421293337E+03  0.39776815561E+04  0.39600398032E+04 0.  0.
        3    1    3    3  502    0  0.62857780249E+02 -0.39298088686E+03 -0.21353590724E+04  0.21721287845E+04  0.10100000352E+00 0.  1.
       -3    1    3    3    0  502 -0.62857780249E+02  0.39298088686E+03  0.17611461390E+04  0.18055527717E+04  0.10100000352E+00 0. -1.
</event>
<event>
 5   0  0.1943459E-07  0.3917949E+04  0.7818609E-02  0.8021306E-01
       -1   -1    0    0    0  501  0.00000000000E+00  0.00000000000E+00  0.21257343501E+04  0.21257343501E+04  0.50400001928E-02 0. -1.
        1   -1    0    0  501    0  0.00000000000E+00  0.00000000000E+00 -0.18052965826E+04  0.18052965826E+04  0.50400001928E-02 0.  1.
    10030    2    1    2    0    0  0.00000000000E+00  0.00000000000E+00  0.32043776755E+03  0.39310309327E+04  0.39179489317E+04 0.  0.
        2    1    3    3  502    0 -0.48475947025E+03  0.44893798279E+03 -0.16901307960E+04  0.18146843153E+04  0.25500000920E-02 0.  1.
       -2    1    3    3    0  502  0.48475947025E+03 -0.44893798279E+03  0.20105685636E+04  0.21163466175E+04  0.25500000920E-02 0. -1.
</event>
<event>
 5   0  0.2666813E-07  0.3981716E+04  0.7818609E-02  0.8008245E-01
       -1   -1    0    0    0  501  0.00000000000E+00  0.00000000000E+00  0.14031303954E+04  0.14031303954E+04  0.50400001928E-02 0.  1.
        1   -1    0    0  501    0  0.00000000000E+00  0.00000000000E+00 -0.28247665694E+04  0.28247665695E+04  0.50400001928E-02 0. -1.
    10030    2    1    2    0    0  0.00000000000E+00  0.00000000000E+00 -0.14216361740E+04  0.42278969649E+04  0.39817161293E+04 0.  0.
        1    1    3    3  502    0  0.10325433706E+04 -0.16770218795E+04 -0.10203324957E+04  0.22180231284E+04  0.50400001928E-02 0. -1.
       -1    1    3    3    0  502 -0.10325433706E+04  0.16770218795E+04 -0.40130367837E+03  0.20098738365E+04  0.50400001928E-02 0.  1.
</event>
<event>
 5   0  0.1876027E-07  0.3923200E+04  0.7818609E-02  0.8020221E-01
        1   -1    0    0  501    0  0.00000000000E+00  0.00000000000E+00  0.24353730703E+04  0.24353730703E+04  0.50400001928E-02 0.  1.
       -1   -1    0    0    0  501  0.00000000000E+00  0.00000000000E+00 -0.15799940097E+04  0.15799940097E+04  0.50400001928E-02 0. -1.
    10030    2    1    2    0    0  0.00000000000E+00  0.00000000000E+00  0.85537906060E+03  0.40153670800E+04  0.39232001542E+04 0.  0.
        3    1    3    3  502    0 -0.12623231828E+04  0.16550260049E+03 -0.10996909277E+04  0.16823112302E+04  0.10100000352E+00 0. -1.
       -3    1    3    3    0  502  0.12623231828E+04 -0.16550260049E+03  0.19550699883E+04  0.23330558497E+04  0.10100000352E+00 0.  1.
</event>
<event>
 5   0  0.5805753E-07  0.3877548E+04  0.7818609E-02  0.8029715E-01
       -2   -1    0    0    0  501  0.00000000000E+00  0.00000000000E+00  0.13776902127E+04  0.13776902127E+04  0.25500000920E-02 0.  1.
        2   -1    0    0  501    0  0.00000000000E+00  0.00000000000E+00 -0.27283677244E+04  0.27283677244E+04  0.25500000920E-02 0. -1.
    10030    2    1    2    0    0  0.00000000000E+00  0.00000000000E+00 -0.13506775117E+04  0.41060579371E+04  0.38775484578E+04 0.  0.
        1    1    3    3  502    0  0.77611264380E+02 -0.14476579771E+04 -0.20384876525E+04  0.25014333964E+04  0.50400001928E-02 0. -1.
       -1    1    3    3    0  502 -0.77611264380E+02  0.14476579771E+04  0.68781014087E+03  0.16046245408E+04  0.50400001928E-02 0.  1.
</event>
<event>
 5   0  0.3959190E-07  0.3780022E+04  0.7818609E-02  0.8050456E-01
       -2   -1    0    0    0  501  0.00000000000E+00  0.00000000000E+00  0.17806951836E+04  0.17806951836E+04  0.25500000920E-02 0.  1.
        2   -1    0    0  501    0  0.00000000000E+00  0.00000000000E+00 -0.20060372675E+04  0.20060372675E+04  0.25500000920E-02 0. -1.
    10030    2    1    2    0    0  0.00000000000E+00  0.00000000000E+00 -0.22534208387E+03  0.37867324511E+04  0.37800216403E+04 0.  0.
        2    1    3    3  502    0  0.45196348615E+03 -0.58428338829E+03 -0.18554385021E+04  0.19970753881E+04  0.25500000920E-02 0. -1.
       -2    1    3    3    0  502 -0.45196348615E+03  0.58428338829E+03  0.16300964182E+04  0.17896570630E+04  0.25500000920E-02 0.  1.
</event>
<event>
 5   0  0.5735179E-07  0.3880344E+04  0.7818609E-02  0.8029130E-01
       -2   -1    0    0    0  501  0.00000000000E+00  0.00000000000E+00  0.11836318582E+04  0.11836318582E+04  0.25500000920E-02 0. -1.
        2   -1    0    0  501    0  0.00000000000E+00  0.00000000000E+00 -0.31802689857E+04  0.31802689857E+04  0.25500000920E-02 0.  1.
    10030    2    1    2    0    0  0.00000000000E+00  0.00000000000E+00 -0.19966371275E+04  0.43639008440E+04  0.38803441545E+04 0.  0.
        5    1    3    3  502    0 -0.58606736399E+03 -0.26147909580E+03  0.10608054375E+04  0.12398292378E+04  0.46999998093E+01 0. -1.
       -5    1    3    3    0  502  0.58606736399E+03  0.26147909580E+03 -0.30574425650E+04  0.31240716062E+04  0.46999998093E+01 0.  1.
</event>
<event>
 5   0  0.5735179E-07  0.3877146E+04  0.7818609E-02  0.8029799E-01
        2   -1    0    0  501    0  0.00000000000E+00  0.00000000000E+00  0.16001175750E+04  0.16001175751E+04  0.25500000920E-02 0.  1.
       -2   -1    0    0    0  501  0.00000000000E+00  0.00000000000E+00 -0.23486185433E+04  0.23486185433E+04  0.25500000920E-02 0. -1.
    10030    2    1    2    0    0  0.00000000000E+00  0.00000000000E+00 -0.74850096820E+03  0.39487361183E+04  0.38771462743E+04 0.  0.
        5    1    3    3  502    0  0.31487932643E+03  0.35810354977E+03  0.15394486666E+04  0.16116176438E+04  0.46999998093E+01 0.  1.
       -5    1    3    3    0  502 -0.31487932643E+03 -0.35810354977E+03 -0.22879496348E+04  0.23371184745E+04  0.46999998093E+01 0. -1.
</event>
<event>
 5   0  0.6095665E-07  0.3868391E+04  0.7818609E-02  0.8031636E-01
       -2   -1    0    0    0  501  0.00000000000E+00  0.00000000000E+00  0.14491295600E+04  0.14491295600E+04  0.25500000920E-02 0. -1.
        2   -1    0    0  501    0  0.00000000000E+00  0.00000000000E+00 -0.25816270241E+04  0.25816270241E+04  0.25500000920E-02 0.  1.
    10030    2    1    2    0    0  0.00000000000E+00  0.00000000000E+00 -0.11324974641E+04  0.40307565841E+04  0.38683908973E+04 0.  0.
        4    1    3    3  502    0 -0.19329198003E+04 -0.69940430927E+02 -0.57282243948E+03  0.20172252671E+04  0.12699999809E+01 0. -1.
       -4    1    3    3    0  502  0.19329198003E+04  0.69940430927E+02 -0.55967502462E+03  0.20135313170E+04  0.12699999809E+01 0.  1.
</event>
<event>
 5   0  0.1876027E-07  0.3491613E+04  0.7818609E-02  0.8115780E-01
       -1   -1    0    0    0  501  0.00000000000E+00  0.00000000000E+00  0.11796736363E+04  0.11796736363E+04  0.50400001928E-02 0. -1.
        1   -1    0    0  501    0  0.00000000000E+00  0.00000000000E+00 -0.25836302150E+04  0.25836302150E+04  0.50400001928E-02 0.  1.
    10030    2    1    2    0    0  0.00000000000E+00  0.00000000000E+00 -0.14039565787E+04  0.37633038513E+04  0.34916130660E+04 0.  0.
        3    1    3    3  502    0  0.59755128937E+02  0.33661932190E+02 -0.25821776532E+04  0.25830883152E+04  0.10100000352E+00 0.  1.
       -3    1    3    3    0  502 -0.59755128937E+02 -0.33661932190E+02  0.11782210745E+04  0.11802155361E+04  0.10100000352E+00 0. -1.
</event>
<event>
 5   0  0.5805753E-07  0.3845997E+04  0.7818609E-02  0.8036355E-01
       -2   -1    0    0    0  501  0.00000000000E+00  0.00000000000E+00  0.13178743311E+04  0.13178743311E+04  0.25500000920E-02 0.  1.
        2   -1    0    0  501    0  0.00000000000E+00  0.00000000000E+00 -0.28059760203E+04  0.28059760203E+04  0.25500000920E-02 0. -1.
    10030    2    1    2    0    0  0.00000000000E+00  0.00000000000E+00 -0.14881016892E+04  0.41238503514E+04  0.38459972807E+04 0.  0.
        1    1    3    3  502    0 -0.16679722831E+04  0.40058712582E+03 -0.16759309616E+04  0.23981964412E+04  0.50400001928E-02 0. -1.
       -1    1    3    3    0  502  0.16679722831E+04 -0.40058712582E+03  0.18782927234E+03  0.17256539103E+04  0.50400001928E-02 0.  1.
</event>
<event>
 5   0  0.5735179E-07  0.3986457E+04  0.7818609E-02  0.8007284E-01
        2   -1    0    0  501    0  0.00000000000E+00  0.00000000000E+00  0.14385533453E+04  0.14385533453E+04  0.25500000920E-02 0. -1.
       -2   -1    0    0    0  501  0.00000000000E+00  0.00000000000E+00 -0.27617739483E+04  0.27617739483E+04  0.25500000920E-02 0.  1.
    10030    2    1    2    0    0  0.00000000000E+00  0.00000000000E+00 -0.13232206030E+04  0.42003272935E+04  0.39864566483E+04 0.  0.
        5    1    3    3  502    0  0.17142454587E+04 -0.19208741636E+03  0.39066942391E+03  0.17686660954E+04  0.46999998093E+01 0. -1.
       -5    1    3    3    0  502 -0.17142454587E+04  0.19208741636E+03 -0.17138900269E+04  0.24316611981E+04  0.46999998093E+01 0.  1.
</event>
<event>
 5   0  0.1943459E-07  0.2996883E+04  0.7818609E-02  0.8244622E-01
       -1   -1    0    0    0  501  0.00000000000E+00  0.00000000000E+00  0.15395003323E+04  0.15395003323E+04  0.50400001928E-02 0.  1.
        1   -1    0    0  501    0  0.00000000000E+00  0.00000000000E+00 -0.14584777341E+04  0.14584777341E+04  0.50400001928E-02 0. -1.
    10030    2    1    2    0    0  0.00000000000E+00  0.00000000000E+00  0.81022598222E+02  0.29979780664E+04  0.29968830183E+04 0.  0.
        2    1    3    3  502    0  0.52816519248E+03  0.92838568554E+03 -0.10108096738E+04  0.14705762981E+04  0.25500000920E-02 0. -1.
       -2    1    3    3    0  502 -0.52816519248E+03 -0.92838568554E+03  0.10918322721E+04  0.15274017684E+04  0.25500000920E-02 0.  1.
</event>
<event>
 5   0  0.6095665E-07  0.2632181E+04  0.7818609E-02  0.8357351E-01
        2   -1    0    0  501    0  0.00000000000E+00  0.00000000000E+00  0.17745422828E+04  0.17745422828E+04  0.25500000920E-02 0. -1.
       -2   -1    0    0    0  501  0.00000000000E+00  0.00000000000E+00 -0.97607970188E+03  0.97607970188E+03  0.25500000920E-02 0.  1.
    10030    2    1    2    0    0  0.00000000000E+00  0.00000000000E+00  0.79846258088E+03  0.27506219846E+04  0.26321813785E+04 0.  0.
        4    1    3    3  502    0  0.31006016897E+03  0.63477568247E+03 -0.76114644047E+03  0.10384714691E+04  0.12699999809E+01 0.  1.
       -4    1    3    3    0  502 -0.31006016897E+03 -0.63477568247E+03  0.15596090214E+04  0.17121505155E+04  0.12699999809E+01 0. -1.
</event>
<event>
 5   0  0.3959190E-07  0.2992775E+04  0.7818609E-02  0.8245797E-01
       -2   -1    0    0    0  501  0.00000000000E+00  0.00000000000E+00  0.14814914898E+04  0.14814914898E+04  0.25500000920E-02 0.  1.
        2   -1    0    0  501    0  0.00000000000E+00  0.00000000000E+00 -0.15114332466E+04  0.15114332466E+04  0.25500000920E-02 0. -1.
    10030    2    1    2    0    0  0.00000000000E+00  0.00000000000E+00 -0.29941756790E+02  0.29929247364E+04  0.29927749613E+04 0.  0.
        2    1    3    3  502    0  0.11064725688E+04 -0.58000279258E+03  0.80877581809E+03  0.14882214583E+04  0.25500000920E-02 0.  1.
       -2    1    3    3    0  502 -0.11064725688E+04  0.58000279258E+03 -0.83871757488E+03  0.15047032782E+04  0.25500000920E-02 0. -1.
</event>
<event>
 5   0  0.1860500E-07  0.2574908E+04  0.7818609E-02  0.8376775E-01
       -1   -1    0    0    0  501  0.00000000000E+00  0.00000000000E+00  0.11688561951E+04  0.11688561951E+04  0.50400001928E-02 0. -1.
        1   -1    0    0  501    0  0.00000000000E+00  0.00000000000E+00 -0.14180855903E+04  0.14180855903E+04  0.50400001928E-02 0.  1.
    10030    2    1    2    0    0  0.00000000000E+00  0.00000000000E+00 -0.24922939514E+03  0.25869417854E+04  0.25749082527E+04 0.  0.
        5    1    3    3  502    0  0.94825341916E+03 -0.81297582192E+03  0.18893645077E+03  0.12632629601E+04  0.46999998093E+01 0.  1.
       -5    1    3    3    0  502 -0.94825341916E+03  0.81297582192E+03 -0.43816584591E+03  0.13236788253E+04  0.46999998093E+01 0. -1.
</event>
<event>
 5   0  0.5872444E-07  0.3890713E+04  0.7818609E-02  0.8026964E-01
       -2   -1    0    0    0  501  0.00000000000E+00  0.00000000000E+00  0.19394160507E+04  0.19394160507E+04  0.25500000920E-02 0. -1.
        2   -1    0    0  501    0  0.00000000000E+00  0.00000000000E+00 -0.19513150654E+04  0.19513150654E+04  0.25500000920E-02 0.  1.
    10030    2    1    2    0    0  0.00000000000E+00  0.00000000000E+00 -0.11899014702E+02  0.38907311161E+04  0.38907129207E+04 0.  0.
        3    1    3    3  502    0  0.14204758444E+04  0.76531910304E+00 -0.13351131772E+04  0.19494305365E+04  0.10100000352E+00 0.  1.
       -3    1    3    3    0  502 -0.14204758444E+04 -0.76531910304E+00  0.13232141625E+04  0.19413005796E+04  0.10100000352E+00 0. -1.
</event>
<event>
 5   0  0.3959190E-07  0.3410652E+04  0.7818609E-02  0.8135297E-01
        2   -1    0    0  501    0  0.00000000000E+00  0.00000000000E+00  0.19067505197E+04  0.19067505197E+04  0.25500000920E-02 0. -1.
       -2   -1    0    0    0  501  0.00000000000E+00  0.00000000000E+00 -0.15251793985E+04  0.15251793985E+04  0.25500000920E-02 0.  1.
    10030    2    1    2    0    0  0.00000000000E+00  0.00000000000E+00  0.38157112122E+03  0.34319299182E+04  0.34106519088E+04 0.  0.
        2    1    3    3  502    0 -0.15275750026E+04 -0.75747310809E+03  0.22073215446E+03  0.17192945013E+04  0.25500000920E-02 0. -1.
       -2    1    3    3    0  502  0.15275750026E+04  0.75747310809E+03  0.16083896676E+03  0.17126354169E+04  0.25500000920E-02 0.  1.
</event>
<event>
 5   0  0.5735179E-07  0.3865433E+04  0.7818609E-02  0.8032257E-01
       -2   -1    0    0    0  501  0.00000000000E+00  0.00000000000E+00  0.23292344782E+04  0.23292344782E+04  0.25500000920E-02 0. -1.
        2   -1    0    0  501    0  0.00000000000E+00  0.00000000000E+00 -0.16036994816E+04  0.16036994816E+04  0.25500000920E-02 0.  1.
    10030    2    1    2    0    0  0.00000000000E+00  0.00000000000E+00  0.72553499658E+03  0.39329339598E+04  0.38654325115E+04 0.  0.
        5    1    3    3  502    0  0.14868976021E+04 -0.85044082359E+02  0.16160542021E+04  0.21976692766E+04  0.46999998093E+01 0. -1.
       -5    1    3    3    0  502 -0.14868976021E+04  0.85044082359E+02 -0.89051920557E+03  0.17352646832E+04  0.46999998093E+01 0.  1.
</event>
<event>
 5   0  0.1876027E-07  0.3471295E+04  0.7818609E-02  0.8120627E-01
       -1   -1    0    0    0  501  0.00000000000E+00  0.00000000000E+00  0.29295166160E+04  0.29295166160E+04  0.50400001928E-02 0. -1.
        1   -1    0    0  501    0  0.00000000000E+00  0.00000000000E+00 -0.10283172217E+04  0.10283172217E+04  0.50400001928E-02 0.  1.
    10030    2    1    2    0    0  0.00000000000E+00  0.00000000000E+00  0.19011993944E+04  0.39578338377E+04  0.34712950825E+04 0.  0.
        3    1    3    3  502    0  0.11657754675E+04  0.83670764446E+03  0.20638544174E+04  0.25136839875E+04  0.10100000352E+00 0. -1.
       -3    1    3    3    0  502 -0.11657754675E+04 -0.83670764446E+03 -0.16265502300E+03  0.14441498502E+04  0.10100000352E+00 0.  1.
</event>
<event>
 5   0  0.5805753E-07  0.3731923E+04  0.7818609E-02  0.8060924E-01
       -2   -1    0    0    0  501  0.00000000000E+00  0.00000000000E+00  0.27118512619E+04  0.27118512619E+04  0.25500000920E-02 0.  1.
        2   -1    0    0  501    0  0.00000000000E+00  0.00000000000E+00 -0.12839242869E+04  0.12839242869E+04  0.25500000920E-02 0. -1.
    10030    2    1    2    0    0  0.00000000000E+00  0.00000000000E+00  0.14279269750E+04  0.39957755489E+04  0.37319226668E+04 0.  0.
        1    1    3    3  502    0 -0.38438851214E+03 -0.18100865712E+04  0.45689747963E+03  0.19060228830E+04  0.50400001928E-02 0. -1.
       -1    1    3    3    0  502  0.38438851214E+03  0.18100865712E+04  0.97102949538E+03  0.20897526659E+04  0.50400001928E-02 0.  1.
</event>
<event>
 5   0  0.1876027E-07  0.3879288E+04  0.7818609E-02  0.8029351E-01
        1   -1    0    0  501    0  0.00000000000E+00  0.00000000000E+00  0.20826731109E+04  0.20826731109E+04  0.50400001928E-02 0. -1.
       -1   -1    0    0    0  501  0.00000000000E+00  0.00000000000E+00 -0.18064370957E+04  0.18064370957E+04  0.50400001928E-02 0.  1.
    10030    2    1    2    0    0  0.00000000000E+00  0.00000000000E+00  0.27623601529E+03  0.38891102066E+04  0.38792875458E+04 0.  0.
        3    1    3    3  502    0  0.65281947703E+03  0.16806470215E+04 -0.57886436324E+03  0.18936292250E+04  0.10100000352E+00 0.  1.
       -3    1    3    3    0  502 -0.65281947703E+03 -0.16806470215E+04  0.85510037852E+03  0.19954809816E+04  0.10100000352E+00 0. -1.
</event>
<event>
 5   0  0.3959190E-07  0.3860318E+04  0.7818609E-02  0.8033333E-01
       -2   -1    0    0    0  501  0.00000000000E+00  0.00000000000E+00  0.23052913815E+04  0.23052913815E+04  0.25500000920E-02 0.  1.
        2   -1    0    0  501    0  0.00000000000E+00  0.00000000000E+00 -0.16160707173E+04  0.16160707173E+04  0.25500000920E-02 0. -1.
    10030    2    1    2    0    0  0.00000000000E+00  0.00000000000E+00  0.68922066413E+03  0.39213620988E+04  0.38603180680E+04 0.  0.
        2    1    3    3  502    0  0.12787483150E+04 -0.14448515405E+04  0.29162547704E+03  0.19513684034E+04  0.25500000920E-02 0.  1.
       -2    1    3    3    0  502 -0.12787483150E+04  0.14448515405E+04  0.39759518709E+03  0.19699936954E+04  0.25500000920E-02 0. -1.
</event>
<event>
 5   0  0.5805753E-07  0.3864906E+04  0.7818609E-02  0.8032368E-01
        2   -1    0    0  501    0  0.00000000000E+00  0.00000000000E+00  0.12736438325E+04  0.12736438325E+04  0.25500000920E-02 0. -1.
       -2   -1    0    0    0  501  0.00000000000E+00  0.00000000000E+00 -0.29320394682E+04  0.29320394682E+04  0.25500000920E-02 0.  1.
    10030    2    1    2    0    0  0.00000000000E+00  0.00000000000E+00 -0.16583956357E+04  0.42056833007E+04  0.38649056833E+04 0.  0.
        1    1    3    3  502    0 -0.79637365373E+03 -0.15513015230E+04 -0.17354739185E+04  0.24602067258E+04  0.50400001928E-02 0.  1.
       -1    1    3    3    0  502  0.79637365373E+03  0.15513015230E+04  0.77078282763E+02  0.17454765749E+04  0.50400001928E-02 0. -1.
</event>
<event>
 5   0  0.5805753E-07  0.3366295E+04  0.7818609E-02  0.8146229E-01
        2   -1    0    0  501    0  0.00000000000E+00  0.00000000000E+00  0.13422995188E+04  0.13422995188E+04  0.25500000920E-02 0.  1.
       -2   -1    0    0    0  501  0.00000000000E+00  0.00000000000E+00 -0.21105459148E+04  0.21105459148E+04  0.25500000920E-02 0. -1.
    10030    2    1    2    0    0  0.00000000000E+00  0.00000000000E+00 -0.76824639605E+03  0.34528454336E+04  0.33662945598E+04 0.  0.
        1    1    3    3  502    0  0.44703441511E+03  0.72334969238E+03 -0.18740228211E+04  0.20579203288E+04  0.50400001928E-02 0. -1.
       -1    1    3    3    0  502 -0.44703441511E+03 -0.72334969238E+03  0.11057764250E+04  0.13949251048E+04  0.50400001928E-02 0.  1.
</event>
<event>
 5   0  0.5872444E-07  0.3325712E+04  0.7818609E-02  0.8156384E-01
       -2   -1    0    0    0  501  0.00000000000E+00  0.00000000000E+00  0.15989977086E+04  0.15989977086E+04  0.25500000920E-02 0. -1.
        2   -1    0    0  501    0  0.00000000000E+00  0.00000000000E+00 -0.17292641304E+04  0.17292641304E+04  0.25500000920E-02 0.  1.
    10030    2    1    2    0    0  0.00000000000E+00  0.00000000000E+00 -0.13026642177E+03  0.33282618390E+04  0.33257115823E+04 0.  0.
        3    1    3    3  502    0  0.11933450750E+04  0.66185121951E+03 -0.10161091557E+04  0.17013516189E+04  0.10100000352E+00 0.  1.
       -3    1    3    3    0  502 -0.11933450750E+04 -0.66185121951E+03  0.88584273391E+03  0.16269102201E+04  0.10100000352E+00 0. -1.
</event>
<event>
 5   0  0.1943459E-07  0.3837036E+04  0.7818609E-02  0.8038254E-01
       -1   -1    0    0    0  501  0.00000000000E+00  0.00000000000E+00  0.26634062068E+04  0.26634062068E+04  0.50400001928E-02 0. -1.
        1   -1    0    0  501    0  0.00000000000E+00  0.00000000000E+00 -0.13819561357E+04  0.13819561357E+04  0.50400001928E-02 0.  1.
    10030    2    1    2    0    0  0.00000000000E+00  0.00000000000E+00  0.12814500711E+04  0.40453623425E+04  0.38370356002E+04 0.  0.
        2    1    3    3  502    0 -0.19848489452E+03 -0.12032355362E+04 -0.92074708118E+03  0.15280534011E+04  0.25500000920E-02 0.  1.
       -2    1    3    3    0  502  0.19848489452E+03  0.12032355362E+04  0.22021971523E+04  0.25173089414E+04  0.25500000920E-02 0. -1.
</event>
<event>
 5   0  0.1860500E-07  0.3904790E+04  0.7818609E-02  0.8024034E-01
       -1   -1    0    0    0  501  0.00000000000E+00  0.00000000000E+00  0.17161202082E+04  0.17161202082E+04  0.50400001928E-02 0. -1.
        1   -1    0    0  501    0  0.00000000000E+00  0.00000000000E+00 -0.22211999328E+04  0.22211999328E+04  0.50400001928E-02 0.  1.
    10030    2    1    2    0    0  0.00000000000E+00  0.00000000000E+00 -0.50507972457E+03  0.39373201410E+04  0.39047899257E+04 0.  0.
        5    1    3    3  502    0 -0.82484561798E+03 -0.95245521562E+03  0.12512877440E+04  0.17757489517E+04  0.46999998093E+01 0. -1.
       -5    1    3    3    0  502  0.82484561798E+03  0.95245521562E+03 -0.17563674686E+04  0.21615711892E+04  0.46999998093E+01 0.  1.
</event>
<event>
 5   0  0.6095665E-07  0.3827173E+04  0.7818609E-02  0.8040349E-01
       -2   -1    0    0    0  501  0.00000000000E+00  0.00000000000E+00  0.14508846646E+04  0.14508846646E+04  0.25500000920E-02 0. -1.
        2   -1    0    0  501    0  0.00000000000E+00  0.00000000000E+00 -0.25238479926E+04  0.25238479926E+04  0.25500000920E-02 0.  1.
    10030    2    1    2    0    0  0.00000000000E+00  0.00000000000E+00 -0.10729633281E+04  0.39747326572E+04  0.38271725063E+04 0.  0.
        4    1    3    3  502    0  0.40277231730E+03  0.13278475300E+04  0.83205217514E+03  0.16179360425E+04  0.12699999809E+01 0. -1.
       -4    1    3    3    0  502 -0.40277231730E+03 -0.13278475300E+04 -0.19050155032E+04  0.23567966147E+04  0.12699999809E+01 0.  1.
</event>
<event>
 5   0  0.1860500E-07  0.3984178E+04  0.7818609E-02  0.8007746E-01
       -1   -1    0    0    0  501  0.00000000000E+00  0.00000000000E+00  0.16045532044E+04  0.16045532044E+04  0.50400001928E-02 0.  1.
        1   -1    0    0  501    0  0.00000000000E+00  0.00000000000E+00 -0.24732232218E+04  0.24732232218E+04  0.50400001928E-02 0. -1.
    10030    2    1    2    0    0  0.00000000000E+00  0.00000000000E+00 -0.86867001736E+03  0.40777764262E+04  0.39841778302E+04 0.  0.
        4    1    3    3  502    0  0.40901477036E+03  0.83601957147E+03 -0.22370174598E+04  0.24229053912E+04  0.12699999809E+01 0. -1.
       -4    1    3    3    0  502 -0.40901477036E+03 -0.83601957147E+03  0.13683474425E+04  0.16548710350E+04  0.12699999809E+01 0.  1.
</event>
<event>
 5   0  0.2666813E-07  0.3823120E+04  0.7818609E-02  0.8041212E-01
       -1   -1    0    0    0  501  0.00000000000E+00  0.00000000000E+00  0.17110214207E+04  0.17110214208E+04  0.50400001928E-02 0.  1.
        1   -1    0    0  501    0  0.00000000000E+00  0.00000000000E+00 -0.21356019489E+04  0.21356019490E+04  0.50400001928E-02 0. -1.
    10030    2    1    2    0    0  0.00000000000E+00  0.00000000000E+00 -0.42458052820E+03  0.38466233697E+04  0.38231195016E+04 0.  0.
        1    1    3    3  502    0  0.13642935285E+04 -0.12734554697E+04 -0.62844523541E+03  0.19692458148E+04  0.50400001928E-02 0. -1.
       -1    1    3    3    0  502 -0.13642935285E+04  0.12734554697E+04  0.20386470721E+03  0.18773775550E+04  0.50400001928E-02 0.  1.
</event>
<event>
 5   0  0.5805753E-07  0.3967094E+04  0.7818609E-02  0.8011218E-01
       -2   -1    0    0    0  501  0.00000000000E+00  0.00000000000E+00  0.19178074276E+04  0.19178074276E+04  0.25500000920E-02 0. -1.
        2   -1    0    0  501    0  0.00000000000E+00  0.00000000000E+00 -0.20515403734E+04  0.20515403734E+04  0.25500000920E-02 0.  1.
    10030    2    1    2    0    0  0.00000000000E+00  0.00000000000E+00 -0.13373294586E+03  0.39693478010E+04  0.39670943352E+04 0.  0.
        1    1    3    3  502    0 -0.13282551462E+04  0.14702486941E+04 -0.15947395263E+03  0.19877939776E+04  0.50400001928E-02 0.  1.
       -1    1    3    3    0  502  0.13282551462E+04 -0.14702486941E+04  0.25741006770E+02  0.19815538234E+04  0.50400001928E-02 0. -1.
</event>
<event>
 5   0  0.1860500E-07  0.3895862E+04  0.7818609E-02  0.8025890E-01
       -1   -1    0    0    0  501  0.00000000000E+00  0.00000000000E+00  0.19152876742E+04  0.19152876742E+04  0.50400001928E-02 0. -1.
        1   -1    0    0  501    0  0.00000000000E+00  0.00000000000E+00 -0.19811311422E+04  0.19811311422E+04  0.50400001928E-02 0.  1.
    10030    2    1    2    0    0  0.00000000000E+00  0.00000000000E+00 -0.65843467976E+02  0.38964188164E+04  0.38958624502E+04 0.  0.
        5    1    3    3  502    0  0.17284988946E+04  0.84942469039E+03 -0.32482508487E+03  0.19531421246E+04  0.46999998093E+01 0. -1.
       -5    1    3    3    0  502 -0.17284988946E+04 -0.84942469039E+03  0.25898161690E+03  0.19432766918E+04  0.46999998093E+01 0.  1.
</event>
<event>
 5   0  0.3959190E-07  0.4032144E+04  0.7818609E-02  0.7998093E-01
        2   -1    0    0  501    0  0.00000000000E+00  0.00000000000E+00  0.17606387204E+04  0.17606387204E+04  0.25500000920E-02 0. -1.
       -2   -1    0    0    0  501  0.00000000000E+00  0.00000000000E+00 -0.23085634100E+04  0.23085634100E+04  0.25500000920E-02 0.  1.
    10030    2    1    2    0    0  0.00000000000E+00  0.00000000000E+00 -0.54792468962E+03  0.40692021304E+04  0.40321439102E+04 0.  0.
        2    1    3    3  502    0  0.95578027731E+03  0.13407974613E+04 -0.14479649314E+04  0.21926824242E+04  0.25500000920E-02 0.  1.
       -2    1    3    3    0  502 -0.95578027731E+03 -0.13407974613E+04  0.90004024182E+03  0.18765197062E+04  0.25500000920E-02 0. -1.
</event>
<event>
 5   0  0.5805753E-07  0.3702656E+04  0.7818609E-02  0.8067374E-01
        2   -1    0    0  501    0  0.00000000000E+00  0.00000000000E+00  0.17973180489E+04  0.17973180489E+04  0.25500000920E-02 0.  1.
       -2   -1    0    0    0  501  0.00000000000E+00  0.00000000000E+00 -0.19069604706E+04  0.19069604706E+04  0.25500000920E-02 0. -1.
    10030    2    1    2    0    0  0.00000000000E+00  0.00000000000E+00 -0.10964242168E+03  0.37042785196E+04  0.37026555187E+04 0.  0.
        1    1    3    3  502    0 -0.16440957362E+03  0.17466505230E+04  0.53670432694E+03  0.18346307781E+04  0.50400001928E-02 0.  1.
       -1    1    3    3    0  502  0.16440957362E+03 -0.17466505230E+04 -0.64634674862E+03  0.18696477414E+04  0.50400001928E-02 0. -1.
</event>
<event>
 5   0  0.5805753E-07  0.4341535E+04  0.7818609E-02  0.7938982E-01
       -2   -1    0    0    0  501  0.00000000000E+00  0.00000000000E+00  0.14769799725E+04  0.14769799725E+04  0.25500000920E-02 0. -1.
        2   -1    0    0  501    0  0.00000000000E+00  0.00000000000E+00 -0.31904500386E+04  0.31904500386E+04  0.25500000920E-02 0.  1.
    10030    2    1    2    0    0  0.00000000000E+00  0.00000000000E+00 -0.17134700661E+04  0.46674300111E+04  0.43415346642E+04 0.  0.
        1    1    3    3  502    0  0.87172327579E+03 -0.13298608856E+04  0.73196135872E+03  0.17504853256E+04  0.50400001928E-02 0. -1.
       -1    1    3    3    0  502 -0.87172327579E+03  0.13298608856E+04 -0.24454314248E+04  0.29169446855E+04  0.50400001928E-02 0.  1.
</event>
<event>
 5   0  0.3959190E-07  0.3845749E+04  0.7818609E-02  0.8036408E-01
        2   -1    0    0  501    0  0.00000000000E+00  0.00000000000E+00  0.21253440090E+04  0.21253440090E+04  0.25500000920E-02 0. -1.
       -2   -1    0    0    0  501  0.00000000000E+00  0.00000000000E+00 -0.17396933801E+04  0.17396933801E+04  0.25500000920E-02 0.  1.
    10030    2    1    2    0    0  0.00000000000E+00  0.00000000000E+00  0.38565062897E+03  0.38650373891E+04  0.38457492913E+04 0.  0.
        2    1    3    3  502    0 -0.14660008910E+04  0.89717613933E+03 -0.67368408637E+03  0.18460590147E+04  0.25500000920E-02 0.  1.
       -2    1    3    3    0  502  0.14660008910E+04 -0.89717613933E+03  0.10593347153E+04  0.20189783745E+04  0.25500000920E-02 0. -1.
</event>
<event>
 5   0  0.5805753E-07  0.3827019E+04  0.7818609E-02  0.8040382E-01
       -2   -1    0    0    0  501  0.00000000000E+00  0.00000000000E+00  0.34179397196E+04  0.34179397196E+04  0.25500000920E-02 0. -1.
        2   -1    0    0  501    0  0.00000000000E+00  0.00000000000E+00 -0.10712646145E+04  0.10712646145E+04  0.25500000920E-02 0.  1.
    10030    2    1    2    0    0  0.00000000000E+00  0.00000000000E+00  0.23466751051E+04  0.44892043341E+04  0.38270186182E+04 0.  0.
        1    1    3    3  502    0 -0.17212608706E+04  0.66132288318E+03  0.57356403365E+03  0.19310781034E+04  0.50400001928E-02 0.  1.
       -1    1    3    3    0  502  0.17212608706E+04 -0.66132288318E+03  0.17731110714E+04  0.25581262307E+04  0.50400001928E-02 0. -1.
</event>
<event>
 5   0  0.5872444E-07  0.3559451E+04  0.7818609E-02  0.8099844E-01
        2   -1    0    0  501    0  0.00000000000E+00  0.00000000000E+00  0.16585506536E+04  0.16585506536E+04  0.25500000920E-02 0.  1.
       -2   -1    0    0    0  501  0.00000000000E+00  0.00000000000E+00 -0.19097529450E+04  0.19097529450E+04  0.25500000920E-02 0. -1.
    10030    2    1    2    0    0  0.00000000000E+00  0.00000000000E+00 -0.25120229141E+03  0.35683035986E+04  0.35594505167E+04 0.  0.
        3    1    3    3  502    0 -0.64753797237E+03  0.96656536044E+03 -0.14757500656E+04  0.18791999063E+04  0.10100000352E+00 0. -1.
       -3    1    3    3    0  502  0.64753797237E+03 -0.96656536044E+03  0.12245477742E+04  0.16891036923E+04  0.10100000352E+00 0.  1.
</event>
<event>
 5   0  0.3959190E-07  0.2498468E+04  0.7818609E-02  0.8403532E-01
        2   -1    0    0  501    0  0.00000000000E+00  0.00000000000E+00  0.23540879115E+04  0.23540879115E+04  0.25500000920E-02 0. -1.
       -2   -1    0    0    0  501  0.00000000000E+00  0.00000000000E+00 -0.66292579696E+03  0.66292579696E+03  0.25500000920E-02 0.  1.
    10030    2    1    2    0    0  0.00000000000E+00  0.00000000000E+00  0.16911621145E+04  0.30170137085E+04  0.24984680145E+04 0.  0.
        2    1    3    3  502    0  0.11642467033E+04 -0.42488686900E+03  0.65623743940E+03  0.14023718532E+04  0.25500000920E-02 0.  1.
       -2    1    3    3    0  502 -0.11642467033E+04  0.42488686900E+03  0.10349246751E+04  0.16146418553E+04  0.25500000920E-02 0. -1.
</event>
<event>
 5   0  0.1876027E-07  0.3886713E+04  0.7818609E-02  0.8027798E-01
        1   -1    0    0  501    0  0.00000000000E+00  0.00000000000E+00  0.25212117261E+04  0.25212117261E+04  0.50400001928E-02 0.  1.
       -1   -1    0    0    0  501  0.00000000000E+00  0.00000000000E+00 -0.14979439331E+04  0.14979439331E+04  0.50400001928E-02 0. -1.
    10030    2    1    2    0    0  0.00000000000E+00  0.00000000000E+00  0.10232677930E+04  0.40191556592E+04  0.38867126516E+04 0.  0.
        3    1    3    3  502    0 -0.77908371902E+03 -0.17133582727E+04  0.10119233661E+04  0.21369503787E+04  0.10100000352E+00 0. -1.
       -3    1    3    3    0  502  0.77908371902E+03  0.17133582727E+04  0.11344426860E+02  0.18822052805E+04  0.10100000352E+00 0.  1.
</event>
<event>
 5   0  0.2666813E-07  0.4105590E+04  0.7818609E-02  0.7983578E-01
        1   -1    0    0  501    0  0.00000000000E+00  0.00000000000E+00  0.28595562443E+04  0.28595562443E+04  0.50400001928E-02 0.  1.
       -1   -1    0    0    0  501  0.00000000000E+00  0.00000000000E+00 -0.14736434972E+04  0.14736434972E+04  0.50400001928E-02 0. -1.
    10030    2    1    2    0    0  0.00000000000E+00  0.00000000000E+00  0.13859127470E+04  0.43331997415E+04  0.41055895871E+04 0.  0.
        1    1    3    3  502    0 -0.63250707259E+02  0.12090131622E+04 -0.10567353183E+04  0.16069856910E+04  0.50400001928E-02 0. -1.
       -1    1    3    3    0  502  0.63250707259E+02 -0.12090131622E+04  0.24426480653E+04  0.27262140505E+04  0.50400001928E-02 0.  1.
</event>
<event>
 5   0  0.3959190E-07  0.3823775E+04  0.7818609E-02  0.8041072E-01
        2   -1    0    0  501    0  0.00000000000E+00  0.00000000000E+00  0.13317718144E+04  0.13317718144E+04  0.25500000920E-02 0. -1.
       -2   -1    0    0    0  501  0.00000000000E+00  0.00000000000E+00 -0.27447002949E+04  0.27447002949E+04  0.25500000920E-02 0.  1.
    10030    2    1    2    0    0  0.00000000000E+00  0.00000000000E+00 -0.14129284806E+04  0.40764721093E+04  0.38237753552E+04 0.  0.
        2    1    3    3  502    0  0.73962178586E+03 -0.70982163220E+03  0.10140102185E+04  0.14419097957E+04  0.25500000920E-02 0. -1.
       -2    1    3    3    0  502 -0.73962178586E+03  0.70982163220E+03 -0.24269386990E+04  0.26345623136E+04  0.25500000920E-02 0.  1.
</event>
<event>
 5   0  0.5872444E-07  0.4062402E+04  0.7818609E-02  0.7992075E-01
       -2   -1    0    0    0  501  0.00000000000E+00  0.00000000000E+00  0.29806175344E+04  0.29806175344E+04  0.25500000920E-02 0. -1.
        2   -1    0    0  501    0  0.00000000000E+00  0.00000000000E+00 -0.13842024604E+04  0.13842024604E+04  0.25500000920E-02 0.  1.
    10030    2    1    2    0    0  0.00000000000E+00  0.00000000000E+00  0.15964150740E+04  0.43648199947E+04  0.40624023063E+04 0.  0.
        3    1    3    3  502    0  0.13624368666E+04 -0.11040422916E+04 -0.30310159519E+03  0.17796106834E+04  0.10100000352E+00 0.  1.
       -3    1    3    3    0  502 -0.13624368666E+04  0.11040422916E+04  0.18995166692E+04  0.25852093114E+04  0.10100000352E+00 0. -1.
</event>
<event>
 5   0  0.5735179E-07  0.3368144E+04  0.7818609E-02  0.8145769E-01
       -2   -1    0    0    0  501  0.00000000000E+00  0.00000000000E+00  0.13542713843E+04  0.13542713843E+04  0.25500000920E-02 0. -1.
        2   -1    0    0  501    0  0.00000000000E+00  0.00000000000E+00 -0.20941882059E+04  0.20941882059E+04  0.25500000920E-02 0.  1.
    10030    2    1    2    0    0  0.00000000000E+00  0.00000000000E+00 -0.73991682154E+03  0.34484595902E+04  0.33681443916E+04 0.  0.
        5    1    3    3  502    0 -0.47882953887E+03  0.95871451762E+03  0.96012129438E+03  0.14388419800E+04  0.46999998093E+01 0. -1.
       -5    1    3    3    0  502  0.47882953887E+03 -0.95871451762E+03 -0.17000381159E+04  0.20096176102E+04  0.46999998093E+01 0.  1.
</event>
<event>
 5   0  0.1943459E-07  0.3732571E+04  0.7818609E-02  0.8060782E-01
       -1   -1    0    0    0  501  0.00000000000E+00  0.00000000000E+00  0.19235404931E+04  0.19235404931E+04  0.50400001928E-02 0. -1.
        1   -1    0    0  501    0  0.00000000000E+00  0.00000000000E+00 -0.18107343049E+04  0.18107343049E+04  0.50400001928E-02 0.  1.
    10030    2    1    2    0    0  0.00000000000E+00  0.00000000000E+00  0.11280618818E+03  0.37342747980E+04  0.37325705661E+04 0.  0.
        2    1    3    3  502    0  0.16260724479E+04 -0.75732246394E+02  0.96960338979E+03  0.18947236507E+04  0.25500000920E-02 0. -1.
       -2    1    3    3    0  502 -0.16260724479E+04  0.75732246394E+02 -0.85679720161E+03  0.18395511473E+04  0.25500000920E-02 0.  1.
</event>
<event>
 5   0  0.1860500E-07  0.3929707E+04  0.7818609E-02  0.8018879E-01
        1   -1    0    0  501    0  0.00000000000E+00  0.00000000000E+00  0.26811134394E+04  0.26811134394E+04  0.50400001928E-02 0. -1.
       -1   -1    0    0    0  501  0.00000000000E+00  0.00000000000E+00 -0.14399425668E+04  0.14399425668E+04  0.50400001928E-02 0.  1.
    10030    2    1    2    0    0  0.00000000000E+00  0.00000000000E+00  0.12411708726E+04  0.41210560062E+04  0.39297070465E+04 0.  0.
        5    1    3    3  502    0 -0.14276060286E+04 -0.97665277121E+03  0.15980199466E+04  0.23549096476E+04  0.46999998093E+01 0. -1.
       -5    1    3    3    0  502  0.14276060286E+04  0.97665277121E+03 -0.35684907401E+03  0.17661463586E+04  0.46999998093E+01 0.  1.
</event>
<event>
 5   0  0.5805753E-07  0.3863824E+04  0.7818609E-02  0.8032595E-01
       -2   -1    0    0    0  501  0.00000000000E+00  0.00000000000E+00  0.18045015184E+04  0.18045015184E+04  0.25500000920E-02 0. -1.
        2   -1    0    0  501    0  0.00000000000E+00  0.00000000000E+00 -0.20683190365E+04  0.20683190365E+04  0.25500000920E-02 0.  1.
    10030    2    1    2    0    0  0.00000000000E+00  0.00000000000E+00 -0.26381751808E+03  0.38728205549E+04  0.38638244484E+04 0.  0.
        1    1    3    3  502    0 -0.86794183304E+03  0.65552740183E+01 -0.18618817564E+04  0.20542564766E+04  0.50400001928E-02 0.  1.
       -1    1    3    3    0  502  0.86794183304E+03 -0.65552740183E+01  0.15980642383E+04  0.18185640783E+04  0.50400001928E-02 0. -1.
</event>
<event>
 5   0  0.3959190E-07  0.3701726E+04  0.7818609E-02  0.8067579E-01
        2   -1    0    0  501    0  0.00000000000E+00  0.00000000000E+00  0.21698799113E+04  0.21698799113E+04  0.25500000920E-02 0. -1.
       -2   -1    0    0    0  501  0.00000000000E+00  0.00000000000E+00 -0.15787481571E+04  0.15787481571E+04  0.25500000920E-02 0.  1.
    10030    2    1    2    0    0  0.00000000000E+00  0.00000000000E+00  0.59113175426E+03  0.37486280684E+04  0.37017260358E+04 0.  0.
        2    1    3    3  502    0  0.44939813430E+03 -0.14364592134E+04  0.13863956863E+04  0.20463300696E+04  0.25500000920E-02 0. -1.
       -2    1    3    3    0  502 -0.44939813430E+03  0.14364592134E+04 -0.79526393201E+03  0.17022979987E+04  0.25500000920E-02 0.  1.
</event>
<event>
 5   0  0.3959190E-07  0.3931310E+04  0.7818609E-02  0.8018549E-01
       -2   -1    0    0    0  501  0.00000000000E+00  0.00000000000E+00  0.22797332398E+04  0.22797332398E+04  0.25500000920E-02 0.  1.
        2   -1    0    0  501    0  0.00000000000E+00  0.00000000000E+00 -0.16948472678E+04  0.16948472678E+04  0.25500000920E-02 0. -1.
    10030    2    1    2    0    0  0.00000000000E+00  0.00000000000E+00  0.58488597196E+03  0.39745805076E+04  0.39313100375E+04 0.  0.
        2    1    3    3  502    0  0.17200013996E+03  0.19031354992E+04 -0.17337866256E+03  0.19187414982E+04  0.25500000920E-02 0. -1.
       -2    1    3    3    0  502 -0.17200013996E+03 -0.19031354992E+04  0.75826463452E+03  0.20558390094E+04  0.25500000920E-02 0.  1.
</event>
<event>
 5   0  0.3959190E-07  0.3889992E+04  0.7818609E-02  0.8027114E-01
       -2   -1    0    0    0  501  0.00000000000E+00  0.00000000000E+00  0.16904701099E+04  0.16904701099E+04  0.25500000920E-02 0.  1.
        2   -1    0    0  501    0  0.00000000000E+00  0.00000000000E+00 -0.22378447180E+04  0.22378447180E+04  0.25500000920E-02 0. -1.
    10030    2    1    2    0    0  0.00000000000E+00  0.00000000000E+00 -0.54737460808E+03  0.39283148280E+04  0.38899920856E+04 0.  0.
        2    1    3    3  502    0  0.78561516942E+03  0.67467125600E+03 -0.19363082913E+04  0.21958283852E+04  0.25500000920E-02 0. -1.
       -2    1    3    3    0  502 -0.78561516942E+03 -0.67467125600E+03  0.13889336832E+04  0.17324864428E+04  0.25500000920E-02 0.  1.
</event>
<event>
 5   0  0.5735179E-07  0.3879350E+04  0.7818609E-02  0.8029338E-01
       -2   -1    0    0    0  501  0.00000000000E+00  0.00000000000E+00  0.21008343323E+04  0.21008343323E+04  0.25500000920E-02 0. -1.
        2   -1    0    0  501    0  0.00000000000E+00  0.00000000000E+00 -0.17908789448E+04  0.17908789448E+04  0.25500000920E-02 0.  1.
    10030    2    1    2    0    0  0.00000000000E+00  0.00000000000E+00  0.30995538756E+03  0.38917132771E+04  0.38793504467E+04 0.  0.
        5    1    3    3  502    0 -0.80196871000E+03  0.10301999990E+04  0.15940708043E+04  0.20604731663E+04  0.46999998093E+01 0. -1.
       -5    1    3    3    0  502  0.80196871000E+03 -0.10301999990E+04 -0.12841154167E+04  0.18312401108E+04  0.46999998093E+01 0.  1.
</event>
<event>
 5   0  0.1876027E-07  0.3915577E+04  0.7818609E-02  0.8021797E-01
        1   -1    0    0  501    0  0.00000000000E+00  0.00000000000E+00  0.29294693039E+04  0.29294693039E+04  0.50400001928E-02 0.  1.
       -1   -1    0    0    0  501  0.00000000000E+00  0.00000000000E+00 -0.13084064282E+04  0.13084064282E+04  0.50400001928E-02 0. -1.
    10030    2    1    2    0    0  0.00000000000E+00  0.00000000000E+00  0.16210628757E+04  0.42378757321E+04  0.39155773359E+04 0.  0.
        3    1    3    3  502    0  0.28502039586E+03 -0.12873915214E+04  0.23768288581E+04  0.27180744998E+04  0.10100000352E+00 0. -1.
       -3    1    3    3    0  502 -0.28502039586E+03  0.12873915214E+04 -0.75576598240E+03  0.15198012323E+04  0.10100000352E+00 0.  1.
</event>
<event>
 5   0  0.5735179E-07  0.3827865E+04  0.7818609E-02  0.8040201E-01
        2   -1    0    0  501    0  0.00000000000E+00  0.00000000000E+00  0.23014545054E+04  0.23014545054E+04  0.25500000920E-02 0. -1.
       -2   -1    0    0    0  501  0.00000000000E+00  0.00000000000E+00 -0.15916620340E+04  0.15916620340E+04  0.25500000920E-02 0.  1.
    10030    2    1    2    0    0  0.00000000000E+00  0.00000000000E+00  0.70979247136E+03  0.38931165393E+04  0.38278650755E+04 0.  0.
        5    1    3    3  502    0 -0.80634161413E+03  0.75085182889E+03 -0.12367571996E+04  0.16563682345E+04  0.46999998093E+01 0.  1.
       -5    1    3    3    0  502  0.80634161413E+03 -0.75085182889E+03  0.19465496709E+04  0.22367483048E+04  0.46999998093E+01 0. -1.
</event>
<event>
 5   0  0.5805753E-07  0.3968239E+04  0.7818609E-02  0.8010985E-01
        2   -1    0    0  501    0  0.00000000000E+00  0.00000000000E+00  0.17336347386E+04  0.17336347386E+04  0.25500000920E-02 0.  1.
       -2   -1    0    0    0  501  0.00000000000E+00  0.00000000000E+00 -0.22707959549E+04  0.22707959549E+04  0.25500000920E-02 0. -1.
    10030    2    1    2    0    0  0.00000000000E+00  0.00000000000E+00 -0.53716121633E+03  0.40044306935E+04  0.39682392830E+04 0.  0.
        1    1    3    3  502    0  0.19551518659E+04  0.28821026624E+03 -0.90772655812E+02  0.19783638824E+04  0.50400001928E-02 0.  1.
       -1    1    3    3    0  502 -0.19551518659E+04 -0.28821026624E+03 -0.44638856052E+03  0.20260668111E+04  0.50400001928E-02 0. -1.
</event>
<event>
 5   0  0.1860500E-07  0.2794034E+04  0.7818609E-02  0.8305123E-01
        1   -1    0    0  501    0  0.00000000000E+00  0.00000000000E+00  0.15989877332E+04  0.15989877332E+04  0.50400001928E-02 0. -1.
       -1   -1    0    0    0  501  0.00000000000E+00  0.00000000000E+00 -0.12205579158E+04  0.12205579158E+04  0.50400001928E-02 0.  1.
    10030    2    1    2    0    0  0.00000000000E+00  0.00000000000E+00  0.37842981741E+03  0.28195456489E+04  0.27940344557E+04 0.  0.
        4    1    3    3  502    0  0.11804906044E+04 -0.10572031320E+02 -0.56458989775E+03  0.13085997098E+04  0.12699999809E+01 0.  1.
       -4    1    3    3    0  502 -0.11804906044E+04  0.10572031320E+02  0.94301971516E+03  0.15109459391E+04  0.12699999809E+01 0. -1.
</event>
<event>
 5   0  0.1876027E-07  0.3871544E+04  0.7818609E-02  0.8030974E-01
        1   -1    0    0  501    0  0.00000000000E+00  0.00000000000E+00  0.18538237205E+04  0.18538237205E+04  0.50400001928E-02 0. -1.
       -1   -1    0    0    0  501  0.00000000000E+00  0.00000000000E+00 -0.20213424900E+04  0.20213424900E+04  0.50400001928E-02 0.  1.
    10030    2    1    2    0    0  0.00000000000E+00  0.00000000000E+00 -0.16751876948E+03  0.38751662105E+04  0.38715437000E+04 0.  0.
        3    1    3    3  502    0  0.18122507023E+03 -0.16797903623E+04  0.86193916523E+03  0.18967016956E+04  0.10100000352E+00 0. -1.
       -3    1    3    3    0  502 -0.18122507023E+03  0.16797903623E+04 -0.10294579347E+04  0.19784645149E+04  0.10100000352E+00 0.  1.
</event>
<event>
 5   0  0.5735179E-07  0.3870464E+04  0.7818609E-02  0.8031200E-01
        2   -1    0    0  501    0  0.00000000000E+00  0.00000000000E+00  0.25497307396E+04  0.25497307396E+04  0.25500000920E-02 0. -1.
       -2   -1    0    0    0  501  0.00000000000E+00  0.00000000000E+00 -0.14688304050E+04  0.14688304050E+04  0.25500000920E-02 0.  1.
    10030    2    1    2    0    0  0.00000000000E+00  0.00000000000E+00  0.10809003346E+04  0.40185611445E+04  0.38704635561E+04 0.  0.
        5    1    3    3  502    0  0.40228888702E+03  0.13564816291E+04  0.19112809429E+04  0.23780024582E+04  0.46999998093E+01 0. -1.
       -5    1    3    3    0  502 -0.40228888702E+03 -0.13564816291E+04 -0.83038060827E+03  0.16405586863E+04  0.46999998093E+01 0.  1.
</event>
<event>
 5   0  0.5735179E-07  0.2714965E+04  0.7818609E-02  0.8330166E-01
       -2   -1    0    0    0  501  0.00000000000E+00  0.00000000000E+00  0.11539509501E+04  0.11539509501E+04  0.25500000920E-02 0.  1.
        2   -1    0    0  501    0  0.00000000000E+00  0.00000000000E+00 -0.15969121550E+04  0.15969121550E+04  0.25500000920E-02 0. -1.
    10030    2    1    2    0    0  0.00000000000E+00  0.00000000000E+00 -0.44296120487E+03  0.27508631050E+04  0.27149646763E+04 0.  0.
        5    1    3    3  502    0 -0.10431121892E+04  0.68350290343E+03  0.32177762143E+03  0.12879527111E+04  0.46999998093E+01 0.  1.
       -5    1    3    3    0  502  0.10431121892E+04 -0.68350290343E+03 -0.76473882631E+03  0.14629103940E+04  0.46999998093E+01 0. -1.
</event>
<event>
 5   0  0.3959190E-07  0.3825905E+04  0.7818609E-02  0.8040619E-01
       -2   -1    0    0    0  501  0.00000000000E+00  0.00000000000E+00  0.17973621380E+04  0.17973621380E+04  0.25500000920E-02 0.  1.
        2   -1    0    0  501    0  0.00000000000E+00  0.00000000000E+00 -0.20359764042E+04  0.20359764042E+04  0.25500000920E-02 0. -1.
    10030    2    1    2    0    0  0.00000000000E+00  0.00000000000E+00 -0.23861426626E+03  0.38333385422E+04  0.38259048094E+04 0.  0.
        2    1    3    3  502    0  0.59386779567E+03  0.17920263178E+03 -0.19324071845E+04  0.20295295191E+04  0.25500000920E-02 0. -1.
       -2    1    3    3    0  502 -0.59386779567E+03 -0.17920263178E+03  0.16937929182E+04  0.18038090231E+04  0.25500000920E-02 0.  1.
</event>
<event>
 5   0  0.6095665E-07  0.3840820E+04  0.7818609E-02  0.8037451E-01
       -2   -1    0    0    0  501  0.00000000000E+00  0.00000000000E+00  0.13075889226E+04  0.13075889226E+04  0.25500000920E-02 0.  1.
        2   -1    0    0  501    0  0.00000000000E+00  0.00000000000E+00 -0.28204383932E+04  0.28204383932E+04  0.25500000920E-02 0. -1.
    10030    2    1    2    0    0  0.00000000000E+00  0.00000000000E+00 -0.15128494707E+04  0.41280273158E+04  0.38408197040E+04 0.  0.
        4    1    3    3  502    0 -0.50926137096E+03 -0.18472982560E+04 -0.89285969364E+03  0.21140146726E+04  0.12699999809E+01 0.  1.
       -4    1    3    3    0  502  0.50926137096E+03  0.18472982560E+04 -0.61998977705E+03  0.20140126432E+04  0.12699999809E+01 0. -1.
</event>
<event>
 5   0  0.2666813E-07  0.2957406E+04  0.7818609E-02  0.8255999E-01
        1   -1    0    0  501    0  0.00000000000E+00  0.00000000000E+00  0.11991607901E+04  0.11991607901E+04  0.50400001928E-02 0.  1.
       -1   -1    0    0    0  501  0.00000000000E+00  0.00000000000E+00 -0.18234109778E+04  0.18234109778E+04  0.50400001928E-02 0. -1.
    10030    2    1    2    0    0  0.00000000000E+00  0.00000000000E+00 -0.62425018774E+03  0.30225717679E+04  0.29574062614E+04 0.  0.
        1    1    3    3  502    0  0.23792154004E+03  0.17418509176E+03 -0.17930585828E+04  0.18171423133E+04  0.50400001928E-02 0. -1.
       -1    1    3    3    0  502 -0.23792154004E+03 -0.17418509176E+03  0.11688083951E+04  0.12054294546E+04  0.50400001928E-02 0.  1.
</event>
<event>
 5   0  0.2666813E-07  0.3905585E+04  0.7818609E-02  0.8023869E-01
        1   -1    0    0  501    0  0.00000000000E+00  0.00000000000E+00  0.25564512254E+04  0.25564512254E+04  0.50400001928E-02 0. -1.
       -1   -1    0    0    0  501  0.00000000000E+00  0.00000000000E+00 -0.14916765819E+04  0.14916765819E+04  0.50400001928E-02 0.  1.
    10030    2    1    2    0    0  0.00000000000E+00  0.00000000000E+00  0.10647746435E+04  0.40481278073E+04  0.39055849373E+04 0.  0.
        1    1    3    3  502    0 -0.55009632041E+03 -0.14762433521E+04 -0.66363254159E+03  0.17094761030E+04  0.50400001928E-02 0.  1.
       -1    1    3    3    0  502  0.55009632041E+03  0.14762433521E+04  0.17284071851E+04  0.23386517043E+04  0.50400001928E-02 0. -1.
</event>
<event>
 5   0  0.1876027E-07  0.3883522E+04  0.7818609E-02  0.8028465E-01
        1   -1    0    0  501    0  0.00000000000E+00  0.00000000000E+00  0.19790014945E+04  0.19790014945E+04  0.50400001928E-02 0. -1.
       -1   -1    0    0    0  501  0.00000000000E+00  0.00000000000E+00 -0.19052211859E+04  0.19052211859E+04  0.50400001928E-02 0.  1.
    10030    2    1    2    0    0  0.00000000000E+00  0.00000000000E+00  0.73780308639E+02  0.38842226804E+04  0.38835218935E+04 0.  0.
        3    1    3    3  502    0  0.87464765941E+03 -0.36076103240E+03 -0.16590804536E+04  0.19098965973E+04  0.10100000352E+00 0.  1.
       -3    1    3    3    0  502 -0.87464765941E+03  0.36076103240E+03  0.17328607623E+04  0.19743260831E+04  0.10100000352E+00 0. -1.
</event>
<event>
 5   0  0.5805753E-07  0.3933491E+04  0.7818609E-02  0.8018099E-01
       -2   -1    0    0    0  501  0.00000000000E+00  0.00000000000E+00  0.21280754231E+04  0.21280754231E+04  0.25500000920E-02 0. -1.
        2   -1    0    0  501    0  0.00000000000E+00  0.00000000000E+00 -0.18176462875E+04  0.18176462875E+04  0.25500000920E-02 0.  1.
    10030    2    1    2    0    0  0.00000000000E+00  0.00000000000E+00  0.31042913565E+03  0.39457217106E+04  0.39334912698E+04 0.  0.
        1    1    3    3  502    0 -0.58294932471E+02  0.50580733824E+03 -0.17503892669E+04  0.18229377247E+04  0.50400001928E-02 0.  1.
       -1    1    3    3    0  502  0.58294932471E+02 -0.50580733824E+03  0.20608184025E+04  0.21227839859E+04  0.50400001928E-02 0. -1.
</event>
<event>
 5   0  0.1860500E-07  0.3441386E+04  0.7818609E-02  0.8127823E-01
       -3   -1    0    0    0  501  0.00000000000E+00  0.00000000000E+00  0.12730102897E+04  0.12730102937E+04  0.10100000352E+00 0. -1.
        3   -1    0    0  501    0  0.00000000000E+00  0.00000000000E+00 -0.23258140431E+04  0.23258140453E+04  0.10100000352E+00 0.  1.
    10030    2    1    2    0    0  0.00000000000E+00  0.00000000000E+00 -0.10528037535E+04  0.35988243390E+04  0.34413864763E+04 0.  0.
        5    1    3    3  502    0  0.11921869131E+04  0.79207436308E+03  0.47231339501E+03  0.15072469823E+04  0.46999998093E+01 0. -1.
       -5    1    3    3    0  502 -0.11921869131E+04 -0.79207436308E+03 -0.15251171485E+04  0.20915773567E+04  0.46999998093E+01 0.  1.
</event>
<event>
 5   0  0.3959190E-07  0.3754828E+04  0.7818609E-02  0.8055919E-01
       -2   -1    0    0    0  501  0.00000000000E+00  0.00000000000E+00  0.15477893669E+04  0.15477893669E+04  0.25500000920E-02 0.  1.
        2   -1    0    0  501    0  0.00000000000E+00  0.00000000000E+00 -0.22772376147E+04  0.22772376147E+04  0.25500000920E-02 0. -1.
    10030    2    1    2    0    0  0.00000000000E+00  0.00000000000E+00 -0.72944824780E+03  0.38250269815E+04  0.37548284466E+04 0.  0.
        2    1    3    3  502    0 -0.76195863741E+03  0.19510489090E+03 -0.21013049213E+04  0.22436865324E+04  0.25500000920E-02 0. -1.
       -2    1    3    3    0  502  0.76195863741E+03 -0.19510489090E+03  0.13718566735E+04  0.15813404491E+04  0.25500000920E-02 0.  1.
</event>
<event>
 5   0  0.1860500E-07  0.4012570E+04  0.7818609E-02  0.8002016E-01
       -1   -1    0    0    0  501  0.00000000000E+00  0.00000000000E+00  0.17298802900E+04  0.17298802900E+04  0.50400001928E-02 0.  1.
        1   -1    0    0  501    0  0.00000000000E+00  0.00000000000E+00 -0.23268544000E+04  0.23268544000E+04  0.50400001928E-02 0. -1.
    10030    2    1    2    0    0  0.00000000000E+00  0.00000000000E+00 -0.59697410996E+03  0.40567346901E+04  0.40125700315E+04 0.  0.
        4    1    3    3  502    0 -0.55332077224E+03  0.10963415531E+04  0.13054962339E+04  0.17923310820E+04  0.12699999809E+01 0.  1.
       -4    1    3    3    0  502  0.55332077224E+03 -0.10963415531E+04 -0.19024703438E+04  0.22644036080E+04  0.12699999809E+01 0. -1.
</event>
<event>
 5   0  0.1860500E-07  0.3827853E+04  0.7818609E-02  0.8040204E-01
       -1   -1    0    0    0  501  0.00000000000E+00  0.00000000000E+00  0.10313012928E+04  0.10313012928E+04  0.50400001928E-02 0.  1.
        1   -1    0    0  501    0  0.00000000000E+00  0.00000000000E+00 -0.35519337279E+04  0.35519337279E+04  0.50400001928E-02 0. -1.
    10030    2    1    2    0    0  0.00000000000E+00  0.00000000000E+00 -0.25206324351E+04  0.45832350207E+04  0.38278525810E+04 0.  0.
        5    1    3    3  502    0 -0.11955701578E+04 -0.15602389906E+03  0.51939769929E+03  0.13128318701E+04  0.46999998093E+01 0.  1.
       -5    1    3    3    0  502  0.11955701578E+04  0.15602389906E+03 -0.30400301344E+04  0.32704031505E+04  0.46999998093E+01 0. -1.
</event>
<event>
 5   0  0.6095665E-07  0.3513039E+04  0.7818609E-02  0.8110707E-01
        2   -1    0    0  501    0  0.00000000000E+00  0.00000000000E+00  0.27792806825E+04  0.27792806825E+04  0.25500000920E-02 0.  1.
       -2   -1    0    0    0  501  0.00000000000E+00  0.00000000000E+00 -0.11101295179E+04  0.11101295179E+04  0.25500000920E-02 0. -1.
    10030    2    1    2    0    0  0.00000000000E+00  0.00000000000E+00  0.16691511647E+04  0.38894102004E+04  0.35130394385E+04 0.  0.
        4    1    3    3  502    0  0.95961922887E+02 -0.15276566570E+04  0.17885231169E+04  0.23540943280E+04  0.12699999809E+01 0. -1.
       -4    1    3    3    0  502 -0.95961922887E+02  0.15276566570E+04 -0.11937195225E+03  0.15353158724E+04  0.12699999809E+01 0.  1.
</event>
<event>
 5   0  0.1876027E-07  0.3668849E+04  0.7818609E-02  0.8074900E-01
        1   -1    0    0  501    0  0.00000000000E+00  0.00000000000E+00  0.16468949117E+04  0.16468949117E+04  0.50400001928E-02 0.  1.
       -1   -1    0    0    0  501  0.00000000000E+00  0.00000000000E+00 -0.20433083067E+04  0.20433083067E+04  0.50400001928E-02 0. -1.
    10030    2    1    2    0    0  0.00000000000E+00  0.00000000000E+00 -0.39641339504E+03  0.36902032184E+04  0.36688494400E+04 0.  0.
        3    1    3    3  502    0  0.95178825435E+03 -0.82101572847E+03 -0.15420768393E+04  0.19894644244E+04  0.10100000352E+00 0. -1.
       -3    1    3    3    0  502 -0.95178825435E+03  0.82101572847E+03  0.11456634443E+04  0.17007387940E+04  0.10100000352E+00 0.  1.
</event>
<event>
 5   0  0.3959190E-07  0.3877151E+04  0.7818609E-02  0.8029798E-01
       -2   -1    0    0    0  501  0.00000000000E+00  0.00000000000E+00  0.16456535298E+04  0.16456535298E+04  0.25500000920E-02 0.  1.
        2   -1    0    0  501    0  0.00000000000E+00  0.00000000000E+00 -0.22836372404E+04  0.22836372404E+04  0.25500000920E-02 0. -1.
    10030    2    1    2    0    0  0.00000000000E+00  0.00000000000E+00 -0.63798371061E+03  0.39292907702E+04  0.38771513695E+04 0.  0.
        2    1    3    3  502    0  0.11557768384E+04 -0.70349456437E+02  0.12566854314E+04  0.17088087721E+04  0.25500000920E-02 0.  1.
       -2    1    3    3    0  502 -0.11557768384E+04  0.70349456437E+02 -0.18946691420E+04  0.22204819981E+04  0.25500000920E-02 0. -1.
</event>
<event>
 5   0  0.3959190E-07  0.3951315E+04  0.7818609E-02  0.8014441E-01
        2   -1    0    0  501    0  0.00000000000E+00  0.00000000000E+00  0.22912985482E+04  0.22912985482E+04  0.25500000920E-02 0.  1.
       -2   -1    0    0    0  501  0.00000000000E+00  0.00000000000E+00 -0.17034978556E+04  0.17034978556E+04  0.25500000920E-02 0. -1.
    10030    2    1    2    0    0  0.00000000000E+00  0.00000000000E+00  0.58780069260E+03  0.39947964038E+04  0.39513148006E+04 0.  0.
        2    1    3    3  502    0 -0.17136984689E+04 -0.97561313819E+03  0.17157832356E+03  0.19793995450E+04  0.25500000920E-02 0. -1.
       -2    1    3    3    0  502  0.17136984689E+04  0.97561313819E+03  0.41622236904E+03  0.20153968587E+04  0.25500000920E-02 0.  1.
</event>
<event>
 5   0  0.3959190E-07  0.3879874E+04  0.7818609E-02  0.8029228E-01
       -2   -1    0    0    0  501  0.00000000000E+00  0.00000000000E+00  0.13870769548E+04  0.13870769548E+04  0.25500000920E-02 0. -1.
        2   -1    0    0  501    0  0.00000000000E+00  0.00000000000E+00 -0.27131560873E+04  0.27131560873E+04  0.25500000920E-02 0.  1.
    10030    2    1    2    0    0  0.00000000000E+00  0.00000000000E+00 -0.13260791324E+04  0.41002330421E+04  0.38798743709E+04 0.  0.
        2    1    3    3  502    0 -0.18883702578E+04 -0.43955418635E+03 -0.59450111396E+03  0.20279501197E+04  0.25500000920E-02 0.  1.
       -2    1    3    3    0  502  0.18883702578E+04  0.43955418635E+03 -0.73157801845E+03  0.20722829224E+04  0.25500000920E-02 0. -1.
</event>
<event>
 5   0  0.5872444E-07  0.3971753E+04  0.7818609E-02  0.8010269E-01
       -2   -1    0    0    0  501  0.00000000000E+00  0.00000000000E+00  0.30208307758E+04  0.30208307758E+04  0.25500000920E-02 0. -1.
        2   -1    0    0  501    0  0.00000000000E+00  0.00000000000E+00 -0.13055038005E+04  0.13055038005E+04  0.25500000920E-02 0.  1.
    10030    2    1    2    0    0  0.00000000000E+00  0.00000000000E+00  0.17153269753E+04  0.43263345764E+04  0.39717532948E+04 0.  0.
        3    1    3    3  502    0  0.84372644652E+03  0.11840221549E+04  0.23311775258E+04  0.27473935734E+04  0.10100000352E+00 0. -1.
       -3    1    3    3    0  502 -0.84372644652E+03 -0.11840221549E+04 -0.61585055055E+03  0.15789410029E+04  0.10100000352E+00 0.  1.
</event>
<event>
 5   0  0.5805753E-07  0.3853613E+04  0.7818609E-02  0.8034747E-01
       -2   -1    0    0    0  501  0.00000000000E+00  0.00000000000E+00  0.14844880176E+04  0.14844880176E+04  0.25500000920E-02 0. -1.
        2   -1    0    0  501    0  0.00000000000E+00  0.00000000000E+00 -0.25009181637E+04  0.25009181637E+04  0.25500000920E-02 0.  1.
    10030    2    1    2    0    0  0.00000000000E+00  0.00000000000E+00 -0.10164301461E+04  0.39854061814E+04  0.38536128748E+04 0.  0.
        1    1    3    3  502    0 -0.84275459301E+01  0.18577730085E+04 -0.10367625484E+04  0.21275027982E+04  0.50400001928E-02 0. -1.
       -1    1    3    3    0  502  0.84275459301E+01 -0.18577730085E+04  0.20332402318E+02  0.18579033832E+04  0.50400001928E-02 0.  1.
</event>
<event>
 5   0  0.5872444E-07  0.3537220E+04  0.7818609E-02  0.8105026E-01
        2   -1    0    0  501    0  0.00000000000E+00  0.00000000000E+00  0.31966986683E+04  0.31966986683E+04  0.25500000920E-02 0. -1.
       -2   -1    0    0    0  501  0.00000000000E+00  0.00000000000E+00 -0.97850341799E+03  0.97850341800E+03  0.25500000920E-02 0.  1.
    10030    2    1    2    0    0  0.00000000000E+00  0.00000000000E+00  0.22181952503E+04  0.41752020863E+04  0.35372195709E+04 0.  0.
        3    1    3    3  502    0 -0.98431355824E+03  0.14177569690E+04  0.15648346732E+04  0.23297243546E+04  0.10100000352E+00 0.  1.
       -3    1    3    3    0  502  0.98431355824E+03 -0.14177569690E+04  0.65336057713E+03  0.18454777316E+04  0.10100000352E+00 0. -1.
</event>
<event>
 5   0  0.1943459E-07  0.3820086E+04  0.7818609E-02  0.8041858E-01
        1   -1    0    0  501    0  0.00000000000E+00  0.00000000000E+00  0.15596998131E+04  0.15596998131E+04  0.50400001928E-02 0.  1.
       -1   -1    0    0    0  501  0.00000000000E+00  0.00000000000E+00 -0.23390813074E+04  0.23390813074E+04  0.50400001928E-02 0. -1.
    10030    2    1    2    0    0  0.00000000000E+00  0.00000000000E+00 -0.77938149431E+03  0.38987811205E+04  0.38200862178E+04 0.  0.
        2    1    3    3  502    0 -0.21524869470E+03  0.17449272023E+04  0.37211865942E+03  0.17971018999E+04  0.25500000920E-02 0.  1.
       -2    1    3    3    0  502  0.21524869470E+03 -0.17449272023E+04 -0.11515001537E+04  0.21016792205E+04  0.25500000920E-02 0. -1.
</event>
<event>
 5   0  0.1860500E-07  0.3921105E+04  0.7818609E-02  0.8020654E-01
        1   -1    0    0  501    0  0.00000000000E+00  0.00000000000E+00  0.28453689250E+04  0.28453689250E+04  0.50400001928E-02 0. -1.
       -1   -1    0    0    0  501  0.00000000000E+00  0.00000000000E+00 -0.13508853081E+04  0.13508853081E+04  0.50400001928E-02 0.  1.
    10030    2    1    2    0    0  0.00000000000E+00  0.00000000000E+00  0.14944836169E+04  0.41962542331E+04  0.39211054956E+04 0.  0.
        5    1    3    3  502    0 -0.71000992819E+03  0.15915098862E+04 -0.21396448935E+03  0.17557963175E+04  0.46999998093E+01 0.  1.
       -5    1    3    3    0  502  0.71000992819E+03 -0.15915098862E+04  0.17084481063E+04  0.24404579156E+04  0.46999998093E+01 0. -1.
</event>
<event>
 5   0  0.3959190E-07  0.3885955E+04  0.7818609E-02  0.8027957E-01
       -2   -1    0    0    0  501  0.00000000000E+00  0.00000000000E+00  0.17629398678E+04  0.17629398678E+04  0.25500000920E-02 0.  1.
        2   -1    0    0  501    0  0.00000000000E+00  0.00000000000E+00 -0.21414006814E+04  0.21414006814E+04  0.25500000920E-02 0. -1.
    10030    2    1    2    0    0  0.00000000000E+00  0.00000000000E+00 -0.37846081361E+03  0.39043405491E+04  0.38859545206E+04 0.  0.
        2    1    3    3  502    0  0.18295587556E+04 -0.33378098158E+03  0.37598405665E+03  0.18973821425E+04  0.25500000920E-02 0. -1.
       -2    1    3    3    0  502 -0.18295587556E+04  0.33378098158E+03 -0.75444487027E+03  0.20069584067E+04  0.25500000920E-02 0.  1.
</event>
<event>
 5   0  0.3959190E-07  0.3939436E+04  0.7818609E-02  0.8016877E-01
        2   -1    0    0  501    0  0.00000000000E+00  0.00000000000E+00  0.24321113230E+04  0.24321113230E+04  0.25500000920E-02 0.  1.
       -2   -1    0    0    0  501  0.00000000000E+00  0.00000000000E+00 -0.15952353500E+04  0.15952353500E+04  0.25500000920E-02 0. -1.
    10030    2    1    2    0    0  0.00000000000E+00  0.00000000000E+00  0.83687597308E+03  0.40273466730E+04  0.39394364864E+04 0.  0.
        2    1    3    3  502    0  0.11054758192E+04  0.11998509787E+04  0.15467291278E+04  0.22481303682E+04  0.25500000920E-02 0.  1.
       -2    1    3    3    0  502 -0.11054758192E+04 -0.11998509787E+04 -0.70985315472E+03  0.17792163048E+04  0.25500000920E-02 0. -1.
</event>
<event>
 5   0  0.1860500E-07  0.4179158E+04  0.7818609E-02  0.7969349E-01
       -1   -1    0    0    0  501  0.00000000000E+00  0.00000000000E+00  0.14449535426E+04  0.14449535426E+04  0.50400001928E-02 0. -1.
        1   -1    0    0  501    0  0.00000000000E+00  0.00000000000E+00 -0.30217858372E+04  0.30217858372E+04  0.50400001928E-02 0.  1.
    10030    2    1    2    0    0  0.00000000000E+00  0.00000000000E+00 -0.15768322946E+04  0.44667393799E+04  0.41791578820E+04 0.  0.
        5    1    3    3  502    0  0.15919025091E+04 -0.42353469827E+02  0.65759405200E+03  0.17229043624E+04  0.46999998093E+01 0. -1.
       -5    1    3    3    0  502 -0.15919025091E+04  0.42353469827E+02 -0.22344263466E+04  0.27438350175E+04  0.46999998093E+01 0.  1.
</event>
<event>
 5   0  0.1943459E-07  0.3862064E+04  0.7818609E-02  0.8032966E-01
       -1   -1    0    0    0  501  0.00000000000E+00  0.00000000000E+00  0.27781219081E+04  0.27781219081E+04  0.50400001928E-02 0. -1.
        1   -1    0    0  501    0  0.00000000000E+00  0.00000000000E+00 -0.13422319177E+04  0.13422319177E+04  0.50400001928E-02 0.  1.
    10030    2    1    2    0    0  0.00000000000E+00  0.00000000000E+00  0.14358899904E+04  0.41203538258E+04  0.38620636434E+04 0.  0.
        2    1    3    3  502    0 -0.56711401305E+03  0.14494232969E+04 -0.50149219918E+03  0.16352188304E+04  0.25500000920E-02 0.  1.
       -2    1    3    3    0  502  0.56711401305E+03 -0.14494232969E+04  0.19373821896E+04  0.24851349955E+04  0.25500000920E-02 0. -1.
</event>
<event>
 5   0  0.5735179E-07  0.3922689E+04  0.7818609E-02  0.8020327E-01
        2   -1    0    0  501    0  0.00000000000E+00  0.00000000000E+00  0.10831261140E+04  0.10831261140E+04  0.25500000920E-02 0.  1.
       -2   -1    0    0    0  501  0.00000000000E+00  0.00000000000E+00 -0.35516375684E+04  0.35516375684E+04  0.25500000920E-02 0. -1.
    10030    2    1    2    0    0  0.00000000000E+00  0.00000000000E+00 -0.24685114544E+04  0.46347636824E+04  0.39226885667E+04 0.  0.
        5    1    3    3  502    0  0.15618327718E+04  0.77689807279E+03 -0.17485516498E+03  0.17531368005E+04  0.46999998093E+01 0.  1.
       -5    1    3    3    0  502 -0.15618327718E+04 -0.77689807279E+03 -0.22936562894E+04  0.28816268819E+04  0.46999998093E+01 0. -1.
</event>
<event>
 5   0  0.5735179E-07  0.3931994E+04  0.7818609E-02  0.8018408E-01
       -2   -1    0    0    0  501  0.00000000000E+00  0.00000000000E+00  0.31232320803E+04  0.31232320803E+04  0.25500000920E-02 0.  1.
        2   -1    0    0  501    0  0.00000000000E+00  0.00000000000E+00 -0.12375459972E+04  0.12375459972E+04  0.25500000920E-02 0. -1.
    10030    2    1    2    0    0  0.00000000000E+00  0.00000000000E+00  0.18856860831E+04  0.43607780774E+04  0.39319935703E+04 0.  0.
        5    1    3    3  502    0  0.19477642760E+04  0.83431503872E+02  0.12242333018E+04  0.23020677136E+04  0.46999998093E+01 0.  1.
       -5    1    3    3    0  502 -0.19477642760E+04 -0.83431503872E+02  0.66145278123E+03  0.20587103639E+04  0.46999998093E+01 0. -1.
</event>
<event>
 5   0  0.1876027E-07  0.2661980E+04  0.7818609E-02  0.8347448E-01
        1   -1    0    0  501    0  0.00000000000E+00  0.00000000000E+00  0.20878084237E+04  0.20878084237E+04  0.50400001928E-02 0. -1.
       -1   -1    0    0    0  501  0.00000000000E+00  0.00000000000E+00 -0.84851371990E+03  0.84851371992E+03  0.50400001928E-02 0.  1.
    10030    2    1    2    0    0  0.00000000000E+00  0.00000000000E+00  0.12392947038E+04  0.29363221436E+04  0.26619797836E+04 0.  0.
        3    1    3    3  502    0  0.23496227549E+03  0.50526139439E+02 -0.82438097317E+03  0.85869910958E+03  0.10100000352E+00 0.  1.
       -3    1    3    3    0  502 -0.23496227549E+03 -0.50526139439E+02  0.20636756770E+04  0.20776230341E+04  0.10100000352E+00 0. -1.
</event>
<event>
 5   0  0.1860500E-07  0.3415768E+04  0.7818609E-02  0.8134047E-01
        1   -1    0    0  501    0  0.00000000000E+00  0.00000000000E+00  0.25014411692E+04  0.25014411692E+04  0.50400001928E-02 0. -1.
       -1   -1    0    0    0  501  0.00000000000E+00  0.00000000000E+00 -0.11660747491E+04  0.11660747491E+04  0.50400001928E-02 0.  1.
    10030    2    1    2    0    0  0.00000000000E+00  0.00000000000E+00  0.13353664201E+04  0.36675159183E+04  0.34157677812E+04 0.  0.
        4    1    3    3  502    0 -0.10875283820E+04 -0.43983539956E+03  0.20004116624E+04  0.23190130643E+04  0.12699999809E+01 0. -1.
       -4    1    3    3    0  502  0.10875283820E+04  0.43983539956E+03 -0.66504524222E+03  0.13485028541E+04  0.12699999809E+01 0.  1.
</event>
<event>
 5   0  0.5805753E-07  0.3857801E+04  0.7818609E-02  0.8033863E-01
       -2   -1    0    0    0  501  0.00000000000E+00  0.00000000000E+00  0.14637315677E+04  0.14637315677E+04  0.25500000920E-02 0.  1.
        2   -1    0    0  501    0  0.00000000000E+00  0.00000000000E+00 -0.25418986784E+04  0.25418986784E+04  0.25500000920E-02 0. -1.
    10030    2    1    2    0    0  0.00000000000E+00  0.00000000000E+00 -0.10781671107E+04  0.40056302460E+04  0.38578011029E+04 0.  0.
        1    1    3    3  502    0 -0.76197517348E+01 -0.67689185950E+03 -0.24145130410E+04  0.25076111890E+04  0.50400001928E-02 0. -1.
       -1    1    3    3    0  502  0.76197517348E+01  0.67689185950E+03  0.13363459302E+04  0.14980190571E+04  0.50400001928E-02 0.  1.
</event>
<event>
 5   0  0.5872444E-07  0.3854504E+04  0.7818609E-02  0.8034559E-01
        2   -1    0    0  501    0  0.00000000000E+00  0.00000000000E+00  0.22415669589E+04  0.22415669589E+04  0.25500000920E-02 0.  1.
       -2   -1    0    0    0  501  0.00000000000E+00  0.00000000000E+00 -0.16570107499E+04  0.16570107499E+04  0.25500000920E-02 0. -1.
    10030    2    1    2    0    0  0.00000000000E+00  0.00000000000E+00  0.58455620893E+03  0.38985777088E+04  0.38545041433E+04 0.  0.
        3    1    3    3  502    0  0.98255434523E+02  0.99447315140E+03 -0.13744936816E+04  0.16993716104E+04  0.10100000352E+00 0. -1.
       -3    1    3    3    0  502 -0.98255434523E+02 -0.99447315140E+03  0.19590498906E+04  0.21992060984E+04  0.10100000352E+00 0.  1.
</event>
<event>
 5   0  0.5872444E-07  0.3908917E+04  0.7818609E-02  0.8023177E-01
        2   -1    0    0  501    0  0.00000000000E+00  0.00000000000E+00  0.26254686836E+04  0.26254686836E+04  0.25500000920E-02 0. -1.
       -2   -1    0    0    0  501  0.00000000000E+00  0.00000000000E+00 -0.14549434415E+04  0.14549434415E+04  0.25500000920E-02 0.  1.
    10030    2    1    2    0    0  0.00000000000E+00  0.00000000000E+00  0.11705252422E+04  0.40804121251E+04  0.39089172117E+04 0.  0.
        3    1    3    3  502    0 -0.17397885587E+04 -0.16420103038E+03  0.14989239628E+04  0.23023030347E+04  0.10100000352E+00 0. -1.
       -3    1    3    3    0  502  0.17397885587E+04  0.16420103038E+03 -0.32839872061E+03  0.17781090904E+04  0.10100000352E+00 0.  1.
</event>
<event>
 5   0  0.3959190E-07  0.3836219E+04  0.7818609E-02  0.8038427E-01
       -2   -1    0    0    0  501  0.00000000000E+00  0.00000000000E+00  0.12038530668E+04  0.12038530668E+04  0.25500000920E-02 0.  1.
        2   -1    0    0  501    0  0.00000000000E+00  0.00000000000E+00 -0.30561411414E+04  0.30561411414E+04  0.25500000920E-02 0. -1.
    10030    2    1    2    0    0  0.00000000000E+00  0.00000000000E+00 -0.18522880746E+04  0.42599942082E+04  0.38362194335E+04 0.  0.
        2    1    3    3  502    0 -0.77897159681E+03  0.19463560069E+03  0.10082575616E+04  0.12888999481E+04  0.25500000920E-02 0.  1.
       -2    1    3    3    0  502  0.77897159681E+03 -0.19463560069E+03 -0.28605456362E+04  0.29710942601E+04  0.25500000920E-02 0. -1.
</event>
<event>
 5   0  0.6095665E-07  0.3952842E+04  0.7818609E-02  0.8014128E-01
        2   -1    0    0  501    0  0.00000000000E+00  0.00000000000E+00  0.17553965616E+04  0.17553965617E+04  0.25500000920E-02 0.  1.
       -2   -1    0    0    0  501  0.00000000000E+00  0.00000000000E+00 -0.22252744841E+04  0.22252744841E+04  0.25500000920E-02 0. -1.
    10030    2    1    2    0    0  0.00000000000E+00  0.00000000000E+00 -0.46987792241E+03  0.39806710457E+04  0.39528415997E+04 0.  0.
        4    1    3    3  502    0 -0.16790905671E+04  0.99621087108E+03  0.74562297306E+02  0.19538020322E+04  0.12699999809E+01 0.  1.
       -4    1    3    3    0  502  0.16790905671E+04 -0.99621087108E+03 -0.54444021971E+03  0.20268690135E+04  0.12699999809E+01 0. -1.
</event>
<event>
 5   0  0.1943459E-07  0.3820180E+04  0.7818609E-02  0.8041838E-01
        1   -1    0    0  501    0  0.00000000000E+00  0.00000000000E+00  0.11894026396E+04  0.11894026396E+04  0.50400001928E-02 0. -1.
       -1   -1    0    0    0  501  0.00000000000E+00  0.00000000000E+00 -0.30674590525E+04  0.30674590526E+04  0.50400001928E-02 0.  1.
    10030    2    1    2    0    0  0.00000000000E+00  0.00000000000E+00 -0.18780564130E+04  0.42568616922E+04  0.38201800450E+04 0.  0.
        2    1    3    3  502    0 -0.15331947600E+04 -0.74028655815E+03  0.25820405333E+02  0.17027557234E+04  0.25500000920E-02 0. -1.
       -2    1    3    3    0  502  0.15331947600E+04  0.74028655815E+03 -0.19038768183E+04  0.25541059687E+04  0.25500000920E-02 0.  1.
</event>
<event>
 5   0  0.1876027E-07  0.3752994E+04  0.7818609E-02  0.8056318E-01
       -1   -1    0    0    0  501  0.00000000000E+00  0.00000000000E+00  0.21818686768E+04  0.21818686768E+04  0.50400001928E-02 0. -1.
        1   -1    0    0  501    0  0.00000000000E+00  0.00000000000E+00 -0.16138649223E+04  0.16138649223E+04  0.50400001928E-02 0.  1.
    10030    2    1    2    0    0  0.00000000000E+00  0.00000000000E+00  0.56800375444E+03  0.37957335991E+04  0.37529941767E+04 0.  0.
        3    1    3    3  502    0 -0.39385612224E+02  0.12259946017E+04  0.17202539125E+04  0.21127914056E+04  0.10100000352E+00 0. -1.
       -3    1    3    3    0  502  0.39385612224E+02 -0.12259946017E+04 -0.11522501580E+04  0.16829421935E+04  0.10100000352E+00 0.  1.
</event>
<event>
 5   0  0.5872444E-07  0.3689901E+04  0.7818609E-02  0.8070204E-01
       -2   -1    0    0    0  501  0.00000000000E+00  0.00000000000E+00  0.30471514769E+04  0.30471514769E+04  0.25500000920E-02 0.  1.
        2   -1    0    0  501    0  0.00000000000E+00  0.00000000000E+00 -0.11170570965E+04  0.11170570965E+04  0.25500000920E-02 0. -1.
    10030    2    1    2    0    0  0.00000000000E+00  0.00000000000E+00  0.19300943804E+04  0.41642085734E+04  0.36899009100E+04 0.  0.
        3    1    3    3  502    0  0.24467973449E+03 -0.59618685027E+03  0.29160008813E+04  0.29863636890E+04  0.10100000352E+00 0.  1.
       -3    1    3    3    0  502 -0.24467973449E+03  0.59618685027E+03 -0.98590650092E+03  0.11778448844E+04  0.10100000352E+00 0. -1.
</event>
<event>
 5   0  0.5872444E-07  0.2480856E+04  0.7818609E-02  0.8409837E-01
        2   -1    0    0  501    0  0.00000000000E+00  0.00000000000E+00  0.12458923047E+04  0.12458923047E+04  0.25500000920E-02 0.  1.
       -2   -1    0    0    0  501  0.00000000000E+00  0.00000000000E+00 -0.12349880960E+04  0.12349880960E+04  0.25500000920E-02 0. -1.
    10030    2    1    2    0    0  0.00000000000E+00  0.00000000000E+00  0.10904208743E+02  0.24808804007E+04  0.24808564369E+04 0.  0.
        3    1    3    3  502    0 -0.59319288326E+03  0.10343299106E+04 -0.33652487383E+03  0.12389371096E+04  0.10100000352E+00 0. -1.
       -3    1    3    3    0  502  0.59319288326E+03 -0.10343299106E+04  0.34742908257E+03  0.12419432911E+04  0.10100000352E+00 0.  1.
</event>
<event>
 5   0  0.1943459E-07  0.2798538E+04  0.7818609E-02  0.8303723E-01
       -1   -1    0    0    0  501  0.00000000000E+00  0.00000000000E+00  0.15934327269E+04  0.15934327269E+04  0.50400001928E-02 0.  1.
        1   -1    0    0  501    0  0.00000000000E+00  0.00000000000E+00 -0.12287642087E+04  0.12287642087E+04  0.50400001928E-02 0. -1.
    10030    2    1    2    0    0  0.00000000000E+00  0.00000000000E+00  0.36466851815E+03  0.28221969356E+04  0.27985375494E+04 0.  0.
        2    1    3    3  502    0 -0.23464561507E+03  0.27597651297E+02  0.15731724493E+04  0.15908148070E+04  0.25500000920E-02 0.  1.
       -2    1    3    3    0  502  0.23464561507E+03 -0.27597651297E+02 -0.12085039311E+04  0.12313821286E+04  0.25500000920E-02 0. -1.
</event>
<event>
 5   0  0.2666813E-07  0.3294994E+04  0.7818609E-02  0.8164170E-01
       -1   -1    0    0    0  501  0.00000000000E+00  0.00000000000E+00  0.19068381201E+04  0.19068381201E+04  0.50400001928E-02 0. -1.
        1   -1    0    0  501    0  0.00000000000E+00  0.00000000000E+00 -0.14234273766E+04  0.14234273766E+04  0.50400001928E-02 0.  1.
    10030    2    1    2    0    0  0.00000000000E+00  0.00000000000E+00  0.48341074355E+03  0.33302654967E+04  0.32949935252E+04 0.  0.
        1    1    3    3  502    0  0.12084981400E+04 -0.33359902185E+03 -0.83860962526E+03  0.15083176606E+04  0.50400001928E-02 0. -1.
       -1    1    3    3    0  502 -0.12084981400E+04  0.33359902185E+03  0.13220203688E+04  0.18219478360E+04  0.50400001928E-02 0.  1.
</event>
<event>
 5   0  0.5735179E-07  0.3836401E+04  0.7818609E-02  0.8038388E-01
        2   -1    0    0  501    0  0.00000000000E+00  0.00000000000E+00  0.17932324656E+04  0.17932324656E+04  0.25500000920E-02 0. -1.
       -2   -1    0    0    0  501  0.00000000000E+00  0.00000000000E+00 -0.20518777408E+04  0.20518777408E+04  0.25500000920E-02 0.  1.
    10030    2    1    2    0    0  0.00000000000E+00  0.00000000000E+00 -0.25864527519E+03  0.38451102064E+04  0.38364013242E+04 0.  0.
        5    1    3    3  502    0 -0.52443275942E+03 -0.53452896894E+03 -0.18993215710E+04  0.20416158938E+04  0.46999998093E+01 0.  1.
       -5    1    3    3    0  502  0.52443275942E+03  0.53452896894E+03  0.16406762958E+04  0.18034943126E+04  0.46999998093E+01 0. -1.
</event>
<event>
 5   0  0.1860500E-07  0.3194815E+04  0.7818609E-02  0.8190188E-01
       -1   -1    0    0    0  501  0.00000000000E+00  0.00000000000E+00  0.11172084168E+04  0.11172084168E+04  0.50400001928E-02 0. -1.
        1   -1    0    0  501    0  0.00000000000E+00  0.00000000000E+00 -0.22840057880E+04  0.22840057880E+04  0.50400001928E-02 0.  1.
    10030    2    1    2    0    0  0.00000000000E+00  0.00000000000E+00 -0.11667973712E+04  0.34012142048E+04  0.31948148556E+04 0.  0.
        4    1    3    3  502    0 -0.76834949171E+03  0.14903211954E+03  0.89909405778E+03  0.11920332427E+04  0.12699999809E+01 0. -1.
       -4    1    3    3    0  502  0.76834949171E+03 -0.14903211954E+03 -0.20658914290E+04  0.22091809621E+04  0.12699999809E+01 0.  1.
</event>
<event>
 5   0  0.1860500E-07  0.3564633E+04  0.7818609E-02  0.8098641E-01
       -1   -1    0    0    0  501  0.00000000000E+00  0.00000000000E+00  0.15115991494E+04  0.15115991494E+04  0.50400001928E-02 0.  1.
        1   -1    0    0  501    0  0.00000000000E+00  0.00000000000E+00 -0.21015173709E+04  0.21015173709E+04  0.50400001928E-02 0. -1.
    10030    2    1    2    0    0  0.00000000000E+00  0.00000000000E+00 -0.58991822155E+03  0.36131165203E+04  0.35646328677E+04 0.  0.
        4    1    3    3  502    0  0.12828196751E+04  0.27251154331E+02 -0.15488299370E+04  0.20112793766E+04  0.12699999809E+01 0. -1.
       -4    1    3    3    0  502 -0.12828196751E+04 -0.27251154331E+02  0.95891171541E+03  0.16018371437E+04  0.12699999809E+01 0.  1.
</event>
<event>
 5   0  0.3959190E-07  0.3548549E+04  0.7818609E-02  0.8102380E-01
       -2   -1    0    0    0  501  0.00000000000E+00  0.00000000000E+00  0.12355710882E+04  0.12355710882E+04  0.25500000920E-02 0. -1.
        2   -1    0    0  501    0  0.00000000000E+00  0.00000000000E+00 -0.25478500549E+04  0.25478500549E+04  0.25500000920E-02 0.  1.
    10030    2    1    2    0    0  0.00000000000E+00  0.00000000000E+00 -0.13122789667E+04  0.37834211431E+04  0.35485489231E+04 0.  0.
        2    1    3    3  502    0 -0.30820115210E+03  0.16780247054E+04 -0.13676789825E+03  0.17115666274E+04  0.25500000920E-02 0.  1.
       -2    1    3    3    0  502  0.30820115210E+03 -0.16780247054E+04 -0.11755110684E+04  0.20718545157E+04  0.25500000920E-02 0. -1.
</event>
<event>
 5   0  0.2666813E-07  0.3428195E+04  0.7818609E-02  0.8131021E-01
       -1   -1    0    0    0  501  0.00000000000E+00  0.00000000000E+00  0.14869025094E+04  0.14869025094E+04  0.50400001928E-02 0. -1.
        1   -1    0    0  501    0  0.00000000000E+00  0.00000000000E+00 -0.19760076493E+04  0.19760076493E+04  0.50400001928E-02 0.  1.
    10030    2    1    2    0    0  0.00000000000E+00  0.00000000000E+00 -0.48910513987E+03  0.34629101587E+04  0.34281952876E+04 0.  0.
        1    1    3    3  502    0 -0.13338541085E+04  0.10470187569E+04 -0.49751947755E+03  0.17671843964E+04  0.50400001928E-02 0.  1.
       -1    1    3    3    0  502  0.13338541085E+04 -0.10470187569E+04  0.84143376800E+01  0.16957257624E+04  0.50400001928E-02 0. -1.
</event>
<event>
 5   0  0.2666813E-07  0.2777685E+04  0.7818609E-02  0.8310230E-01
       -1   -1    0    0    0  501  0.00000000000E+00  0.00000000000E+00  0.20663745512E+04  0.20663745512E+04  0.50400001928E-02 0. -1.
        1   -1    0    0  501    0  0.00000000000E+00  0.00000000000E+00 -0.93346286680E+03  0.93346286681E+03  0.50400001928E-02 0.  1.
    10030    2    1    2    0    0  0.00000000000E+00  0.00000000000E+00  0.11329116844E+04  0.29998374180E+04  0.27776853043E+04 0.  0.
        1    1    3    3  502    0 -0.40735963560E+03  0.13753084271E+03  0.19926915883E+04  0.20385476133E+04  0.50400001928E-02 0. -1.
       -1    1    3    3    0  502  0.40735963560E+03 -0.13753084271E+03 -0.85977990394E+03  0.96128980472E+03  0.50400001928E-02 0.  1.
</event>
<event>
 5   0  0.2666813E-07  0.2619131E+04  0.7818609E-02  0.8361732E-01
       -1   -1    0    0    0  501  0.00000000000E+00  0.00000000000E+00  0.13627784377E+04  0.13627784377E+04  0.50400001928E-02 0.  1.
        1   -1    0    0  501    0  0.00000000000E+00  0.00000000000E+00 -0.12584301833E+04  0.12584301834E+04  0.50400001928E-02 0. -1.
    10030    2    1    2    0    0  0.00000000000E+00  0.00000000000E+00  0.10434825434E+03  0.26212086211E+04  0.26191307865E+04 0.  0.
        1    1    3    3  502    0 -0.11339954134E+04  0.65427959497E+03  0.21586288384E+02  0.13093866327E+04  0.50400001928E-02 0. -1.
       -1    1    3    3    0  502  0.11339954134E+04 -0.65427959497E+03  0.82761965956E+02  0.13118219883E+04  0.50400001928E-02 0.  1.
</event>
<event>
 5   0  0.1860500E-07  0.2831490E+04  0.7818609E-02  0.8293558E-01
       -1   -1    0    0    0  501  0.00000000000E+00  0.00000000000E+00  0.90353330628E+03  0.90353330629E+03  0.50400001928E-02 0. -1.
        1   -1    0    0  501    0  0.00000000000E+00  0.00000000000E+00 -0.22183281735E+04  0.22183281735E+04  0.50400001928E-02 0.  1.
    10030    2    1    2    0    0  0.00000000000E+00  0.00000000000E+00 -0.13147948673E+04  0.31218614798E+04  0.28314896356E+04 0.  0.
        5    1    3    3  502    0  0.28416709160E+02 -0.11531688213E+02  0.90315844353E+03  0.90369118249E+03  0.46999998093E+01 0. -1.
       -5    1    3    3    0  502 -0.28416709160E+02  0.11531688213E+02 -0.22179533108E+04  0.22181702973E+04  0.46999998093E+01 0.  1.
</event>
<event>
 5   0  0.1860500E-07  0.3890314E+04  0.7818609E-02  0.8027047E-01
        1   -1    0    0  501    0  0.00000000000E+00  0.00000000000E+00  0.28310107105E+04  0.28310107106E+04  0.50400001928E-02 0. -1.
       -1   -1    0    0    0  501  0.00000000000E+00  0.00000000000E+00 -0.13364964958E+04  0.13364964958E+04  0.50400001928E-02 0.  1.
    10030    2    1    2    0    0  0.00000000000E+00  0.00000000000E+00  0.14945142148E+04  0.41675072063E+04  0.38903140717E+04 0.  0.
        5    1    3    3  502    0 -0.17106323643E+04 -0.42244771506E+03 -0.13539785705E+03  0.17672237627E+04  0.46999998093E+01 0.  1.
       -5    1    3    3    0  502  0.17106323643E+04  0.42244771506E+03  0.16299120718E+04  0.24002834436E+04  0.46999998093E+01 0. -1.
</event>
<event>
 5   0  0.5735179E-07  0.3960756E+04  0.7818609E-02  0.8012510E-01
       -2   -1    0    0    0  501  0.00000000000E+00  0.00000000000E+00  0.22020424840E+04  0.22020424840E+04  0.25500000920E-02 0. -1.
        2   -1    0    0  501    0  0.00000000000E+00  0.00000000000E+00 -0.17810271184E+04  0.17810271184E+04  0.25500000920E-02 0.  1.
    10030    2    1    2    0    0  0.00000000000E+00  0.00000000000E+00  0.42101536567E+03  0.39830696024E+04  0.39607561803E+04 0.  0.
        5    1    3    3  502    0 -0.20514900716E+03  0.15060604491E+04  0.14871361433E+04  0.21264760028E+04  0.46999998093E+01 0. -1.
       -5    1    3    3    0  502  0.20514900716E+03 -0.15060604491E+04 -0.10661207777E+04  0.18565935996E+04  0.46999998093E+01 0.  1.
</event>
<event>
 5   0  0.1943459E-07  0.3895821E+04  0.7818609E-02  0.8025899E-01
       -1   -1    0    0    0  501  0.00000000000E+00  0.00000000000E+00  0.29423901696E+04  0.29423901696E+04  0.50400001928E-02 0.  1.
        1   -1    0    0  501    0  0.00000000000E+00  0.00000000000E+00 -0.12895487704E+04  0.12895487704E+04  0.50400001928E-02 0. -1.
    10030    2    1    2    0    0  0.00000000000E+00  0.00000000000E+00  0.16528413992E+04  0.42319389400E+04  0.38958211587E+04 0.  0.
        2    1    3    3  502    0  0.29107097139E+03  0.19259765130E+04  0.80932137457E+03  0.21092910957E+04  0.25500000920E-02 0.  1.
       -2    1    3    3    0  502 -0.29107097139E+03 -0.19259765130E+04  0.84352002464E+03  0.21226478443E+04  0.25500000920E-02 0. -1.
</event>
<event>
 5   0  0.5735179E-07  0.3906803E+04  0.7818609E-02  0.8023616E-01
        2   -1    0    0  501    0  0.00000000000E+00  0.00000000000E+00  0.28144835493E+04  0.28144835493E+04  0.25500000920E-02 0. -1.
       -2   -1    0    0    0  501  0.00000000000E+00  0.00000000000E+00 -0.13557645036E+04  0.13557645036E+04  0.25500000920E-02 0.  1.
    10030    2    1    2    0    0  0.00000000000E+00  0.00000000000E+00  0.14587190457E+04  0.41702480530E+04  0.39068027297E+04 0.  0.
        5    1    3    3  502    0 -0.15654072367E+03 -0.84906801555E+03  0.25997538122E+04  0.27393728237E+04  0.46999998093E+01 0. -1.
       -5    1    3    3    0  502  0.15654072367E+03  0.84906801555E+03 -0.11410347665E+04  0.14308752292E+04  0.46999998093E+01 0.  1.
</event>
<event>
 5   0  0.5872444E-07  0.4067493E+04  0.7818609E-02  0.7991068E-01
       -2   -1    0    0    0  501  0.00000000000E+00  0.00000000000E+00  0.28002652053E+04  0.28002652053E+04  0.25500000920E-02 0.  1.
        2   -1    0    0  501    0  0.00000000000E+00  0.00000000000E+00 -0.14770475837E+04  0.14770475837E+04  0.25500000920E-02 0. -1.
    10030    2    1    2    0    0  0.00000000000E+00  0.00000000000E+00  0.13232176217E+04  0.42773127890E+04  0.40674930634E+04 0.  0.
        3    1    3    3  502    0 -0.88538403910E+03 -0.74081707276E+03 -0.10990998768E+04  0.15939684380E+04  0.10100000352E+00 0. -1.
       -3    1    3    3    0  502  0.88538403910E+03  0.74081707276E+03  0.24223174985E+04  0.26833443509E+04  0.10100000352E+00 0.  1.
</event>
<event>
 5   0  0.2666813E-07  0.2753835E+04  0.7818609E-02  0.8317746E-01
        1   -1    0    0  501    0  0.00000000000E+00  0.00000000000E+00  0.18016809517E+04  0.18016809518E+04  0.50400001928E-02 0.  1.
       -1   -1    0    0    0  501  0.00000000000E+00  0.00000000000E+00 -0.10522959070E+04  0.10522959070E+04  0.50400001928E-02 0. -1.
    10030    2    1    2    0    0  0.00000000000E+00  0.00000000000E+00  0.74938504473E+03  0.28539768588E+04  0.27538347745E+04 0.  0.
        1    1    3    3  502    0  0.53169344597E+03  0.68584354736E+03 -0.73321089401E+03  0.11360798859E+04  0.50400001928E-02 0. -1.
       -1    1    3    3    0  502 -0.53169344597E+03 -0.68584354736E+03  0.14825959387E+04  0.17178969729E+04  0.50400001928E-02 0.  1.
</event>
<event>
 5   0  0.1860500E-07  0.3935183E+04  0.7818609E-02  0.8017751E-01
        3   -1    0    0  501    0  0.00000000000E+00  0.00000000000E+00  0.19748426843E+04  0.19748426869E+04  0.10100000352E+00 0.  1.
       -3   -1    0    0    0  501  0.00000000000E+00  0.00000000000E+00 -0.19603668642E+04  0.19603668668E+04  0.10100000352E+00 0. -1.
    10030    2    1    2    0    0  0.00000000000E+00  0.00000000000E+00  0.14475820162E+02  0.39352095537E+04  0.39351829287E+04 0.  0.
        4    1    3    3  502    0  0.17225258290E+04 -0.27245111676E+03 -0.90386084843E+03  0.19642532649E+04  0.12699999809E+01 0. -1.
       -4    1    3    3    0  502 -0.17225258290E+04  0.27245111676E+03  0.91833666860E+03  0.19709562888E+04  0.12699999809E+01 0.  1.
</event>
<event>
 5   0  0.5872444E-07  0.3800184E+04  0.7818609E-02  0.8046115E-01
        2   -1    0    0  501    0  0.00000000000E+00  0.00000000000E+00  0.17415123704E+04  0.17415123704E+04  0.25500000920E-02 0. -1.
       -2   -1    0    0    0  501  0.00000000000E+00  0.00000000000E+00 -0.20731121099E+04  0.20731121099E+04  0.25500000920E-02 0.  1.
    10030    2    1    2    0    0  0.00000000000E+00  0.00000000000E+00 -0.33159973946E+03  0.38146244803E+04  0.38001844085E+04 0.  0.
        3    1    3    3  502    0  0.23901948041E+03 -0.12199918829E+04  0.12766153900E+04  0.17819251865E+04  0.10100000352E+00 0. -1.
       -3    1    3    3    0  502 -0.23901948041E+03  0.12199918829E+04 -0.16082151294E+04  0.20326992938E+04  0.10100000352E+00 0.  1.
</event>
<event>
 5   0  0.1860500E-07  0.3915559E+04  0.7818609E-02  0.8021801E-01
       -1   -1    0    0    0  501  0.00000000000E+00  0.00000000000E+00  0.18725344646E+04  0.18725344646E+04  0.50400001928E-02 0.  1.
        1   -1    0    0  501    0  0.00000000000E+00  0.00000000000E+00 -0.20469052236E+04  0.20469052236E+04  0.50400001928E-02 0. -1.
    10030    2    1    2    0    0  0.00000000000E+00  0.00000000000E+00 -0.17437075909E+03  0.39194396882E+04  0.39155590032E+04 0.  0.
        4    1    3    3  502    0 -0.11009025404E+04 -0.13768724858E+03  0.15274708993E+04  0.18878858925E+04  0.12699999809E+01 0.  1.
       -4    1    3    3    0  502  0.11009025404E+04  0.13768724858E+03 -0.17018416584E+04  0.20315537957E+04  0.12699999809E+01 0. -1.
</event>
<event>
 5   0  0.3959190E-07  0.3853938E+04  0.7818609E-02  0.8034678E-01
       -2   -1    0    0    0  501  0.00000000000E+00  0.00000000000E+00  0.26004826929E+04  0.26004826929E+04  0.25500000920E-02 0. -1.
        2   -1    0    0  501    0  0.00000000000E+00  0.00000000000E+00 -0.14278921499E+04  0.14278921499E+04  0.25500000920E-02 0.  1.
    10030    2    1    2    0    0  0.00000000000E+00  0.00000000000E+00  0.11725905430E+04  0.40283748428E+04  0.38539376347E+04 0.  0.
        2    1    3    3  502    0  0.40475843538E+03  0.47769732533E+03 -0.13186026446E+04  0.14597044427E+04  0.25500000920E-02 0.  1.
       -2    1    3    3    0  502 -0.40475843538E+03 -0.47769732533E+03  0.24911931877E+04  0.25686704000E+04  0.25500000920E-02 0. -1.
</event>
<event>
 5   0  0.5805753E-07  0.3865144E+04  0.7818609E-02  0.8032318E-01
       -2   -1    0    0    0  501  0.00000000000E+00  0.00000000000E+00  0.22352332998E+04  0.22352332998E+04  0.25500000920E-02 0. -1.
        2   -1    0    0  501    0  0.00000000000E+00  0.00000000000E+00 -0.16708921553E+04  0.16708921553E+04  0.25500000920E-02 0.  1.
    10030    2    1    2    0    0  0.00000000000E+00  0.00000000000E+00  0.56434114453E+03  0.39061254551E+04  0.38651436123E+04 0.  0.
        1    1    3    3  502    0  0.10854240247E+04  0.12079043418E+04 -0.77662860711E+03  0.18000917215E+04  0.50400001928E-02 0.  1.
       -1    1    3    3    0  502 -0.10854240247E+04 -0.12079043418E+04  0.13409697516E+04  0.21060337336E+04  0.50400001928E-02 0. -1.
</event>
<event>
 5   0  0.1876027E-07  0.3854924E+04  0.7818609E-02  0.8034470E-01
        1   -1    0    0  501    0  0.00000000000E+00  0.00000000000E+00  0.13997336599E+04  0.13997336599E+04  0.50400001928E-02 0.  1.
       -1   -1    0    0    0  501  0.00000000000E+00  0.00000000000E+00 -0.26541546530E+04  0.26541546531E+04  0.50400001928E-02 0. -1.
    10030    2    1    2    0    0  0.00000000000E+00  0.00000000000E+00 -0.12544209932E+04  0.40538883129E+04  0.38549239195E+04 0.  0.
        3    1    3    3  502    0  0.49992413468E+03 -0.99747659032E+03 -0.22800257200E+04  0.25383855071E+04  0.10100000352E+00 0. -1.
       -3    1    3    3    0  502 -0.49992413468E+03  0.99747659032E+03  0.10256047268E+04  0.15155028058E+04  0.10100000352E+00 0.  1.
</event>
<event>
 5   0  0.5872444E-07  0.3870306E+04  0.7818609E-02  0.8031234E-01
       -2   -1    0    0    0  501  0.00000000000E+00  0.00000000000E+00  0.20283953482E+04  0.20283953482E+04  0.25500000920E-02 0.  1.
        2   -1    0    0  501    0  0.00000000000E+00  0.00000000000E+00 -0.18461967105E+04  0.18461967105E+04  0.25500000920E-02 0. -1.
    10030    2    1    2    0    0  0.00000000000E+00  0.00000000000E+00  0.18219863771E+03  0.38745920586E+04  0.38703058377E+04 0.  0.
        3    1    3    3  502    0 -0.16381753782E+04  0.55167318816E+03 -0.77983824434E+03  0.18963411016E+04  0.10100000352E+00 0. -1.
       -3    1    3    3    0  502  0.16381753782E+04 -0.55167318816E+03  0.96203688205E+03  0.19782509570E+04  0.10100000352E+00 0.  1.
</event>
<event>
 5   0  0.1860500E-07  0.3953681E+04  0.7818609E-02  0.8013956E-01
       -1   -1    0    0    0  501  0.00000000000E+00  0.00000000000E+00  0.16629156928E+04  0.16629156928E+04  0.50400001928E-02 0.  1.
        1   -1    0    0  501    0  0.00000000000E+00  0.00000000000E+00 -0.23500283163E+04  0.23500283163E+04  0.50400001928E-02 0. -1.
    10030    2    1    2    0    0  0.00000000000E+00  0.00000000000E+00 -0.68711262351E+03  0.40129440091E+04  0.39536813051E+04 0.  0.
        4    1    3    3  502    0 -0.11238648185E+03 -0.13061919087E+04 -0.18453046181E+04  0.22636074683E+04  0.12699999809E+01 0. -1.
       -4    1    3    3    0  502  0.11238648185E+03  0.13061919087E+04  0.11581919946E+04  0.17493365408E+04  0.12699999809E+01 0.  1.
</event>
<event>
 5   0  0.3959190E-07  0.2606284E+04  0.7818609E-02  0.8366070E-01
        2   -1    0    0  501    0  0.00000000000E+00  0.00000000000E+00  0.16400948902E+04  0.16400948902E+04  0.25500000920E-02 0.  1.
       -2   -1    0    0    0  501  0.00000000000E+00  0.00000000000E+00 -0.10354152953E+04  0.10354152953E+04  0.25500000920E-02 0. -1.
    10030    2    1    2    0    0  0.00000000000E+00  0.00000000000E+00  0.60467959493E+03  0.26755101856E+04  0.26062842018E+04 0.  0.
        2    1    3    3  502    0 -0.55846221407E+02 -0.81727236774E+03  0.13427312740E+04  0.15728891244E+04  0.25500000920E-02 0.  1.
       -2    1    3    3    0  502  0.55846221407E+02  0.81727236774E+03 -0.73805167907E+03  0.11026210612E+04  0.25500000920E-02 0. -1.
</event>
<event>
 5   0  0.1860500E-07  0.3878904E+04  0.7818609E-02  0.8029431E-01
       -1   -1    0    0    0  501  0.00000000000E+00  0.00000000000E+00  0.22401276287E+04  0.22401276287E+04  0.50400001928E-02 0. -1.
        1   -1    0    0  501    0  0.00000000000E+00  0.00000000000E+00 -0.16791338655E+04  0.16791338655E+04  0.50400001928E-02 0.  1.
    10030    2    1    2    0    0  0.00000000000E+00  0.00000000000E+00  0.56099376315E+03  0.39192614942E+04  0.38789040537E+04 0.  0.
        4    1    3    3  502    0 -0.19777958876E+03  0.27717424935E+03  0.22096893371E+04  0.22357707641E+04  0.12699999809E+01 0. -1.
       -4    1    3    3    0  502  0.19777958876E+03 -0.27717424935E+03 -0.16486955739E+04  0.16834907302E+04  0.12699999809E+01 0.  1.
</event>
<event>
 5   0  0.1860500E-07  0.3913851E+04  0.7818609E-02  0.8022155E-01
        1   -1    0    0  501    0  0.00000000000E+00  0.00000000000E+00  0.13765142120E+04  0.13765142120E+04  0.50400001928E-02 0. -1.
       -1   -1    0    0    0  501  0.00000000000E+00  0.00000000000E+00 -0.27820694400E+04  0.27820694400E+04  0.50400001928E-02 0.  1.
    10030    2    1    2    0    0  0.00000000000E+00  0.00000000000E+00 -0.14055552280E+04  0.41585836520E+04  0.39138513630E+04 0.  0.
        4    1    3    3  502    0  0.11596118715E+04 -0.15747974078E+04 -0.77692622235E+03  0.21043532346E+04  0.12699999809E+01 0.  1.
       -4    1    3    3    0  502 -0.11596118715E+04  0.15747974078E+04 -0.62862900562E+03  0.20542304174E+04  0.12699999809E+01 0. -1.
</event>
<event>
 5   0  0.5735179E-07  0.3731047E+04  0.7818609E-02  0.8061116E-01
       -2   -1    0    0    0  501  0.00000000000E+00  0.00000000000E+00  0.15975572056E+04  0.15975572056E+04  0.25500000920E-02 0.  1.
        2   -1    0    0  501    0  0.00000000000E+00  0.00000000000E+00 -0.21784376435E+04  0.21784376435E+04  0.25500000920E-02 0. -1.
    10030    2    1    2    0    0  0.00000000000E+00  0.00000000000E+00 -0.58088043787E+03  0.37759948491E+04  0.37310474424E+04 0.  0.
        5    1    3    3  502    0 -0.83100029932E+03  0.15374819038E+04  0.36991129323E+03  0.17864122024E+04  0.46999998093E+01 0. -1.
       -5    1    3    3    0  502  0.83100029932E+03 -0.15374819038E+04 -0.95079173110E+03  0.19895826467E+04  0.46999998093E+01 0.  1.
</event>
<event>
 5   0  0.3959190E-07  0.3891184E+04  0.7818609E-02  0.8026865E-01
        2   -1    0    0  501    0  0.00000000000E+00  0.00000000000E+00  0.21501691915E+04  0.21501691915E+04  0.25500000920E-02 0.  1.
       -2   -1    0    0    0  501  0.00000000000E+00  0.00000000000E+00 -0.17604791677E+04  0.17604791677E+04  0.25500000920E-02 0. -1.
    10030    2    1    2    0    0  0.00000000000E+00  0.00000000000E+00  0.38969002373E+03  0.39106483592E+04  0.38911839169E+04 0.  0.
        2    1    3    3  502    0 -0.63771111692E+03  0.16098251160E+04 -0.69678831861E+03  0.18664743057E+04  0.25500000920E-02 0. -1.
       -2    1    3    3    0  502  0.63771111692E+03 -0.16098251160E+04  0.10864783423E+04  0.20441740535E+04  0.25500000920E-02 0.  1.
</event>
<event>
 5   0  0.6095665E-07  0.3921841E+04  0.7818609E-02  0.8020502E-01
        2   -1    0    0  501    0  0.00000000000E+00  0.00000000000E+00  0.35207784844E+04  0.35207784844E+04  0.25500000920E-02 0. -1.
       -2   -1    0    0    0  501  0.00000000000E+00  0.00000000000E+00 -0.10921474564E+04  0.10921474564E+04  0.25500000920E-02 0.  1.
    10030    2    1    2    0    0  0.00000000000E+00  0.00000000000E+00  0.24286310280E+04  0.46129259409E+04  0.39218410302E+04 0.  0.
        4    1    3    3  502    0 -0.14362826810E+04 -0.50541597794E+03 -0.23908499955E+03  0.15412710665E+04  0.12699999809E+01 0.  1.
       -4    1    3    3    0  502  0.14362826810E+04  0.50541597794E+03  0.26677160275E+04  0.30716548743E+04  0.12699999809E+01 0. -1.
</event>
<event>
 5   0  0.5735179E-07  0.2464627E+04  0.7818609E-02  0.8415697E-01
        2   -1    0    0  501    0  0.00000000000E+00  0.00000000000E+00  0.23171332711E+04  0.23171332711E+04  0.25500000920E-02 0. -1.
       -2   -1    0    0    0  501  0.00000000000E+00  0.00000000000E+00 -0.65537727191E+03  0.65537727192E+03  0.25500000920E-02 0.  1.
    10030    2    1    2    0    0  0.00000000000E+00  0.00000000000E+00  0.16617559992E+04  0.29725105430E+04  0.24646269348E+04 0.  0.
        5    1    3    3  502    0 -0.81041914347E+02  0.11804909119E+04  0.41579425579E+03  0.12542063380E+04  0.46999998093E+01 0. -1.
       -5    1    3    3    0  502  0.81041914347E+02 -0.11804909119E+04  0.12459617434E+04  0.17183042051E+04  0.46999998093E+01 0.  1.
</event>
<event>
 5   0  0.6095665E-07  0.3853907E+04  0.7818609E-02  0.8034685E-01
        2   -1    0    0  501    0  0.00000000000E+00  0.00000000000E+00  0.22519437507E+04  0.22519437507E+04  0.25500000920E-02 0.  1.
       -2   -1    0    0    0  501  0.00000000000E+00  0.00000000000E+00 -0.16488641002E+04  0.16488641002E+04  0.25500000920E-02 0. -1.
    10030    2    1    2    0    0  0.00000000000E+00  0.00000000000E+00  0.60307965049E+03  0.39008078509E+04  0.38539066965E+04 0.  0.
        4    1    3    3  502    0  0.15184275107E+04  0.76480295622E+03  0.12195515393E+04  0.20923320093E+04  0.12699999809E+01 0.  1.
       -4    1    3    3    0  502 -0.15184275107E+04 -0.76480295622E+03 -0.61647188880E+03  0.18084758416E+04  0.12699999809E+01 0. -1.
</event>
<event>
 5   0  0.2666813E-07  0.3175587E+04  0.7818609E-02  0.8195294E-01
       -1   -1    0    0    0  501  0.00000000000E+00  0.00000000000E+00  0.10631295096E+04  0.10631295096E+04  0.50400001928E-02 0.  1.
        1   -1    0    0  501    0  0.00000000000E+00  0.00000000000E+00 -0.23713840005E+04  0.23713840005E+04  0.50400001928E-02 0. -1.
    10030    2    1    2    0    0  0.00000000000E+00  0.00000000000E+00 -0.13082544909E+04  0.34345135101E+04  0.31755870698E+04 0.  0.
        1    1    3    3  502    0 -0.70660814151E+03 -0.92173797255E+03  0.51682894308E+03  0.12712230772E+04  0.50400001928E-02 0.  1.
       -1    1    3    3    0  502  0.70660814151E+03  0.92173797255E+03 -0.18250834340E+04  0.21632904328E+04  0.50400001928E-02 0. -1.
</event>
<event>
 5   0  0.5735179E-07  0.3897788E+04  0.7818609E-02  0.8025490E-01
       -2   -1    0    0    0  501  0.00000000000E+00  0.00000000000E+00  0.18961039922E+04  0.18961039922E+04  0.25500000920E-02 0. -1.
        2   -1    0    0  501    0  0.00000000000E+00  0.00000000000E+00 -0.20031532670E+04  0.20031532670E+04  0.25500000920E-02 0.  1.
    10030    2    1    2    0    0  0.00000000000E+00  0.00000000000E+00 -0.10704927477E+03  0.38992572592E+04  0.38977875296E+04 0.  0.
        5    1    3    3  502    0  0.14667909803E+04 -0.55805857739E+02 -0.13360278360E+04  0.19848381652E+04  0.46999998093E+01 0.  1.
       -5    1    3    3    0  502 -0.14667909803E+04  0.55805857739E+02  0.12289785612E+04  0.19144190940E+04  0.46999998093E+01 0. -1.
</event>
<event>
 5   0  0.1860500E-07  0.3917396E+04  0.7818609E-02  0.8021421E-01
        3   -1    0    0  501    0  0.00000000000E+00  0.00000000000E+00  0.17383069193E+04  0.17383069223E+04  0.10100000352E+00 0.  1.
       -3   -1    0    0    0  501  0.00000000000E+00  0.00000000000E+00 -0.22070310584E+04  0.22070310607E+04  0.10100000352E+00 0. -1.
    10030    2    1    2    0    0  0.00000000000E+00  0.00000000000E+00 -0.46872413908E+03  0.39453379830E+04  0.39173957525E+04 0.  0.
        5    1    3    3  502    0  0.27459808287E+03 -0.81859876791E+01  0.17188017579E+04  0.17406242244E+04  0.46999998093E+01 0.  1.
       -5    1    3    3    0  502 -0.27459808287E+03  0.81859876791E+01 -0.21875258970E+04  0.22047137586E+04  0.46999998093E+01 0. -1.
</event>
<event>
 5   0  0.3959190E-07  0.3017892E+04  0.7818609E-02  0.8238640E-01
       -2   -1    0    0    0  501  0.00000000000E+00  0.00000000000E+00  0.13927905828E+04  0.13927905828E+04  0.25500000920E-02 0.  1.
        2   -1    0    0  501    0  0.00000000000E+00  0.00000000000E+00 -0.16347887089E+04  0.16347887089E+04  0.25500000920E-02 0. -1.
    10030    2    1    2    0    0  0.00000000000E+00  0.00000000000E+00 -0.24199812613E+03  0.30275792917E+04  0.30178921906E+04 0.  0.
        2    1    3    3  502    0  0.40091897606E+03 -0.12463348280E+04 -0.87362835087E+03  0.15739482279E+04  0.25500000920E-02 0. -1.
       -2    1    3    3    0  502 -0.40091897606E+03  0.12463348280E+04  0.63163022473E+03  0.14536310638E+04  0.25500000920E-02 0.  1.
</event>
<event>
 5   0  0.3959190E-07  0.3697864E+04  0.7818609E-02  0.8068435E-01
        2   -1    0    0  501    0  0.00000000000E+00  0.00000000000E+00  0.30568236672E+04  0.30568236672E+04  0.25500000920E-02 0. -1.
       -2   -1    0    0    0  501  0.00000000000E+00  0.00000000000E+00 -0.11183339281E+04  0.11183339281E+04  0.25500000920E-02 0.  1.
    10030    2    1    2    0    0  0.00000000000E+00  0.00000000000E+00  0.19384897391E+04  0.41751575954E+04  0.36978640426E+04 0.  0.
        2    1    3    3  502    0 -0.10516116449E+04 -0.43205718793E+03  0.26155201445E+04  0.28519302396E+04  0.25500000920E-02 0.  1.
       -2    1    3    3    0  502  0.10516116449E+04  0.43205718793E+03 -0.67703040541E+03  0.13232273558E+04  0.25500000920E-02 0. -1.
</event>
<event>
 5   0  0.5735179E-07  0.3836796E+04  0.7818609E-02  0.8038304E-01
       -2   -1    0    0    0  501  0.00000000000E+00  0.00000000000E+00  0.12766536491E+04  0.12766536491E+04  0.25500000920E-02 0. -1.
        2   -1    0    0  501    0  0.00000000000E+00  0.00000000000E+00 -0.28827323075E+04  0.28827323075E+04  0.25500000920E-02 0.  1.
    10030    2    1    2    0    0  0.00000000000E+00  0.00000000000E+00 -0.16060786584E+04  0.41593859566E+04  0.38367959131E+04 0.  0.
        5    1    3    3  502    0  0.79220839664E+03  0.57500234888E+03 -0.25916059607E+04  0.27703186442E+04  0.46999998093E+01 0.  1.
       -5    1    3    3    0  502 -0.79220839664E+03 -0.57500234888E+03  0.98552730224E+03  0.13890673124E+04  0.46999998093E+01 0. -1.
</event>
<event>
 5   0  0.2666813E-07  0.4200817E+04  0.7818609E-02  0.7965217E-01
        1   -1    0    0  501    0  0.00000000000E+00  0.00000000000E+00  0.16346562976E+04  0.16346562976E+04  0.50400001928E-02 0.  1.
       -1   -1    0    0    0  501  0.00000000000E+00  0.00000000000E+00 -0.26988641092E+04  0.26988641092E+04  0.50400001928E-02 0. -1.
    10030    2    1    2    0    0  0.00000000000E+00  0.00000000000E+00 -0.10642078116E+04  0.43335204068E+04  0.42008166884E+04 0.  0.
        1    1    3    3  502    0 -0.31243980789E+03 -0.57593305143E+03  0.15265314612E+04  0.16612091426E+04  0.50400001928E-02 0.  1.
       -1    1    3    3    0  502  0.31243980789E+03  0.57593305143E+03 -0.25907392728E+04  0.26723112643E+04  0.50400001928E-02 0. -1.
</event>
<event>
 5   0  0.1860500E-07  0.4098445E+04  0.7818609E-02  0.7984976E-01
       -1   -1    0    0    0  501  0.00000000000E+00  0.00000000000E+00  0.28561031753E+04  0.28561031753E+04  0.50400001928E-02 0.  1.
        1   -1    0    0  501    0  0.00000000000E+00  0.00000000000E+00 -0.14702942786E+04  0.14702942786E+04  0.50400001928E-02 0. -1.
    10030    2    1    2    0    0  0.00000000000E+00  0.00000000000E+00  0.13858088967E+04  0.43263974539E+04  0.40984446600E+04 0.  0.
        5    1    3    3  502    0  0.13343145217E+04 -0.11476004688E+04 -0.41519823075E+03  0.18082571000E+04  0.46999998093E+01 0.  1.
       -5    1    3    3    0  502 -0.13343145217E+04  0.11476004688E+04  0.18010071274E+04  0.25181403539E+04  0.46999998093E+01 0. -1.
</event>
<event>
 5   0  0.3959190E-07  0.2780950E+04  0.7818609E-02  0.8309207E-01
       -2   -1    0    0    0  501  0.00000000000E+00  0.00000000000E+00  0.10199765886E+04  0.10199765887E+04  0.25500000920E-02 0.  1.
        2   -1    0    0  501    0  0.00000000000E+00  0.00000000000E+00 -0.18955538784E+04  0.18955538784E+04  0.25500000920E-02 0. -1.
    10030    2    1    2    0    0  0.00000000000E+00  0.00000000000E+00 -0.87557728973E+03  0.29155304670E+04  0.27809498942E+04 0.  0.
        2    1    3    3  502    0  0.46286636983E+03  0.20960536366E+03 -0.17947361692E+04  0.18652768164E+04  0.25500000920E-02 0. -1.
       -2    1    3    3    0  502 -0.46286636983E+03 -0.20960536366E+03  0.91915887951E+03  0.10502536506E+04  0.25500000920E-02 0.  1.
</event>
<event>
 5   0  0.5735179E-07  0.3879545E+04  0.7818609E-02  0.8029297E-01
       -2   -1    0    0    0  501  0.00000000000E+00  0.00000000000E+00  0.20455441455E+04  0.20455441455E+04  0.25500000920E-02 0. -1.
        2   -1    0    0  501    0  0.00000000000E+00  0.00000000000E+00 -0.18394705131E+04  0.18394705131E+04  0.25500000920E-02 0.  1.
    10030    2    1    2    0    0  0.00000000000E+00  0.00000000000E+00  0.20607363237E+03  0.38850146587E+04  0.38795454058E+04 0.  0.
        5    1    3    3  502    0  0.11596846859E+04  0.15101856501E+03  0.16528040475E+04  0.20247119516E+04  0.46999998093E+01 0. -1.
       -5    1    3    3    0  502 -0.11596846859E+04 -0.15101856501E+03 -0.14467304151E+04  0.18603027070E+04  0.46999998093E+01 0.  1.
</event>
<event>
 5   0  0.5805753E-07  0.3835214E+04  0.7818609E-02  0.8038640E-01
       -2   -1    0    0    0  501  0.00000000000E+00  0.00000000000E+00  0.19018739879E+04  0.19018739879E+04  0.25500000920E-02 0. -1.
        2   -1    0    0  501    0  0.00000000000E+00  0.00000000000E+00 -0.19334702705E+04  0.19334702705E+04  0.25500000920E-02 0.  1.
    10030    2    1    2    0    0  0.00000000000E+00  0.00000000000E+00 -0.31596282562E+02  0.38353442584E+04  0.38352141082E+04 0.  0.
        1    1    3    3  502    0  0.14589201010E+03  0.13801243440E+04  0.13075717948E+04  0.19067699604E+04  0.50400001928E-02 0. -1.
       -1    1    3    3    0  502 -0.14589201010E+03 -0.13801243440E+04 -0.13391680774E+04  0.19285742980E+04  0.50400001928E-02 0.  1.
</event>
<event>
 5   0  0.6095665E-07  0.2384038E+04  0.7818609E-02  0.8445504E-01
       -2   -1    0    0    0  501  0.00000000000E+00  0.00000000000E+00  0.13844357032E+04  0.13844357032E+04  0.25500000920E-02 0. -1.
        2   -1    0    0  501    0  0.00000000000E+00  0.00000000000E+00 -0.10263454353E+04  0.10263454353E+04  0.25500000920E-02 0.  1.
    10030    2    1    2    0    0  0.00000000000E+00  0.00000000000E+00  0.35809026786E+03  0.24107811385E+04  0.23840379732E+04 0.  0.
        4    1    3    3  502    0  0.12730843991E+03  0.45895422116E+03 -0.92594376783E+03  0.10412588007E+04  0.12699999809E+01 0.  1.
       -4    1    3    3    0  502 -0.12730843991E+03 -0.45895422116E+03  0.12840340357E+04  0.13695223378E+04  0.12699999809E+01 0. -1.
</event>
<event>
 5   0  0.1860500E-07  0.3870761E+04  0.7818609E-02  0.8031138E-01
       -1   -1    0    0    0  501  0.00000000000E+00  0.00000000000E+00  0.30798133118E+04  0.30798133118E+04  0.50400001928E-02 0. -1.
        1   -1    0    0  501    0  0.00000000000E+00  0.00000000000E+00 -0.12162095479E+04  0.12162095480E+04  0.50400001928E-02 0.  1.
    10030    2    1    2    0    0  0.00000000000E+00  0.00000000000E+00  0.18636037638E+04  0.42960228597E+04  0.38707613492E+04 0.  0.
        5    1    3    3  502    0 -0.12108850370E+04  0.27691879338E+03  0.25790262588E+04  0.28625731650E+04  0.46999998093E+01 0. -1.
       -5    1    3    3    0  502  0.12108850370E+04 -0.27691879338E+03 -0.71542249501E+03  0.14334496948E+04  0.46999998093E+01 0.  1.
</event>
<event>
 5   0  0.1860500E-07  0.2441275E+04  0.7818609E-02  0.8424211E-01
       -1   -1    0    0    0  501  0.00000000000E+00  0.00000000000E+00  0.12761818769E+04  0.12761818769E+04  0.50400001928E-02 0.  1.
        1   -1    0    0  501    0  0.00000000000E+00  0.00000000000E+00 -0.11675101523E+04  0.11675101523E+04  0.50400001928E-02 0. -1.
    10030    2    1    2    0    0  0.00000000000E+00  0.00000000000E+00  0.10867172453E+03  0.24436920292E+04  0.24412745012E+04 0.  0.
        5    1    3    3  502    0  0.59895697207E+03 -0.63393744369E+03  0.90917632218E+03  0.12598610287E+04  0.46999998093E+01 0.  1.
       -5    1    3    3    0  502 -0.59895697207E+03  0.63393744369E+03 -0.80050459764E+03  0.11838310005E+04  0.46999998093E+01 0. -1.
</event>
<event>
 5   0  0.6095665E-07  0.3843849E+04  0.7818609E-02  0.8036810E-01
        2   -1    0    0  501    0  0.00000000000E+00  0.00000000000E+00  0.15108445680E+04  0.15108445680E+04  0.25500000920E-02 0. -1.
       -2   -1    0    0    0  501  0.00000000000E+00  0.00000000000E+00 -0.24448539188E+04  0.24448539188E+04  0.25500000920E-02 0.  1.
    10030    2    1    2    0    0  0.00000000000E+00  0.00000000000E+00 -0.93400935075E+03  0.39556984868E+04  0.38438492493E+04 0.  0.
        4    1    3    3  502    0  0.84325065359E+03  0.38360294742E+03 -0.21999186448E+04  0.23870204320E+04  0.12699999809E+01 0.  1.
       -4    1    3    3    0  502 -0.84325065359E+03 -0.38360294742E+03  0.12659092941E+04  0.15686780548E+04  0.12699999809E+01 0. -1.
</event>
<event>
 5   0  0.2171298E-07  0.2439823E+04  0.7818609E-02  0.8424743E-01
        1   -1    0    0  501    0  0.00000000000E+00  0.00000000000E+00  0.15940307376E+04  0.15940307377E+04  0.50400001928E-02 0. -1.
       -1   -1    0    0    0  501  0.00000000000E+00  0.00000000000E+00 -0.93359826069E+03  0.93359826071E+03  0.50400001928E-02 0.  1.
    10030    2    1    2    0    0  0.00000000000E+00  0.00000000000E+00  0.66043247695E+03  0.25276289984E+04  0.24398232101E+04 0.  0.
        4    1    3    3  502    0 -0.44659628060E+03 -0.97004419934E+03 -0.28070854526E+03  0.11041887913E+04  0.12699999809E+01 0. -1.
       -4    1    3    3    0  502  0.44659628060E+03  0.97004419934E+03  0.94114102221E+03  0.14234402071E+04  0.12699999809E+01 0.  1.
</event>
<event>
 5   0  0.3959190E-07  0.3963545E+04  0.7818609E-02  0.8011941E-01
       -2   -1    0    0    0  501  0.00000000000E+00  0.00000000000E+00  0.27981143492E+04  0.27981143492E+04  0.25500000920E-02 0.  1.
        2   -1    0    0  501    0  0.00000000000E+00  0.00000000000E+00 -0.14035963327E+04  0.14035963327E+04  0.25500000920E-02 0. -1.
    10030    2    1    2    0    0  0.00000000000E+00  0.00000000000E+00  0.13945180165E+04  0.42017106819E+04  0.39635454023E+04 0.  0.
        2    1    3    3  502    0 -0.16962289910E+03 -0.19527405995E+04  0.10071519698E+04  0.22037066201E+04  0.25500000920E-02 0. -1.
       -2    1    3    3    0  502  0.16962289910E+03  0.19527405995E+04  0.38736604667E+03  0.19980040618E+04  0.25500000920E-02 0.  1.
</event>
<event>
 5   0  0.1876027E-07  0.3801812E+04  0.7818609E-02  0.8045766E-01
       -1   -1    0    0    0  501  0.00000000000E+00  0.00000000000E+00  0.16785318952E+04  0.16785318952E+04  0.50400001928E-02 0. -1.
        1   -1    0    0  501    0  0.00000000000E+00  0.00000000000E+00 -0.21527405314E+04  0.21527405314E+04  0.50400001928E-02 0.  1.
    10030    2    1    2    0    0  0.00000000000E+00  0.00000000000E+00 -0.47420863621E+03  0.38312724266E+04  0.38018120122E+04 0.  0.
        3    1    3    3  502    0  0.13535794170E+04 -0.12753519141E+04 -0.63352759911E+03  0.19647027694E+04  0.10100000352E+00 0. -1.
       -3    1    3    3    0  502 -0.13535794170E+04  0.12753519141E+04  0.15931896290E+03  0.18665696572E+04  0.10100000352E+00 0.  1.
</event>
<event>
 5   0  0.1860500E-07  0.3911773E+04  0.7818609E-02  0.8022585E-01
       -1   -1    0    0    0  501  0.00000000000E+00  0.00000000000E+00  0.23487262467E+04  0.23487262467E+04  0.50400001928E-02 0. -1.
        1   -1    0    0  501    0  0.00000000000E+00  0.00000000000E+00 -0.16287513737E+04  0.16287513737E+04  0.50400001928E-02 0.  1.
    10030    2    1    2    0    0  0.00000000000E+00  0.00000000000E+00  0.71997487302E+03  0.39774776205E+04  0.39117725398E+04 0.  0.
        4    1    3    3  502    0  0.33206361032E+03  0.14448056887E+04  0.16572542442E+04  0.22235608744E+04  0.12699999809E+01 0. -1.
       -4    1    3    3    0  502 -0.33206361032E+03 -0.14448056887E+04 -0.93727937121E+03  0.17539167460E+04  0.12699999809E+01 0.  1.
</event>
<event>
 5   0  0.1943459E-07  0.3955242E+04  0.7818609E-02  0.8013637E-01
       -1   -1    0    0    0  501  0.00000000000E+00  0.00000000000E+00  0.15553032426E+04  0.15553032427E+04  0.50400001928E-02 0. -1.
        1   -1    0    0  501    0  0.00000000000E+00  0.00000000000E+00 -0.25146125805E+04  0.25146125805E+04  0.50400001928E-02 0.  1.
    10030    2    1    2    0    0  0.00000000000E+00  0.00000000000E+00 -0.95930933788E+03  0.40699158232E+04  0.39552421420E+04 0.  0.
        2    1    3    3  502    0  0.93315294538E+02 -0.83869730039E+03  0.13607369717E+04  0.16011639554E+04  0.25500000920E-02 0. -1.
       -2    1    3    3    0  502 -0.93315294538E+02  0.83869730039E+03 -0.23200463096E+04  0.24687518678E+04  0.25500000920E-02 0.  1.
</event>
<event>
 5   0  0.6095665E-07  0.3736096E+04  0.7818609E-02  0.8060009E-01
        2   -1    0    0  501    0  0.00000000000E+00  0.00000000000E+00  0.13785543971E+04  0.13785543971E+04  0.25500000920E-02 0. -1.
       -2   -1    0    0    0  501  0.00000000000E+00  0.00000000000E+00 -0.25313494810E+04  0.25313494810E+04  0.25500000920E-02 0.  1.
    10030    2    1    2    0    0  0.00000000000E+00  0.00000000000E+00 -0.11527950839E+04  0.39099038782E+04  0.37360958006E+04 0.  0.
        4    1    3    3  502    0 -0.68841611751E+03 -0.15029212089E+03  0.12341438730E+04  0.14211323600E+04  0.12699999809E+01 0. -1.
       -4    1    3    3    0  502  0.68841611751E+03  0.15029212089E+03 -0.23869389569E+04  0.24887715181E+04  0.12699999809E+01 0.  1.
</event>
<event>
 5   0  0.2666813E-07  0.2744699E+04  0.7818609E-02  0.8320646E-01
        1   -1    0    0  501    0  0.00000000000E+00  0.00000000000E+00  0.11376545317E+04  0.11376545318E+04  0.50400001928E-02 0.  1.
       -1   -1    0    0    0  501  0.00000000000E+00  0.00000000000E+00 -0.16554615346E+04  0.16554615346E+04  0.50400001928E-02 0. -1.
    10030    2    1    2    0    0  0.00000000000E+00  0.00000000000E+00 -0.51780700285E+03  0.27931160664E+04  0.27446991216E+04 0.  0.
        1    1    3    3  502    0 -0.67342545659E+03  0.10400137374E+04  0.34160155136E+03  0.12852322901E+04  0.50400001928E-02 0.  1.
       -1    1    3    3    0  502  0.67342545659E+03 -0.10400137374E+04 -0.85940855421E+03  0.15078837763E+04  0.50400001928E-02 0. -1.
</event>
<event>
 5   0  0.5805753E-07  0.3871333E+04  0.7818609E-02  0.8031018E-01
        2   -1    0    0  501    0  0.00000000000E+00  0.00000000000E+00  0.21696260629E+04  0.21696260629E+04  0.25500000920E-02 0.  1.
       -2   -1    0    0    0  501  0.00000000000E+00  0.00000000000E+00 -0.17269357989E+04  0.17269357989E+04  0.25500000920E-02 0. -1.
    10030    2    1    2    0    0  0.00000000000E+00  0.00000000000E+00  0.44269026404E+03  0.38965618618E+04  0.38713330615E+04 0.  0.
        1    1    3    3  502    0 -0.87927391061E+03 -0.78558366402E+03  0.17664519312E+04  0.21238212562E+04  0.50400001928E-02 0.  1.
       -1    1    3    3    0  502  0.87927391061E+03  0.78558366402E+03 -0.13237616672E+04  0.17727406055E+04  0.50400001928E-02 0. -1.
</event>
<event>
 5   0  0.3959190E-07  0.3577254E+04  0.7818609E-02  0.8095722E-01
       -2   -1    0    0    0  501  0.00000000000E+00  0.00000000000E+00  0.11712940228E+04  0.11712940228E+04  0.25500000920E-02 0. -1.
        2   -1    0    0  501    0  0.00000000000E+00  0.00000000000E+00 -0.27313268422E+04  0.27313268422E+04  0.25500000920E-02 0.  1.
    10030    2    1    2    0    0  0.00000000000E+00  0.00000000000E+00 -0.15600328194E+04  0.39026208650E+04  0.35772541450E+04 0.  0.
        2    1    3    3  502    0 -0.54601364209E+03 -0.13162425662E+04 -0.19593382391E+04  0.24227322852E+04  0.25500000920E-02 0.  1.
       -2    1    3    3    0  502  0.54601364209E+03  0.13162425662E+04  0.39930541966E+03  0.14798885798E+04  0.25500000920E-02 0. -1.
</event>
<event>
 5   0  0.3959190E-07  0.3961330E+04  0.7818609E-02  0.8012393E-01
        2   -1    0    0  501    0  0.00000000000E+00  0.00000000000E+00  0.22824067188E+04  0.22824067188E+04  0.25500000920E-02 0.  1.
       -2   -1    0    0    0  501  0.00000000000E+00  0.00000000000E+00 -0.17188143508E+04  0.17188143508E+04  0.25500000920E-02 0. -1.
    10030    2    1    2    0    0  0.00000000000E+00  0.00000000000E+00  0.56359236802E+03  0.40012210697E+04  0.39613297882E+04 0.  0.
        2    1    3    3  502    0  0.10438114505E+04 -0.41652449924E+03  0.19291702951E+04  0.22326515693E+04  0.25500000920E-02 0.  1.
       -2    1    3    3    0  502 -0.10438114505E+04  0.41652449924E+03 -0.13655779270E+04  0.17685695003E+04  0.25500000920E-02 0. -1.
</event>
<event>
 5   0  0.1943459E-07  0.3833611E+04  0.7818609E-02  0.8038980E-01
       -1   -1    0    0    0  501  0.00000000000E+00  0.00000000000E+00  0.17097091694E+04  0.17097091694E+04  0.50400001928E-02 0.  1.
        1   -1    0    0  501    0  0.00000000000E+00  0.00000000000E+00 -0.21489877148E+04  0.21489877148E+04  0.50400001928E-02 0. -1.
    10030    2    1    2    0    0  0.00000000000E+00  0.00000000000E+00 -0.43927854546E+03  0.38586968842E+04  0.38336113527E+04 0.  0.
        2    1    3    3  502    0 -0.22025532980E+03 -0.14159222008E+04 -0.15010747639E+04  0.20752285502E+04  0.25500000920E-02 0. -1.
       -2    1    3    3    0  502  0.22025532980E+03  0.14159222008E+04  0.10617962184E+04  0.17834683340E+04  0.25500000920E-02 0.  1.
</event>
<event>
 5   0  0.2666813E-07  0.2996071E+04  0.7818609E-02  0.8244854E-01
       -1   -1    0    0    0  501  0.00000000000E+00  0.00000000000E+00  0.14668719342E+04  0.14668719343E+04  0.50400001928E-02 0. -1.
        1   -1    0    0  501    0  0.00000000000E+00  0.00000000000E+00 -0.15298606818E+04  0.15298606818E+04  0.50400001928E-02 0.  1.
    10030    2    1    2    0    0  0.00000000000E+00  0.00000000000E+00 -0.62988747570E+02  0.29967326161E+04  0.29960705582E+04 0.  0.
        1    1    3    3  502    0 -0.89988330560E+02  0.86287482749E+02  0.14616738329E+04  0.14669811939E+04  0.50400001928E-02 0. -1.
       -1    1    3    3    0  502  0.89988330560E+02 -0.86287482749E+02 -0.15246625805E+04  0.15297514222E+04  0.50400001928E-02 0.  1.
</event>
<event>
 5   0  0.3959190E-07  0.3309614E+04  0.7818609E-02  0.8160453E-01
       -2   -1    0    0    0  501  0.00000000000E+00  0.00000000000E+00  0.13725693359E+04  0.13725693359E+04  0.25500000920E-02 0. -1.
        2   -1    0    0  501    0  0.00000000000E+00  0.00000000000E+00 -0.19950807230E+04  0.19950807230E+04  0.25500000920E-02 0.  1.
    10030    2    1    2    0    0  0.00000000000E+00  0.00000000000E+00 -0.62251138708E+03  0.33676500589E+04  0.33096142513E+04 0.  0.
        2    1    3    3  502    0 -0.10428131548E+04 -0.10324160007E+04  0.46703896003E+03  0.15399569684E+04  0.25500000920E-02 0. -1.
       -2    1    3    3    0  502  0.10428131548E+04  0.10324160007E+04 -0.10895503471E+04  0.18276930905E+04  0.25500000920E-02 0.  1.
</event>
<event>
 5   0  0.5872444E-07  0.3925283E+04  0.7818609E-02  0.8019791E-01
       -2   -1    0    0    0  501  0.00000000000E+00  0.00000000000E+00  0.25843660033E+04  0.25843660033E+04  0.25500000920E-02 0. -1.
        2   -1    0    0  501    0  0.00000000000E+00  0.00000000000E+00 -0.14904864222E+04  0.14904864222E+04  0.25500000920E-02 0.  1.
    10030    2    1    2    0    0  0.00000000000E+00  0.00000000000E+00  0.10938795811E+04  0.40748524256E+04  0.39252833977E+04 0.  0.
        3    1    3    3  502    0 -0.43634040912E+03  0.15820055351E+04 -0.57056746270E+03  0.17374353816E+04  0.10100000352E+00 0.  1.
       -3    1    3    3    0  502  0.43634040912E+03 -0.15820055351E+04  0.16644470438E+04  0.23374170440E+04  0.10100000352E+00 0. -1.
</event>
<event>
 5   0  0.5735179E-07  0.3886496E+04  0.7818609E-02  0.8027844E-01
       -2   -1    0    0    0  501  0.00000000000E+00  0.00000000000E+00  0.17112481616E+04  0.17112481616E+04  0.25500000920E-02 0. -1.
        2   -1    0    0  501    0  0.00000000000E+00  0.00000000000E+00 -0.22067005895E+04  0.22067005895E+04  0.25500000920E-02 0.  1.
    10030    2    1    2    0    0  0.00000000000E+00  0.00000000000E+00 -0.49545242792E+03  0.39179487512E+04  0.38864957621E+04 0.  0.
        5    1    3    3  502    0  0.70628562227E+03  0.11874822124E+03  0.15733398738E+04  0.17286876435E+04  0.46999998093E+01 0. -1.
       -5    1    3    3    0  502 -0.70628562227E+03 -0.11874822124E+03 -0.20687923017E+04  0.21892611077E+04  0.46999998093E+01 0.  1.
</event>
<event>
 5   0  0.1876027E-07  0.3834962E+04  0.7818609E-02  0.8038693E-01
       -1   -1    0    0    0  501  0.00000000000E+00  0.00000000000E+00  0.31320494766E+04  0.31320494766E+04  0.50400001928E-02 0.  1.
        1   -1    0    0  501    0  0.00000000000E+00  0.00000000000E+00 -0.11739068383E+04  0.11739068383E+04  0.50400001928E-02 0. -1.
    10030    2    1    2    0    0  0.00000000000E+00  0.00000000000E+00  0.19581426383E+04  0.43059563149E+04  0.38349624762E+04 0.  0.
        3    1    3    3  502    0 -0.38240328322E+03 -0.24578552580E+03 -0.11125302712E+04  0.12018179605E+04  0.10100000352E+00 0. -1.
       -3    1    3    3    0  502  0.38240328322E+03  0.24578552580E+03  0.30706729095E+04  0.31041383544E+04  0.10100000352E+00 0.  1.
</event>
<event>
 5   0  0.3959190E-07  0.3904398E+04  0.7818609E-02  0.8024115E-01
        2   -1    0    0  501    0  0.00000000000E+00  0.00000000000E+00  0.27433103269E+04  0.27433103269E+04  0.25500000920E-02 0. -1.
       -2   -1    0    0    0  501  0.00000000000E+00  0.00000000000E+00 -0.13892272703E+04  0.13892272703E+04  0.25500000920E-02 0.  1.
    10030    2    1    2    0    0  0.00000000000E+00  0.00000000000E+00  0.13540830566E+04  0.41325375973E+04  0.39043982979E+04 0.  0.
        2    1    3    3  502    0  0.30926183652E+03 -0.17651853679E+04 -0.14251469540E+03  0.17977298754E+04  0.25500000920E-02 0.  1.
       -2    1    3    3    0  502 -0.30926183652E+03  0.17651853679E+04  0.14965977520E+04  0.23348077218E+04  0.25500000920E-02 0. -1.
</event>
<event>
 5   0  0.3959190E-07  0.3870165E+04  0.7818609E-02  0.8031263E-01
        2   -1    0    0  501    0  0.00000000000E+00  0.00000000000E+00  0.14728211161E+04  0.14728211161E+04  0.25500000920E-02 0. -1.
       -2   -1    0    0    0  501  0.00000000000E+00  0.00000000000E+00 -0.25424296094E+04  0.25424296094E+04  0.25500000920E-02 0.  1.
    10030    2    1    2    0    0  0.00000000000E+00  0.00000000000E+00 -0.10696084934E+04  0.40152507255E+04  0.38701648620E+04 0.  0.
        2    1    3    3  502    0  0.15930001768E+04 -0.68537806489E+03 -0.14255659542E+04  0.22449122355E+04  0.25500000920E-02 0.  1.
       -2    1    3    3    0  502 -0.15930001768E+04  0.68537806489E+03  0.35595746084E+03  0.17703384900E+04  0.25500000920E-02 0. -1.
</event>
<event>
 5   0  0.2666813E-07  0.3900260E+04  0.7818609E-02  0.8024975E-01
       -1   -1    0    0    0  501  0.00000000000E+00  0.00000000000E+00  0.22659099490E+04  0.22659099490E+04  0.50400001928E-02 0. -1.
        1   -1    0    0  501    0  0.00000000000E+00  0.00000000000E+00 -0.16783575849E+04  0.16783575849E+04  0.50400001928E-02 0.  1.
    10030    2    1    2    0    0  0.00000000000E+00  0.00000000000E+00  0.58755236410E+03  0.39442675340E+04  0.39002600681E+04 0.  0.
        1    1    3    3  502    0 -0.12794713907E+04  0.13472447393E+04 -0.30526869696E+03  0.18828978742E+04  0.50400001928E-02 0. -1.
       -1    1    3    3    0  502  0.12794713907E+04 -0.13472447393E+04  0.89282106105E+03  0.20613696598E+04  0.50400001928E-02 0.  1.
</event>
<event>
 5   0  0.2666813E-07  0.2457415E+04  0.7818609E-02  0.8418316E-01
        1   -1    0    0  501    0  0.00000000000E+00  0.00000000000E+00  0.13014427027E+04  0.13014427027E+04  0.50400001928E-02 0.  1.
       -1   -1    0    0    0  501  0.00000000000E+00  0.00000000000E+00 -0.11600373140E+04  0.11600373141E+04  0.50400001928E-02 0. -1.
    10030    2    1    2    0    0  0.00000000000E+00  0.00000000000E+00  0.14140538864E+03  0.24614800167E+04  0.24574149810E+04 0.  0.
        1    1    3    3  502    0  0.85375285938E+03  0.80731812510E+03 -0.28914859281E+03  0.12100675224E+04  0.50400001928E-02 0. -1.
       -1    1    3    3    0  502 -0.85375285938E+03 -0.80731812510E+03  0.43055398144E+03  0.12514124943E+04  0.50400001928E-02 0.  1.
</event>
<event>
 5   0  0.5872444E-07  0.3951578E+04  0.7818609E-02  0.8014387E-01
       -2   -1    0    0    0  501  0.00000000000E+00  0.00000000000E+00  0.18113234508E+04  0.18113234508E+04  0.25500000920E-02 0.  1.
        2   -1    0    0  501    0  0.00000000000E+00  0.00000000000E+00 -0.21551882337E+04  0.21551882337E+04  0.25500000920E-02 0. -1.
    10030    2    1    2    0    0  0.00000000000E+00  0.00000000000E+00 -0.34386478294E+03  0.39665116845E+04  0.39515784130E+04 0.  0.
        3    1    3    3  502    0 -0.36581084276E+03  0.19415370879E+04 -0.15290973248E+03  0.19816067301E+04  0.10100000352E+00 0.  1.
       -3    1    3    3    0  502  0.36581084276E+03 -0.19415370879E+04 -0.19095505046E+03  0.19849049544E+04  0.10100000352E+00 0. -1.
</event>
<event>
 5   0  0.1860500E-07  0.4004495E+04  0.7818609E-02  0.8003640E-01
        1   -1    0    0  501    0  0.00000000000E+00  0.00000000000E+00  0.12748410884E+04  0.12748410885E+04  0.50400001928E-02 0.  1.
       -1   -1    0    0    0  501  0.00000000000E+00  0.00000000000E+00 -0.31447015916E+04  0.31447015916E+04  0.50400001928E-02 0. -1.
    10030    2    1    2    0    0  0.00000000000E+00  0.00000000000E+00 -0.18698605031E+04  0.44195426800E+04  0.40044948745E+04 0.  0.
        4    1    3    3  502    0  0.11586398315E+04  0.31733710433E+03 -0.27027774391E+04  0.29577282828E+04  0.12699999809E+01 0. -1.
       -4    1    3    3    0  502 -0.11586398315E+04 -0.31733710433E+03  0.83291693596E+03  0.14618143972E+04  0.12699999809E+01 0.  1.
</event>
<event>
 5   0  0.2666813E-07  0.3896457E+04  0.7818609E-02  0.8025766E-01
       -1   -1    0    0    0  501  0.00000000000E+00  0.00000000000E+00  0.21861758899E+04  0.21861758899E+04  0.50400001928E-02 0. -1.
        1   -1    0    0  501    0  0.00000000000E+00  0.00000000000E+00 -0.17361799200E+04  0.17361799200E+04  0.50400001928E-02 0.  1.
    10030    2    1    2    0    0  0.00000000000E+00  0.00000000000E+00  0.44999596988E+03  0.39223558099E+04  0.38964572020E+04 0.  0.
        1    1    3    3  502    0 -0.23635645505E+03 -0.14209892076E+03  0.21664273263E+04  0.21839102173E+04  0.50400001928E-02 0. -1.
       -1    1    3    3    0  502  0.23635645505E+03  0.14209892076E+03 -0.17164313564E+04  0.17384455926E+04  0.50400001928E-02 0.  1.
</event>
<event>
 5   0  0.2666813E-07  0.2479053E+04  0.7818609E-02  0.8410486E-01
        1   -1    0    0  501    0  0.00000000000E+00  0.00000000000E+00  0.20102255086E+04  0.20102255086E+04  0.50400001928E-02 0.  1.
       -1   -1    0    0    0  501  0.00000000000E+00  0.00000000000E+00 -0.76430536671E+03  0.76430536673E+03  0.50400001928E-02 0. -1.
    10030    2    1    2    0    0  0.00000000000E+00  0.00000000000E+00  0.12459201418E+04  0.27745308753E+04  0.24790531616E+04 0.  0.
        1    1    3    3  502    0 -0.11980322687E+04  0.31060997971E+03  0.54650812044E+03  0.13529342194E+04  0.50400001928E-02 0. -1.
       -1    1    3    3    0  502  0.11980322687E+04 -0.31060997971E+03  0.69941202141E+03  0.14215966559E+04  0.50400001928E-02 0.  1.
</event>
<event>
 5   0  0.1876027E-07  0.3904049E+04  0.7818609E-02  0.8024188E-01
       -1   -1    0    0    0  501  0.00000000000E+00  0.00000000000E+00  0.29254898239E+04  0.29254898239E+04  0.50400001928E-02 0.  1.
        1   -1    0    0  501    0  0.00000000000E+00  0.00000000000E+00 -0.13024824106E+04  0.13024824106E+04  0.50400001928E-02 0. -1.
    10030    2    1    2    0    0  0.00000000000E+00  0.00000000000E+00  0.16230074133E+04  0.42279722345E+04  0.39040486872E+04 0.  0.
        3    1    3    3  502    0  0.18422108793E+04  0.11939435352E+03  0.14984891841E+04  0.23777017854E+04  0.10100000352E+00 0.  1.
       -3    1    3    3    0  502 -0.18422108793E+04 -0.11939435352E+03  0.12451822923E+03  0.18502704491E+04  0.10100000352E+00 0. -1.
</event>
<event>
 5   0  0.5735179E-07  0.3703983E+04  0.7818609E-02  0.8067080E-01
        2   -1    0    0  501    0  0.00000000000E+00  0.00000000000E+00  0.18460767293E+04  0.18460767293E+04  0.25500000920E-02 0.  1.
       -2   -1    0    0    0  501  0.00000000000E+00  0.00000000000E+00 -0.18579249656E+04  0.18579249656E+04  0.25500000920E-02 0. -1.
    10030    2    1    2    0    0  0.00000000000E+00  0.00000000000E+00 -0.11848236309E+02  0.37040016950E+04  0.37039827450E+04 0.  0.
        5    1    3    3  502    0 -0.11966206397E+04 -0.11186188471E+04 -0.87001237360E+03  0.18547648640E+04  0.46999998093E+01 0. -1.
       -5    1    3    3    0  502  0.11966206397E+04  0.11186188471E+04  0.85816413729E+03  0.18492368310E+04  0.46999998093E+01 0.  1.
</event>
<event>
 5   0  0.1860500E-07  0.3817511E+04  0.7818609E-02  0.8042407E-01
        1   -1    0    0  501    0  0.00000000000E+00  0.00000000000E+00  0.19926355552E+04  0.19926355552E+04  0.50400001928E-02 0. -1.
       -1   -1    0    0    0  501  0.00000000000E+00  0.00000000000E+00 -0.18284063210E+04  0.18284063210E+04  0.50400001928E-02 0.  1.
    10030    2    1    2    0    0  0.00000000000E+00  0.00000000000E+00  0.16422923420E+03  0.38210418762E+04  0.38175109402E+04 0.  0.
        4    1    3    3  502    0  0.43708206274E+03  0.13891673700E+04  0.13171599095E+04  0.19636034609E+04  0.12699999809E+01 0. -1.
       -4    1    3    3    0  502 -0.43708206274E+03 -0.13891673700E+04 -0.11529306753E+04  0.18574384153E+04  0.12699999809E+01 0.  1.
</event>
<event>
 5   0  0.2666813E-07  0.3944219E+04  0.7818609E-02  0.8015895E-01
        1   -1    0    0  501    0  0.00000000000E+00  0.00000000000E+00  0.19646130085E+04  0.19646130085E+04  0.50400001928E-02 0.  1.
       -1   -1    0    0    0  501  0.00000000000E+00  0.00000000000E+00 -0.19796347797E+04  0.19796347797E+04  0.50400001928E-02 0. -1.
    10030    2    1    2    0    0  0.00000000000E+00  0.00000000000E+00 -0.15021771148E+02  0.39442477882E+04  0.39442191827E+04 0.  0.
        1    1    3    3  502    0 -0.51630885015E+03  0.49740220147E+03  0.18296830126E+04  0.19651268930E+04  0.50400001928E-02 0.  1.
       -1    1    3    3    0  502  0.51630885015E+03 -0.49740220147E+03 -0.18447047838E+04  0.19791208953E+04  0.50400001928E-02 0. -1.
</event>
<event>
 5   0  0.2666813E-07  0.3330196E+04  0.7818609E-02  0.8155254E-01
       -1   -1    0    0    0  501  0.00000000000E+00  0.00000000000E+00  0.14247561836E+04  0.14247561836E+04  0.50400001928E-02 0. -1.
        1   -1    0    0  501    0  0.00000000000E+00  0.00000000000E+00 -0.19459834582E+04  0.19459834582E+04  0.50400001928E-02 0.  1.
    10030    2    1    2    0    0  0.00000000000E+00  0.00000000000E+00 -0.52122727457E+03  0.33707396418E+04  0.33301963697E+04 0.  0.
        1    1    3    3  502    0 -0.38138327522E+03 -0.50768442319E+03 -0.18186244234E+04  0.19262895602E+04  0.50400001928E-02 0.  1.
       -1    1    3    3    0  502  0.38138327522E+03  0.50768442319E+03  0.12973971489E+04  0.14444500816E+04  0.50400001928E-02 0. -1.
</event>
<event>
 5   0  0.5872444E-07  0.3905088E+04  0.7818609E-02  0.8023972E-01
        2   -1    0    0  501    0  0.00000000000E+00  0.00000000000E+00  0.19669171472E+04  0.19669171472E+04  0.25500000920E-02 0. -1.
       -2   -1    0    0    0  501  0.00000000000E+00  0.00000000000E+00 -0.19382759779E+04  0.19382759779E+04  0.25500000920E-02 0.  1.
    10030    2    1    2    0    0  0.00000000000E+00  0.00000000000E+00  0.28641169224E+02  0.39051931251E+04  0.39050880948E+04 0.  0.
        3    1    3    3  502    0 -0.57850131407E+03  0.12314111236E+04  0.14148549928E+04  0.19628682551E+04  0.10100000352E+00 0. -1.
       -3    1    3    3    0  502  0.57850131407E+03 -0.12314111236E+04 -0.13862138236E+04  0.19423248700E+04  0.10100000352E+00 0.  1.
</event>
<event>
 5   0  0.6095665E-07  0.2620300E+04  0.7818609E-02  0.8361338E-01
        2   -1    0    0  501    0  0.00000000000E+00  0.00000000000E+00  0.18028079846E+04  0.18028079846E+04  0.25500000920E-02 0. -1.
       -2   -1    0    0    0  501  0.00000000000E+00  0.00000000000E+00 -0.95212217123E+03  0.95212217124E+03  0.25500000920E-02 0.  1.
    10030    2    1    2    0    0  0.00000000000E+00  0.00000000000E+00  0.85068581332E+03  0.27549301558E+04  0.26203003283E+04 0.  0.
        4    1    3    3  502    0  0.37523634052E+03 -0.57534486545E+03  0.15983111419E+04  0.17396620777E+04  0.12699999809E+01 0. -1.
       -4    1    3    3    0  502 -0.37523634052E+03  0.57534486545E+03 -0.74762532860E+03  0.10152680781E+04  0.12699999809E+01 0.  1.
</event>
<event>
 5   0  0.1860500E-07  0.3531500E+04  0.7818609E-02  0.8106365E-01
       -1   -1    0    0    0  501  0.00000000000E+00  0.00000000000E+00  0.13831500678E+04  0.13831500678E+04  0.50400001928E-02 0. -1.
        1   -1    0    0  501    0  0.00000000000E+00  0.00000000000E+00 -0.22541830925E+04  0.22541830925E+04  0.50400001928E-02 0.  1.
    10030    2    1    2    0    0  0.00000000000E+00  0.00000000000E+00 -0.87103302472E+03  0.36373331604E+04  0.35315002463E+04 0.  0.
        5    1    3    3  502    0  0.62456736889E+03 -0.15184305235E+04 -0.11047072328E+04  0.19789178389E+04  0.46999998093E+01 0.  1.
       -5    1    3    3    0  502 -0.62456736889E+03  0.15184305235E+04  0.23367420809E+03  0.16584153215E+04  0.46999998093E+01 0. -1.
</event>
<event>
 5   0  0.6095665E-07  0.3951425E+04  0.7818609E-02  0.8014418E-01
       -2   -1    0    0    0  501  0.00000000000E+00  0.00000000000E+00  0.18381812064E+04  0.18381812064E+04  0.25500000920E-02 0. -1.
        2   -1    0    0  501    0  0.00000000000E+00  0.00000000000E+00 -0.21235338033E+04  0.21235338033E+04  0.25500000920E-02 0.  1.
    10030    2    1    2    0    0  0.00000000000E+00  0.00000000000E+00 -0.28535259682E+03  0.39617150097E+04  0.39514250231E+04 0.  0.
        4    1    3    3  502    0  0.24900070920E+03  0.52440770833E+03  0.17507419195E+04  0.18444792434E+04  0.12699999809E+01 0. -1.
       -4    1    3    3    0  502 -0.24900070920E+03 -0.52440770833E+03 -0.20360945163E+04  0.21172357663E+04  0.12699999809E+01 0.  1.
</event>
<event>
 5   0  0.1876027E-07  0.3929003E+04  0.7818609E-02  0.8019024E-01
       -1   -1    0    0    0  501  0.00000000000E+00  0.00000000000E+00  0.19727231346E+04  0.19727231346E+04  0.50400001928E-02 0.  1.
        1   -1    0    0  501    0  0.00000000000E+00  0.00000000000E+00 -0.19563144941E+04  0.19563144941E+04  0.50400001928E-02 0. -1.
    10030    2    1    2    0    0  0.00000000000E+00  0.00000000000E+00  0.16408640453E+02  0.39290376287E+04  0.39290033652E+04 0.  0.
        3    1    3    3  502    0 -0.83676974492E+03 -0.20063669030E+03 -0.17578315118E+04  0.19571434085E+04  0.10100000352E+00 0. -1.
       -3    1    3    3    0  502  0.83676974492E+03  0.20063669030E+03  0.17742401522E+04  0.19718942202E+04  0.10100000352E+00 0.  1.
</event>
<event>
 5   0  0.3959190E-07  0.3895796E+04  0.7818609E-02  0.8025904E-01
       -2   -1    0    0    0  501  0.00000000000E+00  0.00000000000E+00  0.21344532779E+04  0.21344532779E+04  0.25500000920E-02 0. -1.
        2   -1    0    0  501    0  0.00000000000E+00  0.00000000000E+00 -0.17776476156E+04  0.17776476156E+04  0.25500000920E-02 0.  1.
    10030    2    1    2    0    0  0.00000000000E+00  0.00000000000E+00  0.35680566234E+03  0.39121008935E+04  0.38957955696E+04 0.  0.
        2    1    3    3  502    0  0.64414506483E+03 -0.12877390617E+04  0.14958048682E+04  0.20762049415E+04  0.25500000920E-02 0. -1.
       -2    1    3    3    0  502 -0.64414506483E+03  0.12877390617E+04 -0.11389992058E+04  0.18358959520E+04  0.25500000920E-02 0.  1.
</event>
<event>
 5   0  0.6095665E-07  0.2445690E+04  0.7818609E-02  0.8422593E-01
        2   -1    0    0  501    0  0.00000000000E+00  0.00000000000E+00  0.14481436123E+04  0.14481436124E+04  0.25500000920E-02 0.  1.
       -2   -1    0    0    0  501  0.00000000000E+00  0.00000000000E+00 -0.10325981310E+04  0.10325981310E+04  0.25500000920E-02 0. -1.
    10030    2    1    2    0    0  0.00000000000E+00  0.00000000000E+00  0.41554548137E+03  0.24807417433E+04  0.24456904035E+04 0.  0.
        4    1    3    3  502    0 -0.11237081713E+04 -0.33138596973E+03  0.56324079909E+03  0.12999148149E+04  0.12699999809E+01 0.  1.
       -4    1    3    3    0  502  0.11237081713E+04  0.33138596973E+03 -0.14769531772E+03  0.11808269285E+04  0.12699999809E+01 0. -1.
</event>
<event>
 5   0  0.1943459E-07  0.2821093E+04  0.7818609E-02  0.8296750E-01
        1   -1    0    0  501    0  0.00000000000E+00  0.00000000000E+00  0.12448200401E+04  0.12448200401E+04  0.50400001928E-02 0.  1.
       -1   -1    0    0    0  501  0.00000000000E+00  0.00000000000E+00 -0.15983365691E+04  0.15983365691E+04  0.50400001928E-02 0. -1.
    10030    2    1    2    0    0  0.00000000000E+00  0.00000000000E+00 -0.35351652900E+03  0.28431566091E+04  0.28210929740E+04 0.  0.
        2    1    3    3  502    0  0.92582847494E+03 -0.59435980142E+03  0.71287963563E+03  0.13109612174E+04  0.25500000920E-02 0.  1.
       -2    1    3    3    0  502 -0.92582847494E+03  0.59435980142E+03 -0.10663961646E+04  0.15321953917E+04  0.25500000920E-02 0. -1.
</event>
<event>
 5   0  0.6095665E-07  0.4007556E+04  0.7818609E-02  0.8003024E-01
       -2   -1    0    0    0  501  0.00000000000E+00  0.00000000000E+00  0.18560889073E+04  0.18560889073E+04  0.25500000920E-02 0. -1.
        2   -1    0    0  501    0  0.00000000000E+00  0.00000000000E+00 -0.21632187507E+04  0.21632187507E+04  0.25500000920E-02 0.  1.
    10030    2    1    2    0    0  0.00000000000E+00  0.00000000000E+00 -0.30712984341E+03  0.40193076580E+04  0.40075560269E+04 0.  0.
        4    1    3    3  502    0 -0.13003278152E+04 -0.63405809991E+03  0.12369503028E+04  0.19033995286E+04  0.12699999809E+01 0. -1.
       -4    1    3    3    0  502  0.13003278152E+04  0.63405809991E+03 -0.15440801462E+04  0.21159081293E+04  0.12699999809E+01 0.  1.
</event>
<event>
 5   0  0.5735179E-07  0.3799991E+04  0.7818609E-02  0.8046157E-01
        2   -1    0    0  501    0  0.00000000000E+00  0.00000000000E+00  0.21039387748E+04  0.21039387748E+04  0.25500000920E-02 0.  1.
       -2   -1    0    0    0  501  0.00000000000E+00  0.00000000000E+00 -0.17158208510E+04  0.17158208510E+04  0.25500000920E-02 0. -1.
    10030    2    1    2    0    0  0.00000000000E+00  0.00000000000E+00  0.38811792380E+03  0.38197596258E+04  0.37999905363E+04 0.  0.
        5    1    3    3  502    0  0.11465973332E+04  0.59669741722E+03 -0.12057468985E+04  0.17676484168E+04  0.46999998093E+01 0. -1.
       -5    1    3    3    0  502 -0.11465973332E+04 -0.59669741722E+03  0.15938648223E+04  0.20521112090E+04  0.46999998093E+01 0.  1.
</event>
<event>
 5   0  0.3959190E-07  0.3931816E+04  0.7818609E-02  0.8018445E-01
        2   -1    0    0  501    0  0.00000000000E+00  0.00000000000E+00  0.27922543838E+04  0.27922543838E+04  0.25500000920E-02 0.  1.
       -2   -1    0    0    0  501  0.00000000000E+00  0.00000000000E+00 -0.13841122214E+04  0.13841122214E+04  0.25500000920E-02 0. -1.
    10030    2    1    2    0    0  0.00000000000E+00  0.00000000000E+00  0.14081421624E+04  0.41763666053E+04  0.39318155695E+04 0.  0.
        2    1    3    3  502    0  0.11083712959E+04 -0.57142654026E+03 -0.91025259075E+03  0.15438830912E+04  0.25500000920E-02 0. -1.
       -2    1    3    3    0  502 -0.11083712959E+04  0.57142654026E+03  0.23183947531E+04  0.26324835141E+04  0.25500000920E-02 0.  1.
</event>
<event>
 5   0  0.5872444E-07  0.2523075E+04  0.7818609E-02  0.8394811E-01
       -2   -1    0    0    0  501  0.00000000000E+00  0.00000000000E+00  0.10027734433E+04  0.10027734433E+04  0.25500000920E-02 0. -1.
        2   -1    0    0  501    0  0.00000000000E+00  0.00000000000E+00 -0.15870756349E+04  0.15870756349E+04  0.25500000920E-02 0.  1.
    10030    2    1    2    0    0  0.00000000000E+00  0.00000000000E+00 -0.58430219156E+03  0.25898490782E+04  0.25230753451E+04 0.  0.
        3    1    3    3  502    0 -0.36721420835E+03 -0.11762524298E+04 -0.14699170064E+02  0.12323279308E+04  0.10100000352E+00 0.  1.
       -3    1    3    3    0  502  0.36721420835E+03  0.11762524298E+04 -0.56960302149E+03  0.13575211474E+04  0.10100000352E+00 0. -1.
</event>
<event>
 5   0  0.1943459E-07  0.3992118E+04  0.7818609E-02  0.8006138E-01
        1   -1    0    0  501    0  0.00000000000E+00  0.00000000000E+00  0.17040511098E+04  0.17040511099E+04  0.50400001928E-02 0. -1.
       -1   -1    0    0    0  501  0.00000000000E+00  0.00000000000E+00 -0.23381057105E+04  0.23381057105E+04  0.50400001928E-02 0.  1.
    10030    2    1    2    0    0  0.00000000000E+00  0.00000000000E+00 -0.63405460062E+03  0.40421568203E+04  0.39921180498E+04 0.  0.
        2    1    3    3  502    0 -0.59194077643E+03  0.18418996586E+04 -0.81436971802E+03  0.20990917733E+04  0.25500000920E-02 0.  1.
       -2    1    3    3    0  502  0.59194077643E+03 -0.18418996586E+04  0.18031511740E+03  0.19430650470E+04  0.25500000920E-02 0. -1.
</event>
<event>
 5   0  0.1860500E-07  0.3905362E+04  0.7818609E-02  0.8023915E-01
       -1   -1    0    0    0  501  0.00000000000E+00  0.00000000000E+00  0.22844215915E+04  0.22844215915E+04  0.50400001928E-02 0.  1.
        1   -1    0    0  501    0  0.00000000000E+00  0.00000000000E+00 -0.16691155422E+04  0.16691155422E+04  0.50400001928E-02 0. -1.
    10030    2    1    2    0    0  0.00000000000E+00  0.00000000000E+00  0.61530604923E+03  0.39535371337E+04  0.39053622538E+04 0.  0.
        4    1    3    3  502    0  0.80274331596E+03 -0.32090377914E+02  0.21093644510E+04  0.22571766931E+04  0.12699999809E+01 0.  1.
       -4    1    3    3    0  502 -0.80274331596E+03  0.32090377914E+02 -0.14940584018E+04  0.16963604406E+04  0.12699999809E+01 0. -1.
</event>
<event>
 5   0  0.1876027E-07  0.3916125E+04  0.7818609E-02  0.8021684E-01
       -1   -1    0    0    0  501  0.00000000000E+00  0.00000000000E+00  0.20942069590E+04  0.20942069590E+04  0.50400001928E-02 0. -1.
        1   -1    0    0  501    0  0.00000000000E+00  0.00000000000E+00 -0.18307687996E+04  0.18307687996E+04  0.50400001928E-02 0.  1.
    10030    2    1    2    0    0  0.00000000000E+00  0.00000000000E+00  0.26343815947E+03  0.39249757586E+04  0.39161250033E+04 0.  0.
        3    1    3    3  502    0  0.34500095821E+02  0.78235550742E+03 -0.16669785204E+04  0.18417621438E+04  0.10100000352E+00 0.  1.
       -3    1    3    3    0  502 -0.34500095821E+02 -0.78235550742E+03  0.19304166799E+04  0.20832136148E+04  0.10100000352E+00 0. -1.
</event>
<event>
 5   0  0.1876027E-07  0.3300871E+04  0.7818609E-02  0.8162674E-01
        1   -1    0    0  501    0  0.00000000000E+00  0.00000000000E+00  0.16768395566E+04  0.16768395566E+04  0.50400001928E-02 0.  1.
       -1   -1    0    0    0  501  0.00000000000E+00  0.00000000000E+00 -0.16244467225E+04  0.16244467225E+04  0.50400001928E-02 0. -1.
    10030    2    1    2    0    0  0.00000000000E+00  0.00000000000E+00  0.52392834072E+02  0.33012862792E+04  0.33008705046E+04 0.  0.
        3    1    3    3  502    0 -0.12795975956E+04  0.35728228667E+03  0.10055622609E+04  0.16661860970E+04  0.10100000352E+00 0.  1.
       -3    1    3    3    0  502  0.12795975956E+04 -0.35728228667E+03 -0.95316942685E+03  0.16351001821E+04  0.10100000352E+00 0. -1.
</event>
<event>
 5   0  0.5805753E-07  0.3070025E+04  0.7818609E-02  0.8224013E-01
        2   -1    0    0  501    0  0.00000000000E+00  0.00000000000E+00  0.21191421174E+04  0.21191421174E+04  0.25500000920E-02 0. -1.
       -2   -1    0    0    0  501  0.00000000000E+00  0.00000000000E+00 -0.11118946115E+04  0.11118946116E+04  0.25500000920E-02 0.  1.
    10030    2    1    2    0    0  0.00000000000E+00  0.00000000000E+00  0.10072475058E+04  0.32310367289E+04  0.30700245611E+04 0.  0.
        1    1    3    3  502    0  0.10938505822E+04 -0.62950512730E+03 -0.41597419960E+03  0.13288417273E+04  0.50400001928E-02 0.  1.
       -1    1    3    3    0  502 -0.10938505822E+04  0.62950512730E+03  0.14232217054E+04  0.19021950016E+04  0.50400001928E-02 0. -1.
</event>
<event>
 5   0  0.5872444E-07  0.3890790E+04  0.7818609E-02  0.8026948E-01
       -2   -1    0    0    0  501  0.00000000000E+00  0.00000000000E+00  0.24018184476E+04  0.24018184476E+04  0.25500000920E-02 0. -1.
        2   -1    0    0  501    0  0.00000000000E+00  0.00000000000E+00 -0.15757064542E+04  0.15757064542E+04  0.25500000920E-02 0.  1.
    10030    2    1    2    0    0  0.00000000000E+00  0.00000000000E+00  0.82611199338E+03  0.39775249018E+04  0.38907895496E+04 0.  0.
        3    1    3    3  502    0 -0.18628840693E+04  0.65354468154E+02  0.98220080517E+03  0.21069709760E+04  0.10100000352E+00 0.  1.
       -3    1    3    3    0  502  0.18628840693E+04 -0.65354468154E+02 -0.15608881179E+03  0.18705539258E+04  0.10100000352E+00 0. -1.
</event>
<event>
 5   0  0.3959190E-07  0.3902385E+04  0.7818609E-02  0.8024533E-01
        2   -1    0    0  501    0  0.00000000000E+00  0.00000000000E+00  0.28465906421E+04  0.28465906421E+04  0.25500000920E-02 0.  1.
       -2   -1    0    0    0  501  0.00000000000E+00  0.00000000000E+00 -0.13374425197E+04  0.13374425197E+04  0.25500000920E-02 0. -1.
    10030    2    1    2    0    0  0.00000000000E+00  0.00000000000E+00  0.15091481224E+04  0.41840331618E+04  0.39023845843E+04 0.  0.
        2    1    3    3  502    0  0.11610286120E+04  0.10593953349E+04  0.19942428051E+04  0.25391554264E+04  0.25500000920E-02 0.  1.
       -2    1    3    3    0  502 -0.11610286120E+04 -0.10593953349E+04 -0.48509468268E+03  0.16448777355E+04  0.25500000920E-02 0. -1.
</event>
<event>
 5   0  0.2666813E-07  0.3824929E+04  0.7818609E-02  0.8040826E-01
       -1   -1    0    0    0  501  0.00000000000E+00  0.00000000000E+00  0.13608277459E+04  0.13608277459E+04  0.50400001928E-02 0.  1.
        1   -1    0    0  501    0  0.00000000000E+00  0.00000000000E+00 -0.26877178134E+04  0.26877178134E+04  0.50400001928E-02 0. -1.
    10030    2    1    2    0    0  0.00000000000E+00  0.00000000000E+00 -0.13268900675E+04  0.40485455593E+04  0.38249292666E+04 0.  0.
        1    1    3    3  502    0  0.18611466560E+04  0.10052046228E+02 -0.11291122218E+04  0.21768928151E+04  0.50400001928E-02 0. -1.
       -1    1    3    3    0  502 -0.18611466560E+04 -0.10052046228E+02 -0.19777784566E+03  0.18716527442E+04  0.50400001928E-02 0.  1.
</event>
<event>
 5   0  0.3959190E-07  0.3705787E+04  0.7818609E-02  0.8066681E-01
        2   -1    0    0  501    0  0.00000000000E+00  0.00000000000E+00  0.19232878948E+04  0.19232878948E+04  0.25500000920E-02 0. -1.
       -2   -1    0    0    0  501  0.00000000000E+00  0.00000000000E+00 -0.17850755440E+04  0.17850755440E+04  0.25500000920E-02 0.  1.
    10030    2    1    2    0    0  0.00000000000E+00  0.00000000000E+00  0.13821235076E+03  0.37083634388E+04  0.37057869260E+04 0.  0.
        2    1    3    3  502    0 -0.97560640551E+03  0.35816400621E+03  0.16041625623E+04  0.19113939521E+04  0.25500000920E-02 0. -1.
       -2    1    3    3    0  502  0.97560640551E+03 -0.35816400621E+03 -0.14659502115E+04  0.17969694868E+04  0.25500000920E-02 0.  1.
</event>
<event>
 5   0  0.2666813E-07  0.3782929E+04  0.7818609E-02  0.8049828E-01
       -1   -1    0    0    0  501  0.00000000000E+00  0.00000000000E+00  0.28641437419E+04  0.28641437419E+04  0.50400001928E-02 0.  1.
        1   -1    0    0  501    0  0.00000000000E+00  0.00000000000E+00 -0.12491126095E+04  0.12491126095E+04  0.50400001928E-02 0. -1.
    10030    2    1    2    0    0  0.00000000000E+00  0.00000000000E+00  0.16150311324E+04  0.41132563514E+04  0.37829290574E+04 0.  0.
        1    1    3    3  502    0 -0.52831343209E+03 -0.16121343806E+04 -0.10190680204E+03  0.16995520998E+04  0.50400001928E-02 0. -1.
       -1    1    3    3    0  502  0.52831343209E+03  0.16121343806E+04  0.17169379344E+04  0.24137042516E+04  0.50400001928E-02 0.  1.
</event>
<event>
 5   0  0.1860500E-07  0.3793518E+04  0.7818609E-02  0.8047547E-01
        1   -1    0    0  501    0  0.00000000000E+00  0.00000000000E+00  0.26006644415E+04  0.26006644415E+04  0.50400001928E-02 0.  1.
       -1   -1    0    0    0  501  0.00000000000E+00  0.00000000000E+00 -0.13833755353E+04  0.13833755353E+04  0.50400001928E-02 0. -1.
    10030    2    1    2    0    0  0.00000000000E+00  0.00000000000E+00  0.12172889062E+04  0.39840399769E+04  0.37935184534E+04 0.  0.
        5    1    3    3  502    0 -0.12205006859E+04  0.93244717134E+03  0.17774598969E+04  0.23491414233E+04  0.46999998093E+01 0.  1.
       -5    1    3    3    0  502  0.12205006859E+04 -0.93244717134E+03 -0.56017099067E+03  0.16348985536E+04  0.46999998093E+01 0. -1.
</event>
<event>
 5   0  0.3959190E-07  0.2680697E+04  0.7818609E-02  0.8341296E-01
        2   -1    0    0  501    0  0.00000000000E+00  0.00000000000E+00  0.13881664595E+04  0.13881664595E+04  0.25500000920E-02 0.  1.
       -2   -1    0    0    0  501  0.00000000000E+00  0.00000000000E+00 -0.12941772961E+04  0.12941772961E+04  0.25500000920E-02 0. -1.
    10030    2    1    2    0    0  0.00000000000E+00  0.00000000000E+00  0.93989163365E+02  0.26823437556E+04  0.26806965625E+04 0.  0.
        2    1    3    3  502    0 -0.91525648654E+03  0.78456838786E+03 -0.53927628937E+03  0.13206289818E+04  0.25500000920E-02 0. -1.
       -2    1    3    3    0  502  0.91525648654E+03 -0.78456838786E+03  0.63326545274E+03  0.13617147737E+04  0.25500000920E-02 0.  1.
</event>
<event>
 5   0  0.1876027E-07  0.3214797E+04  0.7818609E-02  0.8184920E-01
       -1   -1    0    0    0  501  0.00000000000E+00  0.00000000000E+00  0.10768349203E+04  0.10768349203E+04  0.50400001928E-02 0.  1.
        1   -1    0    0  501    0  0.00000000000E+00  0.00000000000E+00 -0.23993744778E+04  0.23993744778E+04  0.50400001928E-02 0. -1.
    10030    2    1    2    0    0  0.00000000000E+00  0.00000000000E+00 -0.13225395575E+04  0.34762093981E+04  0.32147971784E+04 0.  0.
        3    1    3    3  502    0 -0.21674982293E+03 -0.15337478419E+04 -0.11255650732E+04  0.19147479397E+04  0.10100000352E+00 0.  1.
       -3    1    3    3    0  502  0.21674982293E+03  0.15337478419E+04 -0.19697448433E+03  0.15614614584E+04  0.10100000352E+00 0. -1.
</event>
<event>
 5   0  0.1860500E-07  0.3919453E+04  0.7818609E-02  0.8020996E-01
       -3   -1    0    0    0  501  0.00000000000E+00  0.00000000000E+00  0.12097819801E+04  0.12097819843E+04  0.10100000352E+00 0.  1.
        3   -1    0    0  501    0  0.00000000000E+00  0.00000000000E+00 -0.31745618344E+04  0.31745618360E+04  0.10100000352E+00 0. -1.
    10030    2    1    2    0    0  0.00000000000E+00  0.00000000000E+00 -0.19647798543E+04  0.43843438204E+04  0.39194528776E+04 0.  0.
        4    1    3    3  502    0  0.19471922028E+04 -0.21811034075E+03 -0.10241922707E+04  0.22109050219E+04  0.12699999809E+01 0. -1.
       -4    1    3    3    0  502 -0.19471922028E+04  0.21811034075E+03 -0.94058758359E+03  0.21734387985E+04  0.12699999809E+01 0.  1.
</event>
<event>
 5   0  0.2666813E-07  0.3839217E+04  0.7818609E-02  0.8037791E-01
        1   -1    0    0  501    0  0.00000000000E+00  0.00000000000E+00  0.24695031548E+04  0.24695031548E+04  0.50400001928E-02 0. -1.
       -1   -1    0    0    0  501  0.00000000000E+00  0.00000000000E+00 -0.14921611881E+04  0.14921611881E+04  0.50400001928E-02 0.  1.
    10030    2    1    2    0    0  0.00000000000E+00  0.00000000000E+00  0.97734196669E+03  0.39616643430E+04  0.38392169835E+04 0.  0.
        1    1    3    3  502    0  0.17777673319E+04  0.35366974567E+03  0.11407738310E+04  0.21417058408E+04  0.50400001928E-02 0. -1.
       -1    1    3    3    0  502 -0.17777673319E+04 -0.35366974567E+03 -0.16343186427E+03  0.18199585021E+04  0.50400001928E-02 0.  1.
</event>
<event>
 5   0  0.1860500E-07  0.3129509E+04  0.7818609E-02  0.8207686E-01
        4   -1    0    0  501    0  0.00000000000E+00  0.00000000000E+00  0.24071445383E+04  0.24071448733E+04  0.12699999809E+01 0.  1.
       -4   -1    0    0    0  501  0.00000000000E+00  0.00000000000E+00 -0.10171615480E+04  0.10171623408E+04  0.12699999809E+01 0. -1.
    10030    2    1    2    0    0  0.00000000000E+00  0.00000000000E+00  0.13899829904E+04  0.34243072142E+04  0.31295090963E+04 0.  0.
        4    1    3    3  502    0  0.99339848277E+03  0.11650295412E+04  0.10484040460E+04  0.18556096125E+04  0.12699999809E+01 0.  1.
       -4    1    3    3    0  502 -0.99339848277E+03 -0.11650295412E+04  0.34157894434E+03  0.15686976017E+04  0.12699999809E+01 0. -1.
</event>
<event>
 5   0  0.1943459E-07  0.3937167E+04  0.7818609E-02  0.8017343E-01
       -1   -1    0    0    0  501  0.00000000000E+00  0.00000000000E+00  0.18235727974E+04  0.18235727974E+04  0.50400001928E-02 0. -1.
        1   -1    0    0  501    0  0.00000000000E+00  0.00000000000E+00 -0.21251253691E+04  0.21251253691E+04  0.50400001928E-02 0.  1.
    10030    2    1    2    0    0  0.00000000000E+00  0.00000000000E+00 -0.30155257170E+03  0.39486981664E+04  0.39371669073E+04 0.  0.
        2    1    3    3  502    0  0.52919009546E+03  0.17597756449E+04  0.55731442991E+03  0.19202739001E+04  0.25500000920E-02 0. -1.
       -2    1    3    3    0  502 -0.52919009546E+03 -0.17597756449E+04 -0.85886700162E+03  0.20284242663E+04  0.25500000920E-02 0.  1.
</event>
<event>
 5   0  0.1860500E-07  0.3553972E+04  0.7818609E-02  0.8101117E-01
       -1   -1    0    0    0  501  0.00000000000E+00  0.00000000000E+00  0.22800671620E+04  0.22800671620E+04  0.50400001928E-02 0.  1.
        1   -1    0    0  501    0  0.00000000000E+00  0.00000000000E+00 -0.13849062770E+04  0.13849062770E+04  0.50400001928E-02 0. -1.
    10030    2    1    2    0    0  0.00000000000E+00  0.00000000000E+00  0.89516088503E+03  0.36649734390E+04  0.35539720452E+04 0.  0.
        5    1    3    3  502    0 -0.11010132148E+04  0.73718365855E+02 -0.98875830442E+03  0.14816644597E+04  0.46999998093E+01 0. -1.
       -5    1    3    3    0  502  0.11010132148E+04 -0.73718365855E+02  0.18839191894E+04  0.21833089793E+04  0.46999998093E+01 0.  1.
</event>
<event>
 5   0  0.5805753E-07  0.2736476E+04  0.7818609E-02  0.8323266E-01
        2   -1    0    0  501    0  0.00000000000E+00  0.00000000000E+00  0.11973753783E+04  0.11973753783E+04  0.25500000920E-02 0. -1.
       -2   -1    0    0    0  501  0.00000000000E+00  0.00000000000E+00 -0.15634820404E+04  0.15634820404E+04  0.25500000920E-02 0.  1.
    10030    2    1    2    0    0  0.00000000000E+00  0.00000000000E+00 -0.36610666214E+03  0.27608574187E+04  0.27364757624E+04 0.  0.
        1    1    3    3  502    0 -0.70623666036E+03  0.73480565056E+03 -0.11040755099E+04  0.15025619109E+04  0.50400001928E-02 0.  1.
       -1    1    3    3    0  502  0.70623666036E+03 -0.73480565056E+03  0.73796884776E+03  0.12582955077E+04  0.50400001928E-02 0. -1.
</event>
<event>
 5   0  0.5735179E-07  0.3684264E+04  0.7818609E-02  0.8071458E-01
        2   -1    0    0  501    0  0.00000000000E+00  0.00000000000E+00  0.23688879989E+04  0.23688879989E+04  0.25500000920E-02 0.  1.
       -2   -1    0    0    0  501  0.00000000000E+00  0.00000000000E+00 -0.14325075262E+04  0.14325075262E+04  0.25500000920E-02 0. -1.
    10030    2    1    2    0    0  0.00000000000E+00  0.00000000000E+00  0.93638047271E+03  0.38013955251E+04  0.36842637729E+04 0.  0.
        5    1    3    3  502    0  0.82252425532E+02 -0.27681891433E+03  0.23453815942E+04  0.23630977731E+04  0.46999998093E+01 0.  1.
       -5    1    3    3    0  502 -0.82252425532E+02  0.27681891433E+03 -0.14090011215E+04  0.14382977520E+04  0.46999998093E+01 0. -1.
</event>
<event>
 5   0  0.5805753E-07  0.3590548E+04  0.7818609E-02  0.8092660E-01
        2   -1    0    0  501    0  0.00000000000E+00  0.00000000000E+00  0.18799721143E+04  0.18799721143E+04  0.25500000920E-02 0. -1.
       -2   -1    0    0    0  501  0.00000000000E+00  0.00000000000E+00 -0.17143919811E+04  0.17143919811E+04  0.25500000920E-02 0.  1.
    10030    2    1    2    0    0  0.00000000000E+00  0.00000000000E+00  0.16558013326E+03  0.35943640954E+04  0.35905482130E+04 0.  0.
        1    1    3    3  502    0  0.49631331770E+03  0.72160505419E+03 -0.14860283823E+04  0.17249119156E+04  0.50400001928E-02 0.  1.
       -1    1    3    3    0  502 -0.49631331770E+03 -0.72160505419E+03  0.16516085156E+04  0.18694521798E+04  0.50400001928E-02 0. -1.
</event>
<event>
 5   0  0.1860500E-07  0.3896266E+04  0.7818609E-02  0.8025806E-01
        1   -1    0    0  501    0  0.00000000000E+00  0.00000000000E+00  0.18641803754E+04  0.18641803754E+04  0.50400001928E-02 0. -1.
       -1   -1    0    0    0  501  0.00000000000E+00  0.00000000000E+00 -0.20358662811E+04  0.20358662811E+04  0.50400001928E-02 0.  1.
    10030    2    1    2    0    0  0.00000000000E+00  0.00000000000E+00 -0.17168590574E+03  0.39000466565E+04  0.38962658883E+04 0.  0.
        4    1    3    3  502    0 -0.61468911029E+03  0.54782786411E+02 -0.19354391361E+04  0.20314453275E+04  0.12699999809E+01 0.  1.
       -4    1    3    3    0  502  0.61468911029E+03 -0.54782786411E+02  0.17637532304E+04  0.18686013290E+04  0.12699999809E+01 0. -1.
</event>
<event>
 5   0  0.5805753E-07  0.2421571E+04  0.7818609E-02  0.8431472E-01
        2   -1    0    0  501    0  0.00000000000E+00  0.00000000000E+00  0.13233728739E+04  0.13233728739E+04  0.25500000920E-02 0. -1.
       -2   -1    0    0    0  501  0.00000000000E+00  0.00000000000E+00 -0.11077765415E+04  0.11077765415E+04  0.25500000920E-02 0.  1.
    10030    2    1    2    0    0  0.00000000000E+00  0.00000000000E+00  0.21559633235E+03  0.24311494154E+04  0.24215709160E+04 0.  0.
        1    1    3    3  502    0 -0.59095202932E+03  0.53243745394E+02  0.11674075428E+04  0.13095417399E+04  0.50400001928E-02 0. -1.
       -1    1    3    3    0  502  0.59095202932E+03 -0.53243745394E+02 -0.95181121047E+03  0.11216076755E+04  0.50400001928E-02 0.  1.
</event>
<event>
 5   0  0.1876027E-07  0.3922899E+04  0.7818609E-02  0.8020283E-01
        1   -1    0    0  501    0  0.00000000000E+00  0.00000000000E+00  0.20974786086E+04  0.20974786086E+04  0.50400001928E-02 0.  1.
       -1   -1    0    0    0  501  0.00000000000E+00  0.00000000000E+00 -0.18342424242E+04  0.18342424242E+04  0.50400001928E-02 0. -1.
    10030    2    1    2    0    0  0.00000000000E+00  0.00000000000E+00  0.26323618449E+03  0.39317210328E+04  0.39228990544E+04 0.  0.
        3    1    3    3  502    0 -0.15864116678E+02 -0.80650882426E+03 -0.16602997173E+04  0.18458882185E+04  0.10100000352E+00 0. -1.
       -3    1    3    3    0  502  0.15864116678E+02  0.80650882426E+03  0.19235359017E+04  0.20858328143E+04  0.10100000352E+00 0.  1.
</event>
<event>
 5   0  0.6095665E-07  0.3822275E+04  0.7818609E-02  0.8041392E-01
        2   -1    0    0  501    0  0.00000000000E+00  0.00000000000E+00  0.25809958957E+04  0.25809958957E+04  0.25500000920E-02 0.  1.
       -2   -1    0    0    0  501  0.00000000000E+00  0.00000000000E+00 -0.14151305286E+04  0.14151305286E+04  0.25500000920E-02 0. -1.
    10030    2    1    2    0    0  0.00000000000E+00  0.00000000000E+00  0.11658653671E+04  0.39961264242E+04  0.38222747604E+04 0.  0.
        4    1    3    3  502    0  0.87176570974E+03 -0.52664301870E+03  0.22736181067E+04  0.24913187732E+04  0.12699999809E+01 0.  1.
       -4    1    3    3    0  502 -0.87176570974E+03  0.52664301870E+03 -0.11077527395E+04  0.15048076511E+04  0.12699999809E+01 0. -1.
</event>
<event>
 5   0  0.3959190E-07  0.2743062E+04  0.7818609E-02  0.8321167E-01
        2   -1    0    0  501    0  0.00000000000E+00  0.00000000000E+00  0.14951912490E+04  0.14951912490E+04  0.25500000920E-02 0. -1.
       -2   -1    0    0    0  501  0.00000000000E+00  0.00000000000E+00 -0.12580979300E+04  0.12580979300E+04  0.25500000920E-02 0.  1.
    10030    2    1    2    0    0  0.00000000000E+00  0.00000000000E+00  0.23709331899E+03  0.27532891790E+04  0.27430618041E+04 0.  0.
        2    1    3    3  502    0  0.63793645225E+03 -0.94775575310E+02  0.13334942107E+04  0.14812670714E+04  0.25500000920E-02 0. -1.
       -2    1    3    3    0  502 -0.63793645225E+03  0.94775575310E+02 -0.10964008917E+04  0.12720221076E+04  0.25500000920E-02 0.  1.
</event>
<event>
 5   0  0.5735179E-07  0.4056488E+04  0.7818609E-02  0.7993247E-01
       -2   -1    0    0    0  501  0.00000000000E+00  0.00000000000E+00  0.25665095498E+04  0.25665095498E+04  0.25500000920E-02 0. -1.
        2   -1    0    0  501    0  0.00000000000E+00  0.00000000000E+00 -0.16028668472E+04  0.16028668472E+04  0.25500000920E-02 0.  1.
    10030    2    1    2    0    0  0.00000000000E+00  0.00000000000E+00  0.96364270257E+03  0.41693763970E+04  0.40564876779E+04 0.  0.
        5    1    3    3  502    0  0.19097835333E+04 -0.20281887386E+03 -0.18851110980E+03  0.19297583186E+04  0.46999998093E+01 0. -1.
       -5    1    3    3    0  502 -0.19097835333E+04  0.20281887386E+03  0.11521538124E+04  0.22396180784E+04  0.46999998093E+01 0.  1.
</event>
<event>
 5   0  0.3959190E-07  0.3917589E+04  0.7818609E-02  0.8021381E-01
       -2   -1    0    0    0  501  0.00000000000E+00  0.00000000000E+00  0.24487698651E+04  0.24487698651E+04  0.25500000920E-02 0. -1.
        2   -1    0    0  501    0  0.00000000000E+00  0.00000000000E+00 -0.15668581461E+04  0.15668581461E+04  0.25500000920E-02 0.  1.
    10030    2    1    2    0    0  0.00000000000E+00  0.00000000000E+00  0.88191171907E+03  0.40156280112E+04  0.39175885496E+04 0.  0.
        2    1    3    3  502    0 -0.46432743165E+03 -0.19022010241E+04  0.38569651959E+03  0.19956779563E+04  0.25500000920E-02 0.  1.
       -2    1    3    3    0  502  0.46432743165E+03  0.19022010241E+04  0.49621519949E+03  0.20199500549E+04  0.25500000920E-02 0. -1.
</event>
<event>
 5   0  0.5872444E-07  0.2500558E+04  0.7818609E-02  0.8402787E-01
        2   -1    0    0  501    0  0.00000000000E+00  0.00000000000E+00  0.10651566804E+04  0.10651566804E+04  0.25500000920E-02 0.  1.
       -2   -1    0    0    0  501  0.00000000000E+00  0.00000000000E+00 -0.14675756461E+04  0.14675756461E+04  0.25500000920E-02 0. -1.
    10030    2    1    2    0    0  0.00000000000E+00  0.00000000000E+00 -0.40241896573E+03  0.25327323265E+04  0.25005583404E+04 0.  0.
        3    1    3    3  502    0 -0.10996135802E+04  0.47615514488E+03 -0.56262588446E+03  0.13237906344E+04  0.10100000352E+00 0.  1.
       -3    1    3    3    0  502  0.10996135802E+04 -0.47615514488E+03  0.16020691873E+03  0.12089416921E+04  0.10100000352E+00 0. -1.
</event>
<event>
 5   0  0.5872444E-07  0.2510515E+04  0.7818609E-02  0.8399249E-01
       -2   -1    0    0    0  501  0.00000000000E+00  0.00000000000E+00  0.68517842396E+03  0.68517842397E+03  0.25500000920E-02 0.  1.
        2   -1    0    0  501    0  0.00000000000E+00  0.00000000000E+00 -0.22996504745E+04  0.22996504745E+04  0.25500000920E-02 0. -1.
    10030    2    1    2    0    0  0.00000000000E+00  0.00000000000E+00 -0.16144720505E+04  0.29848288984E+04  0.25105145989E+04 0.  0.
        3    1    3    3  502    0 -0.11557603131E+04  0.48978178420E+03 -0.80525363762E+03  0.14913421903E+04  0.10100000352E+00 0. -1.
       -3    1    3    3    0  502  0.11557603131E+04 -0.48978178420E+03 -0.80921841289E+03  0.14934867082E+04  0.10100000352E+00 0.  1.
</event>
<event>
 5   0  0.3959190E-07  0.2997068E+04  0.7818609E-02  0.8244569E-01
       -2   -1    0    0    0  501  0.00000000000E+00  0.00000000000E+00  0.11892967868E+04  0.11892967868E+04  0.25500000920E-02 0.  1.
        2   -1    0    0  501    0  0.00000000000E+00  0.00000000000E+00 -0.18881783164E+04  0.18881783164E+04  0.25500000920E-02 0. -1.
    10030    2    1    2    0    0  0.00000000000E+00  0.00000000000E+00 -0.69888152962E+03  0.30774751032E+04  0.29970681704E+04 0.  0.
        2    1    3    3  502    0 -0.90907867192E+03  0.91809457562E+03  0.43005852989E+03  0.13617165713E+04  0.25500000920E-02 0.  1.
       -2    1    3    3    0  502  0.90907867192E+03 -0.91809457562E+03 -0.11289400595E+04  0.17157585318E+04  0.25500000920E-02 0. -1.
</event>
<event>
 5   0  0.1860500E-07  0.3743807E+04  0.7818609E-02  0.8058322E-01
       -3   -1    0    0    0  501  0.00000000000E+00  0.00000000000E+00  0.23622606756E+04  0.23622606777E+04  0.10100000352E+00 0.  1.
        3   -1    0    0  501    0  0.00000000000E+00  0.00000000000E+00 -0.14833345211E+04  0.14833345245E+04  0.10100000352E+00 0. -1.
    10030    2    1    2    0    0  0.00000000000E+00  0.00000000000E+00  0.87892615447E+03  0.38455952022E+04  0.37438070563E+04 0.  0.
        3    1    3    3  502    0 -0.75072672393E+02  0.52606904907E+03 -0.14042294515E+04  0.15014143044E+04  0.10100000352E+00 0. -1.
       -3    1    3    3    0  502  0.75072672393E+02 -0.52606904907E+03  0.22831556060E+04  0.23441808979E+04  0.10100000352E+00 0.  1.
</event>
<event>
 5   0  0.5735179E-07  0.3214128E+04  0.7818609E-02  0.8185096E-01
       -2   -1    0    0    0  501  0.00000000000E+00  0.00000000000E+00  0.23367732607E+04  0.23367732607E+04  0.25500000920E-02 0.  1.
        2   -1    0    0  501    0  0.00000000000E+00  0.00000000000E+00 -0.11052224635E+04  0.11052224635E+04  0.25500000920E-02 0. -1.
    10030    2    1    2    0    0  0.00000000000E+00  0.00000000000E+00  0.12315507972E+04  0.34419957241E+04  0.32141277509E+04 0.  0.
        5    1    3    3  502    0  0.11526907265E+04 -0.68509729825E+03  0.15643363718E+04  0.20603942810E+04  0.46999998093E+01 0.  1.
       -5    1    3    3    0  502 -0.11526907265E+04  0.68509729825E+03 -0.33278557461E+03  0.13816014431E+04  0.46999998093E+01 0. -1.
</event>
<event>
 5   0  0.5872444E-07  0.4211121E+04  0.7818609E-02  0.7963260E-01
        2   -1    0    0  501    0  0.00000000000E+00  0.00000000000E+00  0.29104516569E+04  0.29104516569E+04  0.25500000920E-02 0. -1.
       -2   -1    0    0    0  501  0.00000000000E+00  0.00000000000E+00 -0.15232634613E+04  0.15232634613E+04  0.25500000920E-02 0.  1.
    10030    2    1    2    0    0  0.00000000000E+00  0.00000000000E+00  0.13871881957E+04  0.44337151182E+04  0.42111208317E+04 0.  0.
        3    1    3    3  502    0  0.37067293402E+03 -0.20724704020E+04  0.66285020212E+03  0.22072386350E+04  0.10100000352E+00 0.  1.
       -3    1    3    3    0  502 -0.37067293402E+03  0.20724704020E+04  0.72433799354E+03  0.22264764832E+04  0.10100000352E+00 0. -1.
</event>
<event>
 5   0  0.1860500E-07  0.3957730E+04  0.7818609E-02  0.8013129E-01
       -1   -1    0    0    0  501  0.00000000000E+00  0.00000000000E+00  0.23612751586E+04  0.23612751586E+04  0.50400001928E-02 0. -1.
        1   -1    0    0  501    0  0.00000000000E+00  0.00000000000E+00 -0.16583860514E+04  0.16583860514E+04  0.50400001928E-02 0.  1.
    10030    2    1    2    0    0  0.00000000000E+00  0.00000000000E+00  0.70288910722E+03  0.40196612100E+04  0.39577295443E+04 0.  0.
        4    1    3    3  502    0  0.10509762472E+04 -0.11136173134E+04  0.16245383365E+04  0.22324473146E+04  0.12699999809E+01 0. -1.
       -4    1    3    3    0  502 -0.10509762472E+04  0.11136173134E+04 -0.92164922927E+03  0.17872138953E+04  0.12699999809E+01 0.  1.
</event>
<event>
 5   0  0.5805753E-07  0.3785017E+04  0.7818609E-02  0.8049378E-01
       -2   -1    0    0    0  501  0.00000000000E+00  0.00000000000E+00  0.11852805599E+04  0.11852805599E+04  0.25500000920E-02 0.  1.
        2   -1    0    0  501    0  0.00000000000E+00  0.00000000000E+00 -0.30217219363E+04  0.30217219363E+04  0.25500000920E-02 0. -1.
    10030    2    1    2    0    0  0.00000000000E+00  0.00000000000E+00 -0.18364413764E+04  0.42070024963E+04  0.37850169187E+04 0.  0.
        1    1    3    3  502    0 -0.87435091850E+02  0.15431859772E+04 -0.21319947588E+04  0.26333380920E+04  0.50400001928E-02 0. -1.
       -1    1    3    3    0  502  0.87435091850E+02 -0.15431859772E+04  0.29555338237E+03  0.15736644043E+04  0.50400001928E-02 0.  1.
</event>
<event>
 5   0  0.3959190E-07  0.3952742E+04  0.7818609E-02  0.8014148E-01
        2   -1    0    0  501    0  0.00000000000E+00  0.00000000000E+00  0.13735728853E+04  0.13735728853E+04  0.25500000920E-02 0.  1.
       -2   -1    0    0    0  501  0.00000000000E+00  0.00000000000E+00 -0.28437101298E+04  0.28437101298E+04  0.25500000920E-02 0. -1.
    10030    2    1    2    0    0  0.00000000000E+00  0.00000000000E+00 -0.14701372446E+04  0.42172830151E+04  0.39527424039E+04 0.  0.
        2    1    3    3  502    0 -0.73198693071E+03  0.10816047936E+04 -0.23177082129E+04  0.26603468113E+04  0.25500000920E-02 0. -1.
       -2    1    3    3    0  502  0.73198693071E+03 -0.10816047936E+04  0.84757096838E+03  0.15569362038E+04  0.25500000920E-02 0.  1.
</event>
<event>
 5   0  0.1943459E-07  0.3891714E+04  0.7818609E-02  0.8026755E-01
       -1   -1    0    0    0  501  0.00000000000E+00  0.00000000000E+00  0.17998541423E+04  0.17998541423E+04  0.50400001928E-02 0. -1.
        1   -1    0    0  501    0  0.00000000000E+00  0.00000000000E+00 -0.21037036403E+04  0.21037036403E+04  0.50400001928E-02 0.  1.
    10030    2    1    2    0    0  0.00000000000E+00  0.00000000000E+00 -0.30384949797E+03  0.39035577825E+04  0.38917141267E+04 0.  0.
        2    1    3    3  502    0  0.26564262290E+03  0.95894841745E+03 -0.18292013997E+04  0.20823366277E+04  0.25500000920E-02 0.  1.
       -2    1    3    3    0  502 -0.26564262290E+03 -0.95894841745E+03  0.15253519018E+04  0.18212211548E+04  0.25500000920E-02 0. -1.
</event>
<event>
 5   0  0.5735179E-07  0.4099120E+04  0.7818609E-02  0.7984844E-01
        2   -1    0    0  501    0  0.00000000000E+00  0.00000000000E+00  0.12879035316E+04  0.12879035316E+04  0.25500000920E-02 0.  1.
       -2   -1    0    0    0  501  0.00000000000E+00  0.00000000000E+00 -0.32616550626E+04  0.32616550626E+04  0.25500000920E-02 0. -1.
    10030    2    1    2    0    0  0.00000000000E+00  0.00000000000E+00 -0.19737515310E+04  0.45495585942E+04  0.40991204295E+04 0.  0.
        5    1    3    3  502    0 -0.17536953687E+04  0.40039431027E+03 -0.20771165485E+04  0.27477624162E+04  0.46999998093E+01 0. -1.
       -5    1    3    3    0  502  0.17536953687E+04 -0.40039431027E+03  0.10336501743E+03  0.18017961780E+04  0.46999998093E+01 0.  1.
</event>
<event>
 5   0  0.1876027E-07  0.3094053E+04  0.7818609E-02  0.8217372E-01
       -1   -1    0    0    0  501  0.00000000000E+00  0.00000000000E+00  0.10089041254E+04  0.10089041254E+04  0.50400001928E-02 0. -1.
        1   -1    0    0  501    0  0.00000000000E+00  0.00000000000E+00 -0.23721692493E+04  0.23721692493E+04  0.50400001928E-02 0.  1.
    10030    2    1    2    0    0  0.00000000000E+00  0.00000000000E+00 -0.13632651239E+04  0.33810733748E+04  0.30940532264E+04 0.  0.
        3    1    3    3  502    0 -0.96839445796E+03 -0.57961978035E+03 -0.18378712031E+04  0.21567376951E+04  0.10100000352E+00 0.  1.
       -3    1    3    3    0  502  0.96839445796E+03  0.57961978035E+03  0.47460607920E+03  0.12243356797E+04  0.10100000352E+00 0. -1.
</event>
<event>
 5   0  0.1876027E-07  0.3521309E+04  0.7818609E-02  0.8108758E-01
       -1   -1    0    0    0  501  0.00000000000E+00  0.00000000000E+00  0.13351553935E+04  0.13351553935E+04  0.50400001928E-02 0. -1.
        1   -1    0    0  501    0  0.00000000000E+00  0.00000000000E+00 -0.23217556083E+04  0.23217556083E+04  0.50400001928E-02 0.  1.
    10030    2    1    2    0    0  0.00000000000E+00  0.00000000000E+00 -0.98660021483E+03  0.36569110018E+04  0.35213091445E+04 0.  0.
        3    1    3    3  502    0  0.23897434076E+03  0.45465528485E+03 -0.22422195594E+04  0.23002975299E+04  0.10100000352E+00 0.  1.
       -3    1    3    3    0  502 -0.23897434076E+03 -0.45465528485E+03  0.12556193445E+04  0.13566134719E+04  0.10100000352E+00 0. -1.
</event>
<event>
 5   0  0.1943459E-07  0.3612076E+04  0.7818609E-02  0.8087731E-01
        1   -1    0    0  501    0  0.00000000000E+00  0.00000000000E+00  0.16067296870E+04  0.16067296870E+04  0.50400001928E-02 0.  1.
       -1   -1    0    0    0  501  0.00000000000E+00  0.00000000000E+00 -0.20300701740E+04  0.20300701740E+04  0.50400001928E-02 0. -1.
    10030    2    1    2    0    0  0.00000000000E+00  0.00000000000E+00 -0.42334048699E+03  0.36367998610E+04  0.36120764196E+04 0.  0.
        2    1    3    3  502    0  0.15708614790E+04  0.55874303043E+03 -0.91066590836E+03  0.18997662901E+04  0.25500000920E-02 0. -1.
       -2    1    3    3    0  502 -0.15708614790E+04 -0.55874303043E+03  0.48732542137E+03  0.17370335710E+04  0.25500000920E-02 0.  1.
</event>
<event>
 5   0  0.3959190E-07  0.3704345E+04  0.7818609E-02  0.8067000E-01
        2   -1    0    0  501    0  0.00000000000E+00  0.00000000000E+00  0.26064270217E+04  0.26064270217E+04  0.25500000920E-02 0.  1.
       -2   -1    0    0    0  501  0.00000000000E+00  0.00000000000E+00 -0.13161861194E+04  0.13161861194E+04  0.25500000920E-02 0. -1.
    10030    2    1    2    0    0  0.00000000000E+00  0.00000000000E+00  0.12902409023E+04  0.39226131411E+04  0.37043450526E+04 0.  0.
        2    1    3    3  502    0 -0.52666685480E+03  0.88244408612E+03  0.22768427480E+04  0.24980189031E+04  0.25500000920E-02 0.  1.
       -2    1    3    3    0  502  0.52666685480E+03 -0.88244408612E+03 -0.98660184566E+03  0.14245942380E+04  0.25500000920E-02 0. -1.
</event>
<event>
 5   0  0.3959190E-07  0.3752539E+04  0.7818609E-02  0.8056417E-01
        2   -1    0    0  501    0  0.00000000000E+00  0.00000000000E+00  0.26490780298E+04  0.26490780298E+04  0.25500000920E-02 0. -1.
       -2   -1    0    0    0  501  0.00000000000E+00  0.00000000000E+00 -0.13289105935E+04  0.13289105935E+04  0.25500000920E-02 0.  1.
    10030    2    1    2    0    0  0.00000000000E+00  0.00000000000E+00  0.13201674363E+04  0.39779886233E+04  0.37525393305E+04 0.  0.
        2    1    3    3  502    0  0.26551206521E+03 -0.66401173777E+03 -0.11787730666E+04  0.13787364459E+04  0.25500000920E-02 0.  1.
       -2    1    3    3    0  502 -0.26551206521E+03  0.66401173777E+03  0.24989405029E+04  0.25992521774E+04  0.25500000920E-02 0. -1.
</event>
<event>
 5   0  0.3959190E-07  0.3973303E+04  0.7818609E-02  0.8009954E-01
        2   -1    0    0  501    0  0.00000000000E+00  0.00000000000E+00  0.13860088659E+04  0.13860088659E+04  0.25500000920E-02 0.  1.
       -2   -1    0    0    0  501  0.00000000000E+00  0.00000000000E+00 -0.28475899246E+04  0.28475899246E+04  0.25500000920E-02 0. -1.
    10030    2    1    2    0    0  0.00000000000E+00  0.00000000000E+00 -0.14615810587E+04  0.42335987905E+04  0.39733033521E+04 0.  0.
        2    1    3    3  502    0  0.48223669039E+03 -0.10948537621E+04  0.95915436612E+03  0.15333734327E+04  0.25500000920E-02 0.  1.
       -2    1    3    3    0  502 -0.48223669039E+03  0.10948537621E+04 -0.24207354249E+04  0.27002253578E+04  0.25500000920E-02 0. -1.
</event>
<event>
 5   0  0.5805753E-07  0.3969197E+04  0.7818609E-02  0.8010789E-01
        2   -1    0    0  501    0  0.00000000000E+00  0.00000000000E+00  0.23710057692E+04  0.23710057692E+04  0.25500000920E-02 0. -1.
       -2   -1    0    0    0  501  0.00000000000E+00  0.00000000000E+00 -0.16611648219E+04  0.16611648219E+04  0.25500000920E-02 0.  1.
    10030    2    1    2    0    0  0.00000000000E+00  0.00000000000E+00  0.70984094732E+03  0.40321705910E+04  0.39691970856E+04 0.  0.
        1    1    3    3  502    0 -0.25683443218E+03  0.47570458538E+03 -0.15849233037E+04  0.16745867122E+04  0.50400001928E-02 0.  1.
       -1    1    3    3    0  502  0.25683443218E+03 -0.47570458538E+03  0.22947642510E+04  0.23575838788E+04  0.50400001928E-02 0. -1.
</event>
<event>
 5   0  0.5805753E-07  0.3873470E+04  0.7818609E-02  0.8030570E-01
        2   -1    0    0  501    0  0.00000000000E+00  0.00000000000E+00  0.27526235401E+04  0.27526235401E+04  0.25500000920E-02 0. -1.
       -2   -1    0    0    0  501  0.00000000000E+00  0.00000000000E+00 -0.13626790345E+04  0.13626790345E+04  0.25500000920E-02 0.  1.
    10030    2    1    2    0    0  0.00000000000E+00  0.00000000000E+00  0.13899445055E+04  0.41153025746E+04  0.38734699627E+04 0.  0.
        1    1    3    3  502    0  0.95583838782E+03 -0.29590674556E+03 -0.10667950480E+04  0.14626139273E+04  0.50400001928E-02 0.  1.
       -1    1    3    3    0  502 -0.95583838782E+03  0.29590674556E+03  0.24567395536E+04  0.26526886473E+04  0.50400001928E-02 0. -1.
</event>
<event>
 5   0  0.2666813E-07  0.3865433E+04  0.7818609E-02  0.8032257E-01
       -1   -1    0    0    0  501  0.00000000000E+00  0.00000000000E+00  0.20967681338E+04  0.20967681338E+04  0.50400001928E-02 0.  1.
        1   -1    0    0  501    0  0.00000000000E+00  0.00000000000E+00 -0.17815003281E+04  0.17815003282E+04  0.50400001928E-02 0. -1.
    10030    2    1    2    0    0  0.00000000000E+00  0.00000000000E+00  0.31526780569E+03  0.38782684620E+04  0.38654330254E+04 0.  0.
        1    1    3    3  502    0 -0.11740612043E+04  0.12325363929E+04  0.10760024633E+04  0.20137892075E+04  0.50400001928E-02 0.  1.
       -1    1    3    3    0  502  0.11740612043E+04 -0.12325363929E+04 -0.76073465757E+03  0.18644792545E+04  0.50400001928E-02 0. -1.
</event>
<event>
 5   0  0.3959190E-07  0.3474471E+04  0.7818609E-02  0.8119867E-01
       -2   -1    0    0    0  501  0.00000000000E+00  0.00000000000E+00  0.27012560066E+04  0.27012560066E+04  0.25500000920E-02 0. -1.
        2   -1    0    0  501    0  0.00000000000E+00  0.00000000000E+00 -0.11172534668E+04  0.11172534668E+04  0.25500000920E-02 0.  1.
    10030    2    1    2    0    0  0.00000000000E+00  0.00000000000E+00  0.15840025398E+04  0.38185094734E+04  0.34744712622E+04 0.  0.
        2    1    3    3  502    0  0.20363489437E+03 -0.16120188877E+04  0.14676213411E+04  0.21895169479E+04  0.25500000920E-02 0. -1.
       -2    1    3    3    0  502 -0.20363489437E+03  0.16120188877E+04  0.11638119873E+03  0.16289925254E+04  0.25500000920E-02 0.  1.
</event>
<event>
 5   0  0.1943459E-07  0.2711503E+04  0.7818609E-02  0.8331282E-01
        1   -1    0    0  501    0  0.00000000000E+00  0.00000000000E+00  0.15025079388E+04  0.15025079388E+04  0.50400001928E-02 0.  1.
       -1   -1    0    0    0  501  0.00000000000E+00  0.00000000000E+00 -0.12233294664E+04  0.12233294664E+04  0.50400001928E-02 0. -1.
    10030    2    1    2    0    0  0.00000000000E+00  0.00000000000E+00  0.27917847241E+03  0.27258374052E+04  0.27115030776E+04 0.  0.
        2    1    3    3  502    0 -0.61258559020E+03 -0.12093439565E+04  0.12251934963E+03  0.13611704160E+04  0.25500000920E-02 0. -1.
       -2    1    3    3    0  502  0.61258559020E+03  0.12093439565E+04  0.15665912278E+03  0.13646669891E+04  0.25500000920E-02 0.  1.
</event>
<event>
 5   0  0.3959190E-07  0.2617994E+04  0.7818609E-02  0.8362115E-01
        2   -1    0    0  501    0  0.00000000000E+00  0.00000000000E+00  0.12369284471E+04  0.12369284471E+04  0.25500000920E-02 0.  1.
       -2   -1    0    0    0  501  0.00000000000E+00  0.00000000000E+00 -0.13852641126E+04  0.13852641126E+04  0.25500000920E-02 0. -1.
    10030    2    1    2    0    0  0.00000000000E+00  0.00000000000E+00 -0.14833566542E+03  0.26221925597E+04  0.26179935734E+04 0.  0.
        2    1    3    3  502    0 -0.13780398220E+03  0.11740261908E+04 -0.63733751742E+03  0.13429544093E+04  0.25500000920E-02 0. -1.
       -2    1    3    3    0  502  0.13780398220E+03 -0.11740261908E+04  0.48900185200E+03  0.12792381504E+04  0.25500000920E-02 0.  1.
</event>
<event>
 5   0  0.6095665E-07  0.2945844E+04  0.7818609E-02  0.8259367E-01
       -2   -1    0    0    0  501  0.00000000000E+00  0.00000000000E+00  0.12134980358E+04  0.12134980358E+04  0.25500000920E-02 0.  1.
        2   -1    0    0  501    0  0.00000000000E+00  0.00000000000E+00 -0.17878066456E+04  0.17878066456E+04  0.25500000920E-02 0. -1.
    10030    2    1    2    0    0  0.00000000000E+00  0.00000000000E+00 -0.57430860971E+03  0.30013046814E+04  0.29458444310E+04 0.  0.
        4    1    3    3  502    0  0.79201230493E+03  0.62898112619E+03  0.80379801757E+03  0.12918953573E+04  0.12699999809E+01 0.  1.
       -4    1    3    3    0  502 -0.79201230493E+03 -0.62898112619E+03 -0.13781066273E+04  0.17094093241E+04  0.12699999809E+01 0. -1.
</event>
<event>
 5   0  0.1860500E-07  0.3702703E+04  0.7818609E-02  0.8067363E-01
       -1   -1    0    0    0  501  0.00000000000E+00  0.00000000000E+00  0.13499198844E+04  0.13499198844E+04  0.50400001928E-02 0.  1.
        1   -1    0    0  501    0  0.00000000000E+00  0.00000000000E+00 -0.25390411741E+04  0.25390411741E+04  0.50400001928E-02 0. -1.
    10030    2    1    2    0    0  0.00000000000E+00  0.00000000000E+00 -0.11891212896E+04  0.38889610585E+04  0.37027028875E+04 0.  0.
        4    1    3    3  502    0  0.14673873745E+04 -0.13956943633E+03 -0.17710856386E+04  0.23042246606E+04  0.12699999809E+01 0. -1.
       -4    1    3    3    0  502 -0.14673873745E+04  0.13956943633E+03  0.58196434892E+03  0.15847363979E+04  0.12699999809E+01 0.  1.
</event>
<event>
 5   0  0.1876027E-07  0.2730556E+04  0.7818609E-02  0.8325158E-01
        1   -1    0    0  501    0  0.00000000000E+00  0.00000000000E+00  0.21525056235E+04  0.21525056235E+04  0.50400001928E-02 0.  1.
       -1   -1    0    0    0  501  0.00000000000E+00  0.00000000000E+00 -0.86596017160E+03  0.86596017162E+03  0.50400001928E-02 0. -1.
    10030    2    1    2    0    0  0.00000000000E+00  0.00000000000E+00  0.12865454519E+04  0.30184657951E+04  0.27305560892E+04 0.  0.
        3    1    3    3  502    0 -0.12373835533E+04  0.55931566747E+03  0.79973077447E+03  0.15759192225E+04  0.10100000352E+00 0.  1.
       -3    1    3    3    0  502  0.12373835533E+04 -0.55931566747E+03  0.48681467740E+03  0.14425465726E+04  0.10100000352E+00 0. -1.
</event>
<event>
 5   0  0.5872444E-07  0.2420052E+04  0.7818609E-02  0.8432034E-01
       -2   -1    0    0    0  501  0.00000000000E+00  0.00000000000E+00  0.65100329142E+03  0.65100329142E+03  0.25500000920E-02 0.  1.
        2   -1    0    0  501    0  0.00000000000E+00  0.00000000000E+00 -0.22490874691E+04  0.22490874691E+04  0.25500000920E-02 0. -1.
    10030    2    1    2    0    0  0.00000000000E+00  0.00000000000E+00 -0.15980841777E+04  0.29000907606E+04  0.24200523508E+04 0.  0.
        3    1    3    3  502    0  0.77137625758E+03 -0.54360737787E+03 -0.17066617629E+04  0.19501858105E+04  0.10100000352E+00 0. -1.
       -3    1    3    3    0  502 -0.77137625758E+03  0.54360737787E+03  0.10857758521E+03  0.94990495011E+03  0.10100000352E+00 0.  1.
</event>
<event>
 5   0  0.1860500E-07  0.3835336E+04  0.7818609E-02  0.8038614E-01
       -1   -1    0    0    0  501  0.00000000000E+00  0.00000000000E+00  0.23914457066E+04  0.23914457066E+04  0.50400001928E-02 0. -1.
        1   -1    0    0  501    0  0.00000000000E+00  0.00000000000E+00 -0.15377518221E+04  0.15377518221E+04  0.50400001928E-02 0.  1.
    10030    2    1    2    0    0  0.00000000000E+00  0.00000000000E+00  0.85369388450E+03  0.39291975287E+04  0.38353357051E+04 0.  0.
        5    1    3    3  502    0 -0.24710211033E+03  0.18840466212E+04  0.69150376822E+03  0.20221005601E+04  0.46999998093E+01 0.  1.
       -5    1    3    3    0  502  0.24710211033E+03 -0.18840466212E+04  0.16219011628E+03  0.19070969686E+04  0.46999998093E+01 0. -1.
</event>
<event>
 5   0  0.1860500E-07  0.2550077E+04  0.7818609E-02  0.8385359E-01
       -1   -1    0    0    0  501  0.00000000000E+00  0.00000000000E+00  0.85326584758E+03  0.85326584760E+03  0.50400001928E-02 0. -1.
        1   -1    0    0  501    0  0.00000000000E+00  0.00000000000E+00 -0.19052951650E+04  0.19052951650E+04  0.50400001928E-02 0.  1.
    10030    2    1    2    0    0  0.00000000000E+00  0.00000000000E+00 -0.10520293174E+04  0.27585610126E+04  0.25500770920E+04 0.  0.
        4    1    3    3  502    0 -0.19879938428E+03 -0.46869219772E+03 -0.17905721212E+04  0.18615433665E+04  0.12699999809E+01 0.  1.
       -4    1    3    3    0  502  0.19879938428E+03  0.46869219772E+03  0.73854280379E+03  0.89701764605E+03  0.12699999809E+01 0. -1.
</event>
<event>
 5   0  0.3959190E-07  0.3818066E+04  0.7818609E-02  0.8042289E-01
       -2   -1    0    0    0  501  0.00000000000E+00  0.00000000000E+00  0.15187137988E+04  0.15187137988E+04  0.25500000920E-02 0.  1.
        2   -1    0    0  501    0  0.00000000000E+00  0.00000000000E+00 -0.23996662397E+04  0.23996662397E+04  0.25500000920E-02 0. -1.
    10030    2    1    2    0    0  0.00000000000E+00  0.00000000000E+00 -0.88095244089E+03  0.39183800385E+04  0.38180655996E+04 0.  0.
        2    1    3    3  502    0  0.50262294302E+02 -0.10693998742E+04 -0.20625937613E+04  0.23238836919E+04  0.25500000920E-02 0. -1.
       -2    1    3    3    0  502 -0.50262294302E+02  0.10693998742E+04  0.11816413204E+04  0.15944963466E+04  0.25500000920E-02 0.  1.
</event>
<event>
 5   0  0.5805753E-07  0.3874980E+04  0.7818609E-02  0.8030253E-01
       -2   -1    0    0    0  501  0.00000000000E+00  0.00000000000E+00  0.20362623450E+04  0.20362623450E+04  0.25500000920E-02 0.  1.
        2   -1    0    0  501    0  0.00000000000E+00  0.00000000000E+00 -0.18435085999E+04  0.18435085999E+04  0.25500000920E-02 0. -1.
    10030    2    1    2    0    0  0.00000000000E+00  0.00000000000E+00  0.19275374514E+03  0.38797709449E+04  0.38749798165E+04 0.  0.
        1    1    3    3  502    0  0.14250927567E+04 -0.12900818296E+04 -0.14613460323E+03  0.19278370820E+04  0.50400001928E-02 0. -1.
       -1    1    3    3    0  502 -0.14250927567E+04  0.12900818296E+04  0.33888834836E+03  0.19519338629E+04  0.50400001928E-02 0.  1.
</event>
<event>
 5   0  0.1943459E-07  0.3653354E+04  0.7818609E-02  0.8078378E-01
        1   -1    0    0  501    0  0.00000000000E+00  0.00000000000E+00  0.19502305482E+04  0.19502305482E+04  0.50400001928E-02 0.  1.
       -1   -1    0    0    0  501  0.00000000000E+00  0.00000000000E+00 -0.17109511213E+04  0.17109511213E+04  0.50400001928E-02 0. -1.
    10030    2    1    2    0    0  0.00000000000E+00  0.00000000000E+00  0.23927942687E+03  0.36611816695E+04  0.36533541538E+04 0.  0.
        2    1    3    3  502    0  0.78708074504E+03  0.59248699299E+03 -0.14219057946E+04  0.17298419075E+04  0.25500000920E-02 0. -1.
       -2    1    3    3    0  502 -0.78708074504E+03 -0.59248699299E+03  0.16611852215E+04  0.19313397620E+04  0.25500000920E-02 0.  1.
</event>
<event>
 5   0  0.3959190E-07  0.3865007E+04  0.7818609E-02  0.8032347E-01
        2   -1    0    0  501    0  0.00000000000E+00  0.00000000000E+00  0.17289950144E+04  0.17289950145E+04  0.25500000920E-02 0. -1.
       -2   -1    0    0    0  501  0.00000000000E+00  0.00000000000E+00 -0.21599651174E+04  0.21599651174E+04  0.25500000920E-02 0.  1.
    10030    2    1    2    0    0  0.00000000000E+00  0.00000000000E+00 -0.43097010298E+03  0.38889601319E+04  0.38650065560E+04 0.  0.
        2    1    3    3  502    0  0.45450207079E+02 -0.10440275803E+04  0.14201693388E+04  0.17632187217E+04  0.25500000920E-02 0. -1.
       -2    1    3    3    0  502 -0.45450207079E+02  0.10440275803E+04 -0.18511394418E+04  0.21257414101E+04  0.25500000920E-02 0.  1.
</event>
<event>
 5   0  0.6095665E-07  0.3911731E+04  0.7818609E-02  0.8022594E-01
       -2   -1    0    0    0  501  0.00000000000E+00  0.00000000000E+00  0.14013249738E+04  0.14013249738E+04  0.25500000920E-02 0.  1.
        2   -1    0    0  501    0  0.00000000000E+00  0.00000000000E+00 -0.27298515042E+04  0.27298515042E+04  0.25500000920E-02 0. -1.
    10030    2    1    2    0    0  0.00000000000E+00  0.00000000000E+00 -0.13285265304E+04  0.41311764780E+04  0.39117306081E+04 0.  0.
        4    1    3    3  502    0  0.86157633351E+03  0.11928958079E+04  0.69646390414E+03  0.16279980865E+04  0.12699999809E+01 0.  1.
       -4    1    3    3    0  502 -0.86157633351E+03 -0.11928958079E+04 -0.20249904345E+04  0.25031783915E+04  0.12699999809E+01 0. -1.
</event>
<event>
 5   0  0.5872444E-07  0.3875124E+04  0.7818609E-02  0.8030223E-01
        2   -1    0    0  501    0  0.00000000000E+00  0.00000000000E+00  0.22568987091E+04  0.22568987091E+04  0.25500000920E-02 0.  1.
       -2   -1    0    0    0  501  0.00000000000E+00  0.00000000000E+00 -0.16634090478E+04  0.16634090478E+04  0.25500000920E-02 0. -1.
    10030    2    1    2    0    0  0.00000000000E+00  0.00000000000E+00  0.59348966131E+03  0.39203077569E+04  0.38751236020E+04 0.  0.
        3    1    3    3  502    0  0.47584176553E+03  0.48538893970E+02  0.21962330498E+04  0.22477146236E+04  0.10100000352E+00 0.  1.
       -3    1    3    3    0  502 -0.47584176553E+03 -0.48538893970E+02 -0.16027433885E+04  0.16725931333E+04  0.10100000352E+00 0. -1.
</event>
<event>
 5   0  0.3959190E-07  0.3950042E+04  0.7818609E-02  0.8014701E-01
       -2   -1    0    0    0  501  0.00000000000E+00  0.00000000000E+00  0.16833007904E+04  0.16833007904E+04  0.25500000920E-02 0. -1.
        2   -1    0    0  501    0  0.00000000000E+00  0.00000000000E+00 -0.23172972449E+04  0.23172972449E+04  0.25500000920E-02 0.  1.
    10030    2    1    2    0    0  0.00000000000E+00  0.00000000000E+00 -0.63399645449E+03  0.40005980354E+04  0.39500421689E+04 0.  0.
        2    1    3    3  502    0  0.21468810646E+03  0.41564047633E+03  0.16263777867E+04  0.16923216874E+04  0.25500000920E-02 0. -1.
       -2    1    3    3    0  502 -0.21468810646E+03 -0.41564047633E+03 -0.22603742412E+04  0.23082763480E+04  0.25500000920E-02 0.  1.
</event>
<event>
 5   0  0.1860500E-07  0.3877056E+04  0.7818609E-02  0.8029818E-01
       -1   -1    0    0    0  501  0.00000000000E+00  0.00000000000E+00  0.18993575136E+04  0.18993575136E+04  0.50400001928E-02 0.  1.
        1   -1    0    0  501    0  0.00000000000E+00  0.00000000000E+00 -0.19785062569E+04  0.19785062569E+04  0.50400001928E-02 0. -1.
    10030    2    1    2    0    0  0.00000000000E+00  0.00000000000E+00 -0.79148743237E+02  0.38778637705E+04  0.38770559577E+04 0.  0.
        5    1    3    3  502    0 -0.15983416989E+03  0.58110776341E+03  0.18032631637E+04  0.19013188376E+04  0.46999998093E+01 0.  1.
       -5    1    3    3    0  502  0.15983416989E+03 -0.58110776341E+03 -0.18824119069E+04  0.19765449329E+04  0.46999998093E+01 0. -1.
</event>
<event>
 5   0  0.3959190E-07  0.3881116E+04  0.7818609E-02  0.8028968E-01
       -2   -1    0    0    0  501  0.00000000000E+00  0.00000000000E+00  0.12905093376E+04  0.12905093376E+04  0.25500000920E-02 0.  1.
        2   -1    0    0  501    0  0.00000000000E+00  0.00000000000E+00 -0.29180457749E+04  0.29180457749E+04  0.25500000920E-02 0. -1.
    10030    2    1    2    0    0  0.00000000000E+00  0.00000000000E+00 -0.16275364373E+04  0.42085551125E+04  0.38811159838E+04 0.  0.
        2    1    3    3  502    0  0.61356869925E+03  0.10865525901E+04 -0.24253226666E+04  0.27274994256E+04  0.25500000920E-02 0. -1.
       -2    1    3    3    0  502 -0.61356869925E+03 -0.10865525901E+04  0.79778622928E+03  0.14810556868E+04  0.25500000920E-02 0.  1.
</event>
<event>
 5   0  0.1876027E-07  0.3985430E+04  0.7818609E-02  0.8007492E-01
        1   -1    0    0  501    0  0.00000000000E+00  0.00000000000E+00  0.14997679472E+04  0.14997679472E+04  0.50400001928E-02 0.  1.
       -1   -1    0    0    0  501  0.00000000000E+00  0.00000000000E+00 -0.26476847713E+04  0.26476847713E+04  0.50400001928E-02 0. -1.
    10030    2    1    2    0    0  0.00000000000E+00  0.00000000000E+00 -0.11479168240E+04  0.41474527185E+04  0.39854298410E+04 0.  0.
        3    1    3    3  502    0  0.80556215909E+03 -0.14281124504E+04 -0.17524625146E+04  0.23999084229E+04  0.10100000352E+00 0. -1.
       -3    1    3    3    0  502 -0.80556215909E+03  0.14281124504E+04  0.60454569050E+03  0.17475442956E+04  0.10100000352E+00 0.  1.
</event>
<event>
 5   0  0.2666813E-07  0.3798632E+04  0.7818609E-02  0.8046449E-01
       -1   -1    0    0    0  501  0.00000000000E+00  0.00000000000E+00  0.21654035956E+04  0.21654035956E+04  0.50400001928E-02 0.  1.
        1   -1    0    0  501    0  0.00000000000E+00  0.00000000000E+00 -0.16659252332E+04  0.16659252332E+04  0.50400001928E-02 0. -1.
    10030    2    1    2    0    0  0.00000000000E+00  0.00000000000E+00  0.49947836242E+03  0.38313288288E+04  0.37986315904E+04 0.  0.
        1    1    3    3  502    0 -0.18918127614E+03 -0.39503632699E+01  0.21558729487E+04  0.21641611149E+04  0.50400001928E-02 0.  1.
       -1    1    3    3    0  502  0.18918127614E+03  0.39503632699E+01 -0.16563945862E+04  0.16671677138E+04  0.50400001928E-02 0. -1.
</event>
<event>
 5   0  0.5872444E-07  0.3882684E+04  0.7818609E-02  0.8028640E-01
       -2   -1    0    0    0  501  0.00000000000E+00  0.00000000000E+00  0.18334462078E+04  0.18334462078E+04  0.25500000920E-02 0. -1.
        2   -1    0    0  501    0  0.00000000000E+00  0.00000000000E+00 -0.20555868316E+04  0.20555868316E+04  0.25500000920E-02 0.  1.
    10030    2    1    2    0    0  0.00000000000E+00  0.00000000000E+00 -0.22214062376E+03  0.38890330394E+04  0.38826835468E+04 0.  0.
        3    1    3    3  502    0  0.69088854978E+03  0.58869897180E+03 -0.18299519624E+04  0.20426986226E+04  0.10100000352E+00 0.  1.
       -3    1    3    3    0  502 -0.69088854978E+03 -0.58869897180E+03  0.16078113387E+04  0.18463344168E+04  0.10100000352E+00 0. -1.
</event>
<event>
 5   0  0.1860500E-07  0.3960926E+04  0.7818609E-02  0.8012476E-01
       -3   -1    0    0    0  501  0.00000000000E+00  0.00000000000E+00  0.25338703088E+04  0.25338703108E+04  0.10100000352E+00 0. -1.
        3   -1    0    0  501    0  0.00000000000E+00  0.00000000000E+00 -0.15479221840E+04  0.15479221873E+04  0.10100000352E+00 0.  1.
    10030    2    1    2    0    0  0.00000000000E+00  0.00000000000E+00  0.98594812486E+03  0.40817924981E+04  0.39609261913E+04 0.  0.
        4    1    3    3  502    0 -0.95261173104E+03  0.69813097742E+03 -0.11453097645E+04  0.16451723439E+04  0.12699999809E+01 0.  1.
       -4    1    3    3    0  502  0.95261173104E+03 -0.69813097742E+03  0.21312578894E+04  0.24366201541E+04  0.12699999809E+01 0. -1.
</event>
<event>
 5   0  0.1876027E-07  0.3664861E+04  0.7818609E-02  0.8075794E-01
       -1   -1    0    0    0  501  0.00000000000E+00  0.00000000000E+00  0.19109228443E+04  0.19109228443E+04  0.50400001928E-02 0. -1.
        1   -1    0    0  501    0  0.00000000000E+00  0.00000000000E+00 -0.17571622262E+04  0.17571622262E+04  0.50400001928E-02 0.  1.
    10030    2    1    2    0    0  0.00000000000E+00  0.00000000000E+00  0.15376061811E+03  0.36680850706E+04  0.36648609465E+04 0.  0.
        3    1    3    3  502    0  0.18305739537E+04  0.82254291973E+02  0.70987796692E+02  0.18337955300E+04  0.10100000352E+00 0. -1.
       -3    1    3    3    0  502 -0.18305739537E+04 -0.82254291973E+02  0.82772821414E+02  0.18342895406E+04  0.10100000352E+00 0.  1.
</event>
<event>
 5   0  0.1860500E-07  0.4079200E+04  0.7818609E-02  0.7988757E-01
        1   -1    0    0  501    0  0.00000000000E+00  0.00000000000E+00  0.20595283112E+04  0.20595283112E+04  0.50400001928E-02 0.  1.
       -1   -1    0    0    0  501  0.00000000000E+00  0.00000000000E+00 -0.20198648148E+04  0.20198648148E+04  0.50400001928E-02 0. -1.
    10030    2    1    2    0    0  0.00000000000E+00  0.00000000000E+00  0.39663496378E+02  0.40793931260E+04  0.40792002995E+04 0.  0.
        4    1    3    3  502    0  0.11821247701E+04 -0.14935296071E+04  0.74919296718E+03  0.20467880629E+04  0.12699999809E+01 0.  1.
       -4    1    3    3    0  502 -0.11821247701E+04  0.14935296071E+04 -0.70952947081E+03  0.20326050631E+04  0.12699999809E+01 0. -1.
</event>
<event>
 5   0  0.1860500E-07  0.3998446E+04  0.7818609E-02  0.8004860E-01
        1   -1    0    0  501    0  0.00000000000E+00  0.00000000000E+00  0.16218582120E+04  0.16218582120E+04  0.50400001928E-02 0.  1.
       -1   -1    0    0    0  501  0.00000000000E+00  0.00000000000E+00 -0.24643912168E+04  0.24643912168E+04  0.50400001928E-02 0. -1.
    10030    2    1    2    0    0  0.00000000000E+00  0.00000000000E+00 -0.84253300480E+03  0.40862494288E+04  0.39984462645E+04 0.  0.
        5    1    3    3  502    0  0.86491304939E+03 -0.17349889572E+04  0.77937119059E+02  0.19401952348E+04  0.46999998093E+01 0.  1.
       -5    1    3    3    0  502 -0.86491304939E+03  0.17349889572E+04 -0.92047012386E+03  0.21460541940E+04  0.46999998093E+01 0. -1.
</event>
<event>
 5   0  0.1860500E-07  0.3888631E+04  0.7818609E-02  0.8027398E-01
        1   -1    0    0  501    0  0.00000000000E+00  0.00000000000E+00  0.24009618356E+04  0.24009618356E+04  0.50400001928E-02 0. -1.
       -1   -1    0    0    0  501  0.00000000000E+00  0.00000000000E+00 -0.15745204398E+04  0.15745204398E+04  0.50400001928E-02 0.  1.
    10030    2    1    2    0    0  0.00000000000E+00  0.00000000000E+00  0.82644139576E+03  0.39754822754E+04  0.38886313712E+04 0.  0.
        4    1    3    3  502    0  0.61387803993E+03 -0.71758527792E+02  0.22978595619E+04  0.23795284644E+04  0.12699999809E+01 0. -1.
       -4    1    3    3    0  502 -0.61387803993E+03  0.71758527792E+02 -0.14714181661E+04  0.15959538109E+04  0.12699999809E+01 0.  1.
</event>
<event>
 5   0  0.5805753E-07  0.3532602E+04  0.7818609E-02  0.8106107E-01
       -2   -1    0    0    0  501  0.00000000000E+00  0.00000000000E+00  0.12813977843E+04  0.12813977844E+04  0.25500000920E-02 0. -1.
        2   -1    0    0  501    0  0.00000000000E+00  0.00000000000E+00 -0.24346999956E+04  0.24346999956E+04  0.25500000920E-02 0.  1.
    10030    2    1    2    0    0  0.00000000000E+00  0.00000000000E+00 -0.11533022113E+04  0.37160977800E+04  0.35326019758E+04 0.  0.
        1    1    3    3  502    0 -0.78104862400E+02  0.34793761592E+03 -0.23964398983E+04  0.24228258584E+04  0.50400001928E-02 0.  1.
       -1    1    3    3    0  502  0.78104862400E+02 -0.34793761592E+03  0.12431376870E+04  0.12932719215E+04  0.50400001928E-02 0. -1.
</event>
<event>
 5   0  0.1860500E-07  0.3928621E+04  0.7818609E-02  0.8019103E-01
        1   -1    0    0  501    0  0.00000000000E+00  0.00000000000E+00  0.17721911230E+04  0.17721911230E+04  0.50400001928E-02 0. -1.
       -1   -1    0    0    0  501  0.00000000000E+00  0.00000000000E+00 -0.21772575655E+04  0.21772575655E+04  0.50400001928E-02 0.  1.
    10030    2    1    2    0    0  0.00000000000E+00  0.00000000000E+00 -0.40506644249E+03  0.39494486885E+04  0.39286214020E+04 0.  0.
        4    1    3    3  502    0 -0.24225584828E+03  0.11751825624E+04 -0.17660186950E+04  0.21350797631E+04  0.12699999809E+01 0.  1.
       -4    1    3    3    0  502  0.24225584828E+03 -0.11751825624E+04  0.13609522525E+04  0.18143689254E+04  0.12699999809E+01 0. -1.
</event>
<event>
 5   0  0.5872444E-07  0.3668652E+04  0.7818609E-02  0.8074945E-01
        2   -1    0    0  501    0  0.00000000000E+00  0.00000000000E+00  0.22033883855E+04  0.22033883855E+04  0.25500000920E-02 0.  1.
       -2   -1    0    0    0  501  0.00000000000E+00  0.00000000000E+00 -0.15270810163E+04  0.15270810163E+04  0.25500000920E-02 0. -1.
    10030    2    1    2    0    0  0.00000000000E+00  0.00000000000E+00  0.67630736917E+03  0.37304694017E+04  0.36686523820E+04 0.  0.
        3    1    3    3  502    0  0.16131646482E+04 -0.13778141261E+03  0.12149288781E+04  0.20241877603E+04  0.10100000352E+00 0.  1.
       -3    1    3    3    0  502 -0.16131646482E+04  0.13778141261E+03 -0.53862150896E+03  0.17062816414E+04  0.10100000352E+00 0. -1.
</event>
<event>
 5   0  0.3959190E-07  0.3953540E+04  0.7818609E-02  0.8013985E-01
       -2   -1    0    0    0  501  0.00000000000E+00  0.00000000000E+00  0.15515276890E+04  0.15515276890E+04  0.25500000920E-02 0.  1.
        2   -1    0    0  501    0  0.00000000000E+00  0.00000000000E+00 -0.25185622959E+04  0.25185622959E+04  0.25500000920E-02 0. -1.
    10030    2    1    2    0    0  0.00000000000E+00  0.00000000000E+00 -0.96703460683E+03  0.40700899849E+04  0.39535397499E+04 0.  0.
        2    1    3    3  502    0 -0.18489479576E+04  0.61584347688E+03 -0.14246968365E+03  0.19540136511E+04  0.25500000920E-02 0. -1.
       -2    1    3    3    0  502  0.18489479576E+04 -0.61584347688E+03 -0.82456492319E+03  0.21160763338E+04  0.25500000920E-02 0.  1.
</event>
<event>
 5   0  0.1860500E-07  0.3922595E+04  0.7818609E-02  0.8020346E-01
        1   -1    0    0  501    0  0.00000000000E+00  0.00000000000E+00  0.19728169080E+04  0.19728169080E+04  0.50400001928E-02 0.  1.
       -1   -1    0    0    0  501  0.00000000000E+00  0.00000000000E+00 -0.19498456488E+04  0.19498456488E+04  0.50400001928E-02 0. -1.
    10030    2    1    2    0    0  0.00000000000E+00  0.00000000000E+00  0.22971259205E+02  0.39226625568E+04  0.39225952959E+04 0.  0.
        4    1    3    3  502    0 -0.14246893467E+04 -0.13283059286E+04 -0.21775720797E+03  0.19599888237E+04  0.12699999809E+01 0.  1.
       -4    1    3    3    0  502  0.14246893467E+04  0.13283059286E+04  0.24072846718E+03  0.19626737331E+04  0.12699999809E+01 0. -1.
</event>
<event>
 5   0  0.2666813E-07  0.3936180E+04  0.7818609E-02  0.8017546E-01
       -1   -1    0    0    0  501  0.00000000000E+00  0.00000000000E+00  0.16393082475E+04  0.16393082475E+04  0.50400001928E-02 0.  1.
        1   -1    0    0  501    0  0.00000000000E+00  0.00000000000E+00 -0.23628124651E+04  0.23628124651E+04  0.50400001928E-02 0. -1.
    10030    2    1    2    0    0  0.00000000000E+00  0.00000000000E+00 -0.72350421755E+03  0.40021207126E+04  0.39361798543E+04 0.  0.
        1    1    3    3  502    0 -0.40625715904E+03  0.18391197725E+04  0.21875172826E+03  0.18961167515E+04  0.50400001928E-02 0.  1.
       -1    1    3    3    0  502  0.40625715904E+03 -0.18391197725E+04 -0.94225594580E+03  0.21060039611E+04  0.50400001928E-02 0. -1.
</event>
<event>
 5   0  0.3959190E-07  0.3736031E+04  0.7818609E-02  0.8060024E-01
       -2   -1    0    0    0  501  0.00000000000E+00  0.00000000000E+00  0.15835208547E+04  0.15835208547E+04  0.25500000920E-02 0.  1.
        2   -1    0    0  501    0  0.00000000000E+00  0.00000000000E+00 -0.22036219145E+04  0.22036219145E+04  0.25500000920E-02 0. -1.
    10030    2    1    2    0    0  0.00000000000E+00  0.00000000000E+00 -0.62010105983E+03  0.37871427691E+04  0.37360306516E+04 0.  0.
        2    1    3    3  502    0 -0.33285054265E+03 -0.95927719182E+03  0.12793542041E+04  0.16333246444E+04  0.25500000920E-02 0.  1.
       -2    1    3    3    0  502  0.33285054265E+03  0.95927719182E+03 -0.18994552640E+04  0.21538181247E+04  0.25500000920E-02 0. -1.
</event>
<event>
 5   0  0.5872444E-07  0.3293581E+04  0.7818609E-02  0.8164531E-01
       -2   -1    0    0    0  501  0.00000000000E+00  0.00000000000E+00  0.22433155261E+04  0.22433155261E+04  0.25500000920E-02 0. -1.
        2   -1    0    0  501    0  0.00000000000E+00  0.00000000000E+00 -0.12088890984E+04  0.12088890984E+04  0.25500000920E-02 0.  1.
    10030    2    1    2    0    0  0.00000000000E+00  0.00000000000E+00  0.10344264277E+04  0.34522046245E+04  0.32935814450E+04 0.  0.
        3    1    3    3  502    0  0.81066582906E+02 -0.23939526653E+03 -0.11884379381E+04  0.12150171305E+04  0.10100000352E+00 0.  1.
       -3    1    3    3    0  502 -0.81066582906E+02  0.23939526653E+03  0.22228643658E+04  0.22371874940E+04  0.10100000352E+00 0. -1.
</event>
<event>
 5   0  0.1860500E-07  0.3902933E+04  0.7818609E-02  0.8024419E-01
        1   -1    0    0  501    0  0.00000000000E+00  0.00000000000E+00  0.14227402717E+04  0.14227402717E+04  0.50400001928E-02 0.  1.
       -1   -1    0    0    0  501  0.00000000000E+00  0.00000000000E+00 -0.26766814150E+04  0.26766814150E+04  0.50400001928E-02 0. -1.
    10030    2    1    2    0    0  0.00000000000E+00  0.00000000000E+00 -0.12539411433E+04  0.40994216867E+04  0.39029334832E+04 0.  0.
        4    1    3    3  502    0  0.17960249032E+03  0.65823915388E+03  0.12933740362E+04  0.14623111326E+04  0.12699999809E+01 0.  1.
       -4    1    3    3    0  502 -0.17960249032E+03 -0.65823915388E+03 -0.25473151794E+04  0.26371105541E+04  0.12699999809E+01 0. -1.
</event>
<event>
 5   0  0.1943459E-07  0.3818029E+04  0.7818609E-02  0.8042297E-01
        1   -1    0    0  501    0  0.00000000000E+00  0.00000000000E+00  0.23389823540E+04  0.23389823540E+04  0.50400001928E-02 0.  1.
       -1   -1    0    0    0  501  0.00000000000E+00  0.00000000000E+00 -0.15580864324E+04  0.15580864325E+04  0.50400001928E-02 0. -1.
    10030    2    1    2    0    0  0.00000000000E+00  0.00000000000E+00  0.78089592156E+03  0.38970687865E+04  0.38180291626E+04 0.  0.
        2    1    3    3  502    0 -0.14585900136E+04 -0.16080253606E+03  0.16367888252E+04  0.21982765844E+04  0.25500000920E-02 0.  1.
       -2    1    3    3    0  502  0.14585900136E+04  0.16080253606E+03 -0.85589290364E+03  0.16987922021E+04  0.25500000920E-02 0. -1.
</event>
<event>
 5   0  0.1860500E-07  0.3173414E+04  0.7818609E-02  0.8195874E-01
        1   -1    0    0  501    0  0.00000000000E+00  0.00000000000E+00  0.11098066471E+04  0.11098066471E+04  0.50400001928E-02 0.  1.
       -1   -1    0    0    0  501  0.00000000000E+00  0.00000000000E+00 -0.22685385597E+04  0.22685385597E+04  0.50400001928E-02 0. -1.
    10030    2    1    2    0    0  0.00000000000E+00  0.00000000000E+00 -0.11587319126E+04  0.33783452068E+04  0.31734140434E+04 0.  0.
        4    1    3    3  502    0 -0.45880415549E+03 -0.78591503580E+03 -0.19631012687E+04  0.21637772299E+04  0.12699999809E+01 0. -1.
       -4    1    3    3    0  502  0.45880415549E+03  0.78591503580E+03  0.80436935605E+03  0.12145679769E+04  0.12699999809E+01 0.  1.
</event>
<event>
 5   0  0.3959190E-07  0.3931202E+04  0.7818609E-02  0.8018571E-01
       -2   -1    0    0    0  501  0.00000000000E+00  0.00000000000E+00  0.25903724928E+04  0.25903724928E+04  0.25500000920E-02 0. -1.
        2   -1    0    0  501    0  0.00000000000E+00  0.00000000000E+00 -0.14915177757E+04  0.14915177757E+04  0.25500000920E-02 0.  1.
    10030    2    1    2    0    0  0.00000000000E+00  0.00000000000E+00  0.10988547172E+04  0.40818902685E+04  0.39312016578E+04 0.  0.
        2    1    3    3  502    0 -0.45534121295E+03 -0.81432438065E+03  0.23458088063E+04  0.25245353578E+04  0.25500000920E-02 0. -1.
       -2    1    3    3    0  502  0.45534121295E+03  0.81432438065E+03 -0.12469540892E+04  0.15573549106E+04  0.25500000920E-02 0.  1.
</event>
<event>
 5   0  0.1860500E-07  0.2612508E+04  0.7818609E-02  0.8363965E-01
       -1   -1    0    0    0  501  0.00000000000E+00  0.00000000000E+00  0.10205641631E+04  0.10205641631E+04  0.50400001928E-02 0. -1.
        1   -1    0    0  501    0  0.00000000000E+00  0.00000000000E+00 -0.16719179811E+04  0.16719179811E+04  0.50400001928E-02 0.  1.
    10030    2    1    2    0    0  0.00000000000E+00  0.00000000000E+00 -0.65135381800E+03  0.26924821443E+04  0.26125080480E+04 0.  0.
        5    1    3    3  502    0  0.25815371522E+03 -0.53309322342E+03 -0.15255526324E+04  0.16365098991E+04  0.46999998093E+01 0.  1.
       -5    1    3    3    0  502 -0.25815371522E+03  0.53309322342E+03  0.87419881439E+03  0.10559722452E+04  0.46999998093E+01 0. -1.
</event>
<event>
 5   0  0.1876027E-07  0.3908645E+04  0.7818609E-02  0.8023234E-01
        1   -1    0    0  501    0  0.00000000000E+00  0.00000000000E+00  0.12759515260E+04  0.12759515260E+04  0.50400001928E-02 0. -1.
       -1   -1    0    0    0  501  0.00000000000E+00  0.00000000000E+00 -0.29933549549E+04  0.29933549549E+04  0.50400001928E-02 0.  1.
    10030    2    1    2    0    0  0.00000000000E+00  0.00000000000E+00 -0.17174034290E+04  0.42693064809E+04  0.39086446871E+04 0.  0.
        3    1    3    3  502    0  0.13554639979E+04 -0.40325228250E+03 -0.23320481385E+04  0.27273326866E+04  0.10100000352E+00 0.  1.
       -3    1    3    3    0  502 -0.13554639979E+04  0.40325228250E+03  0.61464470958E+03  0.15419737942E+04  0.10100000352E+00 0. -1.
</event>
<event>
 5   0  0.5805753E-07  0.3915212E+04  0.7818609E-02  0.8021873E-01
       -2   -1    0    0    0  501  0.00000000000E+00  0.00000000000E+00  0.18727234339E+04  0.18727234339E+04  0.25500000920E-02 0. -1.
        2   -1    0    0  501    0  0.00000000000E+00  0.00000000000E+00 -0.20463364429E+04  0.20463364429E+04  0.25500000920E-02 0.  1.
    10030    2    1    2    0    0  0.00000000000E+00  0.00000000000E+00 -0.17361300908E+03  0.39190598768E+04  0.39152124899E+04 0.  0.
        1    1    3    3  502    0  0.10693417744E+04  0.98965129536E+03  0.12218881742E+04  0.19015552128E+04  0.50400001928E-02 0. -1.
       -1    1    3    3    0  502 -0.10693417744E+04 -0.98965129536E+03 -0.13955011833E+04  0.20175046640E+04  0.50400001928E-02 0.  1.
</event>
<event>
 5   0  0.5872444E-07  0.3723199E+04  0.7818609E-02  0.8062840E-01
       -2   -1    0    0    0  501  0.00000000000E+00  0.00000000000E+00  0.17850805848E+04  0.17850805848E+04  0.25500000920E-02 0. -1.
        2   -1    0    0  501    0  0.00000000000E+00  0.00000000000E+00 -0.19413984187E+04  0.19413984187E+04  0.25500000920E-02 0.  1.
    10030    2    1    2    0    0  0.00000000000E+00  0.00000000000E+00 -0.15631783395E+03  0.37264790035E+04  0.37231989604E+04 0.  0.
        3    1    3    3  502    0 -0.14453934663E+04  0.10317926700E+04  0.48071838212E+03  0.18397957929E+04  0.10100000352E+00 0. -1.
       -3    1    3    3    0  502  0.14453934663E+04 -0.10317926700E+04 -0.63703621607E+03  0.18866832106E+04  0.10100000352E+00 0.  1.
</event>
<event>
 5   0  0.1860500E-07  0.3967055E+04  0.7818609E-02  0.8011226E-01
       -1   -1    0    0    0  501  0.00000000000E+00  0.00000000000E+00  0.20666354041E+04  0.20666354041E+04  0.50400001928E-02 0.  1.
        1   -1    0    0  501    0  0.00000000000E+00  0.00000000000E+00 -0.19037621497E+04  0.19037621497E+04  0.50400001928E-02 0. -1.
    10030    2    1    2    0    0  0.00000000000E+00  0.00000000000E+00  0.16287325446E+03  0.39703975538E+04  0.39670554620E+04 0.  0.
        4    1    3    3  502    0  0.13939758226E+03  0.16902171797E+04  0.11109503179E+04  0.20274313854E+04  0.12699999809E+01 0.  1.
       -4    1    3    3    0  502 -0.13939758226E+03 -0.16902171797E+04 -0.94807706345E+03  0.19429661685E+04  0.12699999809E+01 0. -1.
</event>
<event>
 5   0  0.6095665E-07  0.3949763E+04  0.7818609E-02  0.8014758E-01
       -2   -1    0    0    0  501  0.00000000000E+00  0.00000000000E+00  0.16248129685E+04  0.16248129685E+04  0.25500000920E-02 0. -1.
        2   -1    0    0  501    0  0.00000000000E+00  0.00000000000E+00 -0.24003731077E+04  0.24003731077E+04  0.25500000920E-02 0.  1.
    10030    2    1    2    0    0  0.00000000000E+00  0.00000000000E+00 -0.77556013922E+03  0.40251860761E+04  0.39497632104E+04 0.  0.
        4    1    3    3  502    0 -0.12226454744E+03 -0.22996953822E+03  0.16072334746E+04  0.16282001298E+04  0.12699999809E+01 0. -1.
       -4    1    3    3    0  502  0.12226454744E+03  0.22996953822E+03 -0.23827936138E+04  0.23969859463E+04  0.12699999809E+01 0.  1.
</event>
<event>
 5   0  0.1943459E-07  0.3828448E+04  0.7818609E-02  0.8040077E-01
        1   -1    0    0  501    0  0.00000000000E+00  0.00000000000E+00  0.20597663852E+04  0.20597663852E+04  0.50400001928E-02 0. -1.
       -1   -1    0    0    0  501  0.00000000000E+00  0.00000000000E+00 -0.17789658337E+04  0.17789658337E+04  0.50400001928E-02 0.  1.
    10030    2    1    2    0    0  0.00000000000E+00  0.00000000000E+00  0.28080055148E+03  0.38387322189E+04  0.38284482626E+04 0.  0.
        2    1    3    3  502    0 -0.13724361471E+04  0.90573652741E+03  0.11229889493E+04  0.19912417772E+04  0.25500000920E-02 0. -1.
       -2    1    3    3    0  502  0.13724361471E+04 -0.90573652741E+03 -0.84218839781E+03  0.18474904418E+04  0.25500000920E-02 0.  1.
</event>
<event>
 5   0  0.2666813E-07  0.3846001E+04  0.7818609E-02  0.8036355E-01
       -1   -1    0    0    0  501  0.00000000000E+00  0.00000000000E+00  0.27077348432E+04  0.27077348432E+04  0.50400001928E-02 0. -1.
        1   -1    0    0  501    0  0.00000000000E+00  0.00000000000E+00 -0.13656914108E+04  0.13656914108E+04  0.50400001928E-02 0.  1.
    10030    2    1    2    0    0  0.00000000000E+00  0.00000000000E+00  0.13420434324E+04  0.40734262540E+04  0.38460006335E+04 0.  0.
        1    1    3    3  502    0  0.84352776084E+02 -0.39710083054E+03  0.26618328216E+04  0.26926118232E+04  0.50400001928E-02 0. -1.
       -1    1    3    3    0  502 -0.84352776084E+02  0.39710083054E+03 -0.13197893892E+04  0.13808144308E+04  0.50400001928E-02 0.  1.
</event>
<event>
 5   0  0.5735179E-07  0.3551251E+04  0.7818609E-02  0.8101750E-01
       -2   -1    0    0    0  501  0.00000000000E+00  0.00000000000E+00  0.17125754884E+04  0.17125754884E+04  0.25500000920E-02 0.  1.
        2   -1    0    0  501    0  0.00000000000E+00  0.00000000000E+00 -0.18409966605E+04  0.18409966605E+04  0.25500000920E-02 0. -1.
    10030    2    1    2    0    0  0.00000000000E+00  0.00000000000E+00 -0.12842117207E+03  0.35535721489E+04  0.35512509092E+04 0.  0.
        5    1    3    3  502    0  0.16703445710E+04  0.12348787645E+03  0.52568591524E+03  0.17554680325E+04  0.46999998093E+01 0.  1.
       -5    1    3    3    0  502 -0.16703445710E+04 -0.12348787645E+03 -0.65410708731E+03  0.17981041164E+04  0.46999998093E+01 0. -1.
</event>
<event>
 5   0  0.5805753E-07  0.3962273E+04  0.7818609E-02  0.8012201E-01
        2   -1    0    0  501    0  0.00000000000E+00  0.00000000000E+00  0.20305405878E+04  0.20305405878E+04  0.25500000920E-02 0.  1.
       -2   -1    0    0    0  501  0.00000000000E+00  0.00000000000E+00 -0.19329344113E+04  0.19329344113E+04  0.25500000920E-02 0. -1.
    10030    2    1    2    0    0  0.00000000000E+00  0.00000000000E+00  0.97606176489E+02  0.39634749991E+04  0.39622729717E+04 0.  0.
        1    1    3    3  502    0  0.13211971012E+04  0.51456203257E+03 -0.13352950740E+04  0.19476521251E+04  0.50400001928E-02 0. -1.
       -1    1    3    3    0  502 -0.13211971012E+04 -0.51456203257E+03  0.14329012505E+04  0.20158228740E+04  0.50400001928E-02 0.  1.
</event>
<event>
 5   0  0.1943459E-07  0.2963771E+04  0.7818609E-02  0.8254153E-01
        1   -1    0    0  501    0  0.00000000000E+00  0.00000000000E+00  0.26182087229E+04  0.26182087230E+04  0.50400001928E-02 0.  1.
       -1   -1    0    0    0  501  0.00000000000E+00  0.00000000000E+00 -0.83873565206E+03  0.83873565208E+03  0.50400001928E-02 0. -1.
    10030    2    1    2    0    0  0.00000000000E+00  0.00000000000E+00  0.17794730709E+04  0.34569443750E+04  0.29637712466E+04 0.  0.
        2    1    3    3  502    0 -0.15469192528E+03 -0.63052225463E+03  0.24435016182E+04  0.25282776872E+04  0.25500000920E-02 0.  1.
       -2    1    3    3    0  502  0.15469192528E+03  0.63052225463E+03 -0.66402854736E+03  0.92866668781E+03  0.25500000920E-02 0. -1.
</event>
<event>
 5   0  0.1943459E-07  0.4105327E+04  0.7818609E-02  0.7983629E-01
       -1   -1    0    0    0  501  0.00000000000E+00  0.00000000000E+00  0.28199734434E+04  0.28199734434E+04  0.50400001928E-02 0.  1.
        1   -1    0    0  501    0  0.00000000000E+00  0.00000000000E+00 -0.14941376105E+04  0.14941376105E+04  0.50400001928E-02 0. -1.
    10030    2    1    2    0    0  0.00000000000E+00  0.00000000000E+00  0.13258358329E+04  0.43141110539E+04  0.41053274571E+04 0.  0.
        2    1    3    3  502    0 -0.16611349337E+04 -0.12039806221E+04  0.73333140404E+03  0.21786953790E+04  0.25500000920E-02 0.  1.
       -2    1    3    3    0  502  0.16611349337E+04  0.12039806221E+04  0.59250442886E+03  0.21354156749E+04  0.25500000920E-02 0. -1.
</event>
<event>
 5   0  0.3959190E-07  0.3802035E+04  0.7818609E-02  0.8045718E-01
       -2   -1    0    0    0  501  0.00000000000E+00  0.00000000000E+00  0.99041664129E+03  0.99041664130E+03  0.25500000920E-02 0.  1.
        2   -1    0    0  501    0  0.00000000000E+00  0.00000000000E+00 -0.36488363251E+04  0.36488363251E+04  0.25500000920E-02 0. -1.
    10030    2    1    2    0    0  0.00000000000E+00  0.00000000000E+00 -0.26584196838E+04  0.46392529664E+04  0.38020353590E+04 0.  0.
        2    1    3    3  502    0 -0.69746115490E+03 -0.13759348870E+04 -0.26847989686E+04  0.30964163767E+04  0.25500000920E-02 0. -1.
       -2    1    3    3    0  502  0.69746115490E+03  0.13759348870E+04  0.26379284821E+02  0.15428365897E+04  0.25500000920E-02 0.  1.
</event>
<event>
 5   0  0.1876027E-07  0.3919673E+04  0.7818609E-02  0.8020950E-01
        1   -1    0    0  501    0  0.00000000000E+00  0.00000000000E+00  0.26024835331E+04  0.26024835331E+04  0.50400001928E-02 0.  1.
       -1   -1    0    0    0  501  0.00000000000E+00  0.00000000000E+00 -0.14758824804E+04  0.14758824804E+04  0.50400001928E-02 0. -1.
    10030    2    1    2    0    0  0.00000000000E+00  0.00000000000E+00  0.11266010526E+04  0.40783660135E+04  0.39196733803E+04 0.  0.
        3    1    3    3  502    0 -0.88307939118E+03  0.84520149005E+02  0.23816188270E+04  0.25414722336E+04  0.10100000352E+00 0.  1.
       -3    1    3    3    0  502  0.88307939118E+03 -0.84520149005E+02 -0.12550177743E+04  0.15368937799E+04  0.10100000352E+00 0. -1.
</event>
<event>
 5   0  0.5872444E-07  0.4069215E+04  0.7818609E-02  0.7990727E-01
       -2   -1    0    0    0  501  0.00000000000E+00  0.00000000000E+00  0.26707274409E+04  0.26707274409E+04  0.25500000920E-02 0. -1.
        2   -1    0    0  501    0  0.00000000000E+00  0.00000000000E+00 -0.15500000407E+04  0.15500000407E+04  0.25500000920E-02 0.  1.
    10030    2    1    2    0    0  0.00000000000E+00  0.00000000000E+00  0.11207274002E+04  0.42207274816E+04  0.40692149818E+04 0.  0.
        3    1    3    3  502    0 -0.89152214369E+03 -0.16417964844E+04  0.13961709523E+04  0.23322951716E+04  0.10100000352E+00 0. -1.
       -3    1    3    3    0  502  0.89152214369E+03  0.16417964844E+04 -0.27544355208E+03  0.18884323100E+04  0.10100000352E+00 0.  1.
</event>
<event>
 5   0  0.1876027E-07  0.3251870E+04  0.7818609E-02  0.8175251E-01
       -1   -1    0    0    0  501  0.00000000000E+00  0.00000000000E+00  0.21976132179E+04  0.21976132179E+04  0.50400001928E-02 0.  1.
        1   -1    0    0  501    0  0.00000000000E+00  0.00000000000E+00 -0.12029711472E+04  0.12029711472E+04  0.50400001928E-02 0. -1.
    10030    2    1    2    0    0  0.00000000000E+00  0.00000000000E+00  0.99464207074E+03  0.34005843651E+04  0.32518704118E+04 0.  0.
        3    1    3    3  502    0 -0.12966171837E+04  0.41280548887E+03 -0.43334549922E+03  0.14280801184E+04  0.10100000352E+00 0. -1.
       -3    1    3    3    0  502  0.12966171837E+04 -0.41280548887E+03  0.14279875700E+04  0.19725042466E+04  0.10100000352E+00 0.  1.
</event>
<event>
 5   0  0.3959190E-07  0.3888930E+04  0.7818609E-02  0.8027336E-01
       -2   -1    0    0    0  501  0.00000000000E+00  0.00000000000E+00  0.14601233479E+04  0.14601233479E+04  0.25500000920E-02 0.  1.
        2   -1    0    0  501    0  0.00000000000E+00  0.00000000000E+00 -0.25894689744E+04  0.25894689744E+04  0.25500000920E-02 0. -1.
    10030    2    1    2    0    0  0.00000000000E+00  0.00000000000E+00 -0.11293456265E+04  0.40495923224E+04  0.38889299857E+04 0.  0.
        2    1    3    3  502    0  0.58092028077E+03 -0.10837062382E+04 -0.21332425708E+04  0.24622370823E+04  0.25500000920E-02 0. -1.
       -2    1    3    3    0  502 -0.58092028077E+03  0.10837062382E+04  0.10038969443E+04  0.15873552401E+04  0.25500000920E-02 0.  1.
</event>
<event>
 5   0  0.3959190E-07  0.3846564E+04  0.7818609E-02  0.8036236E-01
        2   -1    0    0  501    0  0.00000000000E+00  0.00000000000E+00  0.21141006755E+04  0.21141006755E+04  0.25500000920E-02 0. -1.
       -2   -1    0    0    0  501  0.00000000000E+00  0.00000000000E+00 -0.17496862107E+04  0.17496862107E+04  0.25500000920E-02 0.  1.
    10030    2    1    2    0    0  0.00000000000E+00  0.00000000000E+00  0.36441446484E+03  0.38637868862E+04  0.38465635572E+04 0.  0.
        2    1    3    3  502    0  0.13536023102E+04  0.13583609910E+04  0.34480697306E+02  0.19179605612E+04  0.25500000920E-02 0.  1.
       -2    1    3    3    0  502 -0.13536023102E+04 -0.13583609910E+04  0.32993376754E+03  0.19458263250E+04  0.25500000920E-02 0. -1.
</event>
<event>
 5   0  0.2666813E-07  0.3120922E+04  0.7818609E-02  0.8210019E-01
        1   -1    0    0  501    0  0.00000000000E+00  0.00000000000E+00  0.15900823632E+04  0.15900823632E+04  0.50400001928E-02 0.  1.
       -1   -1    0    0    0  501  0.00000000000E+00  0.00000000000E+00 -0.15313911683E+04  0.15313911683E+04  0.50400001928E-02 0. -1.
    10030    2    1    2    0    0  0.00000000000E+00  0.00000000000E+00  0.58691194911E+02  0.31214735315E+04  0.31209217150E+04 0.  0.
        1    1    3    3  502    0  0.90403068502E+03  0.10068989950E+04  0.80660655886E+03  0.15753511375E+04  0.50400001928E-02 0.  1.
       -1    1    3    3    0  502 -0.90403068502E+03 -0.10068989950E+04 -0.74791536395E+03  0.15461223940E+04  0.50400001928E-02 0. -1.
</event>
<event>
 5   0  0.5872444E-07  0.3886176E+04  0.7818609E-02  0.8027911E-01
        2   -1    0    0  501    0  0.00000000000E+00  0.00000000000E+00  0.14643768936E+04  0.14643768936E+04  0.25500000920E-02 0.  1.
       -2   -1    0    0    0  501  0.00000000000E+00  0.00000000000E+00 -0.25782911740E+04  0.25782911740E+04  0.25500000920E-02 0. -1.
    10030    2    1    2    0    0  0.00000000000E+00  0.00000000000E+00 -0.11139142804E+04  0.40426680676E+04  0.38861755082E+04 0.  0.
        3    1    3    3  502    0 -0.13234699646E+03  0.16865127215E+04  0.43743838244E+03  0.17473389013E+04  0.10100000352E+00 0.  1.
       -3    1    3    3    0  502  0.13234699646E+03 -0.16865127215E+04 -0.15513526629E+04  0.22953291664E+04  0.10100000352E+00 0. -1.
</event>
<event>
 5   0  0.3959190E-07  0.2636071E+04  0.7818609E-02  0.8356051E-01
       -2   -1    0    0    0  501  0.00000000000E+00  0.00000000000E+00  0.12895589651E+04  0.12895589651E+04  0.25500000920E-02 0.  1.
        2   -1    0    0  501    0  0.00000000000E+00  0.00000000000E+00 -0.13471406387E+04  0.13471406387E+04  0.25500000920E-02 0. -1.
    10030    2    1    2    0    0  0.00000000000E+00  0.00000000000E+00 -0.57581673580E+02  0.26366996038E+04  0.26360707790E+04 0.  0.
        2    1    3    3  502    0 -0.76065446078E+03  0.10763706595E+04 -0.35741061992E+02  0.13185015847E+04  0.25500000920E-02 0.  1.
       -2    1    3    3    0  502  0.76065446078E+03 -0.10763706595E+04 -0.21840611588E+02  0.13181980191E+04  0.25500000920E-02 0. -1.
</event>
<event>
 5   0  0.1876027E-07  0.3637320E+04  0.7818609E-02  0.8081996E-01
        1   -1    0    0  501    0  0.00000000000E+00  0.00000000000E+00  0.27706739597E+04  0.27706739597E+04  0.50400001928E-02 0.  1.
       -1   -1    0    0    0  501  0.00000000000E+00  0.00000000000E+00 -0.11937617449E+04  0.11937617449E+04  0.50400001928E-02 0. -1.
    10030    2    1    2    0    0  0.00000000000E+00  0.00000000000E+00  0.15769122148E+04  0.39644357047E+04  0.36373202118E+04 0.  0.
        3    1    3    3  502    0 -0.87521606071E+03  0.10647372868E+04  0.20816955742E+04  0.24966227421E+04  0.10100000352E+00 0.  1.
       -3    1    3    3    0  502  0.87521606071E+03 -0.10647372868E+04 -0.50478335937E+03  0.14678129625E+04  0.10100000352E+00 0. -1.
</event>
<event>
 5   0  0.1876027E-07  0.3884197E+04  0.7818609E-02  0.8028324E-01
        1   -1    0    0  501    0  0.00000000000E+00  0.00000000000E+00  0.21942948829E+04  0.21942948829E+04  0.50400001928E-02 0. -1.
       -1   -1    0    0    0  501  0.00000000000E+00  0.00000000000E+00 -0.17188881682E+04  0.17188881683E+04  0.50400001928E-02 0.  1.
    10030    2    1    2    0    0  0.00000000000E+00  0.00000000000E+00  0.47540671466E+03  0.39131830512E+04  0.38841974779E+04 0.  0.
        3    1    3    3  502    0  0.88496410259E+03  0.14199014585E+03  0.19734722073E+04  0.21674674687E+04  0.10100000352E+00 0. -1.
       -3    1    3    3    0  502 -0.88496410259E+03 -0.14199014585E+03 -0.14980654927E+04  0.17457155825E+04  0.10100000352E+00 0.  1.
</event>
<event>
 5   0  0.1860500E-07  0.3446456E+04  0.7818609E-02  0.8126598E-01
        1   -1    0    0  501    0  0.00000000000E+00  0.00000000000E+00  0.23326786634E+04  0.23326786634E+04  0.50400001928E-02 0.  1.
       -1   -1    0    0    0  501  0.00000000000E+00  0.00000000000E+00 -0.12730065625E+04  0.12730065625E+04  0.50400001928E-02 0. -1.
    10030    2    1    2    0    0  0.00000000000E+00  0.00000000000E+00  0.10596721009E+04  0.36056852259E+04  0.34464562940E+04 0.  0.
        4    1    3    3  502    0 -0.14557129487E+04  0.87171761095E+03  0.21506719943E+03  0.17103354336E+04  0.12699999809E+01 0.  1.
       -4    1    3    3    0  502  0.14557129487E+04 -0.87171761095E+03  0.84460490150E+03  0.18953497922E+04  0.12699999809E+01 0. -1.
</event>
<event>
 5   0  0.5872444E-07  0.3921102E+04  0.7818609E-02  0.8020655E-01
       -2   -1    0    0    0  501  0.00000000000E+00  0.00000000000E+00  0.17490593413E+04  0.17490593413E+04  0.25500000920E-02 0.  1.
        2   -1    0    0  501    0  0.00000000000E+00  0.00000000000E+00 -0.21976155641E+04  0.21976155641E+04  0.25500000920E-02 0. -1.
    10030    2    1    2    0    0  0.00000000000E+00  0.00000000000E+00 -0.44855622278E+03  0.39466749055E+04  0.39211019018E+04 0.  0.
        3    1    3    3  502    0  0.16153975644E+04  0.47061823803E+03 -0.12372058606E+04  0.20884609570E+04  0.10100000352E+00 0. -1.
       -3    1    3    3    0  502 -0.16153975644E+04 -0.47061823803E+03  0.78864963782E+03  0.18582139485E+04  0.10100000352E+00 0.  1.
</event>
<event>
 5   0  0.3959190E-07  0.3847050E+04  0.7818609E-02  0.8036133E-01
        2   -1    0    0  501    0  0.00000000000E+00  0.00000000000E+00  0.20360215511E+04  0.20360215511E+04  0.25500000920E-02 0. -1.
       -2   -1    0    0    0  501  0.00000000000E+00  0.00000000000E+00 -0.18172444154E+04  0.18172444154E+04  0.25500000920E-02 0.  1.
    10030    2    1    2    0    0  0.00000000000E+00  0.00000000000E+00  0.21877713569E+03  0.38532659665E+04  0.38470501911E+04 0.  0.
        2    1    3    3  502    0 -0.19695349871E+03 -0.13984822637E+04  0.14174103014E+04  0.20008986194E+04  0.25500000920E-02 0. -1.
       -2    1    3    3    0  502  0.19695349871E+03  0.13984822637E+04 -0.11986331657E+04  0.18523673471E+04  0.25500000920E-02 0.  1.
</event>
<event>
 5   0  0.3959190E-07  0.3674916E+04  0.7818609E-02  0.8073544E-01
       -2   -1    0    0    0  501  0.00000000000E+00  0.00000000000E+00  0.22720622595E+04  0.22720622595E+04  0.25500000920E-02 0. -1.
        2   -1    0    0  501    0  0.00000000000E+00  0.00000000000E+00 -0.14859857104E+04  0.14859857104E+04  0.25500000920E-02 0.  1.
    10030    2    1    2    0    0  0.00000000000E+00  0.00000000000E+00  0.78607654910E+03  0.37580479698E+04  0.36749160810E+04 0.  0.
        2    1    3    3  502    0 -0.44958432272E+03 -0.67418196494E+03  0.20794661882E+04  0.22317766494E+04  0.25500000920E-02 0. -1.
       -2    1    3    3    0  502  0.44958432272E+03  0.67418196494E+03 -0.12933896391E+04  0.15262713204E+04  0.25500000920E-02 0.  1.
</event>
<event>
 5   0  0.1943459E-07  0.3880239E+04  0.7818609E-02  0.8029152E-01
       -1   -1    0    0    0  501  0.00000000000E+00  0.00000000000E+00  0.16477930682E+04  0.16477930682E+04  0.50400001928E-02 0.  1.
        1   -1    0    0  501    0  0.00000000000E+00  0.00000000000E+00 -0.22843063330E+04  0.22843063330E+04  0.50400001928E-02 0. -1.
    10030    2    1    2    0    0  0.00000000000E+00  0.00000000000E+00 -0.63651326486E+03  0.39320994012E+04  0.38802392406E+04 0.  0.
        2    1    3    3  502    0 -0.64360960275E+03  0.28489348202E+03  0.15138523008E+04  0.16694748891E+04  0.25500000920E-02 0.  1.
       -2    1    3    3    0  502  0.64360960275E+03 -0.28489348202E+03 -0.21503655656E+04  0.22626245121E+04  0.25500000920E-02 0. -1.
</event>
<event>
 5   0  0.1860500E-07  0.3942491E+04  0.7818609E-02  0.8016249E-01
        3   -1    0    0  501    0  0.00000000000E+00  0.00000000000E+00  0.17208052830E+04  0.17208052860E+04  0.10100000352E+00 0.  1.
       -3   -1    0    0    0  501  0.00000000000E+00  0.00000000000E+00 -0.22581337641E+04  0.22581337663E+04  0.10100000352E+00 0. -1.
    10030    2    1    2    0    0  0.00000000000E+00  0.00000000000E+00 -0.53732848105E+03  0.39789390523E+04  0.39424908479E+04 0.  0.
        1    1    3    3  502    0  0.31625814576E+03  0.16298808658E+04 -0.13411634070E+04  0.21343031968E+04  0.50400001928E-02 0. -1.
       -1    1    3    3    0  502 -0.31625814576E+03 -0.16298808658E+04  0.80383492592E+03  0.18446358556E+04  0.50400001928E-02 0.  1.
</event>
<event>
 5   0  0.5805753E-07  0.2441178E+04  0.7818609E-02  0.8424246E-01
        2   -1    0    0  501    0  0.00000000000E+00  0.00000000000E+00  0.10551057638E+04  0.10551057638E+04  0.25500000920E-02 0.  1.
       -2   -1    0    0    0  501  0.00000000000E+00  0.00000000000E+00 -0.14120269494E+04  0.14120269494E+04  0.25500000920E-02 0. -1.
    10030    2    1    2    0    0  0.00000000000E+00  0.00000000000E+00 -0.35692118561E+03  0.24671327132E+04  0.24411782180E+04 0.  0.
        1    1    3    3  502    0 -0.81547705406E+02 -0.73939155995E+03 -0.11564724114E+04  0.13750557609E+04  0.50400001928E-02 0. -1.
       -1    1    3    3    0  502  0.81547705406E+02  0.73939155995E+03  0.79955122577E+03  0.10920769523E+04  0.50400001928E-02 0.  1.
</event>
<event>
 5   0  0.3959190E-07  0.3928655E+04  0.7818609E-02  0.8019096E-01
        2   -1    0    0  501    0  0.00000000000E+00  0.00000000000E+00  0.19600734061E+04  0.19600734061E+04  0.25500000920E-02 0.  1.
       -2   -1    0    0    0  501  0.00000000000E+00  0.00000000000E+00 -0.19685908450E+04  0.19685908450E+04  0.25500000920E-02 0. -1.
    10030    2    1    2    0    0  0.00000000000E+00  0.00000000000E+00 -0.85174388818E+01  0.39286642511E+04  0.39286550180E+04 0.  0.
        2    1    3    3  502    0  0.12344241009E+04 -0.68203549193E+03 -0.13715977693E+04  0.19672965496E+04  0.25500000920E-02 0. -1.
       -2    1    3    3    0  502 -0.12344241009E+04  0.68203549193E+03  0.13630803304E+04  0.19613677015E+04  0.25500000920E-02 0.  1.
</event>
<event>
 5   0  0.2666813E-07  0.2505618E+04  0.7818609E-02  0.8400987E-01
        1   -1    0    0  501    0  0.00000000000E+00  0.00000000000E+00  0.11588256932E+04  0.11588256932E+04  0.50400001928E-02 0. -1.
       -1   -1    0    0    0  501  0.00000000000E+00  0.00000000000E+00 -0.13544141321E+04  0.13544141321E+04  0.50400001928E-02 0.  1.
    10030    2    1    2    0    0  0.00000000000E+00  0.00000000000E+00 -0.19558843895E+03  0.25132398253E+04  0.25056176049E+04 0.  0.
        1    1    3    3  502    0  0.88474791926E+03 -0.85200387863E+03 -0.34520304729E+03  0.12758740666E+04  0.50400001928E-02 0.  1.
       -1    1    3    3    0  502 -0.88474791926E+03  0.85200387863E+03  0.14961460834E+03  0.12373657587E+04  0.50400001928E-02 0. -1.
</event>
<event>
 5   0  0.1876027E-07  0.3962859E+04  0.7818609E-02  0.8012081E-01
       -1   -1    0    0    0  501  0.00000000000E+00  0.00000000000E+00  0.19405609271E+04  0.19405609271E+04  0.50400001928E-02 0. -1.
        1   -1    0    0  501    0  0.00000000000E+00  0.00000000000E+00 -0.20231584536E+04  0.20231584536E+04  0.50400001928E-02 0.  1.
    10030    2    1    2    0    0  0.00000000000E+00  0.00000000000E+00 -0.82597526530E+02  0.39637193807E+04  0.39628586875E+04 0.  0.
        3    1    3    3  502    0  0.34213940789E+03  0.40775555690E+03  0.18677116531E+04  0.19420789886E+04  0.10100000352E+00 0. -1.
       -3    1    3    3    0  502 -0.34213940789E+03 -0.40775555690E+03 -0.19503091796E+04  0.20216403921E+04  0.10100000352E+00 0.  1.
</event>
<event>
 5   0  0.1860500E-07  0.2871315E+04  0.7818609E-02  0.8281464E-01
       -1   -1    0    0    0  501  0.00000000000E+00  0.00000000000E+00  0.13563253244E+04  0.13563253244E+04  0.50400001928E-02 0.  1.
        1   -1    0    0  501    0  0.00000000000E+00  0.00000000000E+00 -0.15196296141E+04  0.15196296141E+04  0.50400001928E-02 0. -1.
    10030    2    1    2    0    0  0.00000000000E+00  0.00000000000E+00 -0.16330428968E+03  0.28759549385E+04  0.28713147715E+04 0.  0.
        4    1    3    3  502    0  0.18289586034E+03 -0.10750531830E+04 -0.10169278647E+04  0.14910848859E+04  0.12699999809E+01 0.  1.
       -4    1    3    3    0  502 -0.18289586034E+03  0.10750531830E+04  0.85362357501E+03  0.13848700526E+04  0.12699999809E+01 0. -1.
</event>
<event>
 5   0  0.2666813E-07  0.3902943E+04  0.7818609E-02  0.8024417E-01
       -1   -1    0    0    0  501  0.00000000000E+00  0.00000000000E+00  0.14995026327E+04  0.14995026327E+04  0.50400001928E-02 0.  1.
        1   -1    0    0  501    0  0.00000000000E+00  0.00000000000E+00 -0.25396693663E+04  0.25396693663E+04  0.50400001928E-02 0. -1.
    10030    2    1    2    0    0  0.00000000000E+00  0.00000000000E+00 -0.10401667336E+04  0.40391719990E+04  0.39029429414E+04 0.  0.
        1    1    3    3  502    0 -0.37133880776E+03 -0.17329658117E+04  0.32523628661E+03  0.18018994580E+04  0.50400001928E-02 0.  1.
       -1    1    3    3    0  502  0.37133880776E+03  0.17329658117E+04 -0.13654030202E+04  0.22372725409E+04  0.50400001928E-02 0. -1.
</event>
<event>
 5   0  0.5872444E-07  0.3684558E+04  0.7818609E-02  0.8071393E-01
        2   -1    0    0  501    0  0.00000000000E+00  0.00000000000E+00  0.30898726986E+04  0.30898726986E+04  0.25500000920E-02 0. -1.
       -2   -1    0    0    0  501  0.00000000000E+00  0.00000000000E+00 -0.10984246956E+04  0.10984246956E+04  0.25500000920E-02 0.  1.
    10030    2    1    2    0    0  0.00000000000E+00  0.00000000000E+00  0.19914480030E+04  0.41882973942E+04  0.36845583065E+04 0.  0.
        3    1    3    3  502    0 -0.13123516804E+04 -0.11883202335E+04  0.41653325122E+03  0.18187555828E+04  0.10100000352E+00 0.  1.
       -3    1    3    3    0  502  0.13123516804E+04  0.11883202335E+04  0.15749147518E+04  0.23695418114E+04  0.10100000352E+00 0. -1.
</event>
<event>
 5   0  0.1943459E-07  0.2540469E+04  0.7818609E-02  0.8388708E-01
       -1   -1    0    0    0  501  0.00000000000E+00  0.00000000000E+00  0.81274542879E+03  0.81274542881E+03  0.50400001928E-02 0. -1.
        1   -1    0    0  501    0  0.00000000000E+00  0.00000000000E+00 -0.19852416070E+04  0.19852416070E+04  0.50400001928E-02 0.  1.
    10030    2    1    2    0    0  0.00000000000E+00  0.00000000000E+00 -0.11724961782E+04  0.27979870358E+04  0.25404692804E+04 0.  0.
        2    1    3    3  502    0 -0.68587889729E+03 -0.36063822041E+03  0.52225731146E+03  0.93447444435E+03  0.25500000920E-02 0. -1.
       -2    1    3    3    0  502  0.68587889729E+03  0.36063822041E+03 -0.16947534896E+04  0.18635125914E+04  0.25500000920E-02 0.  1.
</event>
<event>
 5   0  0.5805753E-07  0.2560457E+04  0.7818609E-02  0.8381759E-01
       -2   -1    0    0    0  501  0.00000000000E+00  0.00000000000E+00  0.63526144595E+03  0.63526144596E+03  0.25500000920E-02 0. -1.
        2   -1    0    0  501    0  0.00000000000E+00  0.00000000000E+00 -0.25800159326E+04  0.25800159326E+04  0.25500000920E-02 0.  1.
    10030    2    1    2    0    0  0.00000000000E+00  0.00000000000E+00 -0.19447544867E+04  0.32152773786E+04  0.25604567186E+04 0.  0.
        1    1    3    3  502    0 -0.44093744774E+03  0.11460575211E+04 -0.14270726150E+04  0.18826603313E+04  0.50400001928E-02 0. -1.
       -1    1    3    3    0  502  0.44093744774E+03 -0.11460575211E+04 -0.51768187167E+03  0.13326170473E+04  0.50400001928E-02 0.  1.
</event>
<event>
 5   0  0.1943459E-07  0.3798234E+04  0.7818609E-02  0.8046534E-01
       -1   -1    0    0    0  501  0.00000000000E+00  0.00000000000E+00  0.31979388852E+04  0.31979388852E+04  0.50400001928E-02 0. -1.
        1   -1    0    0  501    0  0.00000000000E+00  0.00000000000E+00 -0.11278028741E+04  0.11278028741E+04  0.50400001928E-02 0.  1.
    10030    2    1    2    0    0  0.00000000000E+00  0.00000000000E+00  0.20701360111E+04  0.43257417594E+04  0.37982336242E+04 0.  0.
        2    1    3    3  502    0 -0.36440258258E+03  0.85939251400E+03 -0.84850037902E+03  0.12614664595E+04  0.25500000920E-02 0.  1.
       -2    1    3    3    0  502  0.36440258258E+03 -0.85939251400E+03  0.29186363901E+04  0.30642752998E+04  0.25500000920E-02 0. -1.
</event>
<event>
 5   0  0.1876027E-07  0.3519368E+04  0.7818609E-02  0.8109215E-01
       -1   -1    0    0    0  501  0.00000000000E+00  0.00000000000E+00  0.22189439232E+04  0.22189439232E+04  0.50400001928E-02 0.  1.
        1   -1    0    0  501    0  0.00000000000E+00  0.00000000000E+00 -0.13954777761E+04  0.13954777762E+04  0.50400001928E-02 0. -1.
    10030    2    1    2    0    0  0.00000000000E+00  0.00000000000E+00  0.82346614709E+03  0.36144216994E+04  0.35193675178E+04 0.  0.
        3    1    3    3  502    0 -0.11717786568E+04 -0.27041290486E+03  0.17310692167E+04  0.21077924478E+04  0.10100000352E+00 0.  1.
       -3    1    3    3    0  502  0.11717786568E+04  0.27041290486E+03 -0.90760306966E+03  0.15066292516E+04  0.10100000352E+00 0. -1.
</event>
<event>
 5   0  0.6095665E-07  0.2989573E+04  0.7818609E-02  0.8246715E-01
        2   -1    0    0  501    0  0.00000000000E+00  0.00000000000E+00  0.14069695188E+04  0.14069695188E+04  0.25500000920E-02 0.  1.
       -2   -1    0    0    0  501  0.00000000000E+00  0.00000000000E+00 -0.15880849982E+04  0.15880849982E+04  0.25500000920E-02 0. -1.
    10030    2    1    2    0    0  0.00000000000E+00  0.00000000000E+00 -0.18111547938E+03  0.29950545169E+04  0.29895733379E+04 0.  0.
        4    1    3    3  502    0 -0.84676546964E+03  0.52880138511E+03 -0.12051364505E+04  0.15649275199E+04  0.12699999809E+01 0. -1.
       -4    1    3    3    0  502  0.84676546964E+03 -0.52880138511E+03  0.10240209711E+04  0.14301269970E+04  0.12699999809E+01 0.  1.
</event>
<event>
 5   0  0.1860500E-07  0.3913226E+04  0.7818609E-02  0.8022284E-01
       -1   -1    0    0    0  501  0.00000000000E+00  0.00000000000E+00  0.33183572145E+04  0.33183572145E+04  0.50400001928E-02 0. -1.
        1   -1    0    0  501    0  0.00000000000E+00  0.00000000000E+00 -0.11536839334E+04  0.11536839334E+04  0.50400001928E-02 0.  1.
    10030    2    1    2    0    0  0.00000000000E+00  0.00000000000E+00  0.21646732812E+04  0.44720411479E+04  0.39132264967E+04 0.  0.
        4    1    3    3  502    0 -0.14222768325E+04  0.10814178180E+04  0.17095841547E+03  0.17948716606E+04  0.12699999809E+01 0.  1.
       -4    1    3    3    0  502  0.14222768325E+04 -0.10814178180E+04  0.19937148657E+04  0.26771694873E+04  0.12699999809E+01 0. -1.
</event>
<event>
 5   0  0.3959190E-07  0.3807696E+04  0.7818609E-02  0.8044505E-01
        2   -1    0    0  501    0  0.00000000000E+00  0.00000000000E+00  0.20041023394E+04  0.20041023394E+04  0.25500000920E-02 0. -1.
       -2   -1    0    0    0  501  0.00000000000E+00  0.00000000000E+00 -0.18086091143E+04  0.18086091143E+04  0.25500000920E-02 0.  1.
    10030    2    1    2    0    0  0.00000000000E+00  0.00000000000E+00  0.19549322507E+03  0.38127114537E+04  0.38076962889E+04 0.  0.
        2    1    3    3  502    0  0.85921202764E+03 -0.10985914829E+04  0.13954046063E+04  0.19728919306E+04  0.25500000920E-02 0. -1.
       -2    1    3    3    0  502 -0.85921202764E+03  0.10985914829E+04 -0.11999113812E+04  0.18398195231E+04  0.25500000920E-02 0.  1.
</event>
<event>
 5   0  0.1860500E-07  0.3938202E+04  0.7818609E-02  0.8017130E-01
       -1   -1    0    0    0  501  0.00000000000E+00  0.00000000000E+00  0.14768370236E+04  0.14768370236E+04  0.50400001928E-02 0. -1.
        1   -1    0    0  501    0  0.00000000000E+00  0.00000000000E+00 -0.26254483291E+04  0.26254483291E+04  0.50400001928E-02 0.  1.
    10030    2    1    2    0    0  0.00000000000E+00  0.00000000000E+00 -0.11486113055E+04  0.41022853528E+04  0.39382022783E+04 0.  0.
        5    1    3    3  502    0  0.23289341095E+02 -0.74142248717E+03  0.13257221640E+04  0.15191481310E+04  0.46999998093E+01 0. -1.
       -5    1    3    3    0  502 -0.23289341095E+02  0.74142248717E+03 -0.24743334695E+04  0.25831372217E+04  0.46999998093E+01 0.  1.
</event>
<event>
 5   0  0.5872444E-07  0.3974144E+04  0.7818609E-02  0.8009783E-01
       -2   -1    0    0    0  501  0.00000000000E+00  0.00000000000E+00  0.18757189200E+04  0.18757189200E+04  0.25500000920E-02 0.  1.
        2   -1    0    0  501    0  0.00000000000E+00  0.00000000000E+00 -0.21050360212E+04  0.21050360212E+04  0.25500000920E-02 0. -1.
    10030    2    1    2    0    0  0.00000000000E+00  0.00000000000E+00 -0.22931710117E+03  0.39807549413E+04  0.39741443821E+04 0.  0.
        3    1    3    3  502    0  0.36363952216E+03 -0.97798956754E+03 -0.18085535581E+04  0.20879567234E+04  0.10100000352E+00 0. -1.
       -3    1    3    3    0  502 -0.36363952216E+03  0.97798956754E+03  0.15792364569E+04  0.18927982178E+04  0.10100000352E+00 0.  1.
</event>
<event>
 5   0  0.1943459E-07  0.3904184E+04  0.7818609E-02  0.8024160E-01
        1   -1    0    0  501    0  0.00000000000E+00  0.00000000000E+00  0.20793383708E+04  0.20793383708E+04  0.50400001928E-02 0.  1.
       -1   -1    0    0    0  501  0.00000000000E+00  0.00000000000E+00 -0.18326326647E+04  0.18326326647E+04  0.50400001928E-02 0. -1.
    10030    2    1    2    0    0  0.00000000000E+00  0.00000000000E+00  0.24670570612E+03  0.39119710355E+04  0.39041841244E+04 0.  0.
        2    1    3    3  502    0 -0.17530974237E+04 -0.80970738230E+03  0.40973192285E+03  0.19740458127E+04  0.25500000920E-02 0.  1.
       -2    1    3    3    0  502  0.17530974237E+04  0.80970738230E+03 -0.16302621673E+03  0.19379252228E+04  0.25500000920E-02 0. -1.
</event>
<event>
 5   0  0.3959190E-07  0.3763233E+04  0.7818609E-02  0.8054091E-01
       -2   -1    0    0    0  501  0.00000000000E+00  0.00000000000E+00  0.18272858813E+04  0.18272858813E+04  0.25500000920E-02 0.  1.
        2   -1    0    0  501    0  0.00000000000E+00  0.00000000000E+00 -0.19375629737E+04  0.19375629737E+04  0.25500000920E-02 0. -1.
    10030    2    1    2    0    0  0.00000000000E+00  0.00000000000E+00 -0.11027709241E+03  0.37648488550E+04  0.37632334320E+04 0.  0.
        2    1    3    3  502    0  0.11920362564E+04 -0.13050228298E+04 -0.70074217947E+03  0.19013349586E+04  0.25500000920E-02 0. -1.
       -2    1    3    3    0  502 -0.11920362564E+04  0.13050228298E+04  0.59046508705E+03  0.18635138964E+04  0.25500000920E-02 0.  1.
</event>
<event>
 5   0  0.5805753E-07  0.3606795E+04  0.7818609E-02  0.8088937E-01
        2   -1    0    0  501    0  0.00000000000E+00  0.00000000000E+00  0.22315576795E+04  0.22315576795E+04  0.25500000920E-02 0. -1.
       -2   -1    0    0    0  501  0.00000000000E+00  0.00000000000E+00 -0.14573864629E+04  0.14573864629E+04  0.25500000920E-02 0.  1.
    10030    2    1    2    0    0  0.00000000000E+00  0.00000000000E+00  0.77417121660E+03  0.36889441424E+04  0.36067946730E+04 0.  0.
        1    1    3    3  502    0  0.48833408636E+03  0.20939587075E+03  0.21496841691E+04  0.22143754960E+04  0.50400001928E-02 0. -1.
       -1    1    3    3    0  502 -0.48833408636E+03 -0.20939587075E+03 -0.13755129525E+04  0.14745686464E+04  0.50400001928E-02 0.  1.
</event>
<event>
 5   0  0.1876027E-07  0.3581550E+04  0.7818609E-02  0.8094731E-01
       -1   -1    0    0    0  501  0.00000000000E+00  0.00000000000E+00  0.14005055175E+04  0.14005055175E+04  0.50400001928E-02 0. -1.
        1   -1    0    0  501    0  0.00000000000E+00  0.00000000000E+00 -0.22897979384E+04  0.22897979384E+04  0.50400001928E-02 0.  1.
    10030    2    1    2    0    0  0.00000000000E+00  0.00000000000E+00 -0.88929242088E+03  0.36903034558E+04  0.35815497465E+04 0.  0.
        3    1    3    3  502    0  0.94107926417E+03  0.60861424967E+03  0.99448753094E+03  0.14983480723E+04  0.10100000352E+00 0. -1.
       -3    1    3    3    0  502 -0.94107926417E+03 -0.60861424967E+03 -0.18837799518E+04  0.21919553835E+04  0.10100000352E+00 0.  1.
</event>
<event>
 5   0  0.1943459E-07  0.3640439E+04  0.7818609E-02  0.8081291E-01
        1   -1    0    0  501    0  0.00000000000E+00  0.00000000000E+00  0.19062037207E+04  0.19062037207E+04  0.50400001928E-02 0. -1.
       -1   -1    0    0    0  501  0.00000000000E+00  0.00000000000E+00 -0.17381137442E+04  0.17381137442E+04  0.50400001928E-02 0.  1.
    10030    2    1    2    0    0  0.00000000000E+00  0.00000000000E+00  0.16808997650E+03  0.36443174648E+04  0.36404389219E+04 0.  0.
        2    1    3    3  502    0  0.23463598225E+03  0.11320129404E+04  0.14914915214E+04  0.18870755946E+04  0.25500000920E-02 0. -1.
       -2    1    3    3    0  502 -0.23463598225E+03 -0.11320129404E+04 -0.13234015449E+04  0.17572418702E+04  0.25500000920E-02 0.  1.
</event>
<event>
 5   0  0.3959190E-07  0.3178494E+04  0.7818609E-02  0.8194520E-01
        2   -1    0    0  501    0  0.00000000000E+00  0.00000000000E+00  0.15008874613E+04  0.15008874613E+04  0.25500000920E-02 0.  1.
       -2   -1    0    0    0  501  0.00000000000E+00  0.00000000000E+00 -0.16828086747E+04  0.16828086747E+04  0.25500000920E-02 0. -1.
    10030    2    1    2    0    0  0.00000000000E+00  0.00000000000E+00 -0.18192121345E+03  0.31836961360E+04  0.31784942596E+04 0.  0.
        2    1    3    3  502    0 -0.17971907893E+03  0.13081783779E+04 -0.97675899757E+03  0.16424639281E+04  0.25500000920E-02 0. -1.
       -2    1    3    3    0  502  0.17971907893E+03 -0.13081783779E+04  0.79483778412E+03  0.15412322079E+04  0.25500000920E-02 0.  1.
</event>
<event>
 5   0  0.6095665E-07  0.3874700E+04  0.7818609E-02  0.8030312E-01
       -2   -1    0    0    0  501  0.00000000000E+00  0.00000000000E+00  0.13427353250E+04  0.13427353250E+04  0.25500000920E-02 0. -1.
        2   -1    0    0  501    0  0.00000000000E+00  0.00000000000E+00 -0.27952826557E+04  0.27952826557E+04  0.25500000920E-02 0.  1.
    10030    2    1    2    0    0  0.00000000000E+00  0.00000000000E+00 -0.14525473307E+04  0.41380179807E+04  0.38746998672E+04 0.  0.
        4    1    3    3  502    0  0.14343687766E+04 -0.77061778744E+03 -0.18474048963E+04  0.24625539640E+04  0.12699999809E+01 0.  1.
       -4    1    3    3    0  502 -0.14343687766E+04  0.77061778744E+03  0.39485756558E+03  0.16754640168E+04  0.12699999809E+01 0. -1.
</event>
<event>
 5   0  0.5872444E-07  0.3920852E+04  0.7818609E-02  0.8020706E-01
       -2   -1    0    0    0  501  0.00000000000E+00  0.00000000000E+00  0.22161421073E+04  0.22161421073E+04  0.25500000920E-02 0.  1.
        2   -1    0    0  501    0  0.00000000000E+00  0.00000000000E+00 -0.17342165950E+04  0.17342165950E+04  0.25500000920E-02 0. -1.
    10030    2    1    2    0    0  0.00000000000E+00  0.00000000000E+00  0.48192551235E+03  0.39503587023E+04  0.39208521621E+04 0.  0.
        3    1    3    3  502    0  0.77228244899E+03 -0.38087137136E+03  0.20154058115E+04  0.21916532066E+04  0.10100000352E+00 0.  1.
       -3    1    3    3    0  502 -0.77228244899E+03  0.38087137136E+03 -0.15334802992E+04  0.17587054957E+04  0.10100000352E+00 0. -1.
</event>
<event>
 5   0  0.5872444E-07  0.2899950E+04  0.7818609E-02  0.8272892E-01
        2   -1    0    0  501    0  0.00000000000E+00  0.00000000000E+00  0.18070196229E+04  0.18070196229E+04  0.25500000920E-02 0. -1.
       -2   -1    0    0    0  501  0.00000000000E+00  0.00000000000E+00 -0.11634781332E+04  0.11634781332E+04  0.25500000920E-02 0.  1.
    10030    2    1    2    0    0  0.00000000000E+00  0.00000000000E+00  0.64354148964E+03  0.29704977561E+04  0.28999502186E+04 0.  0.
        3    1    3    3  502    0  0.87722857290E+03  0.94765643548E+03 -0.35369913115E+03  0.13389121608E+04  0.10100000352E+00 0.  1.
       -3    1    3    3    0  502 -0.87722857290E+03 -0.94765643548E+03  0.99724062080E+03  0.16315855953E+04  0.10100000352E+00 0. -1.
</event>
<event>
 5   0  0.1860500E-07  0.3925262E+04  0.7818609E-02  0.8019796E-01
        1   -1    0    0  501    0  0.00000000000E+00  0.00000000000E+00  0.15679785270E+04  0.15679785271E+04  0.50400001928E-02 0.  1.
       -1   -1    0    0    0  501  0.00000000000E+00  0.00000000000E+00 -0.24566156607E+04  0.24566156607E+04  0.50400001928E-02 0. -1.
    10030    2    1    2    0    0  0.00000000000E+00  0.00000000000E+00 -0.88863713370E+03  0.40245941878E+04  0.39252620831E+04 0.  0.
        4    1    3    3  502    0 -0.39776422395E+03  0.36348751311E+03 -0.23792908765E+04  0.24395422190E+04  0.12699999809E+01 0. -1.
       -4    1    3    3    0  502  0.39776422395E+03 -0.36348751311E+03  0.14906537428E+04  0.15850519688E+04  0.12699999809E+01 0.  1.
</event>
<event>
 5   0  0.1860500E-07  0.3884618E+04  0.7818609E-02  0.8028236E-01
        1   -1    0    0  501    0  0.00000000000E+00  0.00000000000E+00  0.28228062570E+04  0.28228062570E+04  0.50400001928E-02 0. -1.
       -1   -1    0    0    0  501  0.00000000000E+00  0.00000000000E+00 -0.13364591099E+04  0.13364591099E+04  0.50400001928E-02 0.  1.
    10030    2    1    2    0    0  0.00000000000E+00  0.00000000000E+00  0.14863471471E+04  0.41592653669E+04  0.38846184563E+04 0.  0.
        5    1    3    3  502    0 -0.63440910400E+03  0.25232828803E+03 -0.12037363688E+04  0.13838886558E+04  0.46999998093E+01 0.  1.
       -5    1    3    3    0  502  0.63440910400E+03 -0.25232828803E+03  0.26900835159E+04  0.27753767111E+04  0.46999998093E+01 0. -1.
</event>
<event>
 5   0  0.1860500E-07  0.3797276E+04  0.7818609E-02  0.8046740E-01
       -1   -1    0    0    0  501  0.00000000000E+00  0.00000000000E+00  0.14712048798E+04  0.14712048799E+04  0.50400001928E-02 0. -1.
        1   -1    0    0  501    0  0.00000000000E+00  0.00000000000E+00 -0.24502549674E+04  0.24502549675E+04  0.50400001928E-02 0.  1.
    10030    2    1    2    0    0  0.00000000000E+00  0.00000000000E+00 -0.97905008760E+03  0.39214598473E+04  0.37972764266E+04 0.  0.
        4    1    3    3  502    0  0.45408134293E+03 -0.52880081491E+03 -0.23133519341E+04  0.24160751130E+04  0.12699999809E+01 0.  1.
       -4    1    3    3    0  502 -0.45408134293E+03  0.52880081491E+03  0.13343018465E+04  0.15053847343E+04  0.12699999809E+01 0. -1.
</event>
<event>
 5   0  0.3959190E-07  0.3794179E+04  0.7818609E-02  0.8047405E-01
       -2   -1    0    0    0  501  0.00000000000E+00  0.00000000000E+00  0.16521867287E+04  0.16521867287E+04  0.25500000920E-02 0.  1.
        2   -1    0    0  501    0  0.00000000000E+00  0.00000000000E+00 -0.21782941273E+04  0.21782941273E+04  0.25500000920E-02 0. -1.
    10030    2    1    2    0    0  0.00000000000E+00  0.00000000000E+00 -0.52610739858E+03  0.38304808560E+04  0.37941790407E+04 0.  0.
        2    1    3    3  502    0  0.20976371790E+03 -0.16994039328E+04  0.56144497505E+03  0.18019975039E+04  0.25500000920E-02 0.  1.
       -2    1    3    3    0  502 -0.20976371790E+03  0.16994039328E+04 -0.10875523736E+04  0.20284833521E+04  0.25500000920E-02 0. -1.
</event>
<event>
 5   0  0.6095665E-07  0.3854678E+04  0.7818609E-02  0.8034522E-01
       -2   -1    0    0    0  501  0.00000000000E+00  0.00000000000E+00  0.18702757308E+04  0.18702757308E+04  0.25500000920E-02 0. -1.
        2   -1    0    0  501    0  0.00000000000E+00  0.00000000000E+00 -0.19861432570E+04  0.19861432570E+04  0.25500000920E-02 0.  1.
    10030    2    1    2    0    0  0.00000000000E+00  0.00000000000E+00 -0.11586752617E+03  0.38564189879E+04  0.38546779536E+04 0.  0.
        4    1    3    3  502    0 -0.70594987964E+03 -0.11806103198E+04 -0.14085168205E+04  0.19687882584E+04  0.12699999809E+01 0.  1.
       -4    1    3    3    0  502  0.70594987964E+03  0.11806103198E+04  0.12926492944E+04  0.18876307295E+04  0.12699999809E+01 0. -1.
</event>
<event>
 5   0  0.1860500E-07  0.3648430E+04  0.7818609E-02  0.8079487E-01
        1   -1    0    0  501    0  0.00000000000E+00  0.00000000000E+00  0.18315036088E+04  0.18315036088E+04  0.50400001928E-02 0.  1.
       -1   -1    0    0    0  501  0.00000000000E+00  0.00000000000E+00 -0.18169553406E+04  0.18169553406E+04  0.50400001928E-02 0. -1.
    10030    2    1    2    0    0  0.00000000000E+00  0.00000000000E+00  0.14548268244E+02  0.36484589494E+04  0.36484299436E+04 0.  0.
        5    1    3    3  502    0 -0.51602433456E+03 -0.14302455990E+04  0.10151782658E+04  0.18282485030E+04  0.46999998093E+01 0.  1.
       -5    1    3    3    0  502  0.51602433456E+03  0.14302455990E+04 -0.10006299975E+04  0.18202104464E+04  0.46999998093E+01 0. -1.
</event>
<event>
 5   0  0.3959190E-07  0.3934410E+04  0.7818609E-02  0.8017910E-01
       -2   -1    0    0    0  501  0.00000000000E+00  0.00000000000E+00  0.21608479642E+04  0.21608479642E+04  0.25500000920E-02 0. -1.
        2   -1    0    0  501    0  0.00000000000E+00  0.00000000000E+00 -0.17909155470E+04  0.17909155470E+04  0.25500000920E-02 0.  1.
    10030    2    1    2    0    0  0.00000000000E+00  0.00000000000E+00  0.36993241716E+03  0.39517635112E+04  0.39344103567E+04 0.  0.
        2    1    3    3  502    0  0.14536981899E+04  0.12830586012E+04 -0.14879206569E+03  0.19446379818E+04  0.25500000920E-02 0.  1.
       -2    1    3    3    0  502 -0.14536981899E+04 -0.12830586012E+04  0.51872448285E+03  0.20071255294E+04  0.25500000920E-02 0. -1.
</event>
<event>
 5   0  0.1943459E-07  0.3910386E+04  0.7818609E-02  0.8022873E-01
       -1   -1    0    0    0  501  0.00000000000E+00  0.00000000000E+00  0.21385815327E+04  0.21385815327E+04  0.50400001928E-02 0. -1.
        1   -1    0    0  501    0  0.00000000000E+00  0.00000000000E+00 -0.17875305256E+04  0.17875305256E+04  0.50400001928E-02 0.  1.
    10030    2    1    2    0    0  0.00000000000E+00  0.00000000000E+00  0.35105100708E+03  0.39261120583E+04  0.39103860531E+04 0.  0.
        2    1    3    3  502    0  0.71608777592E+03 -0.65261526059E+03 -0.15295655069E+04  0.18105963164E+04  0.25500000920E-02 0.  1.
       -2    1    3    3    0  502 -0.71608777592E+03  0.65261526059E+03  0.18806165140E+04  0.21155157418E+04  0.25500000920E-02 0. -1.
</event>
<event>
 5   0  0.1876027E-07  0.3862745E+04  0.7818609E-02  0.8032822E-01
        1   -1    0    0  501    0  0.00000000000E+00  0.00000000000E+00  0.25371807760E+04  0.25371807760E+04  0.50400001928E-02 0. -1.
       -1   -1    0    0    0  501  0.00000000000E+00  0.00000000000E+00 -0.14702144949E+04  0.14702144949E+04  0.50400001928E-02 0.  1.
    10030    2    1    2    0    0  0.00000000000E+00  0.00000000000E+00  0.10669662812E+04  0.40073952709E+04  0.38627451135E+04 0.  0.
        3    1    3    3  502    0 -0.71695717776E+03  0.10773370174E+04 -0.95391316204E+03  0.16076793756E+04  0.10100000352E+00 0.  1.
       -3    1    3    3    0  502  0.71695717776E+03 -0.10773370174E+04  0.20208794432E+04  0.23997158953E+04  0.10100000352E+00 0. -1.
</event>
<event>
 5   0  0.5872444E-07  0.2896365E+04  0.7818609E-02  0.8273960E-01
        2   -1    0    0  501    0  0.00000000000E+00  0.00000000000E+00  0.15607487603E+04  0.15607487603E+04  0.25500000920E-02 0. -1.
       -2   -1    0    0    0  501  0.00000000000E+00  0.00000000000E+00 -0.13437353314E+04  0.13437353314E+04  0.25500000920E-02 0.  1.
    10030    2    1    2    0    0  0.00000000000E+00  0.00000000000E+00  0.21701342885E+03  0.29044840917E+04  0.28963654830E+04 0.  0.
        3    1    3    3  502    0 -0.53526788197E+03  0.50021063876E+03  0.13612123632E+04  0.15458400618E+04  0.10100000352E+00 0. -1.
       -3    1    3    3    0  502  0.53526788197E+03 -0.50021063876E+03 -0.11441989344E+04  0.13586440300E+04  0.10100000352E+00 0.  1.
</event>
<event>
 5   0  0.5805753E-07  0.3914901E+04  0.7818609E-02  0.8021937E-01
        2   -1    0    0  501    0  0.00000000000E+00  0.00000000000E+00  0.28253367184E+04  0.28253367184E+04  0.25500000920E-02 0. -1.
       -2   -1    0    0    0  501  0.00000000000E+00  0.00000000000E+00 -0.13561611061E+04  0.13561611061E+04  0.25500000920E-02 0.  1.
    10030    2    1    2    0    0  0.00000000000E+00  0.00000000000E+00  0.14691756123E+04  0.41814978246E+04  0.39149006472E+04 0.  0.
        1    1    3    3  502    0  0.10368478088E+04 -0.16018569480E+04  0.12009110431E+04  0.22545922899E+04  0.50400001928E-02 0. -1.
       -1    1    3    3    0  502 -0.10368478088E+04  0.16018569480E+04  0.26826456917E+03  0.19269055346E+04  0.50400001928E-02 0.  1.
</event>
<event>
 5   0  0.1860500E-07  0.3907056E+04  0.7818609E-02  0.8023563E-01
        1   -1    0    0  501    0  0.00000000000E+00  0.00000000000E+00  0.23794210180E+04  0.23794210180E+04  0.50400001928E-02 0. -1.
       -1   -1    0    0    0  501  0.00000000000E+00  0.00000000000E+00 -0.16038653826E+04  0.16038653826E+04  0.50400001928E-02 0.  1.
    10030    2    1    2    0    0  0.00000000000E+00  0.00000000000E+00  0.77555563537E+03  0.39832864006E+04  0.39070556697E+04 0.  0.
        4    1    3    3  502    0 -0.13304126714E+04  0.13254022801E+04 -0.16084826051E+03  0.18848243568E+04  0.12699999809E+01 0.  1.
       -4    1    3    3    0  502  0.13304126714E+04 -0.13254022801E+04  0.93640389587E+03  0.20984620438E+04  0.12699999809E+01 0. -1.
</event>
<event>
 5   0  0.1943459E-07  0.2458052E+04  0.7818609E-02  0.8418084E-01
        1   -1    0    0  501    0  0.00000000000E+00  0.00000000000E+00  0.15051970120E+04  0.15051970120E+04  0.50400001928E-02 0. -1.
       -1   -1    0    0    0  501  0.00000000000E+00  0.00000000000E+00 -0.10035261491E+04  0.10035261492E+04  0.50400001928E-02 0.  1.
    10030    2    1    2    0    0  0.00000000000E+00  0.00000000000E+00  0.50167086283E+03  0.25087231611E+04  0.24580517172E+04 0.  0.
        2    1    3    3  502    0 -0.11964212855E+03  0.73936560518E+03 -0.74368978578E+03  0.10554857813E+04  0.25500000920E-02 0.  1.
       -2    1    3    3    0  502  0.11964212855E+03 -0.73936560518E+03  0.12453606486E+04  0.14532373798E+04  0.25500000920E-02 0. -1.
</event>
<event>
 5   0  0.1860500E-07  0.4322601E+04  0.7818609E-02  0.7942452E-01
        1   -1    0    0  501    0  0.00000000000E+00  0.00000000000E+00  0.22492250473E+04  0.22492250473E+04  0.50400001928E-02 0.  1.
       -1   -1    0    0    0  501  0.00000000000E+00  0.00000000000E+00 -0.20768133898E+04  0.20768133898E+04  0.50400001928E-02 0. -1.
    10030    2    1    2    0    0  0.00000000000E+00  0.00000000000E+00  0.17241165750E+03  0.43260384372E+04  0.43226013904E+04 0.  0.
        5    1    3    3  502    0 -0.16835918661E+04 -0.38469818246E+03 -0.12143367248E+04  0.21111868781E+04  0.46999998093E+01 0. -1.
       -5    1    3    3    0  502  0.16835918661E+04  0.38469818246E+03  0.13867483823E+04  0.22148515591E+04  0.46999998093E+01 0.  1.
</event>
<event>
 5   0  0.3959190E-07  0.3930776E+04  0.7818609E-02  0.8018659E-01
       -2   -1    0    0    0  501  0.00000000000E+00  0.00000000000E+00  0.19781567880E+04  0.19781567880E+04  0.25500000920E-02 0.  1.
        2   -1    0    0  501    0  0.00000000000E+00  0.00000000000E+00 -0.19527018063E+04  0.19527018063E+04  0.25500000920E-02 0. -1.
    10030    2    1    2    0    0  0.00000000000E+00  0.00000000000E+00  0.25454981654E+02  0.39308585943E+04  0.39307761743E+04 0.  0.
        2    1    3    3  502    0  0.53828410496E+02  0.15871640152E+04  0.11706650758E+04  0.19729277302E+04  0.25500000920E-02 0.  1.
       -2    1    3    3    0  502 -0.53828410496E+02 -0.15871640152E+04 -0.11452100941E+04  0.19579308641E+04  0.25500000920E-02 0. -1.
</event>
<event>
 5   0  0.1860500E-07  0.3784997E+04  0.7818609E-02  0.8049382E-01
        1   -1    0    0  501    0  0.00000000000E+00  0.00000000000E+00  0.25365533587E+04  0.25365533587E+04  0.50400001928E-02 0. -1.
       -1   -1    0    0    0  501  0.00000000000E+00  0.00000000000E+00 -0.14119753013E+04  0.14119753013E+04  0.50400001928E-02 0.  1.
    10030    2    1    2    0    0  0.00000000000E+00  0.00000000000E+00  0.11245780574E+04  0.39485286600E+04  0.37849970637E+04 0.  0.
        5    1    3    3  502    0  0.82020328239E+03  0.63815932280E+03  0.22122518397E+04  0.24441892394E+04  0.46999998093E+01 0. -1.
       -5    1    3    3    0  502 -0.82020328239E+03 -0.63815932280E+03 -0.10876737823E+04  0.15043394206E+04  0.46999998093E+01 0.  1.
</event>
<event>
 5   0  0.5805753E-07  0.3924448E+04  0.7818609E-02  0.8019964E-01
       -2   -1    0    0    0  501  0.00000000000E+00  0.00000000000E+00  0.17178938378E+04  0.17178938378E+04  0.25500000920E-02 0.  1.
        2   -1    0    0  501    0  0.00000000000E+00  0.00000000000E+00 -0.22413038776E+04  0.22413038776E+04  0.25500000920E-02 0. -1.
    10030    2    1    2    0    0  0.00000000000E+00  0.00000000000E+00 -0.52341003981E+03  0.39591977154E+04  0.39244475382E+04 0.  0.
        1    1    3    3  502    0 -0.26203379677E+03  0.14208723227E+04  0.10777495769E+04  0.18025215723E+04  0.50400001928E-02 0.  1.
       -1    1    3    3    0  502  0.26203379677E+03 -0.14208723227E+04 -0.16011596167E+04  0.21566761431E+04  0.50400001928E-02 0. -1.
</event>
<event>
 5   0  0.5872444E-07  0.3775741E+04  0.7818609E-02  0.8051381E-01
       -2   -1    0    0    0  501  0.00000000000E+00  0.00000000000E+00  0.18177520462E+04  0.18177520462E+04  0.25500000920E-02 0.  1.
        2   -1    0    0  501    0  0.00000000000E+00  0.00000000000E+00 -0.19606937729E+04  0.19606937729E+04  0.25500000920E-02 0. -1.
    10030    2    1    2    0    0  0.00000000000E+00  0.00000000000E+00 -0.14294172663E+03  0.37784458191E+04  0.37757410492E+04 0.  0.
        3    1    3    3  502    0 -0.94986102902E+03 -0.71468555724E+03  0.13962234549E+04  0.18336988211E+04  0.10100000352E+00 0.  1.
       -3    1    3    3    0  502  0.94986102902E+03  0.71468555724E+03 -0.15391651815E+04  0.19447469980E+04  0.10100000352E+00 0. -1.
</event>
<event>
 5   0  0.1860500E-07  0.4030432E+04  0.7818609E-02  0.7998436E-01
       -3   -1    0    0    0  501  0.00000000000E+00  0.00000000000E+00  0.20030826298E+04  0.20030826323E+04  0.10100000352E+00 0. -1.
        3   -1    0    0  501    0  0.00000000000E+00  0.00000000000E+00 -0.20274225914E+04  0.20274225939E+04  0.10100000352E+00 0.  1.
    10030    2    1    2    0    0  0.00000000000E+00  0.00000000000E+00 -0.24339961627E+02  0.40305052262E+04  0.40304317318E+04 0.  0.
        4    1    3    3  502    0  0.82816715856E+03 -0.35757266572E+03  0.17899101371E+04  0.20043699673E+04  0.12699999809E+01 0. -1.
       -4    1    3    3    0  502 -0.82816715856E+03  0.35757266572E+03 -0.18142500988E+04  0.20261352590E+04  0.12699999809E+01 0.  1.
</event>
<event>
 5   0  0.1860500E-07  0.3887351E+04  0.7818609E-02  0.8027665E-01
        1   -1    0    0  501    0  0.00000000000E+00  0.00000000000E+00  0.24412322970E+04  0.24412322970E+04  0.50400001928E-02 0. -1.
       -1   -1    0    0    0  501  0.00000000000E+00  0.00000000000E+00 -0.15475276470E+04  0.15475276470E+04  0.50400001928E-02 0.  1.
    10030    2    1    2    0    0  0.00000000000E+00  0.00000000000E+00  0.89370465002E+03  0.39887599440E+04  0.38873510119E+04 0.  0.
        5    1    3    3  502    0  0.24856684261E+03 -0.10591584204E+04 -0.12058326708E+04  0.16240863754E+04  0.46999998093E+01 0.  1.
       -5    1    3    3    0  502 -0.24856684261E+03  0.10591584204E+04  0.20995373208E+04  0.23646735686E+04  0.46999998093E+01 0. -1.
</event>
<event>
 5   0  0.5872444E-07  0.3843387E+04  0.7818609E-02  0.8036908E-01
        2   -1    0    0  501    0  0.00000000000E+00  0.00000000000E+00  0.12696694316E+04  0.12696694316E+04  0.25500000920E-02 0. -1.
       -2   -1    0    0    0  501  0.00000000000E+00  0.00000000000E+00 -0.29085573068E+04  0.29085573068E+04  0.25500000920E-02 0.  1.
    10030    2    1    2    0    0  0.00000000000E+00  0.00000000000E+00 -0.16388878752E+04  0.41782267383E+04  0.38433872053E+04 0.  0.
        3    1    3    3  502    0 -0.17619826663E+04  0.49171317665E+00  0.14402018593E+02  0.17620415962E+04  0.10100000352E+00 0. -1.
       -3    1    3    3    0  502  0.17619826663E+04 -0.49171317665E+00 -0.16532898938E+04  0.24161851422E+04  0.10100000352E+00 0.  1.
</event>
<event>
 5   0  0.1860500E-07  0.3922687E+04  0.7818609E-02  0.8020327E-01
        3   -1    0    0  501    0  0.00000000000E+00  0.00000000000E+00  0.23400220860E+04  0.23400220882E+04  0.10100000352E+00 0.  1.
       -3   -1    0    0    0  501  0.00000000000E+00  0.00000000000E+00 -0.16439450957E+04  0.16439450988E+04  0.10100000352E+00 0. -1.
    10030    2    1    2    0    0  0.00000000000E+00  0.00000000000E+00  0.69607699030E+03  0.39839671870E+04  0.39226867541E+04 0.  0.
        5    1    3    3  502    0 -0.32954731524E+03 -0.83870024164E+03 -0.14212515662E+04  0.16828540141E+04  0.46999998093E+01 0. -1.
       -5    1    3    3    0  502  0.32954731524E+03  0.83870024164E+03  0.21173285565E+04  0.23011131729E+04  0.46999998093E+01 0.  1.
</event>
<event>
 5   0  0.3959190E-07  0.3863358E+04  0.7818609E-02  0.8032693E-01
        2   -1    0    0  501    0  0.00000000000E+00  0.00000000000E+00  0.29600582034E+04  0.29600582034E+04  0.25500000920E-02 0. -1.
       -2   -1    0    0    0  501  0.00000000000E+00  0.00000000000E+00 -0.12605780547E+04  0.12605780547E+04  0.25500000920E-02 0.  1.
    10030    2    1    2    0    0  0.00000000000E+00  0.00000000000E+00  0.16994801486E+04  0.42206362581E+04  0.38633583380E+04 0.  0.
        2    1    3    3  502    0 -0.15285777515E+04 -0.11426505243E+04  0.11759949511E+04  0.22416878213E+04  0.25500000920E-02 0.  1.
       -2    1    3    3    0  502  0.15285777515E+04  0.11426505243E+04  0.52348519756E+03  0.19789484368E+04  0.25500000920E-02 0. -1.
</event>
<event>
 5   0  0.5805753E-07  0.4004242E+04  0.7818609E-02  0.8003691E-01
        2   -1    0    0  501    0  0.00000000000E+00  0.00000000000E+00  0.17566451966E+04  0.17566451966E+04  0.25500000920E-02 0. -1.
       -2   -1    0    0    0  501  0.00000000000E+00  0.00000000000E+00 -0.22819000731E+04  0.22819000731E+04  0.25500000920E-02 0.  1.
    10030    2    1    2    0    0  0.00000000000E+00  0.00000000000E+00 -0.52525487648E+03  0.40385452698E+04  0.40042421519E+04 0.  0.
        1    1    3    3  502    0 -0.12673688636E+04 -0.18190210938E+03 -0.18150263822E+04  0.22211782868E+04  0.50400001928E-02 0.  1.
       -1    1    3    3    0  502  0.12673688636E+04  0.18190210938E+03  0.12897715057E+04  0.18173669830E+04  0.50400001928E-02 0. -1.
</event>
<event>
 5   0  0.2666813E-07  0.3937797E+04  0.7818609E-02  0.8017214E-01
       -1   -1    0    0    0  501  0.00000000000E+00  0.00000000000E+00  0.17123620036E+04  0.17123620036E+04  0.50400001928E-02 0. -1.
        1   -1    0    0  501    0  0.00000000000E+00  0.00000000000E+00 -0.22638681130E+04  0.22638681130E+04  0.50400001928E-02 0.  1.
    10030    2    1    2    0    0  0.00000000000E+00  0.00000000000E+00 -0.55150610943E+03  0.39762301166E+04  0.39377972207E+04 0.  0.
        1    1    3    3  502    0 -0.25484299863E+02 -0.12097424612E+04 -0.18441139834E+04  0.22056478993E+04  0.50400001928E-02 0.  1.
       -1    1    3    3    0  502  0.25484299863E+02  0.12097424612E+04  0.12926078740E+04  0.17705822172E+04  0.50400001928E-02 0. -1.
</event>
<event>
 5   0  0.3959190E-07  0.3883162E+04  0.7818609E-02  0.8028540E-01
       -2   -1    0    0    0  501  0.00000000000E+00  0.00000000000E+00  0.14409344731E+04  0.14409344731E+04  0.25500000920E-02 0. -1.
        2   -1    0    0  501    0  0.00000000000E+00  0.00000000000E+00 -0.26161745176E+04  0.26161745176E+04  0.25500000920E-02 0.  1.
    10030    2    1    2    0    0  0.00000000000E+00  0.00000000000E+00 -0.11752400445E+04  0.40571089907E+04  0.38831616242E+04 0.  0.
        2    1    3    3  502    0 -0.33642264030E+03 -0.48573163008E+03 -0.25199605551E+04  0.25883038092E+04  0.25500000920E-02 0.  1.
       -2    1    3    3    0  502  0.33642264030E+03  0.48573163008E+03  0.13447205106E+04  0.14688051814E+04  0.25500000920E-02 0. -1.
</event>
<event>
 5   0  0.6095665E-07  0.3929174E+04  0.7818609E-02  0.8018989E-01
        2   -1    0    0  501    0  0.00000000000E+00  0.00000000000E+00  0.27207286760E+04  0.27207286760E+04  0.25500000920E-02 0. -1.
       -2   -1    0    0    0  501  0.00000000000E+00  0.00000000000E+00 -0.14185909932E+04  0.14185909932E+04  0.25500000920E-02 0.  1.
    10030    2    1    2    0    0  0.00000000000E+00  0.00000000000E+00  0.13021376829E+04  0.41393196692E+04  0.39291735491E+04 0.  0.
        4    1    3    3  502    0  0.30070501244E+03 -0.20375979126E+03 -0.13829069851E+04  0.14298163866E+04  0.12699999809E+01 0.  1.
       -4    1    3    3    0  502 -0.30070501244E+03  0.20375979126E+03  0.26850446679E+04  0.27095032826E+04  0.12699999809E+01 0. -1.
</event>
<event>
 5   0  0.5872444E-07  0.2603517E+04  0.7818609E-02  0.8367008E-01
       -2   -1    0    0    0  501  0.00000000000E+00  0.00000000000E+00  0.95439089999E+03  0.95439089999E+03  0.25500000920E-02 0. -1.
        2   -1    0    0  501    0  0.00000000000E+00  0.00000000000E+00 -0.17755565818E+04  0.17755565818E+04  0.25500000920E-02 0.  1.
    10030    2    1    2    0    0  0.00000000000E+00  0.00000000000E+00 -0.82116568178E+03  0.27299474818E+04  0.26035168861E+04 0.  0.
        3    1    3    3  502    0 -0.19345075287E+03 -0.10979674781E+04 -0.11152436521E+04  0.15769350622E+04  0.10100000352E+00 0. -1.
       -3    1    3    3    0  502  0.19345075287E+03  0.10979674781E+04  0.29407797037E+03  0.11530124195E+04  0.10100000352E+00 0.  1.
</event>
<event>
 5   0  0.1860500E-07  0.3846558E+04  0.7818609E-02  0.8036237E-01
       -1   -1    0    0    0  501  0.00000000000E+00  0.00000000000E+00  0.15239315032E+04  0.15239315032E+04  0.50400001928E-02 0.  1.
        1   -1    0    0  501    0  0.00000000000E+00  0.00000000000E+00 -0.24272754274E+04  0.24272754274E+04  0.50400001928E-02 0. -1.
    10030    2    1    2    0    0  0.00000000000E+00  0.00000000000E+00 -0.90334392418E+03  0.39512069306E+04  0.38465576771E+04 0.  0.
        4    1    3    3  502    0  0.11882052864E+04 -0.14026224983E+04  0.12923838890E+03  0.18427929481E+04  0.12699999809E+01 0.  1.
       -4    1    3    3    0  502 -0.11882052864E+04  0.14026224983E+04 -0.10325823131E+04  0.21084139825E+04  0.12699999809E+01 0. -1.
</event>
<event>
 5   0  0.5735179E-07  0.3109475E+04  0.7818609E-02  0.8213142E-01
        2   -1    0    0  501    0  0.00000000000E+00  0.00000000000E+00  0.18253972156E+04  0.18253972156E+04  0.25500000920E-02 0. -1.
       -2   -1    0    0    0  501  0.00000000000E+00  0.00000000000E+00 -0.13242098711E+04  0.13242098711E+04  0.25500000920E-02 0.  1.
    10030    2    1    2    0    0  0.00000000000E+00  0.00000000000E+00  0.50118734451E+03  0.31496070867E+04  0.31094752044E+04 0.  0.
        5    1    3    3  502    0  0.65269454333E+03  0.28864119668E+03 -0.11484873814E+04  0.13521720536E+04  0.46999998093E+01 0.  1.
       -5    1    3    3    0  502 -0.65269454333E+03 -0.28864119668E+03  0.16496747259E+04  0.17974350332E+04  0.46999998093E+01 0. -1.
</event>
<event>
 5   0  0.5805753E-07  0.3848306E+04  0.7818609E-02  0.8035867E-01
       -2   -1    0    0    0  501  0.00000000000E+00  0.00000000000E+00  0.13215780368E+04  0.13215780368E+04  0.25500000920E-02 0.  1.
        2   -1    0    0  501    0  0.00000000000E+00  0.00000000000E+00 -0.28014733927E+04  0.28014733927E+04  0.25500000920E-02 0. -1.
    10030    2    1    2    0    0  0.00000000000E+00  0.00000000000E+00 -0.14798953559E+04  0.41230514295E+04  0.38483064881E+04 0.  0.
        1    1    3    3  502    0  0.11238094483E+04  0.34550187430E+03  0.89196697679E+03  0.14757792209E+04  0.50400001928E-02 0.  1.
       -1    1    3    3    0  502 -0.11238094483E+04 -0.34550187430E+03 -0.23718623327E+04  0.26472722086E+04  0.50400001928E-02 0. -1.
</event>
<event>
 5   0  0.6095665E-07  0.4004873E+04  0.7818609E-02  0.8003564E-01
        2   -1    0    0  501    0  0.00000000000E+00  0.00000000000E+00  0.14891352276E+04  0.14891352276E+04  0.25500000920E-02 0.  1.
       -2   -1    0    0    0  501  0.00000000000E+00  0.00000000000E+00 -0.26926717260E+04  0.26926717260E+04  0.25500000920E-02 0. -1.
    10030    2    1    2    0    0  0.00000000000E+00  0.00000000000E+00 -0.12035364984E+04  0.41818069536E+04  0.40048731933E+04 0.  0.
        4    1    3    3  502    0  0.36014042485E+03  0.15852459924E+04  0.61909374207E+03  0.17395357589E+04  0.12699999809E+01 0.  1.
       -4    1    3    3    0  502 -0.36014042485E+03 -0.15852459924E+04 -0.18226302405E+04  0.24422711947E+04  0.12699999809E+01 0. -1.
</event>
<event>
 5   0  0.6095665E-07  0.3844224E+04  0.7818609E-02  0.8036731E-01
        2   -1    0    0  501    0  0.00000000000E+00  0.00000000000E+00  0.21896536993E+04  0.21896536993E+04  0.25500000920E-02 0. -1.
       -2   -1    0    0    0  501  0.00000000000E+00  0.00000000000E+00 -0.16872596020E+04  0.16872596020E+04  0.25500000920E-02 0.  1.
    10030    2    1    2    0    0  0.00000000000E+00  0.00000000000E+00  0.50239409728E+03  0.38769133013E+04  0.38442238380E+04 0.  0.
        4    1    3    3  502    0 -0.14723539902E+03  0.80120256358E+03 -0.15045577189E+04  0.17109352276E+04  0.12699999809E+01 0.  1.
       -4    1    3    3    0  502  0.14723539902E+03 -0.80120256358E+03  0.20069518162E+04  0.21659780737E+04  0.12699999809E+01 0. -1.
</event>
<event>
 5   0  0.1876027E-07  0.2738908E+04  0.7818609E-02  0.8322490E-01
        1   -1    0    0  501    0  0.00000000000E+00  0.00000000000E+00  0.19098164583E+04  0.19098164583E+04  0.50400001928E-02 0.  1.
       -1   -1    0    0    0  501  0.00000000000E+00  0.00000000000E+00 -0.98198136252E+03  0.98198136253E+03  0.50400001928E-02 0. -1.
    10030    2    1    2    0    0  0.00000000000E+00  0.00000000000E+00  0.92783509577E+03  0.28917978208E+04  0.27389079341E+04 0.  0.
        3    1    3    3  502    0  0.67777273923E+01 -0.39471410106E+03 -0.92060181105E+03  0.10016750291E+04  0.10100000352E+00 0. -1.
       -3    1    3    3    0  502 -0.67777273923E+01  0.39471410106E+03  0.18484369068E+04  0.18901227917E+04  0.10100000352E+00 0.  1.
</event>
<event>
 5   0  0.2666813E-07  0.3916394E+04  0.7818609E-02  0.8021628E-01
        1   -1    0    0  501    0  0.00000000000E+00  0.00000000000E+00  0.18761522634E+04  0.18761522634E+04  0.50400001928E-02 0. -1.
       -1   -1    0    0    0  501  0.00000000000E+00  0.00000000000E+00 -0.20438299243E+04  0.20438299243E+04  0.50400001928E-02 0.  1.
    10030    2    1    2    0    0  0.00000000000E+00  0.00000000000E+00 -0.16767766099E+03  0.39199821877E+04  0.39163943308E+04 0.  0.
        1    1    3    3  502    0  0.16983326876E+03 -0.80689529910E+03 -0.18615889204E+04  0.20360345457E+04  0.50400001928E-02 0.  1.
       -1    1    3    3    0  502 -0.16983326876E+03  0.80689529910E+03  0.16939112594E+04  0.18839476420E+04  0.50400001928E-02 0. -1.
</event>
<event>
 5   0  0.1943459E-07  0.3863350E+04  0.7818609E-02  0.8032695E-01
        1   -1    0    0  501    0  0.00000000000E+00  0.00000000000E+00  0.20227061540E+04  0.20227061540E+04  0.50400001928E-02 0. -1.
       -1   -1    0    0    0  501  0.00000000000E+00  0.00000000000E+00 -0.18447403725E+04  0.18447403725E+04  0.50400001928E-02 0.  1.
    10030    2    1    2    0    0  0.00000000000E+00  0.00000000000E+00  0.17796578145E+03  0.38674465265E+04  0.38633496885E+04 0.  0.
        2    1    3    3  502    0  0.65177754234E+03  0.58630294822E+03 -0.16341217647E+04  0.18544322726E+04  0.25500000920E-02 0.  1.
       -2    1    3    3    0  502 -0.65177754234E+03 -0.58630294822E+03  0.18120875461E+04  0.20130142539E+04  0.25500000920E-02 0. -1.
</event>
<event>
 5   0  0.6095665E-07  0.3914378E+04  0.7818609E-02  0.8022046E-01
       -2   -1    0    0    0  501  0.00000000000E+00  0.00000000000E+00  0.16526117254E+04  0.16526117254E+04  0.25500000920E-02 0. -1.
        2   -1    0    0  501    0  0.00000000000E+00  0.00000000000E+00 -0.23178999299E+04  0.23178999299E+04  0.25500000920E-02 0.  1.
    10030    2    1    2    0    0  0.00000000000E+00  0.00000000000E+00 -0.66528820451E+03  0.39705116553E+04  0.39143779084E+04 0.  0.
        4    1    3    3  502    0  0.12700989543E+04 -0.13038394683E+04 -0.10622914351E+04  0.21075135632E+04  0.12699999809E+01 0.  1.
       -4    1    3    3    0  502 -0.12700989543E+04  0.13038394683E+04  0.39700323058E+03  0.18629980921E+04  0.12699999809E+01 0. -1.
</event>
<event>
 5   0  0.6095665E-07  0.3952225E+04  0.7818609E-02  0.8014254E-01
        2   -1    0    0  501    0  0.00000000000E+00  0.00000000000E+00  0.21857595178E+04  0.21857595178E+04  0.25500000920E-02 0. -1.
       -2   -1    0    0    0  501  0.00000000000E+00  0.00000000000E+00 -0.17865739610E+04  0.17865739610E+04  0.25500000920E-02 0.  1.
    10030    2    1    2    0    0  0.00000000000E+00  0.00000000000E+00  0.39918555684E+03  0.39723334788E+04  0.39522252160E+04 0.  0.
        4    1    3    3  502    0  0.59827080405E+03  0.75468097338E+03 -0.15347438998E+04  0.18118807293E+04  0.12699999809E+01 0.  1.
       -4    1    3    3    0  502 -0.59827080405E+03 -0.75468097338E+03  0.19339294566E+04  0.21604527494E+04  0.12699999809E+01 0. -1.
</event>
<event>
 5   0  0.1860500E-07  0.3744692E+04  0.7818609E-02  0.8058129E-01
       -1   -1    0    0    0  501  0.00000000000E+00  0.00000000000E+00  0.16471449306E+04  0.16471449307E+04  0.50400001928E-02 0. -1.
        1   -1    0    0  501    0  0.00000000000E+00  0.00000000000E+00 -0.21283371078E+04  0.21283371078E+04  0.50400001928E-02 0.  1.
    10030    2    1    2    0    0  0.00000000000E+00  0.00000000000E+00 -0.48119217712E+03  0.37754820384E+04  0.37446920716E+04 0.  0.
        5    1    3    3  502    0 -0.13085825435E+04 -0.11993296643E+04  0.36001816476E+03  0.18111916204E+04  0.46999998093E+01 0.  1.
       -5    1    3    3    0  502  0.13085825435E+04  0.11993296643E+04 -0.84121034189E+03  0.19642904180E+04  0.46999998093E+01 0. -1.
</event>
<event>
 5   0  0.6095665E-07  0.3828184E+04  0.7818609E-02  0.8040134E-01
       -2   -1    0    0    0  501  0.00000000000E+00  0.00000000000E+00  0.22218528443E+04  0.22218528443E+04  0.25500000920E-02 0.  1.
        2   -1    0    0  501    0  0.00000000000E+00  0.00000000000E+00 -0.16489611067E+04  0.16489611067E+04  0.25500000920E-02 0. -1.
    10030    2    1    2    0    0  0.00000000000E+00  0.00000000000E+00  0.57289173763E+03  0.38708139511E+04  0.38281843870E+04 0.  0.
        4    1    3    3  502    0 -0.10840659714E+04  0.73991688738E+03 -0.11222920093E+04  0.17269096669E+04  0.12699999809E+01 0. -1.
       -4    1    3    3    0  502  0.10840659714E+04 -0.73991688738E+03  0.16951837470E+04  0.21439042841E+04  0.12699999809E+01 0.  1.
</event>
<event>
 5   0  0.1876027E-07  0.3262260E+04  0.7818609E-02  0.8172565E-01
        1   -1    0    0  501    0  0.00000000000E+00  0.00000000000E+00  0.25450420933E+04  0.25450420933E+04  0.50400001928E-02 0. -1.
       -1   -1    0    0    0  501  0.00000000000E+00  0.00000000000E+00 -0.10453991203E+04  0.10453991203E+04  0.50400001928E-02 0.  1.
    10030    2    1    2    0    0  0.00000000000E+00  0.00000000000E+00  0.14996429730E+04  0.35904412136E+04  0.32622598091E+04 0.  0.
        3    1    3    3  502    0 -0.13321648293E+04  0.36133696002E+03 -0.20672365086E+03  0.13956941675E+04  0.10100000352E+00 0.  1.
       -3    1    3    3    0  502  0.13321648293E+04 -0.36133696002E+03  0.17063666239E+04  0.21947470461E+04  0.10100000352E+00 0. -1.
</event>
<event>
 5   0  0.1860500E-07  0.3918958E+04  0.7818609E-02  0.8021098E-01
        1   -1    0    0  501    0  0.00000000000E+00  0.00000000000E+00  0.11412553753E+04  0.11412553753E+04  0.50400001928E-02 0.  1.
       -1   -1    0    0    0  501  0.00000000000E+00  0.00000000000E+00 -0.33643278993E+04  0.33643278993E+04  0.50400001928E-02 0. -1.
    10030    2    1    2    0    0  0.00000000000E+00  0.00000000000E+00 -0.22230725240E+04  0.45055832747E+04  0.39189576673E+04 0.  0.
        5    1    3    3  502    0  0.31312241854E+03 -0.89530986068E+03  0.85973982084E+03  0.12801562581E+04  0.46999998093E+01 0.  1.
       -5    1    3    3    0  502 -0.31312241854E+03  0.89530986068E+03 -0.30828123448E+04  0.32254270166E+04  0.46999998093E+01 0. -1.
</event>
<event>
 5   0  0.1860500E-07  0.3904307E+04  0.7818609E-02  0.8024134E-01
       -1   -1    0    0    0  501  0.00000000000E+00  0.00000000000E+00  0.16671287773E+04  0.16671287773E+04  0.50400001928E-02 0.  1.
        1   -1    0    0  501    0  0.00000000000E+00  0.00000000000E+00 -0.22859082353E+04  0.22859082353E+04  0.50400001928E-02 0. -1.
    10030    2    1    2    0    0  0.00000000000E+00  0.00000000000E+00 -0.61877945803E+03  0.39530370127E+04  0.39043070583E+04 0.  0.
        5    1    3    3  502    0  0.15823744510E+04  0.31308245511E+03  0.80385694207E+03  0.18022590270E+04  0.46999998093E+01 0.  1.
       -5    1    3    3    0  502 -0.15823744510E+04 -0.31308245511E+03 -0.14226364001E+04  0.21507779857E+04  0.46999998093E+01 0. -1.
</event>
<event>
 5   0  0.5735179E-07  0.3951027E+04  0.7818609E-02  0.8014499E-01
       -2   -1    0    0    0  501  0.00000000000E+00  0.00000000000E+00  0.17092147574E+04  0.17092147574E+04  0.25500000920E-02 0.  1.
        2   -1    0    0  501    0  0.00000000000E+00  0.00000000000E+00 -0.22833024988E+04  0.22833024988E+04  0.25500000920E-02 0. -1.
    10030    2    1    2    0    0  0.00000000000E+00  0.00000000000E+00 -0.57408774143E+03  0.39925172562E+04  0.39510273735E+04 0.  0.
        5    1    3    3  502    0  0.11266733104E+04 -0.46912588455E+02 -0.19261247392E+04  0.22319435791E+04  0.46999998093E+01 0. -1.
       -5    1    3    3    0  502 -0.11266733104E+04  0.46912588455E+02  0.13520369977E+04  0.17605736771E+04  0.46999998093E+01 0.  1.
</event>
<event>
 5   0  0.5735179E-07  0.3850077E+04  0.7818609E-02  0.8035493E-01
       -2   -1    0    0    0  501  0.00000000000E+00  0.00000000000E+00  0.16420328629E+04  0.16420328629E+04  0.25500000920E-02 0.  1.
        2   -1    0    0  501    0  0.00000000000E+00  0.00000000000E+00 -0.22568200601E+04  0.22568200601E+04  0.25500000920E-02 0. -1.
    10030    2    1    2    0    0  0.00000000000E+00  0.00000000000E+00 -0.61478719729E+03  0.38988529230E+04  0.38500767287E+04 0.  0.
        5    1    3    3  502    0 -0.87324398169E+03 -0.14382209327E+04  0.63971772879E+03  0.18000820440E+04  0.46999998093E+01 0. -1.
       -5    1    3    3    0  502  0.87324398169E+03  0.14382209327E+04 -0.12545049261E+04  0.20987708790E+04  0.46999998093E+01 0.  1.
</event>
<event>
 5   0  0.3959190E-07  0.4108108E+04  0.7818609E-02  0.7983086E-01
       -2   -1    0    0    0  501  0.00000000000E+00  0.00000000000E+00  0.22792994116E+04  0.22792994116E+04  0.25500000920E-02 0.  1.
        2   -1    0    0  501    0  0.00000000000E+00  0.00000000000E+00 -0.18510681267E+04  0.18510681267E+04  0.25500000920E-02 0. -1.
    10030    2    1    2    0    0  0.00000000000E+00  0.00000000000E+00  0.42823128489E+03  0.41303675383E+04  0.41081083199E+04 0.  0.
        2    1    3    3  502    0 -0.12923053538E+04  0.46249846421E+03 -0.13222940686E+04  0.19058907526E+04  0.25500000920E-02 0. -1.
       -2    1    3    3    0  502  0.12923053538E+04 -0.46249846421E+03  0.17505253535E+04  0.22244767857E+04  0.25500000920E-02 0.  1.
</event>
<event>
 5   0  0.2666813E-07  0.3900931E+04  0.7818609E-02  0.8024836E-01
        1   -1    0    0  501    0  0.00000000000E+00  0.00000000000E+00  0.10900316643E+04  0.10900316643E+04  0.50400001928E-02 0. -1.
       -1   -1    0    0    0  501  0.00000000000E+00  0.00000000000E+00 -0.34900957276E+04  0.34900957276E+04  0.50400001928E-02 0.  1.
    10030    2    1    2    0    0  0.00000000000E+00  0.00000000000E+00 -0.24000640633E+04  0.45801273919E+04  0.39009305837E+04 0.  0.
        1    1    3    3  502    0 -0.12763870035E+04 -0.11236830257E+04 -0.23215927869E+04  0.28777804631E+04  0.50400001928E-02 0.  1.
       -1    1    3    3    0  502  0.12763870035E+04  0.11236830257E+04 -0.78471276325E+02  0.17023469289E+04  0.50400001928E-02 0. -1.
</event>
<event>
 5   0  0.5735179E-07  0.4001758E+04  0.7818609E-02  0.8004192E-01
        2   -1    0    0  501    0  0.00000000000E+00  0.00000000000E+00  0.30489059444E+04  0.30489059444E+04  0.25500000920E-02 0.  1.
       -2   -1    0    0    0  501  0.00000000000E+00  0.00000000000E+00 -0.13130992446E+04  0.13130992446E+04  0.25500000920E-02 0. -1.
    10030    2    1    2    0    0  0.00000000000E+00  0.00000000000E+00  0.17358066998E+04  0.43620051890E+04  0.40017576601E+04 0.  0.
        5    1    3    3  502    0 -0.40206145397E+03  0.10101088415E+04 -0.96304888492E+03  0.14523975107E+04  0.46999998093E+01 0. -1.
       -5    1    3    3    0  502  0.40206145397E+03 -0.10101088415E+04  0.26988555848E+04  0.29096076783E+04  0.46999998093E+01 0.  1.
</event>
<event>
 5   0  0.1860500E-07  0.3838199E+04  0.7818609E-02  0.8038007E-01
       -1   -1    0    0    0  501  0.00000000000E+00  0.00000000000E+00  0.19657439250E+04  0.19657439250E+04  0.50400001928E-02 0. -1.
        1   -1    0    0  501    0  0.00000000000E+00  0.00000000000E+00 -0.18735619031E+04  0.18735619031E+04  0.50400001928E-02 0.  1.
    10030    2    1    2    0    0  0.00000000000E+00  0.00000000000E+00  0.92182021892E+02  0.38393058281E+04  0.38381990199E+04 0.  0.
        5    1    3    3  502    0  0.11835858648E+04  0.14346888279E+04  0.51921081431E+03  0.19310125561E+04  0.46999998093E+01 0.  1.
       -5    1    3    3    0  502 -0.11835858648E+04 -0.14346888279E+04 -0.42702879241E+03  0.19082932720E+04  0.46999998093E+01 0. -1.
</event>
<event>
 5   0  0.5872444E-07  0.3897434E+04  0.7818609E-02  0.8025563E-01
        2   -1    0    0  501    0  0.00000000000E+00  0.00000000000E+00  0.12702915852E+04  0.12702915852E+04  0.25500000920E-02 0.  1.
       -2   -1    0    0    0  501  0.00000000000E+00  0.00000000000E+00 -0.29894702222E+04  0.29894702222E+04  0.25500000920E-02 0. -1.
    10030    2    1    2    0    0  0.00000000000E+00  0.00000000000E+00 -0.17191786370E+04  0.42597618073E+04  0.38974344727E+04 0.  0.
        3    1    3    3  502    0  0.67140402906E+03  0.15772496695E+04 -0.18725738509E+04  0.25387069006E+04  0.10100000352E+00 0. -1.
       -3    1    3    3    0  502 -0.67140402906E+03 -0.15772496695E+04  0.15339521387E+03  0.17210549067E+04  0.10100000352E+00 0.  1.
</event>
<event>
 5   0  0.5872444E-07  0.3293225E+04  0.7818609E-02  0.8164622E-01
        2   -1    0    0  501    0  0.00000000000E+00  0.00000000000E+00  0.25834285434E+04  0.25834285434E+04  0.25500000920E-02 0.  1.
       -2   -1    0    0    0  501  0.00000000000E+00  0.00000000000E+00 -0.10495092380E+04  0.10495092380E+04  0.25500000920E-02 0. -1.
    10030    2    1    2    0    0  0.00000000000E+00  0.00000000000E+00  0.15339193054E+04  0.36329377815E+04  0.32932246338E+04 0.  0.
        3    1    3    3  502    0 -0.15731195524E+03 -0.11149831770E+04 -0.55838732035E+03  0.12568734805E+04  0.10100000352E+00 0. -1.
       -3    1    3    3    0  502  0.15731195524E+03  0.11149831770E+04  0.20923066258E+04  0.23760643010E+04  0.10100000352E+00 0.  1.
</event>
<event>
 5   0  0.1860500E-07  0.3849071E+04  0.7818609E-02  0.8035706E-01
       -1   -1    0    0    0  501  0.00000000000E+00  0.00000000000E+00  0.22750791506E+04  0.22750791506E+04  0.50400001928E-02 0. -1.
        1   -1    0    0  501    0  0.00000000000E+00  0.00000000000E+00 -0.16280033134E+04  0.16280033134E+04  0.50400001928E-02 0.  1.
    10030    2    1    2    0    0  0.00000000000E+00  0.00000000000E+00  0.64707583720E+03  0.39030824640E+04  0.38490707426E+04 0.  0.
        4    1    3    3  502    0 -0.46676323787E+03  0.28785147080E+03 -0.15470999639E+04  0.16414159438E+04  0.12699999809E+01 0.  1.
       -4    1    3    3    0  502  0.46676323787E+03 -0.28785147080E+03  0.21941758011E+04  0.22616665202E+04  0.12699999809E+01 0. -1.
</event>
<event>
 5   0  0.5872444E-07  0.2472274E+04  0.7818609E-02  0.8412930E-01
       -2   -1    0    0    0  501  0.00000000000E+00  0.00000000000E+00  0.78571902556E+03  0.78571902556E+03  0.25500000920E-02 0. -1.
        2   -1    0    0  501    0  0.00000000000E+00  0.00000000000E+00 -0.19447591463E+04  0.19447591463E+04  0.25500000920E-02 0.  1.
    10030    2    1    2    0    0  0.00000000000E+00  0.00000000000E+00 -0.11590401207E+04  0.27304781719E+04  0.24722736591E+04 0.  0.
        3    1    3    3  502    0 -0.50989591590E+02  0.10104593696E+04 -0.13639106318E+04  0.16981991337E+04  0.10100000352E+00 0.  1.
       -3    1    3    3    0  502  0.50989591590E+02 -0.10104593696E+04  0.20487051104E+03  0.10322790381E+04  0.10100000352E+00 0. -1.
</event>
<event>
 5   0  0.3959190E-07  0.3929005E+04  0.7818609E-02  0.8019024E-01
        2   -1    0    0  501    0  0.00000000000E+00  0.00000000000E+00  0.26385739709E+04  0.26385739709E+04  0.25500000920E-02 0. -1.
       -2   -1    0    0    0  501  0.00000000000E+00  0.00000000000E+00 -0.14626347792E+04  0.14626347792E+04  0.25500000920E-02 0.  1.
    10030    2    1    2    0    0  0.00000000000E+00  0.00000000000E+00  0.11759391917E+04  0.41012087501E+04  0.39290049923E+04 0.  0.
        2    1    3    3  502    0 -0.87581213770E+03  0.50313976950E+03  0.23467742852E+04  0.25549062750E+04  0.25500000920E-02 0. -1.
       -2    1    3    3    0  502  0.87581213770E+03 -0.50313976950E+03 -0.11708350936E+04  0.15463024751E+04  0.25500000920E-02 0.  1.
</event>
<event>
 5   0  0.6095665E-07  0.3841487E+04  0.7818609E-02  0.8037310E-01
       -2   -1    0    0    0  501  0.00000000000E+00  0.00000000000E+00  0.13247739902E+04  0.13247739902E+04  0.25500000920E-02 0. -1.
        2   -1    0    0  501    0  0.00000000000E+00  0.00000000000E+00 -0.27848191704E+04  0.27848191704E+04  0.25500000920E-02 0.  1.
    10030    2    1    2    0    0  0.00000000000E+00  0.00000000000E+00 -0.14600451803E+04  0.41095931606E+04  0.38414872143E+04 0.  0.
        4    1    3    3  502    0  0.69891414952E+03  0.47000513537E+03 -0.25767295802E+04  0.27108896618E+04  0.12699999809E+01 0.  1.
       -4    1    3    3    0  502 -0.69891414952E+03 -0.47000513537E+03  0.11166844000E+04  0.13987034989E+04  0.12699999809E+01 0. -1.
</event>
<event>
 5   0  0.5872444E-07  0.3878703E+04  0.7818609E-02  0.8029473E-01
        2   -1    0    0  501    0  0.00000000000E+00  0.00000000000E+00  0.20874579119E+04  0.20874579119E+04  0.25500000920E-02 0. -1.
       -2   -1    0    0    0  501  0.00000000000E+00  0.00000000000E+00 -0.18017531872E+04  0.18017531872E+04  0.25500000920E-02 0.  1.
    10030    2    1    2    0    0  0.00000000000E+00  0.00000000000E+00  0.28570472466E+03  0.38892110991E+04  0.38787028481E+04 0.  0.
        3    1    3    3  502    0  0.14017996553E+04 -0.11243251462E+04 -0.58846206102E+03  0.18908825758E+04  0.10100000352E+00 0. -1.
       -3    1    3    3    0  502 -0.14017996553E+04  0.11243251462E+04  0.87416678568E+03  0.19983285234E+04  0.10100000352E+00 0.  1.
</event>
<event>
 5   0  0.5805753E-07  0.2463481E+04  0.7818609E-02  0.8416112E-01
        2   -1    0    0  501    0  0.00000000000E+00  0.00000000000E+00  0.21510869929E+04  0.21510869929E+04  0.25500000920E-02 0. -1.
       -2   -1    0    0    0  501  0.00000000000E+00  0.00000000000E+00 -0.70531041564E+03  0.70531041564E+03  0.25500000920E-02 0.  1.
    10030    2    1    2    0    0  0.00000000000E+00  0.00000000000E+00  0.14457765772E+04  0.28563974085E+04  0.24634805142E+04 0.  0.
        1    1    3    3  502    0  0.11509362173E+04 -0.38328999867E+03  0.97053967804E+03  0.15535484112E+04  0.50400001928E-02 0. -1.
       -1    1    3    3    0  502 -0.11509362173E+04  0.38328999867E+03  0.47523689918E+03  0.13028489973E+04  0.50400001928E-02 0.  1.
</event>
<event>
 5   0  0.6095665E-07  0.3957257E+04  0.7818609E-02  0.8013225E-01
        2   -1    0    0  501    0  0.00000000000E+00  0.00000000000E+00  0.13039580743E+04  0.13039580743E+04  0.25500000920E-02 0. -1.
       -2   -1    0    0    0  501  0.00000000000E+00  0.00000000000E+00 -0.30023739640E+04  0.30023739640E+04  0.25500000920E-02 0.  1.
    10030    2    1    2    0    0  0.00000000000E+00  0.00000000000E+00 -0.16984158897E+04  0.43063320383E+04  0.39572565104E+04 0.  0.
        4    1    3    3  502    0  0.17226641375E+04  0.45043638871E+03 -0.17881670532E+04  0.25234911718E+04  0.12699999809E+01 0.  1.
       -4    1    3    3    0  502 -0.17226641375E+04 -0.45043638871E+03  0.89751163453E+02  0.17828408665E+04  0.12699999809E+01 0. -1.
</event>
<event>
 5   0  0.2666813E-07  0.3911434E+04  0.7818609E-02  0.8022655E-01
        1   -1    0    0  501    0  0.00000000000E+00  0.00000000000E+00  0.14874981723E+04  0.14874981723E+04  0.50400001928E-02 0. -1.
       -1   -1    0    0    0  501  0.00000000000E+00  0.00000000000E+00 -0.25713168678E+04  0.25713168678E+04  0.50400001928E-02 0.  1.
    10030    2    1    2    0    0  0.00000000000E+00  0.00000000000E+00 -0.10838186955E+04  0.40588150401E+04  0.39114340804E+04 0.  0.
        1    1    3    3  502    0  0.14798597797E+04 -0.10785679478E+03  0.78014937387E+03  0.16763803570E+04  0.50400001928E-02 0. -1.
       -1    1    3    3    0  502 -0.14798597797E+04  0.10785679478E+03 -0.18639680693E+04  0.23824346831E+04  0.50400001928E-02 0.  1.
</event>
<event>
 5   0  0.5735179E-07  0.3574754E+04  0.7818609E-02  0.8096299E-01
       -2   -1    0    0    0  501  0.00000000000E+00  0.00000000000E+00  0.18669966147E+04  0.18669966147E+04  0.25500000920E-02 0.  1.
        2   -1    0    0  501    0  0.00000000000E+00  0.00000000000E+00 -0.17111524930E+04  0.17111524930E+04  0.25500000920E-02 0. -1.
    10030    2    1    2    0    0  0.00000000000E+00  0.00000000000E+00  0.15584412175E+03  0.35781491077E+04  0.35747536484E+04 0.  0.
        5    1    3    3  502    0  0.41202119617E+03 -0.17348763507E+04  0.20106901135E+03  0.17944381449E+04  0.46999998093E+01 0.  1.
       -5    1    3    3    0  502 -0.41202119617E+03  0.17348763507E+04 -0.45224889598E+02  0.17837109629E+04  0.46999998093E+01 0. -1.
</event>
<event>
 5   0  0.6095665E-07  0.3563485E+04  0.7818609E-02  0.8098907E-01
       -2   -1    0    0    0  501  0.00000000000E+00  0.00000000000E+00  0.17872043164E+04  0.17872043164E+04  0.25500000920E-02 0.  1.
        2   -1    0    0  501    0  0.00000000000E+00  0.00000000000E+00 -0.17762975040E+04  0.17762975040E+04  0.25500000920E-02 0. -1.
    10030    2    1    2    0    0  0.00000000000E+00  0.00000000000E+00  0.10906812428E+02  0.35635018204E+04  0.35634851291E+04 0.  0.
        4    1    3    3  502    0 -0.18384589042E+03 -0.77057221109E+02  0.17760174954E+04  0.17871700769E+04  0.12699999809E+01 0.  1.
       -4    1    3    3    0  502  0.18384589042E+03  0.77057221109E+02 -0.17651106830E+04  0.17763317435E+04  0.12699999809E+01 0. -1.
</event>
<event>
 5   0  0.1860500E-07  0.3891010E+04  0.7818609E-02  0.8026902E-01
        1   -1    0    0  501    0  0.00000000000E+00  0.00000000000E+00  0.16549041477E+04  0.16549041477E+04  0.50400001928E-02 0.  1.
       -1   -1    0    0    0  501  0.00000000000E+00  0.00000000000E+00 -0.22871355240E+04  0.22871355240E+04  0.50400001928E-02 0. -1.
    10030    2    1    2    0    0  0.00000000000E+00  0.00000000000E+00 -0.63223137623E+03  0.39420396717E+04  0.38910101851E+04 0.  0.
        5    1    3    3  502    0 -0.72927932429E+03  0.18036404369E+04 -0.31703126419E+03  0.19711666776E+04  0.46999998093E+01 0.  1.
       -5    1    3    3    0  502  0.72927932429E+03 -0.18036404369E+04 -0.31520011204E+03  0.19708729941E+04  0.46999998093E+01 0. -1.
</event>
<event>
 5   0  0.5872444E-07  0.3967465E+04  0.7818609E-02  0.8011142E-01
        2   -1    0    0  501    0  0.00000000000E+00  0.00000000000E+00  0.14628975737E+04  0.14628975737E+04  0.25500000920E-02 0.  1.
       -2   -1    0    0    0  501  0.00000000000E+00  0.00000000000E+00 -0.26900006900E+04  0.26900006900E+04  0.25500000920E-02 0. -1.
    10030    2    1    2    0    0  0.00000000000E+00  0.00000000000E+00 -0.12271031162E+04  0.41528982637E+04  0.39674654290E+04 0.  0.
        3    1    3    3  502    0  0.12963357411E+04 -0.11352825534E+04  0.41515457436E+03  0.17724858703E+04  0.10100000352E+00 0.  1.
       -3    1    3    3    0  502 -0.12963357411E+04  0.11352825534E+04 -0.16422576906E+04  0.23804123933E+04  0.10100000352E+00 0. -1.
</event>
<event>
 5   0  0.1876027E-07  0.3855533E+04  0.7818609E-02  0.8034342E-01
       -1   -1    0    0    0  501  0.00000000000E+00  0.00000000000E+00  0.16650424212E+04  0.16650424212E+04  0.50400001928E-02 0.  1.
        1   -1    0    0  501    0  0.00000000000E+00  0.00000000000E+00 -0.22319449499E+04  0.22319449499E+04  0.50400001928E-02 0. -1.
    10030    2    1    2    0    0  0.00000000000E+00  0.00000000000E+00 -0.56690252867E+03  0.38969873710E+04  0.38555326601E+04 0.  0.
        3    1    3    3  502    0 -0.99020066375E+03 -0.16295152695E+04 -0.57016589869E+03  0.19902026355E+04  0.10100000352E+00 0.  1.
       -3    1    3    3    0  502  0.99020066375E+03  0.16295152695E+04  0.32633700136E+01  0.19067847356E+04  0.10100000352E+00 0. -1.
</event>
<event>
 5   0  0.3959190E-07  0.3893127E+04  0.7818609E-02  0.8026460E-01
        2   -1    0    0  501    0  0.00000000000E+00  0.00000000000E+00  0.20318459629E+04  0.20318459629E+04  0.25500000920E-02 0. -1.
       -2   -1    0    0    0  501  0.00000000000E+00  0.00000000000E+00 -0.18648609761E+04  0.18648609761E+04  0.25500000920E-02 0.  1.
    10030    2    1    2    0    0  0.00000000000E+00  0.00000000000E+00  0.16698498675E+03  0.38967069390E+04  0.38931274039E+04 0.  0.
        2    1    3    3  502    0 -0.84894388839E+03 -0.17421228626E+04  0.26645129222E+03  0.19561937749E+04  0.25500000920E-02 0.  1.
       -2    1    3    3    0  502  0.84894388839E+03  0.17421228626E+04 -0.99466305464E+02  0.19405131641E+04  0.25500000920E-02 0. -1.
</event>
<event>
 5   0  0.1860500E-07  0.3634807E+04  0.7818609E-02  0.8082565E-01
       -1   -1    0    0    0  501  0.00000000000E+00  0.00000000000E+00  0.13007459804E+04  0.13007459805E+04  0.50400001928E-02 0. -1.
        1   -1    0    0  501    0  0.00000000000E+00  0.00000000000E+00 -0.25392778039E+04  0.25392778039E+04  0.50400001928E-02 0.  1.
    10030    2    1    2    0    0  0.00000000000E+00  0.00000000000E+00 -0.12385318235E+04  0.38400237844E+04  0.36348069532E+04 0.  0.
        4    1    3    3  502    0  0.99875668632E+03  0.11442212306E+04 -0.16737137496E+04  0.22601054116E+04  0.12699999809E+01 0.  1.
       -4    1    3    3    0  502 -0.99875668632E+03 -0.11442212306E+04  0.43518192608E+03  0.15799183728E+04  0.12699999809E+01 0. -1.
</event>
<event>
 5   0  0.1860500E-07  0.3916411E+04  0.7818609E-02  0.8021625E-01
       -1   -1    0    0    0  501  0.00000000000E+00  0.00000000000E+00  0.21906212610E+04  0.21906212610E+04  0.50400001928E-02 0.  1.
        1   -1    0    0  501    0  0.00000000000E+00  0.00000000000E+00 -0.17504476643E+04  0.17504476643E+04  0.50400001928E-02 0. -1.
    10030    2    1    2    0    0  0.00000000000E+00  0.00000000000E+00  0.44017359671E+03  0.39410689252E+04  0.39164105349E+04 0.  0.
        5    1    3    3  502    0  0.19412684947E+03 -0.18765114957E+04  0.74833492821E+03  0.20295339076E+04  0.46999998093E+01 0.  1.
       -5    1    3    3    0  502 -0.19412684947E+03  0.18765114957E+04 -0.30816133149E+03  0.19115350176E+04  0.46999998093E+01 0. -1.
</event>
<event>
 5   0  0.2666813E-07  0.3856085E+04  0.7818609E-02  0.8034225E-01
       -1   -1    0    0    0  501  0.00000000000E+00  0.00000000000E+00  0.27914806839E+04  0.27914806839E+04  0.50400001928E-02 0. -1.
        1   -1    0    0  501    0  0.00000000000E+00  0.00000000000E+00 -0.13316758298E+04  0.13316758298E+04  0.50400001928E-02 0.  1.
    10030    2    1    2    0    0  0.00000000000E+00  0.00000000000E+00  0.14598048542E+04  0.41231565137E+04  0.38560847273E+04 0.  0.
        1    1    3    3  502    0  0.13552393291E+04  0.13140112950E+04  0.31022913435E+03  0.19129927962E+04  0.50400001928E-02 0.  1.
       -1    1    3    3    0  502 -0.13552393291E+04 -0.13140112950E+04  0.11495757198E+04  0.22101637175E+04  0.50400001928E-02 0. -1.
</event>
<event>
 5   0  0.1943459E-07  0.3878692E+04  0.7818609E-02  0.8029475E-01
       -1   -1    0    0    0  501  0.00000000000E+00  0.00000000000E+00  0.17526161565E+04  0.17526161565E+04  0.50400001928E-02 0. -1.
        1   -1    0    0  501    0  0.00000000000E+00  0.00000000000E+00 -0.21459707509E+04  0.21459707509E+04  0.50400001928E-02 0.  1.
    10030    2    1    2    0    0  0.00000000000E+00  0.00000000000E+00 -0.39335459445E+03  0.38985869074E+04  0.38786920524E+04 0.  0.
        2    1    3    3  502    0 -0.12789894850E+04  0.54703867726E+03  0.11615486409E+04  0.18122529245E+04  0.25500000920E-02 0. -1.
       -2    1    3    3    0  502  0.12789894850E+04 -0.54703867726E+03 -0.15549032353E+04  0.20863339829E+04  0.25500000920E-02 0.  1.
</event>
<event>
 5   0  0.5805753E-07  0.3971404E+04  0.7818609E-02  0.8010340E-01
        2   -1    0    0  501    0  0.00000000000E+00  0.00000000000E+00  0.24758502578E+04  0.24758502578E+04  0.25500000920E-02 0. -1.
       -2   -1    0    0    0  501  0.00000000000E+00  0.00000000000E+00 -0.15925893017E+04  0.15925893017E+04  0.25500000920E-02 0.  1.
    10030    2    1    2    0    0  0.00000000000E+00  0.00000000000E+00  0.88326095612E+03  0.40684395595E+04  0.39714041009E+04 0.  0.
        1    1    3    3  502    0 -0.68728932056E+03 -0.18565447637E+04  0.28329810644E+03  0.19998457157E+04  0.50400001928E-02 0.  1.
       -1    1    3    3    0  502  0.68728932056E+03  0.18565447637E+04  0.59996284968E+03  0.20685938438E+04  0.50400001928E-02 0. -1.
</event>
<event>
 5   0  0.6095665E-07  0.3853323E+04  0.7818609E-02  0.8034808E-01
        2   -1    0    0  501    0  0.00000000000E+00  0.00000000000E+00  0.19971112568E+04  0.19971112568E+04  0.25500000920E-02 0. -1.
       -2   -1    0    0    0  501  0.00000000000E+00  0.00000000000E+00 -0.18586973090E+04  0.18586973090E+04  0.25500000920E-02 0.  1.
    10030    2    1    2    0    0  0.00000000000E+00  0.00000000000E+00  0.13841394779E+03  0.38558085659E+04  0.38533234066E+04 0.  0.
        4    1    3    3  502    0 -0.67223856755E+03 -0.94678264663E+03  0.16076384904E+04  0.19831301522E+04  0.12699999809E+01 0. -1.
       -4    1    3    3    0  502  0.67223856755E+03  0.94678264663E+03 -0.14692245426E+04  0.18726784137E+04  0.12699999809E+01 0.  1.
</event>
<event>
 5   0  0.5735179E-07  0.3785927E+04  0.7818609E-02  0.8049182E-01
        2   -1    0    0  501    0  0.00000000000E+00  0.00000000000E+00  0.24293400971E+04  0.24293400971E+04  0.25500000920E-02 0.  1.
       -2   -1    0    0    0  501  0.00000000000E+00  0.00000000000E+00 -0.14750142644E+04  0.14750142644E+04  0.25500000920E-02 0. -1.
    10030    2    1    2    0    0  0.00000000000E+00  0.00000000000E+00  0.95432583268E+03  0.39043543615E+04  0.37859272556E+04 0.  0.
        5    1    3    3  502    0 -0.63326686875E+03 -0.12583110901E+03 -0.13579459219E+04  0.15036288145E+04  0.46999998093E+01 0. -1.
       -5    1    3    3    0  502  0.63326686875E+03  0.12583110901E+03  0.23122717545E+04  0.24007255470E+04  0.46999998093E+01 0.  1.
</event>
<event>
 5   0  0.1943459E-07  0.2779143E+04  0.7818609E-02  0.8309773E-01
       -1   -1    0    0    0  501  0.00000000000E+00  0.00000000000E+00  0.11354627072E+04  0.11354627072E+04  0.50400001928E-02 0.  1.
        1   -1    0    0  501    0  0.00000000000E+00  0.00000000000E+00 -0.17005480245E+04  0.17005480245E+04  0.50400001928E-02 0. -1.
    10030    2    1    2    0    0  0.00000000000E+00  0.00000000000E+00 -0.56508531735E+03  0.28360107318E+04  0.27791429353E+04 0.  0.
        2    1    3    3  502    0  0.44770116801E+03 -0.36203343423E+03  0.10080111552E+04  0.11608578864E+04  0.25500000920E-02 0.  1.
       -2    1    3    3    0  502 -0.44770116801E+03  0.36203343423E+03 -0.15730964726E+04  0.16751528454E+04  0.25500000920E-02 0. -1.
</event>
<event>
 5   0  0.1876027E-07  0.3962486E+04  0.7818609E-02  0.8012157E-01
        1   -1    0    0  501    0  0.00000000000E+00  0.00000000000E+00  0.19831971434E+04  0.19831971434E+04  0.50400001928E-02 0. -1.
       -1   -1    0    0    0  501  0.00000000000E+00  0.00000000000E+00 -0.19792910673E+04  0.19792910673E+04  0.50400001928E-02 0.  1.
    10030    2    1    2    0    0  0.00000000000E+00  0.00000000000E+00  0.39060760428E+01  0.39624882107E+04  0.39624862855E+04 0.  0.
        3    1    3    3  502    0 -0.48801641313E+03  0.75831681773E+03  0.17660740625E+04  0.19829831114E+04  0.10100000352E+00 0. -1.
       -3    1    3    3    0  502  0.48801641313E+03 -0.75831681773E+03 -0.17621679865E+04  0.19795050993E+04  0.10100000352E+00 0.  1.
</event>
<event>
 5   0  0.1860500E-07  0.3741329E+04  0.7818609E-02  0.8058864E-01
        1   -1    0    0  501    0  0.00000000000E+00  0.00000000000E+00  0.18743064312E+04  0.18743064312E+04  0.50400001928E-02 0.  1.
       -1   -1    0    0    0  501  0.00000000000E+00  0.00000000000E+00 -0.18670300207E+04  0.18670300207E+04  0.50400001928E-02 0. -1.
    10030    2    1    2    0    0  0.00000000000E+00  0.00000000000E+00  0.72764104550E+01  0.37413364519E+04  0.37413293761E+04 0.  0.
        4    1    3    3  502    0 -0.38560010968E+03  0.59235908194E+03 -0.17283604618E+04  0.18672997149E+04  0.12699999809E+01 0. -1.
       -4    1    3    3    0  502  0.38560010968E+03 -0.59235908194E+03  0.17356368722E+04  0.18740367370E+04  0.12699999809E+01 0.  1.
</event>
<event>
 5   0  0.3959190E-07  0.3922397E+04  0.7818609E-02  0.8020387E-01
        2   -1    0    0  501    0  0.00000000000E+00  0.00000000000E+00  0.21430879997E+04  0.21430879997E+04  0.25500000920E-02 0. -1.
       -2   -1    0    0    0  501  0.00000000000E+00  0.00000000000E+00 -0.17947467953E+04  0.17947467953E+04  0.25500000920E-02 0.  1.
    10030    2    1    2    0    0  0.00000000000E+00  0.00000000000E+00  0.34834120438E+03  0.39378347951E+04  0.39223973892E+04 0.  0.
        2    1    3    3  502    0 -0.17874378600E+03 -0.84046397252E+03 -0.15957117551E+04  0.18123534521E+04  0.25500000920E-02 0.  1.
       -2    1    3    3    0  502  0.17874378600E+03  0.84046397252E+03  0.19440529594E+04  0.21254813429E+04  0.25500000920E-02 0. -1.
</event>
<event>
 5   0  0.5805753E-07  0.3529704E+04  0.7818609E-02  0.8106786E-01
        2   -1    0    0  501    0  0.00000000000E+00  0.00000000000E+00  0.23367359484E+04  0.23367359484E+04  0.25500000920E-02 0. -1.
       -2   -1    0    0    0  501  0.00000000000E+00  0.00000000000E+00 -0.13329284732E+04  0.13329284732E+04  0.25500000920E-02 0.  1.
    10030    2    1    2    0    0  0.00000000000E+00  0.00000000000E+00  0.10038074752E+04  0.36696644216E+04  0.35297036023E+04 0.  0.
        1    1    3    3  502    0 -0.14528046264E+03  0.30342984479E+03  0.23030921870E+04  0.23275329654E+04  0.50400001928E-02 0. -1.
       -1    1    3    3    0  502  0.14528046264E+03 -0.30342984479E+03 -0.12992847117E+04  0.13421314562E+04  0.50400001928E-02 0.  1.
</event>
<event>
 5   0  0.2666813E-07  0.3906642E+04  0.7818609E-02  0.8023649E-01
        1   -1    0    0  501    0  0.00000000000E+00  0.00000000000E+00  0.11755067317E+04  0.11755067317E+04  0.50400001928E-02 0. -1.
       -1   -1    0    0    0  501  0.00000000000E+00  0.00000000000E+00 -0.32458030239E+04  0.32458030239E+04  0.50400001928E-02 0.  1.
    10030    2    1    2    0    0  0.00000000000E+00  0.00000000000E+00 -0.20702962922E+04  0.44213097555E+04  0.39066421921E+04 0.  0.
        1    1    3    3  502    0 -0.11193011698E+03  0.16962702929E+04  0.53680302332E+02  0.17008065242E+04  0.50400001928E-02 0. -1.
       -1    1    3    3    0  502  0.11193011698E+03 -0.16962702929E+04 -0.21239765945E+04  0.27205032314E+04  0.50400001928E-02 0.  1.
</event>
<event>
 5   0  0.3959190E-07  0.2419706E+04  0.7818609E-02  0.8432162E-01
       -2   -1    0    0    0  501  0.00000000000E+00  0.00000000000E+00  0.15716666322E+04  0.15716666322E+04  0.25500000920E-02 0. -1.
        2   -1    0    0  501    0  0.00000000000E+00  0.00000000000E+00 -0.93133277113E+03  0.93133277113E+03  0.25500000920E-02 0.  1.
    10030    2    1    2    0    0  0.00000000000E+00  0.00000000000E+00  0.64033386107E+03  0.25029994033E+04  0.24197062961E+04 0.  0.
        2    1    3    3  502    0  0.85657538155E+03 -0.83082691955E+03  0.11393019217E+03  0.11987388553E+04  0.25500000920E-02 0. -1.
       -2    1    3    3    0  502 -0.85657538155E+03  0.83082691955E+03  0.52640366890E+03  0.13042605480E+04  0.25500000920E-02 0.  1.
</event>
<event>
 5   0  0.1876027E-07  0.3873538E+04  0.7818609E-02  0.8030555E-01
        1   -1    0    0  501    0  0.00000000000E+00  0.00000000000E+00  0.15144252036E+04  0.15144252036E+04  0.50400001928E-02 0. -1.
       -1   -1    0    0    0  501  0.00000000000E+00  0.00000000000E+00 -0.24768958640E+04  0.24768958640E+04  0.50400001928E-02 0.  1.
    10030    2    1    2    0    0  0.00000000000E+00  0.00000000000E+00 -0.96247066043E+03  0.39913210676E+04  0.38735376715E+04 0.  0.
        3    1    3    3  502    0 -0.65879784431E+03  0.13435604625E+04 -0.17482189985E+04  0.23011820860E+04  0.10100000352E+00 0.  1.
       -3    1    3    3    0  502  0.65879784431E+03 -0.13435604625E+04  0.78574833805E+03  0.16901389816E+04  0.10100000352E+00 0. -1.
</event>
<event>
 5   0  0.5805753E-07  0.3756574E+04  0.7818609E-02  0.8055539E-01
       -2   -1    0    0    0  501  0.00000000000E+00  0.00000000000E+00  0.14612073876E+04  0.14612073876E+04  0.25500000920E-02 0. -1.
        2   -1    0    0  501    0  0.00000000000E+00  0.00000000000E+00 -0.24144152675E+04  0.24144152675E+04  0.25500000920E-02 0.  1.
    10030    2    1    2    0    0  0.00000000000E+00  0.00000000000E+00 -0.95320787997E+03  0.38756226551E+04  0.37565736652E+04 0.  0.
        1    1    3    3  502    0  0.62301800182E+03 -0.66612668497E+03  0.12174076809E+04  0.15211698303E+04  0.50400001928E-02 0. -1.
       -1    1    3    3    0  502 -0.62301800182E+03  0.66612668497E+03 -0.21706155609E+04  0.23544528248E+04  0.50400001928E-02 0.  1.
</event>
<event>
 5   0  0.1876027E-07  0.3029505E+04  0.7818609E-02  0.8235356E-01
       -1   -1    0    0    0  501  0.00000000000E+00  0.00000000000E+00  0.98156690569E+03  0.98156690571E+03  0.50400001928E-02 0. -1.
        1   -1    0    0  501    0  0.00000000000E+00  0.00000000000E+00 -0.23375630540E+04  0.23375630540E+04  0.50400001928E-02 0.  1.
    10030    2    1    2    0    0  0.00000000000E+00  0.00000000000E+00 -0.13559961483E+04  0.33191299598E+04  0.30295046023E+04 0.  0.
        3    1    3    3  502    0 -0.25721592530E+03  0.21774954906E+03  0.93997198175E+03  0.99856008083E+03  0.10100000352E+00 0. -1.
       -3    1    3    3    0  502  0.25721592530E+03 -0.21774954906E+03 -0.22959681301E+04  0.23205698789E+04  0.10100000352E+00 0.  1.
</event>
<event>
 5   0  0.5735179E-07  0.3225877E+04  0.7818609E-02  0.8182016E-01
        2   -1    0    0  501    0  0.00000000000E+00  0.00000000000E+00  0.24357093518E+04  0.24357093518E+04  0.25500000920E-02 0. -1.
       -2   -1    0    0    0  501  0.00000000000E+00  0.00000000000E+00 -0.10680954570E+04  0.10680954570E+04  0.25500000920E-02 0.  1.
    10030    2    1    2    0    0  0.00000000000E+00  0.00000000000E+00  0.13676138948E+04  0.35038048088E+04  0.32258766829E+04 0.  0.
        5    1    3    3  502    0 -0.99946786177E+03 -0.11824170930E+04  0.19262688942E+03  0.15601837703E+04  0.46999998093E+01 0.  1.
       -5    1    3    3    0  502  0.99946786177E+03  0.11824170930E+04  0.11749870054E+04  0.19436210385E+04  0.46999998093E+01 0. -1.
</event>
<event>
 5   0  0.5805753E-07  0.2914486E+04  0.7818609E-02  0.8268580E-01
        2   -1    0    0  501    0  0.00000000000E+00  0.00000000000E+00  0.14936796783E+04  0.14936796783E+04  0.25500000920E-02 0.  1.
       -2   -1    0    0    0  501  0.00000000000E+00  0.00000000000E+00 -0.14216955160E+04  0.14216955160E+04  0.25500000920E-02 0. -1.
    10030    2    1    2    0    0  0.00000000000E+00  0.00000000000E+00  0.71984162322E+02  0.29153751943E+04  0.29144863705E+04 0.  0.
        1    1    3    3  502    0 -0.40018558955E+03 -0.10856009505E+04  0.92219666804E+03  0.14795690671E+04  0.50400001928E-02 0.  1.
       -1    1    3    3    0  502  0.40018558955E+03  0.10856009505E+04 -0.85021250572E+03  0.14358061271E+04  0.50400001928E-02 0. -1.
</event>
<event>
 5   0  0.1943459E-07  0.3739953E+04  0.7818609E-02  0.8059165E-01
        1   -1    0    0  501    0  0.00000000000E+00  0.00000000000E+00  0.21794302215E+04  0.21794302215E+04  0.50400001928E-02 0. -1.
       -1   -1    0    0    0  501  0.00000000000E+00  0.00000000000E+00 -0.16044614953E+04  0.16044614953E+04  0.50400001928E-02 0.  1.
    10030    2    1    2    0    0  0.00000000000E+00  0.00000000000E+00  0.57496872623E+03  0.37838917168E+04  0.37399528725E+04 0.  0.
        2    1    3    3  502    0  0.10710413715E+03 -0.15047926807E+03  0.21701785784E+04  0.21780244188E+04  0.25500000920E-02 0. -1.
       -2    1    3    3    0  502 -0.10710413715E+03  0.15047926807E+03 -0.15952098522E+04  0.16058672981E+04  0.25500000920E-02 0.  1.
</event>
<event>
 5   0  0.3959190E-07  0.4147720E+04  0.7818609E-02  0.7975392E-01
        2   -1    0    0  501    0  0.00000000000E+00  0.00000000000E+00  0.15763506800E+04  0.15763506800E+04  0.25500000920E-02 0. -1.
       -2   -1    0    0    0  501  0.00000000000E+00  0.00000000000E+00 -0.27283874676E+04  0.27283874676E+04  0.25500000920E-02 0.  1.
    10030    2    1    2    0    0  0.00000000000E+00  0.00000000000E+00 -0.11520367877E+04  0.43047381476E+04  0.41477200676E+04 0.  0.
        2    1    3    3  502    0  0.12479148596E+03 -0.32682611603E+03  0.15455052647E+04  0.15846055498E+04  0.25500000920E-02 0. -1.
       -2    1    3    3    0  502 -0.12479148596E+03  0.32682611603E+03 -0.26975420524E+04  0.27201325978E+04  0.25500000920E-02 0.  1.
</event>
<event>
 5   0  0.6095665E-07  0.3944909E+04  0.7818609E-02  0.8015753E-01
        2   -1    0    0  501    0  0.00000000000E+00  0.00000000000E+00  0.28644905187E+04  0.28644905187E+04  0.25500000920E-02 0. -1.
       -2   -1    0    0    0  501  0.00000000000E+00  0.00000000000E+00 -0.13582092160E+04  0.13582092160E+04  0.25500000920E-02 0.  1.
    10030    2    1    2    0    0  0.00000000000E+00  0.00000000000E+00  0.15062813027E+04  0.42226997346E+04  0.39449093381E+04 0.  0.
        4    1    3    3  502    0 -0.20239945972E+03 -0.12187876195E+04 -0.89271692223E+03  0.15242552014E+04  0.12699999809E+01 0.  1.
       -4    1    3    3    0  502  0.20239945972E+03  0.12187876195E+04  0.23989982249E+04  0.26984445332E+04  0.12699999809E+01 0. -1.
</event>
<event>
 5   0  0.1943459E-07  0.3113929E+04  0.7818609E-02  0.8211926E-01
       -1   -1    0    0    0  501  0.00000000000E+00  0.00000000000E+00  0.10152089445E+04  0.10152089445E+04  0.50400001928E-02 0. -1.
        1   -1    0    0  501    0  0.00000000000E+00  0.00000000000E+00 -0.23878222516E+04  0.23878222516E+04  0.50400001928E-02 0.  1.
    10030    2    1    2    0    0  0.00000000000E+00  0.00000000000E+00 -0.13726133072E+04  0.34030311961E+04  0.31139290343E+04 0.  0.
        2    1    3    3  502    0  0.97925997118E+03  0.92636929609E+03 -0.15377616620E+04  0.20449501444E+04  0.25500000920E-02 0.  1.
       -2    1    3    3    0  502 -0.97925997118E+03 -0.92636929609E+03  0.16514835484E+03  0.13580810517E+04  0.25500000920E-02 0. -1.
</event>
<event>
 5   0  0.1860500E-07  0.2469808E+04  0.7818609E-02  0.8413821E-01
       -1   -1    0    0    0  501  0.00000000000E+00  0.00000000000E+00  0.98622621753E+03  0.98622621755E+03  0.50400001928E-02 0.  1.
        1   -1    0    0  501    0  0.00000000000E+00  0.00000000000E+00 -0.15462860491E+04  0.15462860491E+04  0.50400001928E-02 0. -1.
    10030    2    1    2    0    0  0.00000000000E+00  0.00000000000E+00 -0.56005983158E+03  0.25325122667E+04  0.24698079613E+04 0.  0.
        4    1    3    3  502    0  0.13299220501E+03  0.31451451056E+03  0.93685157212E+03  0.99714531791E+03  0.12699999809E+01 0.  1.
       -4    1    3    3    0  502 -0.13299220501E+03 -0.31451451056E+03 -0.14969114037E+04  0.15353669488E+04  0.12699999809E+01 0. -1.
</event>
<event>
 5   0  0.5735179E-07  0.2863711E+04  0.7818609E-02  0.8283757E-01
        2   -1    0    0  501    0  0.00000000000E+00  0.00000000000E+00  0.67173744551E+03  0.67173744552E+03  0.25500000920E-02 0.  1.
       -2   -1    0    0    0  501  0.00000000000E+00  0.00000000000E+00 -0.30520999662E+04  0.30520999662E+04  0.25500000920E-02 0. -1.
    10030    2    1    2    0    0  0.00000000000E+00  0.00000000000E+00 -0.23803625207E+04  0.37238374117E+04  0.28637107639E+04 0.  0.
        5    1    3    3  502    0 -0.80488208509E+03 -0.11327774681E+04 -0.16390723515E+04  0.21488602157E+04  0.46999998093E+01 0. -1.
       -5    1    3    3    0  502  0.80488208509E+03  0.11327774681E+04 -0.74129016923E+03  0.15749771961E+04  0.46999998093E+01 0.  1.
</event>
<event>
 5   0  0.1876027E-07  0.3951302E+04  0.7818609E-02  0.8014443E-01
        1   -1    0    0  501    0  0.00000000000E+00  0.00000000000E+00  0.15145943050E+04  0.15145943050E+04  0.50400001928E-02 0. -1.
       -1   -1    0    0    0  501  0.00000000000E+00  0.00000000000E+00 -0.25770572934E+04  0.25770572934E+04  0.50400001928E-02 0.  1.
    10030    2    1    2    0    0  0.00000000000E+00  0.00000000000E+00 -0.10624629884E+04  0.40916515984E+04  0.39513017097E+04 0.  0.
        3    1    3    3  502    0  0.83647273999E+03  0.15031297923E+04  0.47493502525E+03  0.17845585184E+04  0.10100000352E+00 0. -1.
       -3    1    3    3    0  502 -0.83647273999E+03 -0.15031297923E+04 -0.15373980137E+04  0.23070930800E+04  0.10100000352E+00 0.  1.
</event>
<event>
 5   0  0.1876027E-07  0.4186824E+04  0.7818609E-02  0.7967883E-01
       -1   -1    0    0    0  501  0.00000000000E+00  0.00000000000E+00  0.15281037669E+04  0.15281037669E+04  0.50400001928E-02 0.  1.
        1   -1    0    0  501    0  0.00000000000E+00  0.00000000000E+00 -0.28678507999E+04  0.28678507999E+04  0.50400001928E-02 0. -1.
    10030    2    1    2    0    0  0.00000000000E+00  0.00000000000E+00 -0.13397470330E+04  0.43959545669E+04  0.41868239086E+04 0.  0.
        3    1    3    3  502    0  0.14458681386E+04  0.15099013739E+04 -0.55468122333E+03  0.21628703389E+04  0.10100000352E+00 0. -1.
       -3    1    3    3    0  502 -0.14458681386E+04 -0.15099013739E+04 -0.78506580968E+03  0.22330842279E+04  0.10100000352E+00 0.  1.
</event>
<event>
 5   0  0.5872444E-07  0.3899691E+04  0.7818609E-02  0.8025094E-01
        2   -1    0    0  501    0  0.00000000000E+00  0.00000000000E+00  0.23806899455E+04  0.23806899455E+04  0.25500000920E-02 0.  1.
       -2   -1    0    0    0  501  0.00000000000E+00  0.00000000000E+00 -0.15969727320E+04  0.15969727320E+04  0.25500000920E-02 0. -1.
    10030    2    1    2    0    0  0.00000000000E+00  0.00000000000E+00  0.78371721355E+03  0.39776626775E+04  0.38996907192E+04 0.  0.
        3    1    3    3  502    0 -0.19030859169E+04 -0.32650664484E+02  0.82351614144E+03  0.20738806423E+04  0.10100000352E+00 0.  1.
       -3    1    3    3    0  502  0.19030859169E+04  0.32650664484E+02 -0.39798927883E+02  0.19037820353E+04  0.10100000352E+00 0. -1.
</event>
<event>
 5   0  0.5735179E-07  0.3938836E+04  0.7818609E-02  0.8017000E-01
       -2   -1    0    0    0  501  0.00000000000E+00  0.00000000000E+00  0.24233274639E+04  0.24233274639E+04  0.25500000920E-02 0.  1.
        2   -1    0    0  501    0  0.00000000000E+00  0.00000000000E+00 -0.16005295185E+04  0.16005295185E+04  0.25500000920E-02 0. -1.
    10030    2    1    2    0    0  0.00000000000E+00  0.00000000000E+00  0.82279794535E+03  0.40238569824E+04  0.39388359392E+04 0.  0.
        5    1    3    3  502    0  0.43777626699E+03 -0.17955918658E+04  0.11063675124E+04  0.21540356011E+04  0.46999998093E+01 0.  1.
       -5    1    3    3    0  502 -0.43777626699E+03  0.17955918658E+04 -0.28356956702E+03  0.18698213813E+04  0.46999998093E+01 0. -1.
</event>
<event>
 5   0  0.1860500E-07  0.3358338E+04  0.7818609E-02  0.8148208E-01
       -1   -1    0    0    0  501  0.00000000000E+00  0.00000000000E+00  0.16872278991E+04  0.16872278991E+04  0.50400001928E-02 0.  1.
        1   -1    0    0  501    0  0.00000000000E+00  0.00000000000E+00 -0.16711484888E+04  0.16711484888E+04  0.50400001928E-02 0. -1.
    10030    2    1    2    0    0  0.00000000000E+00  0.00000000000E+00  0.16079410315E+02  0.33583763879E+04  0.33583378947E+04 0.  0.
        5    1    3    3  502    0  0.45554955726E+02  0.27812850908E+03  0.16634001969E+04  0.16871138156E+04  0.46999998093E+01 0.  1.
       -5    1    3    3    0  502 -0.45554955726E+02 -0.27812850908E+03 -0.16473207866E+04  0.16712625723E+04  0.46999998093E+01 0. -1.
</event>
<event>
 5   0  0.1943459E-07  0.3902308E+04  0.7818609E-02  0.8024549E-01
       -1   -1    0    0    0  501  0.00000000000E+00  0.00000000000E+00  0.17331868609E+04  0.17331868609E+04  0.50400001928E-02 0. -1.
        1   -1    0    0  501    0  0.00000000000E+00  0.00000000000E+00 -0.21965327966E+04  0.21965327966E+04  0.50400001928E-02 0.  1.
    10030    2    1    2    0    0  0.00000000000E+00  0.00000000000E+00 -0.46334593570E+03  0.39297196576E+04  0.39023079236E+04 0.  0.
        2    1    3    3  502    0  0.81088268650E+03 -0.57136309963E+03 -0.19236585050E+04  0.21643586964E+04  0.25500000920E-02 0.  1.
       -2    1    3    3    0  502 -0.81088268650E+03  0.57136309963E+03  0.14603125693E+04  0.17653609611E+04  0.25500000920E-02 0. -1.
</event>
<event>
 5   0  0.6095665E-07  0.3775057E+04  0.7818609E-02  0.8051529E-01
       -2   -1    0    0    0  501  0.00000000000E+00  0.00000000000E+00  0.17667653160E+04  0.17667653160E+04  0.25500000920E-02 0.  1.
        2   -1    0    0  501    0  0.00000000000E+00  0.00000000000E+00 -0.20165465739E+04  0.20165465739E+04  0.25500000920E-02 0. -1.
    10030    2    1    2    0    0  0.00000000000E+00  0.00000000000E+00 -0.24978125789E+03  0.37833118900E+04  0.37750573744E+04 0.  0.
        4    1    3    3  502    0 -0.18261156759E+04 -0.41017923036E+03 -0.37000151839E+03  0.19078386199E+04  0.12699999809E+01 0.  1.
       -4    1    3    3    0  502  0.18261156759E+04  0.41017923036E+03  0.12022026050E+03  0.18754732701E+04  0.12699999809E+01 0. -1.
</event>
<event>
 5   0  0.5735179E-07  0.3794162E+04  0.7818609E-02  0.8047409E-01
       -2   -1    0    0    0  501  0.00000000000E+00  0.00000000000E+00  0.24378814490E+04  0.24378814490E+04  0.25500000920E-02 0. -1.
        2   -1    0    0  501    0  0.00000000000E+00  0.00000000000E+00 -0.14762473254E+04  0.14762473254E+04  0.25500000920E-02 0.  1.
    10030    2    1    2    0    0  0.00000000000E+00  0.00000000000E+00  0.96163412363E+03  0.39141287744E+04  0.37941618146E+04 0.  0.
        5    1    3    3  502    0 -0.18964171820E+04 -0.46783847832E+02  0.49889313196E+03  0.19615053668E+04  0.46999998093E+01 0.  1.
       -5    1    3    3    0  502  0.18964171820E+04  0.46783847832E+02  0.46274099167E+03  0.19526234077E+04  0.46999998093E+01 0. -1.
</event>
<event>
 5   0  0.1860500E-07  0.3993448E+04  0.7818609E-02  0.8005870E-01
       -1   -1    0    0    0  501  0.00000000000E+00  0.00000000000E+00  0.17317332848E+04  0.17317332848E+04  0.50400001928E-02 0. -1.
        1   -1    0    0  501    0  0.00000000000E+00  0.00000000000E+00 -0.23022633090E+04  0.23022633090E+04  0.50400001928E-02 0.  1.
    10030    2    1    2    0    0  0.00000000000E+00  0.00000000000E+00 -0.57053002416E+03  0.40339965938E+04  0.39934476346E+04 0.  0.
        4    1    3    3  502    0  0.15627909691E+04 -0.54626012008E+03  0.84239824593E+03  0.18575123551E+04  0.12699999809E+01 0. -1.
       -4    1    3    3    0  502 -0.15627909691E+04  0.54626012008E+03 -0.14129282701E+04  0.21764842387E+04  0.12699999809E+01 0.  1.
</event>
<event>
 5   0  0.3959190E-07  0.3869734E+04  0.7818609E-02  0.8031354E-01
       -2   -1    0    0    0  501  0.00000000000E+00  0.00000000000E+00  0.22374052081E+04  0.22374052081E+04  0.25500000920E-02 0.  1.
        2   -1    0    0  501    0  0.00000000000E+00  0.00000000000E+00 -0.16732374487E+04  0.16732374487E+04  0.25500000920E-02 0. -1.
    10030    2    1    2    0    0  0.00000000000E+00  0.00000000000E+00  0.56416775938E+03  0.39106426567E+04  0.38697339350E+04 0.  0.
        2    1    3    3  502    0  0.46896880225E+03 -0.10473013975E+04  0.18564161167E+04  0.21824419243E+04  0.25500000920E-02 0.  1.
       -2    1    3    3    0  502 -0.46896880225E+03  0.10473013975E+04 -0.12922483573E+04  0.17282007324E+04  0.25500000920E-02 0. -1.
</event>
<event>
 5   0  0.1943459E-07  0.3922482E+04  0.7818609E-02  0.8020370E-01
        1   -1    0    0  501    0  0.00000000000E+00  0.00000000000E+00  0.17584326803E+04  0.17584326803E+04  0.50400001928E-02 0. -1.
       -1   -1    0    0    0  501  0.00000000000E+00  0.00000000000E+00 -0.21874396461E+04  0.21874396461E+04  0.50400001928E-02 0.  1.
    10030    2    1    2    0    0  0.00000000000E+00  0.00000000000E+00 -0.42900696579E+03  0.39458723263E+04  0.39224815409E+04 0.  0.
        2    1    3    3  502    0 -0.55261687743E+03  0.72689355281E+03 -0.19605687595E+04  0.21627735690E+04  0.25500000920E-02 0.  1.
       -2    1    3    3    0  502  0.55261687743E+03 -0.72689355281E+03  0.15315617937E+04  0.17830987573E+04  0.25500000920E-02 0. -1.
</event>
<event>
 5   0  0.6095665E-07  0.3919206E+04  0.7818609E-02  0.8021047E-01
       -2   -1    0    0    0  501  0.00000000000E+00  0.00000000000E+00  0.31822713179E+04  0.31822713179E+04  0.25500000920E-02 0. -1.
        2   -1    0    0  501    0  0.00000000000E+00  0.00000000000E+00 -0.12066989001E+04  0.12066989001E+04  0.25500000920E-02 0.  1.
    10030    2    1    2    0    0  0.00000000000E+00  0.00000000000E+00  0.19755724178E+04  0.43889702179E+04  0.39192056843E+04 0.  0.
        4    1    3    3  502    0  0.13614135043E+04 -0.13728078982E+04  0.13454299905E+04  0.23554684730E+04  0.12699999809E+01 0. -1.
       -4    1    3    3    0  502 -0.13614135043E+04  0.13728078982E+04  0.63014242731E+03  0.20335017450E+04  0.12699999809E+01 0.  1.
</event>
<event>
 5   0  0.1876027E-07  0.3518575E+04  0.7818609E-02  0.8109402E-01
       -1   -1    0    0    0  501  0.00000000000E+00  0.00000000000E+00  0.25942554533E+04  0.25942554533E+04  0.50400001928E-02 0.  1.
        1   -1    0    0  501    0  0.00000000000E+00  0.00000000000E+00 -0.11930559630E+04  0.11930559630E+04  0.50400001928E-02 0. -1.
    10030    2    1    2    0    0  0.00000000000E+00  0.00000000000E+00  0.14011994903E+04  0.37873114164E+04  0.35185746763E+04 0.  0.
        3    1    3    3  502    0  0.10186862234E+04  0.53115029436E+03 -0.73354823216E+03  0.13630609950E+04  0.10100000352E+00 0. -1.
       -3    1    3    3    0  502 -0.10186862234E+04 -0.53115029436E+03  0.21347477225E+04  0.24242504214E+04  0.10100000352E+00 0.  1.
</event>
<event>
 5   0  0.1876027E-07  0.3799727E+04  0.7818609E-02  0.8046213E-01
       -1   -1    0    0    0  501  0.00000000000E+00  0.00000000000E+00  0.20148184708E+04  0.20148184708E+04  0.50400001928E-02 0. -1.
        1   -1    0    0  501    0  0.00000000000E+00  0.00000000000E+00 -0.17914676375E+04  0.17914676375E+04  0.50400001928E-02 0.  1.
    10030    2    1    2    0    0  0.00000000000E+00  0.00000000000E+00  0.22335083335E+03  0.38062861083E+04  0.37997274038E+04 0.  0.
        3    1    3    3  502    0  0.71261809715E+03 -0.84675101230E+03 -0.14352278459E+04  0.18123715979E+04  0.10100000352E+00 0.  1.
       -3    1    3    3    0  502 -0.71261809715E+03  0.84675101230E+03  0.16585786792E+04  0.19939145104E+04  0.10100000352E+00 0. -1.
</event>
<event>
 5   0  0.3959190E-07  0.3952954E+04  0.7818609E-02  0.8014105E-01
        2   -1    0    0  501    0  0.00000000000E+00  0.00000000000E+00  0.25886040272E+04  0.25886040272E+04  0.25500000920E-02 0. -1.
       -2   -1    0    0    0  501  0.00000000000E+00  0.00000000000E+00 -0.15090992343E+04  0.15090992343E+04  0.25500000920E-02 0.  1.
    10030    2    1    2    0    0  0.00000000000E+00  0.00000000000E+00  0.10795047929E+04  0.40977032615E+04  0.39529535061E+04 0.  0.
        2    1    3    3  502    0  0.11368785856E+04 -0.13032869356E+04  0.15315584798E+04  0.23101344402E+04  0.25500000920E-02 0. -1.
       -2    1    3    3    0  502 -0.11368785856E+04  0.13032869356E+04 -0.45205368688E+03  0.17875688213E+04  0.25500000920E-02 0.  1.
</event>
<event>
 5   0  0.5805753E-07  0.3912245E+04  0.7818609E-02  0.8022487E-01
        2   -1    0    0  501    0  0.00000000000E+00  0.00000000000E+00  0.17629336175E+04  0.17629336175E+04  0.25500000920E-02 0.  1.
       -2   -1    0    0    0  501  0.00000000000E+00  0.00000000000E+00 -0.21704820591E+04  0.21704820591E+04  0.25500000920E-02 0. -1.
    10030    2    1    2    0    0  0.00000000000E+00  0.00000000000E+00 -0.40754844161E+03  0.39334156767E+04  0.39122452829E+04 0.  0.
        1    1    3    3  502    0 -0.79250884267E+03 -0.17881712813E+04 -0.23201520629E+03  0.19696339388E+04  0.50400001928E-02 0.  1.
       -1    1    3    3    0  502  0.79250884267E+03  0.17881712813E+04 -0.17553323533E+03  0.19637817378E+04  0.50400001928E-02 0. -1.
</event>
<event>
 5   0  0.5735179E-07  0.3966672E+04  0.7818609E-02  0.8011304E-01
        2   -1    0    0  501    0  0.00000000000E+00  0.00000000000E+00  0.26046350856E+04  0.26046350856E+04  0.25500000920E-02 0.  1.
       -2   -1    0    0    0  501  0.00000000000E+00  0.00000000000E+00 -0.15102392702E+04  0.15102392702E+04  0.25500000920E-02 0. -1.
    10030    2    1    2    0    0  0.00000000000E+00  0.00000000000E+00  0.10943958155E+04  0.41148743558E+04  0.39666722530E+04 0.  0.
        5    1    3    3  502    0  0.94639876285E+02 -0.11610043975E+04 -0.11179898759E+04  0.16145622843E+04  0.46999998093E+01 0. -1.
       -5    1    3    3    0  502 -0.94639876285E+02  0.11610043975E+04  0.22123856914E+04  0.25003120715E+04  0.46999998093E+01 0.  1.
</event>
<event>
 5   0  0.1860500E-07  0.3853102E+04  0.7818609E-02  0.8034854E-01
       -1   -1    0    0    0  501  0.00000000000E+00  0.00000000000E+00  0.22567467055E+04  0.22567467055E+04  0.50400001928E-02 0. -1.
        1   -1    0    0  501    0  0.00000000000E+00  0.00000000000E+00 -0.16446681731E+04  0.16446681731E+04  0.50400001928E-02 0.  1.
    10030    2    1    2    0    0  0.00000000000E+00  0.00000000000E+00  0.61207853242E+03  0.39014148786E+04  0.38531023767E+04 0.  0.
        4    1    3    3  502    0  0.24939638346E+03 -0.56751818796E+02  0.22394786154E+04  0.22540375788E+04  0.12699999809E+01 0. -1.
       -4    1    3    3    0  502 -0.24939638346E+03  0.56751818796E+02 -0.16274000830E+04  0.16473772998E+04  0.12699999809E+01 0.  1.
</event>
<event>
 5   0  0.1860500E-07  0.2597561E+04  0.7818609E-02  0.8369030E-01
       -1   -1    0    0    0  501  0.00000000000E+00  0.00000000000E+00  0.96684528047E+03  0.96684528048E+03  0.50400001928E-02 0. -1.
        1   -1    0    0  501    0  0.00000000000E+00  0.00000000000E+00 -0.17446751970E+04  0.17446751970E+04  0.50400001928E-02 0.  1.
    10030    2    1    2    0    0  0.00000000000E+00  0.00000000000E+00 -0.77782991655E+03  0.27115204775E+04  0.25975611486E+04 0.  0.
        5    1    3    3  502    0  0.73342422731E+03  0.10706262885E+04 -0.44272391971E+03  0.13711959400E+04  0.46999998093E+01 0. -1.
       -5    1    3    3    0  502 -0.73342422731E+03 -0.10706262885E+04 -0.33510599683E+03  0.13403245375E+04  0.46999998093E+01 0.  1.
</event>
<event>
 5   0  0.3959190E-07  0.3810314E+04  0.7818609E-02  0.8043945E-01
       -2   -1    0    0    0  501  0.00000000000E+00  0.00000000000E+00  0.15708875255E+04  0.15708875255E+04  0.25500000920E-02 0.  1.
        2   -1    0    0  501    0  0.00000000000E+00  0.00000000000E+00 -0.23105553016E+04  0.23105553016E+04  0.25500000920E-02 0. -1.
    10030    2    1    2    0    0  0.00000000000E+00  0.00000000000E+00 -0.73966777611E+03  0.38814428271E+04  0.38103136355E+04 0.  0.
        2    1    3    3  502    0  0.13942568666E+04  0.12516193826E+04 -0.18254526468E+02  0.18737226360E+04  0.25500000920E-02 0.  1.
       -2    1    3    3    0  502 -0.13942568666E+04 -0.12516193826E+04 -0.72141324965E+03  0.20077201911E+04  0.25500000920E-02 0. -1.
</event>
<event>
 5   0  0.1860500E-07  0.3925166E+04  0.7818609E-02  0.8019815E-01
        1   -1    0    0  501    0  0.00000000000E+00  0.00000000000E+00  0.21150123813E+04  0.21150123813E+04  0.50400001928E-02 0.  1.
       -1   -1    0    0    0  501  0.00000000000E+00  0.00000000000E+00 -0.18211392101E+04  0.18211392101E+04  0.50400001928E-02 0. -1.
    10030    2    1    2    0    0  0.00000000000E+00  0.00000000000E+00  0.29387317124E+03  0.39361515914E+04  0.39251659722E+04 0.  0.
        4    1    3    3  502    0  0.70261214664E+03 -0.49701344215E+03 -0.16218151521E+04  0.18360207490E+04  0.12699999809E+01 0. -1.
       -4    1    3    3    0  502 -0.70261214664E+03  0.49701344215E+03  0.19156883233E+04  0.21001308424E+04  0.12699999809E+01 0.  1.
</event>
<event>
 5   0  0.5735179E-07  0.3892516E+04  0.7818609E-02  0.8026588E-01
        2   -1    0    0  501    0  0.00000000000E+00  0.00000000000E+00  0.21880839842E+04  0.21880839842E+04  0.25500000920E-02 0. -1.
       -2   -1    0    0    0  501  0.00000000000E+00  0.00000000000E+00 -0.17311585197E+04  0.17311585197E+04  0.25500000920E-02 0.  1.
    10030    2    1    2    0    0  0.00000000000E+00  0.00000000000E+00  0.45692546449E+03  0.39192425039E+04  0.38925160147E+04 0.  0.
        5    1    3    3  502    0  0.48162976654E+03 -0.64602522945E+03 -0.15553057654E+04  0.17516603390E+04  0.46999998093E+01 0.  1.
       -5    1    3    3    0  502 -0.48162976654E+03  0.64602522945E+03  0.20122312299E+04  0.21675821649E+04  0.46999998093E+01 0. -1.
</event>
<event>
 5   0  0.1860500E-07  0.2688489E+04  0.7818609E-02  0.8338750E-01
       -1   -1    0    0    0  501  0.00000000000E+00  0.00000000000E+00  0.76484670693E+03  0.76484670694E+03  0.50400001928E-02 0. -1.
        1   -1    0    0  501    0  0.00000000000E+00  0.00000000000E+00 -0.23625555987E+04  0.23625555987E+04  0.50400001928E-02 0.  1.
    10030    2    1    2    0    0  0.00000000000E+00  0.00000000000E+00 -0.15977088917E+04  0.31274023056E+04  0.26884886978E+04 0.  0.
        5    1    3    3  502    0  0.12227322925E+03 -0.48641663406E+03  0.65191774474E+03  0.82253919079E+03  0.46999998093E+01 0. -1.
       -5    1    3    3    0  502 -0.12227322925E+03  0.48641663406E+03 -0.22496266365E+04  0.23048631148E+04  0.46999998093E+01 0.  1.
</event>
<event>
 5   0  0.1860500E-07  0.3165191E+04  0.7818609E-02  0.8198071E-01
       -1   -1    0    0    0  501  0.00000000000E+00  0.00000000000E+00  0.10783304130E+04  0.10783304131E+04  0.50400001928E-02 0. -1.
        1   -1    0    0  501    0  0.00000000000E+00  0.00000000000E+00 -0.23226724046E+04  0.23226724046E+04  0.50400001928E-02 0.  1.
    10030    2    1    2    0    0  0.00000000000E+00  0.00000000000E+00 -0.12443419915E+04  0.34010028176E+04  0.31651908590E+04 0.  0.
        4    1    3    3  502    0 -0.60092982161E+03 -0.70584459135E+03  0.75607307472E+03  0.11962363248E+04  0.12699999809E+01 0. -1.
       -4    1    3    3    0  502  0.60092982161E+03  0.70584459135E+03 -0.20004150662E+04  0.22047664928E+04  0.12699999809E+01 0.  1.
</event>
<event>
 5   0  0.3959190E-07  0.3672381E+04  0.7818609E-02  0.8074110E-01
        2   -1    0    0  501    0  0.00000000000E+00  0.00000000000E+00  0.14791380710E+04  0.14791380710E+04  0.25500000920E-02 0. -1.
       -2   -1    0    0    0  501  0.00000000000E+00  0.00000000000E+00 -0.22794326054E+04  0.22794326054E+04  0.25500000920E-02 0.  1.
    10030    2    1    2    0    0  0.00000000000E+00  0.00000000000E+00 -0.80029453437E+03  0.37585706764E+04  0.36723809971E+04 0.  0.
        2    1    3    3  502    0  0.14080396636E+03  0.53565565838E+03  0.13916096594E+04  0.14977750784E+04  0.25500000920E-02 0. -1.
       -2    1    3    3    0  502 -0.14080396636E+03 -0.53565565838E+03 -0.21919041938E+04  0.22607955980E+04  0.25500000920E-02 0.  1.
</event>
<event>
 5   0  0.1860500E-07  0.3932858E+04  0.7818609E-02  0.8018230E-01
       -1   -1    0    0    0  501  0.00000000000E+00  0.00000000000E+00  0.20518192038E+04  0.20518192038E+04  0.50400001928E-02 0. -1.
        1   -1    0    0  501    0  0.00000000000E+00  0.00000000000E+00 -0.18845923760E+04  0.18845923760E+04  0.50400001928E-02 0.  1.
    10030    2    1    2    0    0  0.00000000000E+00  0.00000000000E+00  0.16722682784E+03  0.39364115798E+04  0.39328579066E+04 0.  0.
        5    1    3    3  502    0 -0.85633757767E+03 -0.16355271094E+04 -0.59416740050E+03  0.19394122724E+04  0.46999998093E+01 0.  1.
       -5    1    3    3    0  502  0.85633757767E+03  0.16355271094E+04  0.76139422834E+03  0.19969993073E+04  0.46999998093E+01 0. -1.
</event>
<event>
 5   0  0.6095665E-07  0.3471804E+04  0.7818609E-02  0.8120505E-01
        2   -1    0    0  501    0  0.00000000000E+00  0.00000000000E+00  0.19570242768E+04  0.19570242768E+04  0.25500000920E-02 0.  1.
       -2   -1    0    0    0  501  0.00000000000E+00  0.00000000000E+00 -0.15397640200E+04  0.15397640200E+04  0.25500000920E-02 0. -1.
    10030    2    1    2    0    0  0.00000000000E+00  0.00000000000E+00  0.41726025678E+03  0.34967882969E+04  0.34718038930E+04 0.  0.
        4    1    3    3  502    0  0.31894528269E+02  0.16442187314E+04 -0.35114045630E+03  0.16815985640E+04  0.12699999809E+01 0. -1.
       -4    1    3    3    0  502 -0.31894528269E+02 -0.16442187314E+04  0.76840071308E+03  0.18151897329E+04  0.12699999809E+01 0.  1.
</event>
<event>
 5   0  0.1860500E-07  0.3866723E+04  0.7818609E-02  0.8031986E-01
       -1   -1    0    0    0  501  0.00000000000E+00  0.00000000000E+00  0.17824217741E+04  0.17824217741E+04  0.50400001928E-02 0.  1.
        1   -1    0    0  501    0  0.00000000000E+00  0.00000000000E+00 -0.20970826581E+04  0.20970826581E+04  0.50400001928E-02 0. -1.
    10030    2    1    2    0    0  0.00000000000E+00  0.00000000000E+00 -0.31466088407E+03  0.38795044322E+04  0.38667225356E+04 0.  0.
        4    1    3    3  502    0 -0.83408283407E+03 -0.14733304346E+04  0.77929037899E+03  0.18637842824E+04  0.12699999809E+01 0.  1.
       -4    1    3    3    0  502  0.83408283407E+03  0.14733304346E+04 -0.10939512631E+04  0.20157201498E+04  0.12699999809E+01 0. -1.
</event>
<event>
 5   0  0.1860500E-07  0.3871298E+04  0.7818609E-02  0.8031025E-01
       -4   -1    0    0    0  501  0.00000000000E+00  0.00000000000E+00  0.22593888646E+04  0.22593892216E+04  0.12699999809E+01 0. -1.
        4   -1    0    0  501    0  0.00000000000E+00  0.00000000000E+00 -0.16582962682E+04  0.16582967545E+04  0.12699999809E+01 0.  1.
    10030    2    1    2    0    0  0.00000000000E+00  0.00000000000E+00  0.60109259647E+03  0.39176859761E+04  0.38712983736E+04 0.  0.
        3    1    3    3  502    0  0.10068540881E+04  0.16509552644E+04  0.21390898911E+03  0.19455501806E+04  0.10100000352E+00 0. -1.
       -3    1    3    3    0  502 -0.10068540881E+04 -0.16509552644E+04  0.38718360736E+03  0.19721357954E+04  0.10100000352E+00 0.  1.
</event>
<event>
 5   0  0.3959190E-07  0.2459277E+04  0.7818609E-02  0.8417639E-01
       -2   -1    0    0    0  501  0.00000000000E+00  0.00000000000E+00  0.53180374336E+03  0.53180374336E+03  0.25500000920E-02 0.  1.
        2   -1    0    0  501    0  0.00000000000E+00  0.00000000000E+00 -0.28431750284E+04  0.28431750284E+04  0.25500000920E-02 0. -1.
    10030    2    1    2    0    0  0.00000000000E+00  0.00000000000E+00 -0.23113712851E+04  0.33749787718E+04  0.24592772297E+04 0.  0.
        2    1    3    3  502    0 -0.10661874195E+04 -0.18349198162E+01 -0.31501642133E+03  0.11117528170E+04  0.25500000920E-02 0.  1.
       -2    1    3    3    0  502  0.10661874195E+04  0.18349198162E+01 -0.19963548637E+04  0.22632259548E+04  0.25500000920E-02 0. -1.
</event>
<event>
 5   0  0.3959190E-07  0.2835334E+04  0.7818609E-02  0.8292382E-01
        2   -1    0    0  501    0  0.00000000000E+00  0.00000000000E+00  0.26243179132E+04  0.26243179132E+04  0.25500000920E-02 0. -1.
       -2   -1    0    0    0  501  0.00000000000E+00  0.00000000000E+00 -0.76582914490E+03  0.76582914491E+03  0.25500000920E-02 0.  1.
    10030    2    1    2    0    0  0.00000000000E+00  0.00000000000E+00  0.18584887683E+04  0.33901470581E+04  0.28353335913E+04 0.  0.
        2    1    3    3  502    0 -0.84706340988E+03 -0.10908530244E+04  0.13116790835E+04  0.19047253763E+04  0.25500000920E-02 0. -1.
       -2    1    3    3    0  502  0.84706340988E+03  0.10908530244E+04  0.54680968487E+03  0.14854216818E+04  0.25500000920E-02 0.  1.
</event>
<event>
 5   0  0.6095665E-07  0.3183626E+04  0.7818609E-02  0.8193155E-01
       -2   -1    0    0    0  501  0.00000000000E+00  0.00000000000E+00  0.10526450687E+04  0.10526450687E+04  0.25500000920E-02 0.  1.
        2   -1    0    0  501    0  0.00000000000E+00  0.00000000000E+00 -0.24071443810E+04  0.24071443810E+04  0.25500000920E-02 0. -1.
    10030    2    1    2    0    0  0.00000000000E+00  0.00000000000E+00 -0.13544993122E+04  0.34597894497E+04  0.31836260222E+04 0.  0.
        4    1    3    3  502    0  0.48975630538E+03 -0.11771205149E+04  0.35852323095E+03  0.13243921116E+04  0.12699999809E+01 0.  1.
       -4    1    3    3    0  502 -0.48975630538E+03  0.11771205149E+04 -0.17130225432E+04  0.21353973381E+04  0.12699999809E+01 0. -1.
</event>
<event>
 5   0  0.5735179E-07  0.3759772E+04  0.7818609E-02  0.8054843E-01
        2   -1    0    0  501    0  0.00000000000E+00  0.00000000000E+00  0.19933575102E+04  0.19933575102E+04  0.25500000920E-02 0.  1.
       -2   -1    0    0    0  501  0.00000000000E+00  0.00000000000E+00 -0.17728740006E+04  0.17728740006E+04  0.25500000920E-02 0. -1.
    10030    2    1    2    0    0  0.00000000000E+00  0.00000000000E+00  0.22048350958E+03  0.37662315109E+04  0.37597721760E+04 0.  0.
        5    1    3    3  502    0  0.17429245598E+04  0.26478192583E+03 -0.54360785678E+03  0.18448379553E+04  0.46999998093E+01 0.  1.
       -5    1    3    3    0  502 -0.17429245598E+04 -0.26478192583E+03  0.76409136636E+03  0.19213935556E+04  0.46999998093E+01 0. -1.
</event>
<event>
 5   0  0.6095665E-07  0.2624947E+04  0.7818609E-02  0.8359776E-01
        2   -1    0    0  501    0  0.00000000000E+00  0.00000000000E+00  0.28065131868E+04  0.28065131868E+04  0.25500000920E-02 0. -1.
       -2   -1    0    0    0  501  0.00000000000E+00  0.00000000000E+00 -0.61378169514E+03  0.61378169514E+03  0.25500000920E-02 0.  1.
    10030    2    1    2    0    0  0.00000000000E+00  0.00000000000E+00  0.21927314917E+04  0.34202948820E+04  0.26249467966E+04 0.  0.
        4    1    3    3  502    0  0.49281344969E+03 -0.12125666323E+04  0.97002301256E+03  0.16291498371E+04  0.12699999809E+01 0. -1.
       -4    1    3    3    0  502 -0.49281344969E+03  0.12125666323E+04  0.12227084791E+04  0.17911450449E+04  0.12699999809E+01 0.  1.
</event>
<event>
 5   0  0.1860500E-07  0.4079739E+04  0.7818609E-02  0.7988651E-01
       -1   -1    0    0    0  501  0.00000000000E+00  0.00000000000E+00  0.21202958796E+04  0.21202958796E+04  0.50400001928E-02 0.  1.
        1   -1    0    0  501    0  0.00000000000E+00  0.00000000000E+00 -0.19624934467E+04  0.19624934467E+04  0.50400001928E-02 0. -1.
    10030    2    1    2    0    0  0.00000000000E+00  0.00000000000E+00  0.15780243290E+03  0.40827893263E+04  0.40797386038E+04 0.  0.
        4    1    3    3  502    0  0.10393948063E+04 -0.92192893569E+02 -0.16751855657E+04  0.19735980810E+04  0.12699999809E+01 0. -1.
       -4    1    3    3    0  502 -0.10393948063E+04  0.92192893569E+02  0.18329879986E+04  0.21091912452E+04  0.12699999809E+01 0.  1.
</event>
<event>
 5   0  0.1943459E-07  0.3217928E+04  0.7818609E-02  0.8184098E-01
       -1   -1    0    0    0  501  0.00000000000E+00  0.00000000000E+00  0.14086542203E+04  0.14086542203E+04  0.50400001928E-02 0. -1.
        1   -1    0    0  501    0  0.00000000000E+00  0.00000000000E+00 -0.18377578794E+04  0.18377578794E+04  0.50400001928E-02 0.  1.
    10030    2    1    2    0    0  0.00000000000E+00  0.00000000000E+00 -0.42910365916E+03  0.32464120997E+04  0.32179281488E+04 0.  0.
        2    1    3    3  502    0 -0.10242811290E+04 -0.30803370080E+03  0.99805628692E+03  0.14629261581E+04  0.25500000920E-02 0. -1.
       -2    1    3    3    0  502  0.10242811290E+04  0.30803370080E+03 -0.14271599461E+04  0.17834859416E+04  0.25500000920E-02 0.  1.
</event>
<event>
 5   0  0.1860500E-07  0.3547443E+04  0.7818609E-02  0.8102638E-01
        1   -1    0    0  501    0  0.00000000000E+00  0.00000000000E+00  0.20789598377E+04  0.20789598378E+04  0.50400001928E-02 0.  1.
       -1   -1    0    0    0  501  0.00000000000E+00  0.00000000000E+00 -0.15132988557E+04  0.15132988557E+04  0.50400001928E-02 0. -1.
    10030    2    1    2    0    0  0.00000000000E+00  0.00000000000E+00  0.56566098205E+03  0.35922586935E+04  0.35474427654E+04 0.  0.
        4    1    3    3  502    0  0.63113290833E+03 -0.67604772878E+03  0.18154625071E+04  0.20374677929E+04  0.12699999809E+01 0.  1.
       -4    1    3    3    0  502 -0.63113290833E+03  0.67604772878E+03 -0.12498015250E+04  0.15547909006E+04  0.12699999809E+01 0. -1.
</event>
<event>
 5   0  0.6095665E-07  0.3966553E+04  0.7818609E-02  0.8011328E-01
       -2   -1    0    0    0  501  0.00000000000E+00  0.00000000000E+00  0.17201644648E+04  0.17201644648E+04  0.25500000920E-02 0.  1.
        2   -1    0    0  501    0  0.00000000000E+00  0.00000000000E+00 -0.22866335253E+04  0.22866335253E+04  0.25500000920E-02 0. -1.
    10030    2    1    2    0    0  0.00000000000E+00  0.00000000000E+00 -0.56646906052E+03  0.40067979902E+04  0.39665530297E+04 0.  0.
        4    1    3    3  502    0 -0.67032695846E+03  0.17201709583E+04  0.44872610432E+03  0.18999165999E+04  0.12699999809E+01 0. -1.
       -4    1    3    3    0  502  0.67032695846E+03 -0.17201709583E+04 -0.10151951648E+04  0.21068813903E+04  0.12699999809E+01 0.  1.
</event>
<event>
 5   0  0.1876027E-07  0.3065758E+04  0.7818609E-02  0.8225199E-01
        1   -1    0    0  501    0  0.00000000000E+00  0.00000000000E+00  0.14134232347E+04  0.14134232347E+04  0.50400001928E-02 0.  1.
       -1   -1    0    0    0  501  0.00000000000E+00  0.00000000000E+00 -0.16624310230E+04  0.16624310230E+04  0.50400001928E-02 0. -1.
    10030    2    1    2    0    0  0.00000000000E+00  0.00000000000E+00 -0.24900778828E+03  0.30758542577E+04  0.30657583950E+04 0.  0.
        3    1    3    3  502    0  0.54026201047E+03  0.23981653190E+03 -0.15434893969E+04  0.16528020261E+04  0.10100000352E+00 0. -1.
       -3    1    3    3    0  502 -0.54026201047E+03 -0.23981653190E+03  0.12944816086E+04  0.14230522317E+04  0.10100000352E+00 0.  1.
</event>
<event>
 5   0  0.1860500E-07  0.3719614E+04  0.7818609E-02  0.8063629E-01
        1   -1    0    0  501    0  0.00000000000E+00  0.00000000000E+00  0.15079021732E+04  0.15079021732E+04  0.50400001928E-02 0. -1.
       -1   -1    0    0    0  501  0.00000000000E+00  0.00000000000E+00 -0.22938369786E+04  0.22938369786E+04  0.50400001928E-02 0.  1.
    10030    2    1    2    0    0  0.00000000000E+00  0.00000000000E+00 -0.78593480537E+03  0.38017391519E+04  0.37196138322E+04 0.  0.
        5    1    3    3  502    0  0.66983323891E+03  0.16950580393E+04 -0.77122135633E+03  0.19790661422E+04  0.46999998093E+01 0.  1.
       -5    1    3    3    0  502 -0.66983323891E+03 -0.16950580393E+04 -0.14713449039E+02  0.18226730097E+04  0.46999998093E+01 0. -1.
</event>
<event>
 5   0  0.1876027E-07  0.2980167E+04  0.7818609E-02  0.8249417E-01
        1   -1    0    0  501    0  0.00000000000E+00  0.00000000000E+00  0.23547215230E+04  0.23547215230E+04  0.50400001928E-02 0.  1.
       -1   -1    0    0    0  501  0.00000000000E+00  0.00000000000E+00 -0.94293488836E+03  0.94293488837E+03  0.50400001928E-02 0. -1.
    10030    2    1    2    0    0  0.00000000000E+00  0.00000000000E+00  0.14117866346E+04  0.32976564114E+04  0.29801671607E+04 0.  0.
        3    1    3    3  502    0  0.36598470318E+03  0.45905116540E+03  0.22213506847E+04  0.22976230435E+04  0.10100000352E+00 0.  1.
       -3    1    3    3    0  502 -0.36598470318E+03 -0.45905116540E+03 -0.80956405008E+03  0.10000333678E+04  0.10100000352E+00 0. -1.
</event>
<event>
 5   0  0.3959190E-07  0.3761020E+04  0.7818609E-02  0.8054572E-01
        2   -1    0    0  501    0  0.00000000000E+00  0.00000000000E+00  0.19881662190E+04  0.19881662190E+04  0.25500000920E-02 0. -1.
       -2   -1    0    0    0  501  0.00000000000E+00  0.00000000000E+00 -0.17786832384E+04  0.17786832384E+04  0.25500000920E-02 0.  1.
    10030    2    1    2    0    0  0.00000000000E+00  0.00000000000E+00  0.20948298060E+03  0.37668494574E+04  0.37610200366E+04 0.  0.
        2    1    3    3  502    0  0.17368340856E+04  0.68817033009E+03  0.31989270957E+03  0.18953897725E+04  0.25500000920E-02 0. -1.
       -2    1    3    3    0  502 -0.17368340856E+04 -0.68817033009E+03 -0.11040972897E+03  0.18714596849E+04  0.25500000920E-02 0.  1.
</event>
<event>
 5   0  0.3959190E-07  0.2868322E+04  0.7818609E-02  0.8282365E-01
       -2   -1    0    0    0  501  0.00000000000E+00  0.00000000000E+00  0.12968889721E+04  0.12968889721E+04  0.25500000920E-02 0.  1.
        2   -1    0    0  501    0  0.00000000000E+00  0.00000000000E+00 -0.15859629233E+04  0.15859629233E+04  0.25500000920E-02 0. -1.
    10030    2    1    2    0    0  0.00000000000E+00  0.00000000000E+00 -0.28907395122E+03  0.28828518955E+04  0.28683220359E+04 0.  0.
        2    1    3    3  502    0 -0.65608585564E+03  0.42992686376E+03  0.10621832055E+04  0.13204237654E+04  0.25500000920E-02 0.  1.
       -2    1    3    3    0  502  0.65608585564E+03 -0.42992686376E+03 -0.13512571567E+04  0.15624281301E+04  0.25500000920E-02 0. -1.
</event>
<event>
 5   0  0.6095665E-07  0.3990472E+04  0.7818609E-02  0.8006471E-01
       -2   -1    0    0    0  501  0.00000000000E+00  0.00000000000E+00  0.16166458390E+04  0.16166458390E+04  0.25500000920E-02 0.  1.
        2   -1    0    0  501    0  0.00000000000E+00  0.00000000000E+00 -0.24624849196E+04  0.24624849196E+04  0.25500000920E-02 0. -1.
    10030    2    1    2    0    0  0.00000000000E+00  0.00000000000E+00 -0.84583908067E+03  0.40791307586E+04  0.39904716507E+04 0.  0.
        4    1    3    3  502    0 -0.32000591757E+03 -0.12320714942E+04 -0.19934666171E+04  0.23652303737E+04  0.12699999809E+01 0. -1.
       -4    1    3    3    0  502  0.32000591757E+03  0.12320714942E+04  0.11476275365E+04  0.17139003849E+04  0.12699999809E+01 0.  1.
</event>
<event>
 5   0  0.1860500E-07  0.3899660E+04  0.7818609E-02  0.8025100E-01
       -3   -1    0    0    0  501  0.00000000000E+00  0.00000000000E+00  0.29216217592E+04  0.29216217609E+04  0.10100000352E+00 0.  1.
        3   -1    0    0  501    0  0.00000000000E+00  0.00000000000E+00 -0.13012763580E+04  0.13012763619E+04  0.10100000352E+00 0. -1.
    10030    2    1    2    0    0  0.00000000000E+00  0.00000000000E+00  0.16203454012E+04  0.42228981228E+04  0.38996601565E+04 0.  0.
        4    1    3    3  502    0 -0.15063127036E+04  0.50092006686E+03  0.20362480427E+04  0.25818998003E+04  0.12699999809E+01 0.  1.
       -4    1    3    3    0  502  0.15063127036E+04 -0.50092006686E+03 -0.41590264149E+03  0.16409983225E+04  0.12699999809E+01 0. -1.
</event>
<event>
 5   0  0.1876027E-07  0.3869716E+04  0.7818609E-02  0.8031357E-01
        1   -1    0    0  501    0  0.00000000000E+00  0.00000000000E+00  0.19080049265E+04  0.19080049266E+04  0.50400001928E-02 0. -1.
       -1   -1    0    0    0  501  0.00000000000E+00  0.00000000000E+00 -0.19620886439E+04  0.19620886439E+04  0.50400001928E-02 0.  1.
    10030    2    1    2    0    0  0.00000000000E+00  0.00000000000E+00 -0.54083717310E+02  0.38700935704E+04  0.38697156479E+04 0.  0.
        3    1    3    3  502    0 -0.81634327200E+03 -0.16073626876E+04 -0.72970825614E+03  0.19448663955E+04  0.10100000352E+00 0. -1.
       -3    1    3    3    0  502  0.81634327200E+03  0.16073626876E+04  0.67562453883E+03  0.19252271749E+04  0.10100000352E+00 0.  1.
</event>
<event>
 5   0  0.1943459E-07  0.2460015E+04  0.7818609E-02  0.8417370E-01
        1   -1    0    0  501    0  0.00000000000E+00  0.00000000000E+00  0.86180984226E+03  0.86180984228E+03  0.50400001928E-02 0.  1.
       -1   -1    0    0    0  501  0.00000000000E+00  0.00000000000E+00 -0.17555136186E+04  0.17555136186E+04  0.50400001928E-02 0. -1.
    10030    2    1    2    0    0  0.00000000000E+00  0.00000000000E+00 -0.89370377632E+03  0.26173234609E+04  0.24600153778E+04 0.  0.
        2    1    3    3  502    0  0.92377946724E+03 -0.47546147553E+03  0.25364710082E+03  0.10694713510E+04  0.25500000920E-02 0.  1.
       -2    1    3    3    0  502 -0.92377946724E+03  0.47546147553E+03 -0.11473508771E+04  0.15478521099E+04  0.25500000920E-02 0. -1.
</event>
<event>
 5   0  0.5735179E-07  0.3873407E+04  0.7818609E-02  0.8030583E-01
        2   -1    0    0  501    0  0.00000000000E+00  0.00000000000E+00  0.17405352655E+04  0.17405352655E+04  0.25500000920E-02 0. -1.
       -2   -1    0    0    0  501  0.00000000000E+00  0.00000000000E+00 -0.21549807687E+04  0.21549807687E+04  0.25500000920E-02 0.  1.
    10030    2    1    2    0    0  0.00000000000E+00  0.00000000000E+00 -0.41444550325E+03  0.38955160342E+04  0.38734067818E+04 0.  0.
        5    1    3    3  502    0 -0.17741927394E+04  0.21432074346E+03 -0.95787759260E+03  0.20276204848E+04  0.46999998093E+01 0.  1.
       -5    1    3    3    0  502  0.17741927394E+04 -0.21432074346E+03  0.54343208934E+03  0.18678955494E+04  0.46999998093E+01 0. -1.
</event>
<event>
 5   0  0.1876027E-07  0.3884521E+04  0.7818609E-02  0.8028256E-01
       -1   -1    0    0    0  501  0.00000000000E+00  0.00000000000E+00  0.20718680084E+04  0.20718680084E+04  0.50400001928E-02 0.  1.
        1   -1    0    0  501    0  0.00000000000E+00  0.00000000000E+00 -0.18207610965E+04  0.18207610965E+04  0.50400001928E-02 0. -1.
    10030    2    1    2    0    0  0.00000000000E+00  0.00000000000E+00  0.25110691190E+03  0.38926291049E+04  0.38845214206E+04 0.  0.
        3    1    3    3  502    0 -0.14080569177E+04 -0.98630690873E+03  0.10312934059E+04  0.20047423029E+04  0.10100000352E+00 0.  1.
       -3    1    3    3    0  502  0.14080569177E+04  0.98630690873E+03 -0.78018649398E+03  0.18878868020E+04  0.10100000352E+00 0. -1.
</event>
<event>
 5   0  0.1943459E-07  0.3854503E+04  0.7818609E-02  0.8034559E-01
       -1   -1    0    0    0  501  0.00000000000E+00  0.00000000000E+00  0.20960527326E+04  0.20960527326E+04  0.50400001928E-02 0. -1.
        1   -1    0    0  501    0  0.00000000000E+00  0.00000000000E+00 -0.17720443277E+04  0.17720443277E+04  0.50400001928E-02 0.  1.
    10030    2    1    2    0    0  0.00000000000E+00  0.00000000000E+00  0.32400840487E+03  0.38680970603E+04  0.38545030058E+04 0.  0.
        2    1    3    3  502    0 -0.11116900124E+04 -0.50021903854E+03  0.16599926195E+04  0.20595264667E+04  0.25500000920E-02 0. -1.
       -2    1    3    3    0  502  0.11116900124E+04  0.50021903854E+03 -0.13359842147E+04  0.18085705936E+04  0.25500000920E-02 0.  1.
</event>
<event>
 5   0  0.5872444E-07  0.3904367E+04  0.7818609E-02  0.8024122E-01
        2   -1    0    0  501    0  0.00000000000E+00  0.00000000000E+00  0.31213998662E+04  0.31213998662E+04  0.25500000920E-02 0. -1.
       -2   -1    0    0    0  501  0.00000000000E+00  0.00000000000E+00 -0.12209332873E+04  0.12209332873E+04  0.25500000920E-02 0.  1.
    10030    2    1    2    0    0  0.00000000000E+00  0.00000000000E+00  0.19004665789E+04  0.43423331536E+04  0.39043672982E+04 0.  0.
        3    1    3    3  502    0  0.25196622219E+03  0.12115782319E+03 -0.11985519996E+04  0.12307286871E+04  0.10100000352E+00 0.  1.
       -3    1    3    3    0  502 -0.25196622219E+03 -0.12115782319E+03  0.30990185786E+04  0.31116044665E+04  0.10100000352E+00 0. -1.
</event>
<event>
 5   0  0.1876027E-07  0.3192150E+04  0.7818609E-02  0.8190893E-01
        1   -1    0    0  501    0  0.00000000000E+00  0.00000000000E+00  0.23840132975E+04  0.23840132975E+04  0.50400001928E-02 0. -1.
       -1   -1    0    0    0  501  0.00000000000E+00  0.00000000000E+00 -0.10685576749E+04  0.10685576749E+04  0.50400001928E-02 0.  1.
    10030    2    1    2    0    0  0.00000000000E+00  0.00000000000E+00  0.13154556226E+04  0.34525709723E+04  0.31921501882E+04 0.  0.
        3    1    3    3  502    0  0.99108213449E+03 -0.12265180762E+04  0.39089194270E+03  0.16246190044E+04  0.10100000352E+00 0.  1.
       -3    1    3    3    0  502 -0.99108213449E+03  0.12265180762E+04  0.92456367991E+03  0.18279519679E+04  0.10100000352E+00 0. -1.
</event>
<event>
 5   0  0.1876027E-07  0.3930155E+04  0.7818609E-02  0.8018787E-01
        1   -1    0    0  501    0  0.00000000000E+00  0.00000000000E+00  0.23390654708E+04  0.23390654708E+04  0.50400001928E-02 0.  1.
       -1   -1    0    0    0  501  0.00000000000E+00  0.00000000000E+00 -0.16508859319E+04  0.16508859319E+04  0.50400001928E-02 0. -1.
    10030    2    1    2    0    0  0.00000000000E+00  0.00000000000E+00  0.68817953891E+03  0.39899514028E+04  0.39301553556E+04 0.  0.
        3    1    3    3  502    0  0.15763200909E+04 -0.59918985388E+03 -0.68007858201E+03  0.18183290126E+04  0.10100000352E+00 0. -1.
       -3    1    3    3    0  502 -0.15763200909E+04  0.59918985388E+03  0.13682581209E+04  0.21716223902E+04  0.10100000352E+00 0.  1.
</event>
<event>
 5   0  0.1876027E-07  0.2646195E+04  0.7818609E-02  0.8352677E-01
       -1   -1    0    0    0  501  0.00000000000E+00  0.00000000000E+00  0.91411000416E+03  0.91411000417E+03  0.50400001928E-02 0.  1.
        1   -1    0    0  501    0  0.00000000000E+00  0.00000000000E+00 -0.19150720151E+04  0.19150720151E+04  0.50400001928E-02 0. -1.
    10030    2    1    2    0    0  0.00000000000E+00  0.00000000000E+00 -0.10009620110E+04  0.28291820193E+04  0.26461946170E+04 0.  0.
        3    1    3    3  502    0 -0.10860623553E+04  0.39628217062E+03 -0.11884159920E+04  0.16579817787E+04  0.10100000352E+00 0. -1.
       -3    1    3    3    0  502  0.10860623553E+04 -0.39628217062E+03  0.18745398107E+03  0.11712002406E+04  0.10100000352E+00 0.  1.
</event>
<event>
 5   0  0.5735179E-07  0.3875688E+04  0.7818609E-02  0.8030105E-01
        2   -1    0    0  501    0  0.00000000000E+00  0.00000000000E+00  0.27324334958E+04  0.27324334958E+04  0.25500000920E-02 0.  1.
       -2   -1    0    0    0  501  0.00000000000E+00  0.00000000000E+00 -0.13743204671E+04  0.13743204671E+04  0.25500000920E-02 0. -1.
    10030    2    1    2    0    0  0.00000000000E+00  0.00000000000E+00  0.13581130287E+04  0.41067539628E+04  0.38756879535E+04 0.  0.
        5    1    3    3  502    0 -0.11540822946E+04 -0.82036759970E+03  0.20809246079E+04  0.25169780005E+04  0.46999998093E+01 0.  1.
       -5    1    3    3    0  502  0.11540822946E+04  0.82036759970E+03 -0.72281157921E+03  0.15897759623E+04  0.46999998093E+01 0. -1.
</event>
<event>
 5   0  0.1943459E-07  0.3585651E+04  0.7818609E-02  0.8093787E-01
        1   -1    0    0  501    0  0.00000000000E+00  0.00000000000E+00  0.19751282893E+04  0.19751282893E+04  0.50400001928E-02 0. -1.
       -1   -1    0    0    0  501  0.00000000000E+00  0.00000000000E+00 -0.16273486741E+04  0.16273486741E+04  0.50400001928E-02 0.  1.
    10030    2    1    2    0    0  0.00000000000E+00  0.00000000000E+00  0.34777961515E+03  0.36024769634E+04  0.35856505143E+04 0.  0.
        2    1    3    3  502    0  0.10633529709E+04  0.13956051495E+04 -0.19633520404E+03  0.17654973199E+04  0.25500000920E-02 0.  1.
       -2    1    3    3    0  502 -0.10633529709E+04 -0.13956051495E+04  0.54411481918E+03  0.18369796435E+04  0.25500000920E-02 0. -1.
</event>
<event>
 5   0  0.1943459E-07  0.3640309E+04  0.7818609E-02  0.8081320E-01
        1   -1    0    0  501    0  0.00000000000E+00  0.00000000000E+00  0.16396673572E+04  0.16396673572E+04  0.50400001928E-02 0.  1.
       -1   -1    0    0    0  501  0.00000000000E+00  0.00000000000E+00 -0.20205090098E+04  0.20205090098E+04  0.50400001928E-02 0. -1.
    10030    2    1    2    0    0  0.00000000000E+00  0.00000000000E+00 -0.38084165258E+03  0.36601763670E+04  0.36403091453E+04 0.  0.
        2    1    3    3  502    0  0.60740724666E+03 -0.22250542263E+03  0.15201903538E+04  0.16520989493E+04  0.25500000920E-02 0.  1.
       -2    1    3    3    0  502 -0.60740724666E+03  0.22250542263E+03 -0.19010320064E+04  0.20080774177E+04  0.25500000920E-02 0. -1.
</event>
<event>
 5   0  0.5872444E-07  0.3485645E+04  0.7818609E-02  0.8117200E-01
       -2   -1    0    0    0  501  0.00000000000E+00  0.00000000000E+00  0.30015509615E+04  0.30015509615E+04  0.25500000920E-02 0.  1.
        2   -1    0    0  501    0  0.00000000000E+00  0.00000000000E+00 -0.10119536661E+04  0.10119536661E+04  0.25500000920E-02 0. -1.
    10030    2    1    2    0    0  0.00000000000E+00  0.00000000000E+00  0.19895972954E+04  0.40135046276E+04  0.34856451337E+04 0.  0.
        3    1    3    3  502    0 -0.50508615983E+03  0.41371429423E+03 -0.86581949705E+03  0.10843961259E+04  0.10100000352E+00 0. -1.
       -3    1    3    3    0  502  0.50508615983E+03 -0.41371429423E+03  0.28554167925E+04  0.29291085018E+04  0.10100000352E+00 0.  1.
</event>
<event>
 5   0  0.3959190E-07  0.3879476E+04  0.7818609E-02  0.8029311E-01
       -2   -1    0    0    0  501  0.00000000000E+00  0.00000000000E+00  0.15779527444E+04  0.15779527444E+04  0.25500000920E-02 0. -1.
        2   -1    0    0  501    0  0.00000000000E+00  0.00000000000E+00 -0.23844712999E+04  0.23844712999E+04  0.25500000920E-02 0.  1.
    10030    2    1    2    0    0  0.00000000000E+00  0.00000000000E+00 -0.80651855553E+03  0.39624240442E+04  0.38794757540E+04 0.  0.
        2    1    3    3  502    0  0.32138521159E+03 -0.11032690102E+04 -0.19993917198E+04  0.23060915447E+04  0.25500000920E-02 0.  1.
       -2    1    3    3    0  502 -0.32138521159E+03  0.11032690102E+04  0.11928731643E+04  0.16563324996E+04  0.25500000920E-02 0. -1.
</event>
<event>
 5   0  0.6095665E-07  0.3792108E+04  0.7818609E-02  0.8047851E-01
        2   -1    0    0  501    0  0.00000000000E+00  0.00000000000E+00  0.12503203670E+04  0.12503203670E+04  0.25500000920E-02 0.  1.
       -2   -1    0    0    0  501  0.00000000000E+00  0.00000000000E+00 -0.28752792576E+04  0.28752792576E+04  0.25500000920E-02 0. -1.
    10030    2    1    2    0    0  0.00000000000E+00  0.00000000000E+00 -0.16249588906E+04  0.41255996246E+04  0.37921077077E+04 0.  0.
        4    1    3    3  502    0 -0.55002372447E+03 -0.17452976666E+04 -0.27240710505E+03  0.18500803459E+04  0.12699999809E+01 0.  1.
       -4    1    3    3    0  502  0.55002372447E+03  0.17452976666E+04 -0.13525517856E+04  0.22755192788E+04  0.12699999809E+01 0. -1.
</event>
<event>
 5   0  0.1860500E-07  0.3518532E+04  0.7818609E-02  0.8109412E-01
       -1   -1    0    0    0  501  0.00000000000E+00  0.00000000000E+00  0.12957418000E+04  0.12957418000E+04  0.50400001928E-02 0. -1.
        1   -1    0    0  501    0  0.00000000000E+00  0.00000000000E+00 -0.23886068404E+04  0.23886068404E+04  0.50400001928E-02 0.  1.
    10030    2    1    2    0    0  0.00000000000E+00  0.00000000000E+00 -0.10928650404E+04  0.36843486405E+04  0.35185324935E+04 0.  0.
        5    1    3    3  502    0  0.11042770651E+04 -0.12587851676E+04  0.18460643333E+02  0.16746136331E+04  0.46999998093E+01 0. -1.
       -5    1    3    3    0  502 -0.11042770651E+04  0.12587851676E+04 -0.11113256837E+04  0.20097350074E+04  0.46999998093E+01 0.  1.
</event>
<event>
 5   0  0.1876027E-07  0.2632183E+04  0.7818609E-02  0.8357351E-01
        1   -1    0    0  501    0  0.00000000000E+00  0.00000000000E+00  0.22171050405E+04  0.22171050405E+04  0.50400001928E-02 0.  1.
       -1   -1    0    0    0  501  0.00000000000E+00  0.00000000000E+00 -0.78124261948E+03  0.78124261949E+03  0.50400001928E-02 0. -1.
    10030    2    1    2    0    0  0.00000000000E+00  0.00000000000E+00  0.14358624210E+04  0.29983476600E+04  0.26321830860E+04 0.  0.
        3    1    3    3  502    0  0.37307463755E+03 -0.83270743961E+02 -0.71661487871E+03  0.81219184715E+03  0.10100000352E+00 0. -1.
       -3    1    3    3    0  502 -0.37307463755E+03  0.83270743961E+02  0.21524772997E+04  0.21861558128E+04  0.10100000352E+00 0.  1.
</event>
<event>
 5   0  0.6095665E-07  0.3504496E+04  0.7818609E-02  0.8112725E-01
        2   -1    0    0  501    0  0.00000000000E+00  0.00000000000E+00  0.22147722678E+04  0.22147722678E+04  0.25500000920E-02 0. -1.
       -2   -1    0    0    0  501  0.00000000000E+00  0.00000000000E+00 -0.13863152604E+04  0.13863152604E+04  0.25500000920E-02 0.  1.
    10030    2    1    2    0    0  0.00000000000E+00  0.00000000000E+00  0.82845700741E+03  0.36010875283E+04  0.35044957373E+04 0.  0.
        4    1    3    3  502    0  0.35310036717E+03  0.11961500093E+04 -0.85051499555E+03  0.15095801021E+04  0.12699999809E+01 0.  1.
       -4    1    3    3    0  502 -0.35310036717E+03 -0.11961500093E+04  0.16789720030E+04  0.20915074262E+04  0.12699999809E+01 0. -1.
</event>
<event>
 5   0  0.5735179E-07  0.3860263E+04  0.7818609E-02  0.8033345E-01
        2   -1    0    0  501    0  0.00000000000E+00  0.00000000000E+00  0.17004575488E+04  0.17004575488E+04  0.25500000920E-02 0. -1.
       -2   -1    0    0    0  501  0.00000000000E+00  0.00000000000E+00 -0.21908265165E+04  0.21908265165E+04  0.25500000920E-02 0.  1.
    10030    2    1    2    0    0  0.00000000000E+00  0.00000000000E+00 -0.49036896775E+03  0.38912840653E+04  0.38602629382E+04 0.  0.
        5    1    3    3  502    0 -0.13380997456E+04 -0.10638020393E+04 -0.11486005600E+04  0.20594880540E+04  0.46999998093E+01 0.  1.
       -5    1    3    3    0  502  0.13380997456E+04  0.10638020393E+04  0.65823159227E+03  0.18317960113E+04  0.46999998093E+01 0. -1.
</event>
<event>
 5   0  0.1860500E-07  0.3976605E+04  0.7818609E-02  0.8009283E-01
       -1   -1    0    0    0  501  0.00000000000E+00  0.00000000000E+00  0.13290934923E+04  0.13290934924E+04  0.50400001928E-02 0. -1.
        1   -1    0    0  501    0  0.00000000000E+00  0.00000000000E+00 -0.29744684112E+04  0.29744684112E+04  0.50400001928E-02 0.  1.
    10030    2    1    2    0    0  0.00000000000E+00  0.00000000000E+00 -0.16453749188E+04  0.43035619035E+04  0.39766048878E+04 0.  0.
        5    1    3    3  502    0  0.12588238613E+04 -0.10604567411E+04  0.38442153864E+03  0.16902686245E+04  0.46999998093E+01 0. -1.
       -5    1    3    3    0  502 -0.12588238613E+04  0.10604567411E+04 -0.20297964575E+04  0.26132932791E+04  0.46999998093E+01 0.  1.
</event>
<event>
 5   0  0.1876027E-07  0.3904198E+04  0.7818609E-02  0.8024157E-01
       -1   -1    0    0    0  501  0.00000000000E+00  0.00000000000E+00  0.17918978519E+04  0.17918978519E+04  0.50400001928E-02 0. -1.
        1   -1    0    0  501    0  0.00000000000E+00  0.00000000000E+00 -0.21266222379E+04  0.21266222379E+04  0.50400001928E-02 0.  1.
    10030    2    1    2    0    0  0.00000000000E+00  0.00000000000E+00 -0.33472438606E+03  0.39185200898E+04  0.39041976486E+04 0.  0.
        3    1    3    3  502    0  0.94935943840E+03  0.13869783868E+04  0.82910290595E+03  0.18741408772E+04  0.10100000352E+00 0. -1.
       -3    1    3    3    0  502 -0.94935943840E+03 -0.13869783868E+04 -0.11638272920E+04  0.20443792126E+04  0.10100000352E+00 0.  1.
</event>
<event>
 5   0  0.3959190E-07  0.3763848E+04  0.7818609E-02  0.8053958E-01
        2   -1    0    0  501    0  0.00000000000E+00  0.00000000000E+00  0.25532535063E+04  0.25532535063E+04  0.25500000920E-02 0. -1.
       -2   -1    0    0    0  501  0.00000000000E+00  0.00000000000E+00 -0.13871074798E+04  0.13871074798E+04  0.25500000920E-02 0.  1.
    10030    2    1    2    0    0  0.00000000000E+00  0.00000000000E+00  0.11661460265E+04  0.39403609860E+04  0.37638475188E+04 0.  0.
        2    1    3    3  502    0 -0.18447790016E+04  0.18596216932E+03  0.92043637870E+03  0.20700228550E+04  0.25500000920E-02 0. -1.
       -2    1    3    3    0  502  0.18447790016E+04 -0.18596216932E+03  0.24570964782E+03  0.18703381310E+04  0.25500000920E-02 0.  1.
</event>
<event>
 5   0  0.5872444E-07  0.3846002E+04  0.7818609E-02  0.8036354E-01
       -2   -1    0    0    0  501  0.00000000000E+00  0.00000000000E+00  0.14153823507E+04  0.14153823507E+04  0.25500000920E-02 0. -1.
        2   -1    0    0  501    0  0.00000000000E+00  0.00000000000E+00 -0.26126742747E+04  0.26126742747E+04  0.25500000920E-02 0.  1.
    10030    2    1    2    0    0  0.00000000000E+00  0.00000000000E+00 -0.11972919241E+04  0.40280566254E+04  0.38460021094E+04 0.  0.
        3    1    3    3  502    0  0.13586062494E+04  0.69154381151E+03 -0.18262601912E+04  0.23789220416E+04  0.10100000352E+00 0.  1.
       -3    1    3    3    0  502 -0.13586062494E+04 -0.69154381151E+03  0.62896826713E+03  0.16491345837E+04  0.10100000352E+00 0. -1.
</event>
<event>
 5   0  0.6095665E-07  0.3746951E+04  0.7818609E-02  0.8057636E-01
       -2   -1    0    0    0  501  0.00000000000E+00  0.00000000000E+00  0.18021064114E+04  0.18021064114E+04  0.25500000920E-02 0.  1.
        2   -1    0    0  501    0  0.00000000000E+00  0.00000000000E+00 -0.19476707629E+04  0.19476707629E+04  0.25500000920E-02 0. -1.
    10030    2    1    2    0    0  0.00000000000E+00  0.00000000000E+00 -0.14556435152E+03  0.37497771743E+04  0.37469507438E+04 0.  0.
        4    1    3    3  502    0  0.13355258218E+03  0.13775878546E+04 -0.13363999822E+04  0.19239415570E+04  0.12699999809E+01 0. -1.
       -4    1    3    3    0  502 -0.13355258218E+03 -0.13775878546E+04  0.11908356307E+04  0.18258356173E+04  0.12699999809E+01 0.  1.
</event>
<event>
 5   0  0.3959190E-07  0.3252388E+04  0.7818609E-02  0.8175117E-01
        2   -1    0    0  501    0  0.00000000000E+00  0.00000000000E+00  0.22907932056E+04  0.22907932056E+04  0.25500000920E-02 0. -1.
       -2   -1    0    0    0  501  0.00000000000E+00  0.00000000000E+00 -0.11544066542E+04  0.11544066543E+04  0.25500000920E-02 0.  1.
    10030    2    1    2    0    0  0.00000000000E+00  0.00000000000E+00  0.11363865514E+04  0.34451998599E+04  0.32523879966E+04 0.  0.
        2    1    3    3  502    0 -0.66874202276E+03 -0.53288685766E+01 -0.10019997936E+04  0.12046774989E+04  0.25500000920E-02 0.  1.
       -2    1    3    3    0  502  0.66874202276E+03  0.53288685766E+01  0.21383863450E+04  0.22405223610E+04  0.25500000920E-02 0. -1.
</event>
<event>
 5   0  0.5735179E-07  0.3981062E+04  0.7818609E-02  0.8008378E-01
        2   -1    0    0  501    0  0.00000000000E+00  0.00000000000E+00  0.16995788593E+04  0.16995788593E+04  0.25500000920E-02 0. -1.
       -2   -1    0    0    0  501  0.00000000000E+00  0.00000000000E+00 -0.23312910167E+04  0.23312910167E+04  0.25500000920E-02 0.  1.
    10030    2    1    2    0    0  0.00000000000E+00  0.00000000000E+00 -0.63171215739E+03  0.40308698761E+04  0.39810616308E+04 0.  0.
        5    1    3    3  502    0 -0.42162070773E+03  0.73874084648E+03  0.15062954336E+04  0.17298699612E+04  0.46999998093E+01 0. -1.
       -5    1    3    3    0  502  0.42162070773E+03 -0.73874084648E+03 -0.21380075910E+04  0.23009999149E+04  0.46999998093E+01 0.  1.
</event>
<event>
 5   0  0.5872444E-07  0.3625959E+04  0.7818609E-02  0.8084571E-01
        2   -1    0    0  501    0  0.00000000000E+00  0.00000000000E+00  0.13718251350E+04  0.13718251350E+04  0.25500000920E-02 0. -1.
       -2   -1    0    0    0  501  0.00000000000E+00  0.00000000000E+00 -0.23960016051E+04  0.23960016051E+04  0.25500000920E-02 0.  1.
    10030    2    1    2    0    0  0.00000000000E+00  0.00000000000E+00 -0.10241764701E+04  0.37678267400E+04  0.36259593077E+04 0.  0.
        3    1    3    3  502    0 -0.15938150422E+03 -0.23599891189E+02 -0.23885474185E+04  0.23939753966E+04  0.10100000352E+00 0.  1.
       -3    1    3    3    0  502  0.15938150422E+03  0.23599891189E+02  0.13643709484E+04  0.13738513434E+04  0.10100000352E+00 0. -1.
</event>
<event>
 5   0  0.1943459E-07  0.3114005E+04  0.7818609E-02  0.8211905E-01
        1   -1    0    0  501    0  0.00000000000E+00  0.00000000000E+00  0.20250195542E+04  0.20250195542E+04  0.50400001928E-02 0. -1.
       -1   -1    0    0    0  501  0.00000000000E+00  0.00000000000E+00 -0.11971524874E+04  0.11971524874E+04  0.50400001928E-02 0.  1.
    10030    2    1    2    0    0  0.00000000000E+00  0.00000000000E+00  0.82786706679E+03  0.32221720415E+04  0.31140052641E+04 0.  0.
        2    1    3    3  502    0 -0.20056562749E+03 -0.54676078126E+03  0.19080728188E+04  0.19949726325E+04  0.25500000920E-02 0. -1.
       -2    1    3    3    0  502  0.20056562749E+03  0.54676078126E+03 -0.10802057520E+04  0.12271994090E+04  0.25500000920E-02 0.  1.
</event>
<event>
 5   0  0.5735179E-07  0.3926916E+04  0.7818609E-02  0.8019454E-01
       -2   -1    0    0    0  501  0.00000000000E+00  0.00000000000E+00  0.20356036408E+04  0.20356036408E+04  0.25500000920E-02 0. -1.
        2   -1    0    0  501    0  0.00000000000E+00  0.00000000000E+00 -0.18938691984E+04  0.18938691984E+04  0.25500000920E-02 0.  1.
    10030    2    1    2    0    0  0.00000000000E+00  0.00000000000E+00  0.14173444234E+03  0.39294728392E+04  0.39269158562E+04 0.  0.
        5    1    3    3  502    0 -0.50166860770E+03  0.18861851631E+04 -0.14323257038E+03  0.19570139296E+04  0.46999998093E+01 0.  1.
       -5    1    3    3    0  502  0.50166860770E+03 -0.18861851631E+04  0.28496701272E+03  0.19724589095E+04  0.46999998093E+01 0. -1.
</event>
<event>
 5   0  0.1860500E-07  0.3183948E+04  0.7818609E-02  0.8193069E-01
       -1   -1    0    0    0  501  0.00000000000E+00  0.00000000000E+00  0.10122767429E+04  0.10122767429E+04  0.50400001928E-02 0.  1.
        1   -1    0    0  501    0  0.00000000000E+00  0.00000000000E+00 -0.25036445319E+04  0.25036445319E+04  0.50400001928E-02 0. -1.
    10030    2    1    2    0    0  0.00000000000E+00  0.00000000000E+00 -0.14913677891E+04  0.35159212748E+04  0.31839479469E+04 0.  0.
        5    1    3    3  502    0  0.33628855091E+03 -0.38800074779E+03 -0.24096918698E+04  0.24637921112E+04  0.46999998093E+01 0. -1.
       -5    1    3    3    0  502 -0.33628855091E+03  0.38800074779E+03  0.91832408073E+03  0.10521291637E+04  0.46999998093E+01 0.  1.
</event>
<event>
 5   0  0.1860500E-07  0.3830740E+04  0.7818609E-02  0.8039590E-01
       -1   -1    0    0    0  501  0.00000000000E+00  0.00000000000E+00  0.27414016222E+04  0.27414016222E+04  0.50400001928E-02 0.  1.
        1   -1    0    0  501    0  0.00000000000E+00  0.00000000000E+00 -0.13382356462E+04  0.13382356462E+04  0.50400001928E-02 0. -1.
    10030    2    1    2    0    0  0.00000000000E+00  0.00000000000E+00  0.14031659760E+04  0.40796372684E+04  0.38307395482E+04 0.  0.
        5    1    3    3  502    0  0.25131270897E+03 -0.96338121733E+02  0.27211564077E+04  0.27344384060E+04  0.46999998093E+01 0.  1.
       -5    1    3    3    0  502 -0.25131270897E+03  0.96338121733E+02 -0.13179904317E+04  0.13451988624E+04  0.46999998093E+01 0. -1.
</event>
<event>
 5   0  0.1860500E-07  0.2434148E+04  0.7818609E-02  0.8426829E-01
       -1   -1    0    0    0  501  0.00000000000E+00  0.00000000000E+00  0.11111473711E+04  0.11111473711E+04  0.50400001928E-02 0.  1.
        1   -1    0    0  501    0  0.00000000000E+00  0.00000000000E+00 -0.13330982551E+04  0.13330982551E+04  0.50400001928E-02 0. -1.
    10030    2    1    2    0    0  0.00000000000E+00  0.00000000000E+00 -0.22195088401E+03  0.24442456262E+04  0.24341475892E+04 0.  0.
        5    1    3    3  502    0 -0.10612944335E+03 -0.97723066242E+03 -0.83158986075E+03  0.12875585473E+04  0.46999998093E+01 0. -1.
       -5    1    3    3    0  502  0.10612944335E+03  0.97723066242E+03  0.60963897674E+03  0.11566870788E+04  0.46999998093E+01 0.  1.
</event>
<event>
 5   0  0.1860500E-07  0.3808111E+04  0.7818609E-02  0.8044416E-01
       -1   -1    0    0    0  501  0.00000000000E+00  0.00000000000E+00  0.35058586799E+04  0.35058586800E+04  0.50400001928E-02 0.  1.
        1   -1    0    0  501    0  0.00000000000E+00  0.00000000000E+00 -0.10341054678E+04  0.10341054678E+04  0.50400001928E-02 0. -1.
    10030    2    1    2    0    0  0.00000000000E+00  0.00000000000E+00  0.24717532121E+04  0.45399641478E+04  0.38081111488E+04 0.  0.
        4    1    3    3  502    0  0.80429954248E+03 -0.35824916300E+03 -0.77682500160E+03  0.11741801024E+04  0.12699999809E+01 0. -1.
       -4    1    3    3    0  502 -0.80429954248E+03  0.35824916300E+03  0.32485782137E+04  0.33657840454E+04  0.12699999809E+01 0.  1.
</event>
<event>
 5   0  0.5805753E-07  0.3918436E+04  0.7818609E-02  0.8021206E-01
        2   -1    0    0  501    0  0.00000000000E+00  0.00000000000E+00  0.15098677843E+04  0.15098677843E+04  0.25500000920E-02 0.  1.
       -2   -1    0    0    0  501  0.00000000000E+00  0.00000000000E+00 -0.25422992373E+04  0.25422992373E+04  0.25500000920E-02 0. -1.
    10030    2    1    2    0    0  0.00000000000E+00  0.00000000000E+00 -0.10324314529E+04  0.40521670216E+04  0.39184362782E+04 0.  0.
        1    1    3    3  502    0  0.16335432717E+04 -0.84077559318E+03  0.18757583583E+03  0.18467679640E+04  0.50400001928E-02 0.  1.
       -1    1    3    3    0  502 -0.16335432717E+04  0.84077559318E+03 -0.12200072887E+04  0.22053990576E+04  0.50400001928E-02 0. -1.
</event>
<event>
 5   0  0.5735179E-07  0.3987685E+04  0.7818609E-02  0.8007036E-01
       -2   -1    0    0    0  501  0.00000000000E+00  0.00000000000E+00  0.18289347163E+04  0.18289347163E+04  0.25500000920E-02 0. -1.
        2   -1    0    0  501    0  0.00000000000E+00  0.00000000000E+00 -0.21736188249E+04  0.21736188249E+04  0.25500000920E-02 0.  1.
    10030    2    1    2    0    0  0.00000000000E+00  0.00000000000E+00 -0.34468410860E+03  0.40025535412E+04  0.39876845055E+04 0.  0.
        5    1    3    3  502    0  0.81212083391E+03 -0.19230988484E+03  0.16451724917E+04  0.18447595936E+04  0.46999998093E+01 0. -1.
       -5    1    3    3    0  502 -0.81212083391E+03  0.19230988484E+03 -0.19898566003E+04  0.21577939476E+04  0.46999998093E+01 0.  1.
</event>
<event>
 5   0  0.1860500E-07  0.3872992E+04  0.7818609E-02  0.8030670E-01
       -1   -1    0    0    0  501  0.00000000000E+00  0.00000000000E+00  0.31697824783E+04  0.31697824783E+04  0.50400001928E-02 0.  1.
        1   -1    0    0  501    0  0.00000000000E+00  0.00000000000E+00 -0.11830518582E+04  0.11830518582E+04  0.50400001928E-02 0. -1.
    10030    2    1    2    0    0  0.00000000000E+00  0.00000000000E+00  0.19867306201E+04  0.43528343366E+04  0.38729921514E+04 0.  0.
        4    1    3    3  502    0  0.18828361290E+04 -0.39520349993E+03  0.12415341898E+04  0.22896869769E+04  0.12699999809E+01 0. -1.
       -4    1    3    3    0  502 -0.18828361290E+04  0.39520349993E+03  0.74519643027E+03  0.20631473596E+04  0.12699999809E+01 0.  1.
</event>
<event>
 5   0  0.3959190E-07  0.3422270E+04  0.7818609E-02  0.8132462E-01
        2   -1    0    0  501    0  0.00000000000E+00  0.00000000000E+00  0.10441438748E+04  0.10441438748E+04  0.25500000920E-02 0. -1.
       -2   -1    0    0    0  501  0.00000000000E+00  0.00000000000E+00 -0.28041944006E+04  0.28041944006E+04  0.25500000920E-02 0.  1.
    10030    2    1    2    0    0  0.00000000000E+00  0.00000000000E+00 -0.17600505259E+04  0.38483382754E+04  0.34222696604E+04 0.  0.
        2    1    3    3  502    0 -0.12666237448E+04  0.47670324919E+03  0.29742797112E+03  0.13856569188E+04  0.25500000920E-02 0. -1.
       -2    1    3    3    0  502  0.12666237448E+04 -0.47670324919E+03 -0.20574784970E+04  0.24626813566E+04  0.25500000920E-02 0.  1.
</event>
<event>
 5   0  0.3959190E-07  0.4487984E+04  0.7818609E-02  0.7912744E-01
        2   -1    0    0  501    0  0.00000000000E+00  0.00000000000E+00  0.20197324070E+04  0.20197324070E+04  0.25500000920E-02 0. -1.
       -2   -1    0    0    0  501  0.00000000000E+00  0.00000000000E+00 -0.24931523988E+04  0.24931523988E+04  0.25500000920E-02 0.  1.
    10030    2    1    2    0    0  0.00000000000E+00  0.00000000000E+00 -0.47341999188E+03  0.45128848058E+04  0.44879842671E+04 0.  0.
        2    1    3    3  502    0 -0.82620636061E+03 -0.14016175222E+04 -0.17907138639E+04  0.24194637363E+04  0.25500000920E-02 0.  1.
       -2    1    3    3    0  502  0.82620636061E+03  0.14016175222E+04  0.13172938720E+04  0.20934210695E+04  0.25500000920E-02 0. -1.
</event>
<event>
 5   0  0.1860500E-07  0.3814217E+04  0.7818609E-02  0.8043111E-01
        1   -1    0    0  501    0  0.00000000000E+00  0.00000000000E+00  0.21177903850E+04  0.21177903850E+04  0.50400001928E-02 0.  1.
       -1   -1    0    0    0  501  0.00000000000E+00  0.00000000000E+00 -0.17173857875E+04  0.17173857875E+04  0.50400001928E-02 0. -1.
    10030    2    1    2    0    0  0.00000000000E+00  0.00000000000E+00  0.40040459753E+03  0.38351761726E+04  0.38142171455E+04 0.  0.
        4    1    3    3  502    0  0.49143715558E+03 -0.12569338107E+02 -0.16525822949E+04  0.17241514784E+04  0.12699999809E+01 0. -1.
       -4    1    3    3    0  502 -0.49143715558E+03  0.12569338107E+02  0.20529868924E+04  0.21110246942E+04  0.12699999809E+01 0.  1.
</event>
<event>
 5   0  0.5872444E-07  0.3891293E+04  0.7818609E-02  0.8026842E-01
       -2   -1    0    0    0  501  0.00000000000E+00  0.00000000000E+00  0.15039476926E+04  0.15039476926E+04  0.25500000920E-02 0. -1.
        2   -1    0    0  501    0  0.00000000000E+00  0.00000000000E+00 -0.25170695623E+04  0.25170695623E+04  0.25500000920E-02 0.  1.
    10030    2    1    2    0    0  0.00000000000E+00  0.00000000000E+00 -0.10131218698E+04  0.40210172549E+04  0.38912933379E+04 0.  0.
        3    1    3    3  502    0  0.14268948629E+04 -0.22250971965E+03 -0.18538680675E+04  0.23499715630E+04  0.10100000352E+00 0.  1.
       -3    1    3    3    0  502 -0.14268948629E+04  0.22250971965E+03  0.84074619772E+03  0.16710456919E+04  0.10100000352E+00 0. -1.
</event>
<event>
 5   0  0.1876027E-07  0.3870780E+04  0.7818609E-02  0.8031134E-01
        1   -1    0    0  501    0  0.00000000000E+00  0.00000000000E+00  0.22550191008E+04  0.22550191009E+04  0.50400001928E-02 0.  1.
       -1   -1    0    0    0  501  0.00000000000E+00  0.00000000000E+00 -0.16610652955E+04  0.16610652955E+04  0.50400001928E-02 0. -1.
    10030    2    1    2    0    0  0.00000000000E+00  0.00000000000E+00  0.59395380539E+03  0.39160843963E+04  0.38707797504E+04 0.  0.
        3    1    3    3  502    0  0.11053448503E+04 -0.10211850051E+04 -0.93428336367E+03  0.17712965495E+04  0.10100000352E+00 0. -1.
       -3    1    3    3    0  502 -0.11053448503E+04  0.10211850051E+04  0.15282371691E+04  0.21447878468E+04  0.10100000352E+00 0.  1.
</event>
<event>
 5   0  0.3959190E-07  0.3978484E+04  0.7818609E-02  0.8008901E-01
        2   -1    0    0  501    0  0.00000000000E+00  0.00000000000E+00  0.20740412020E+04  0.20740412020E+04  0.25500000920E-02 0.  1.
       -2   -1    0    0    0  501  0.00000000000E+00  0.00000000000E+00 -0.19079096626E+04  0.19079096626E+04  0.25500000920E-02 0. -1.
    10030    2    1    2    0    0  0.00000000000E+00  0.00000000000E+00  0.16613153942E+03  0.39819508646E+04  0.39784837564E+04 0.  0.
        2    1    3    3  502    0  0.10103020579E+04  0.16832233344E+04  0.40448767097E+03  0.20043855213E+04  0.25500000920E-02 0.  1.
       -2    1    3    3    0  502 -0.10103020579E+04 -0.16832233344E+04 -0.23835613155E+03  0.19775653434E+04  0.25500000920E-02 0. -1.
</event>
<event>
 5   0  0.5735179E-07  0.3270739E+04  0.7818609E-02  0.8170381E-01
        2   -1    0    0  501    0  0.00000000000E+00  0.00000000000E+00  0.23390100557E+04  0.23390100557E+04  0.25500000920E-02 0.  1.
       -2   -1    0    0    0  501  0.00000000000E+00  0.00000000000E+00 -0.11434042432E+04  0.11434042432E+04  0.25500000920E-02 0. -1.
    10030    2    1    2    0    0  0.00000000000E+00  0.00000000000E+00  0.11956058125E+04  0.34824142990E+04  0.32707393798E+04 0.  0.
        5    1    3    3  502    0 -0.14080392895E+04  0.78598332496E+03  0.88756952630E+03  0.18406917672E+04  0.46999998093E+01 0.  1.
       -5    1    3    3    0  502  0.14080392895E+04 -0.78598332496E+03  0.30803628619E+03  0.16417225318E+04  0.46999998093E+01 0. -1.
</event>
<event>
 5   0  0.2666813E-07  0.2490452E+04  0.7818609E-02  0.8406395E-01
       -1   -1    0    0    0  501  0.00000000000E+00  0.00000000000E+00  0.89311694785E+03  0.89311694786E+03  0.50400001928E-02 0.  1.
        1   -1    0    0  501    0  0.00000000000E+00  0.00000000000E+00 -0.17361526002E+04  0.17361526002E+04  0.50400001928E-02 0. -1.
    10030    2    1    2    0    0  0.00000000000E+00  0.00000000000E+00 -0.84303565235E+03  0.26292695481E+04  0.24904516147E+04 0.  0.
        1    1    3    3  502    0 -0.86787235888E+03 -0.72705032451E+03 -0.96885842576E+03  0.14901312878E+04  0.50400001928E-02 0. -1.
       -1    1    3    3    0  502  0.86787235888E+03  0.72705032451E+03  0.12582277341E+03  0.11391382603E+04  0.50400001928E-02 0.  1.
</event>
<event>
 5   0  0.2666813E-07  0.3880435E+04  0.7818609E-02  0.8029111E-01
       -1   -1    0    0    0  501  0.00000000000E+00  0.00000000000E+00  0.26655959488E+04  0.26655959488E+04  0.50400001928E-02 0.  1.
        1   -1    0    0  501    0  0.00000000000E+00  0.00000000000E+00 -0.14122334958E+04  0.14122334958E+04  0.50400001928E-02 0. -1.
    10030    2    1    2    0    0  0.00000000000E+00  0.00000000000E+00  0.12533624531E+04  0.40778294446E+04  0.38804349679E+04 0.  0.
        1    1    3    3  502    0  0.18329865534E+04  0.14157737748E+03 -0.24993258478E+02  0.18386159255E+04  0.50400001928E-02 0. -1.
       -1    1    3    3    0  502 -0.18329865534E+04 -0.14157737748E+03  0.12783557115E+04  0.22392135190E+04  0.50400001928E-02 0.  1.
</event>
<event>
 5   0  0.1876027E-07  0.3171061E+04  0.7818609E-02  0.8196502E-01
        1   -1    0    0  501    0  0.00000000000E+00  0.00000000000E+00  0.14480170326E+04  0.14480170326E+04  0.50400001928E-02 0. -1.
       -1   -1    0    0    0  501  0.00000000000E+00  0.00000000000E+00 -0.17361036636E+04  0.17361036636E+04  0.50400001928E-02 0.  1.
    10030    2    1    2    0    0  0.00000000000E+00  0.00000000000E+00 -0.28808663095E+03  0.31841206962E+04  0.31710614471E+04 0.  0.
        3    1    3    3  502    0  0.21462135815E+03  0.23161088015E+03  0.14161256799E+04  0.14509024359E+04  0.10100000352E+00 0. -1.
       -3    1    3    3    0  502 -0.21462135815E+03 -0.23161088015E+03 -0.17042123108E+04  0.17332182603E+04  0.10100000352E+00 0.  1.
</event>
<event>
 5   0  0.3959190E-07  0.3872674E+04  0.7818609E-02  0.8030737E-01
       -2   -1    0    0    0  501  0.00000000000E+00  0.00000000000E+00  0.12558841531E+04  0.12558841531E+04  0.25500000920E-02 0. -1.
        2   -1    0    0  501    0  0.00000000000E+00  0.00000000000E+00 -0.29854676375E+04  0.29854676375E+04  0.25500000920E-02 0.  1.
    10030    2    1    2    0    0  0.00000000000E+00  0.00000000000E+00 -0.17295834844E+04  0.42413517906E+04  0.38726742674E+04 0.  0.
        2    1    3    3  502    0 -0.10452509977E+04 -0.11427286411E+04  0.40819744052E+03  0.16015628448E+04  0.25500000920E-02 0. -1.
       -2    1    3    3    0  502  0.10452509977E+04  0.11427286411E+04 -0.21377809250E+04  0.26397889458E+04  0.25500000920E-02 0.  1.
</event>
<event>
 5   0  0.5805753E-07  0.3946338E+04  0.7818609E-02  0.8015460E-01
       -2   -1    0    0    0  501  0.00000000000E+00  0.00000000000E+00  0.20231506638E+04  0.20231506638E+04  0.25500000920E-02 0.  1.
        2   -1    0    0  501    0  0.00000000000E+00  0.00000000000E+00 -0.19244216504E+04  0.19244216504E+04  0.25500000920E-02 0. -1.
    10030    2    1    2    0    0  0.00000000000E+00  0.00000000000E+00  0.98729013436E+02  0.39475723142E+04  0.39463375119E+04 0.  0.
        1    1    3    3  502    0 -0.14062807169E+04  0.89864114046E+03  0.11024111391E+04  0.20001229147E+04  0.50400001928E-02 0.  1.
       -1    1    3    3    0  502  0.14062807169E+04 -0.89864114046E+03 -0.10036821257E+04  0.19474493995E+04  0.50400001928E-02 0. -1.
</event>
<event>
 5   0  0.5735179E-07  0.3835584E+04  0.7818609E-02  0.8038561E-01
        2   -1    0    0  501    0  0.00000000000E+00  0.00000000000E+00  0.20658814762E+04  0.20658814762E+04  0.25500000920E-02 0.  1.
       -2   -1    0    0    0  501  0.00000000000E+00  0.00000000000E+00 -0.17803182806E+04  0.17803182806E+04  0.25500000920E-02 0. -1.
    10030    2    1    2    0    0  0.00000000000E+00  0.00000000000E+00  0.28556319566E+03  0.38461997568E+04  0.38355842098E+04 0.  0.
        5    1    3    3  502    0  0.94549820207E+03 -0.12986861199E+04  0.11932265288E+04  0.20010907344E+04  0.46999998093E+01 0.  1.
       -5    1    3    3    0  502 -0.94549820207E+03  0.12986861199E+04 -0.90766333316E+03  0.18451090224E+04  0.46999998093E+01 0. -1.
</event>
<event>
 5   0  0.5735179E-07  0.4025072E+04  0.7818609E-02  0.7999508E-01
        2   -1    0    0  501    0  0.00000000000E+00  0.00000000000E+00  0.17712714950E+04  0.17712714950E+04  0.25500000920E-02 0. -1.
       -2   -1    0    0    0  501  0.00000000000E+00  0.00000000000E+00 -0.22866625267E+04  0.22866625267E+04  0.25500000920E-02 0.  1.
    10030    2    1    2    0    0  0.00000000000E+00  0.00000000000E+00 -0.51539103174E+03  0.40579340217E+04  0.40250715035E+04 0.  0.
        5    1    3    3  502    0  0.38290813307E+03 -0.54250174992E+03  0.16576448314E+04  0.17857030168E+04  0.46999998093E+01 0. -1.
       -5    1    3    3    0  502 -0.38290813307E+03  0.54250174992E+03 -0.21730358632E+04  0.22722310049E+04  0.46999998093E+01 0.  1.
</event>
<event>
 5   0  0.1860500E-07  0.3410862E+04  0.7818609E-02  0.8135245E-01
        1   -1    0    0  501    0  0.00000000000E+00  0.00000000000E+00  0.22394112746E+04  0.22394112747E+04  0.50400001928E-02 0.  1.
       -1   -1    0    0    0  501  0.00000000000E+00  0.00000000000E+00 -0.12987769514E+04  0.12987769514E+04  0.50400001928E-02 0. -1.
    10030    2    1    2    0    0  0.00000000000E+00  0.00000000000E+00  0.94063432326E+03  0.35381882260E+04  0.34108624998E+04 0.  0.
        5    1    3    3  502    0  0.15305560519E+04 -0.37761456680E+03  0.11452026927E+04  0.19485137635E+04  0.46999998093E+01 0.  1.
       -5    1    3    3    0  502 -0.15305560519E+04  0.37761456680E+03 -0.20456836947E+03  0.15896744625E+04  0.46999998093E+01 0. -1.
</event>
<event>
 5   0  0.3959190E-07  0.3919616E+04  0.7818609E-02  0.8020962E-01
        2   -1    0    0  501    0  0.00000000000E+00  0.00000000000E+00  0.32966194555E+04  0.32966194555E+04  0.25500000920E-02 0. -1.
       -2   -1    0    0    0  501  0.00000000000E+00  0.00000000000E+00 -0.11650868848E+04  0.11650868848E+04  0.25500000920E-02 0.  1.
    10030    2    1    2    0    0  0.00000000000E+00  0.00000000000E+00  0.21315325707E+04  0.44617063403E+04  0.39196163546E+04 0.  0.
        2    1    3    3  502    0  0.51270294674E+03  0.16428768161E+04 -0.14118637234E+01  0.17210202027E+04  0.25500000920E-02 0.  1.
       -2    1    3    3    0  502 -0.51270294674E+03 -0.16428768161E+04  0.21329444344E+04  0.27406861376E+04  0.25500000920E-02 0. -1.
</event>
<event>
 5   0  0.1876027E-07  0.2559670E+04  0.7818609E-02  0.8382031E-01
       -1   -1    0    0    0  501  0.00000000000E+00  0.00000000000E+00  0.12284397801E+04  0.12284397801E+04  0.50400001928E-02 0.  1.
        1   -1    0    0  501    0  0.00000000000E+00  0.00000000000E+00 -0.13333808801E+04  0.13333808801E+04  0.50400001928E-02 0. -1.
    10030    2    1    2    0    0  0.00000000000E+00  0.00000000000E+00 -0.10494110003E+03  0.25618206602E+04  0.25596703813E+04 0.  0.
        3    1    3    3  502    0 -0.17944606887E+03 -0.14228948694E+03  0.12077659037E+04  0.12292866541E+04  0.10100000352E+00 0.  1.
       -3    1    3    3    0  502  0.17944606887E+03  0.14228948694E+03 -0.13127070037E+04  0.13325340061E+04  0.10100000352E+00 0. -1.
</event>
<event>
 5   0  0.6095665E-07  0.3674565E+04  0.7818609E-02  0.8073622E-01
       -2   -1    0    0    0  501  0.00000000000E+00  0.00000000000E+00  0.19881930178E+04  0.19881930178E+04  0.25500000920E-02 0.  1.
        2   -1    0    0  501    0  0.00000000000E+00  0.00000000000E+00 -0.16978266214E+04  0.16978266214E+04  0.25500000920E-02 0. -1.
    10030    2    1    2    0    0  0.00000000000E+00  0.00000000000E+00  0.29036639641E+03  0.36860196392E+04  0.36745650269E+04 0.  0.
        4    1    3    3  502    0 -0.70042047961E+03  0.10105965245E+04  0.15146169247E+04  0.19508870355E+04  0.12699999809E+01 0.  1.
       -4    1    3    3    0  502  0.70042047961E+03 -0.10105965245E+04 -0.12242505283E+04  0.17351326038E+04  0.12699999809E+01 0. -1.
</event>
<event>
 5   0  0.1876027E-07  0.3953262E+04  0.7818609E-02  0.8014042E-01
        1   -1    0    0  501    0  0.00000000000E+00  0.00000000000E+00  0.14520186799E+04  0.14520186799E+04  0.50400001928E-02 0. -1.
       -1   -1    0    0    0  501  0.00000000000E+00  0.00000000000E+00 -0.26907855157E+04  0.26907855157E+04  0.50400001928E-02 0.  1.
    10030    2    1    2    0    0  0.00000000000E+00  0.00000000000E+00 -0.12387668359E+04  0.41428041956E+04  0.39532623654E+04 0.  0.
        3    1    3    3  502    0 -0.27345512298E+03  0.19565489511E+04 -0.55139346753E+03  0.20510719804E+04  0.10100000352E+00 0. -1.
       -3    1    3    3    0  502  0.27345512298E+03 -0.19565489511E+04 -0.68737336833E+03  0.20917322152E+04  0.10100000352E+00 0.  1.
</event>
<event>
 5   0  0.2666813E-07  0.3906269E+04  0.7818609E-02  0.8023727E-01
        1   -1    0    0  501    0  0.00000000000E+00  0.00000000000E+00  0.15736428378E+04  0.15736428378E+04  0.50400001928E-02 0. -1.
       -1   -1    0    0    0  501  0.00000000000E+00  0.00000000000E+00 -0.24241421745E+04  0.24241421746E+04  0.50400001928E-02 0.  1.
    10030    2    1    2    0    0  0.00000000000E+00  0.00000000000E+00 -0.85049933676E+03  0.39977850123E+04  0.39062687930E+04 0.  0.
        1    1    3    3  502    0  0.19401794852E+04  0.21399154745E+03 -0.49500177869E+03  0.20137317542E+04  0.50400001928E-02 0. -1.
       -1    1    3    3    0  502 -0.19401794852E+04 -0.21399154745E+03 -0.35549755807E+03  0.19840532581E+04  0.50400001928E-02 0.  1.
</event>
<event>
 5   0  0.6095665E-07  0.3375658E+04  0.7818609E-02  0.8143907E-01
       -2   -1    0    0    0  501  0.00000000000E+00  0.00000000000E+00  0.10882833582E+04  0.10882833583E+04  0.25500000920E-02 0.  1.
        2   -1    0    0  501    0  0.00000000000E+00  0.00000000000E+00 -0.26176693269E+04  0.26176693269E+04  0.25500000920E-02 0. -1.
    10030    2    1    2    0    0  0.00000000000E+00  0.00000000000E+00 -0.15293859686E+04  0.37059526851E+04  0.33756575453E+04 0.  0.
        4    1    3    3  502    0  0.29802292564E+03  0.59163523006E+03 -0.24689782949E+04  0.25563069736E+04  0.12699999809E+01 0. -1.
       -4    1    3    3    0  502 -0.29802292564E+03 -0.59163523006E+03  0.93959232625E+03  0.11496457116E+04  0.12699999809E+01 0.  1.
</event>
<event>
 5   0  0.5805753E-07  0.3851404E+04  0.7818609E-02  0.8035213E-01
       -2   -1    0    0    0  501  0.00000000000E+00  0.00000000000E+00  0.26733342123E+04  0.26733342123E+04  0.25500000920E-02 0.  1.
        2   -1    0    0  501    0  0.00000000000E+00  0.00000000000E+00 -0.13871545388E+04  0.13871545388E+04  0.25500000920E-02 0. -1.
    10030    2    1    2    0    0  0.00000000000E+00  0.00000000000E+00  0.12861796735E+04  0.40604887511E+04  0.38514037370E+04 0.  0.
        1    1    3    3  502    0 -0.12569477093E+04 -0.14424542712E+04  0.87343624667E+03  0.21032077276E+04  0.50400001928E-02 0.  1.
       -1    1    3    3    0  502  0.12569477093E+04  0.14424542712E+04  0.41274342679E+03  0.19572810235E+04  0.50400001928E-02 0. -1.
</event>
<event>
 5   0  0.3959190E-07  0.3876897E+04  0.7818609E-02  0.8029851E-01
       -2   -1    0    0    0  501  0.00000000000E+00  0.00000000000E+00  0.19569414617E+04  0.19569414617E+04  0.25500000920E-02 0.  1.
        2   -1    0    0  501    0  0.00000000000E+00  0.00000000000E+00 -0.19201302766E+04  0.19201302766E+04  0.25500000920E-02 0. -1.
    10030    2    1    2    0    0  0.00000000000E+00  0.00000000000E+00  0.36811185091E+02  0.38770717383E+04  0.38768969809E+04 0.  0.
        2    1    3    3  502    0  0.84548177080E+03 -0.24692300884E+03  0.17452642942E+04  0.19549316750E+04  0.25500000920E-02 0.  1.
       -2    1    3    3    0  502 -0.84548177080E+03  0.24692300884E+03 -0.17084531091E+04  0.19221400634E+04  0.25500000920E-02 0. -1.
</event>
<event>
 5   0  0.3959190E-07  0.3886427E+04  0.7818609E-02  0.8027858E-01
        2   -1    0    0  501    0  0.00000000000E+00  0.00000000000E+00  0.12687388555E+04  0.12687388555E+04  0.25500000920E-02 0.  1.
       -2   -1    0    0    0  501  0.00000000000E+00  0.00000000000E+00 -0.29762458047E+04  0.29762458047E+04  0.25500000920E-02 0. -1.
    10030    2    1    2    0    0  0.00000000000E+00  0.00000000000E+00 -0.17075069492E+04  0.42449846602E+04  0.38864269946E+04 0.  0.
        2    1    3    3  502    0  0.18695931929E+04 -0.85327505069E+02 -0.14248902433E+04  0.23522269651E+04  0.25500000920E-02 0. -1.
       -2    1    3    3    0  502 -0.18695931929E+04  0.85327505069E+02 -0.28261670592E+03  0.18927576951E+04  0.25500000920E-02 0.  1.
</event>
<event>
 5   0  0.2666813E-07  0.3930276E+04  0.7818609E-02  0.8018762E-01
        1   -1    0    0  501    0  0.00000000000E+00  0.00000000000E+00  0.19837191411E+04  0.19837191411E+04  0.50400001928E-02 0. -1.
       -1   -1    0    0    0  501  0.00000000000E+00  0.00000000000E+00 -0.19467311551E+04  0.19467311551E+04  0.50400001928E-02 0.  1.
    10030    2    1    2    0    0  0.00000000000E+00  0.00000000000E+00  0.36987986009E+02  0.39304502963E+04  0.39302762524E+04 0.  0.
        1    1    3    3  502    0 -0.11480917854E+04 -0.27649251933E+03  0.15892974527E+04  0.19800073873E+04  0.50400001928E-02 0. -1.
       -1    1    3    3    0  502  0.11480917854E+04  0.27649251933E+03 -0.15523094666E+04  0.19504429090E+04  0.50400001928E-02 0.  1.
</event>
<event>
 5   0  0.1876027E-07  0.2383182E+04  0.7818609E-02  0.8445827E-01
        1   -1    0    0  501    0  0.00000000000E+00  0.00000000000E+00  0.16420751747E+04  0.16420751747E+04  0.50400001928E-02 0. -1.
       -1   -1    0    0    0  501  0.00000000000E+00  0.00000000000E+00 -0.86469218226E+03  0.86469218227E+03  0.50400001928E-02 0.  1.
    10030    2    1    2    0    0  0.00000000000E+00  0.00000000000E+00  0.77738299240E+03  0.25067673569E+04  0.23831823818E+04 0.  0.
        3    1    3    3  502    0 -0.67808534488E+03 -0.60763035646E+03  0.11972372889E+04  0.15041248356E+04  0.10100000352E+00 0. -1.
       -3    1    3    3    0  502  0.67808534488E+03  0.60763035646E+03 -0.41985429651E+03  0.10026425213E+04  0.10100000352E+00 0.  1.
</event>
<event>
 5   0  0.3959190E-07  0.3009353E+04  0.7818609E-02  0.8241065E-01
        2   -1    0    0  501    0  0.00000000000E+00  0.00000000000E+00  0.19972520396E+04  0.19972520396E+04  0.25500000920E-02 0. -1.
       -2   -1    0    0    0  501  0.00000000000E+00  0.00000000000E+00 -0.11335834057E+04  0.11335834058E+04  0.25500000920E-02 0.  1.
    10030    2    1    2    0    0  0.00000000000E+00  0.00000000000E+00  0.86366863381E+03  0.31308354453E+04  0.30093532655E+04 0.  0.
        2    1    3    3  502    0  0.97873825166E+03 -0.74348584451E+03  0.13348307678E+04  0.18145172760E+04  0.25500000920E-02 0. -1.
       -2    1    3    3    0  502 -0.97873825166E+03  0.74348584451E+03 -0.47116213402E+03  0.13163181693E+04  0.25500000920E-02 0.  1.
</event>
<event>
 5   0  0.1943459E-07  0.3880562E+04  0.7818609E-02  0.8029084E-01
       -1   -1    0    0    0  501  0.00000000000E+00  0.00000000000E+00  0.16429253586E+04  0.16429253586E+04  0.50400001928E-02 0. -1.
        1   -1    0    0  501    0  0.00000000000E+00  0.00000000000E+00 -0.22914552123E+04  0.22914552123E+04  0.50400001928E-02 0.  1.
    10030    2    1    2    0    0  0.00000000000E+00  0.00000000000E+00 -0.64852985371E+03  0.39343805709E+04  0.38805617513E+04 0.  0.
        2    1    3    3  502    0 -0.60580254823E+03 -0.18276551082E+04 -0.81422804113E+02  0.19271610195E+04  0.25500000920E-02 0.  1.
       -2    1    3    3    0  502  0.60580254823E+03  0.18276551082E+04 -0.56710704960E+03  0.20072195514E+04  0.25500000920E-02 0. -1.
</event>
<event>
 5   0  0.1943459E-07  0.3730159E+04  0.7818609E-02  0.8061311E-01
       -1   -1    0    0    0  501  0.00000000000E+00  0.00000000000E+00  0.15657528729E+04  0.15657528729E+04  0.50400001928E-02 0.  1.
        1   -1    0    0  501    0  0.00000000000E+00  0.00000000000E+00 -0.22216289350E+04  0.22216289350E+04  0.50400001928E-02 0. -1.
    10030    2    1    2    0    0  0.00000000000E+00  0.00000000000E+00 -0.65587606205E+03  0.37873818079E+04  0.37301591856E+04 0.  0.
        2    1    3    3  502    0 -0.14274266035E+04 -0.69763251127E+03 -0.13197984446E+04  0.20654553405E+04  0.25500000920E-02 0. -1.
       -2    1    3    3    0  502  0.14274266035E+04  0.69763251127E+03  0.66392238250E+03  0.17219264674E+04  0.25500000920E-02 0.  1.
</event>
<event>
 5   0  0.1860500E-07  0.3879695E+04  0.7818609E-02  0.8029266E-01
       -1   -1    0    0    0  501  0.00000000000E+00  0.00000000000E+00  0.17677032455E+04  0.17677032455E+04  0.50400001928E-02 0.  1.
        1   -1    0    0  501    0  0.00000000000E+00  0.00000000000E+00 -0.21287558027E+04  0.21287558027E+04  0.50400001928E-02 0. -1.
    10030    2    1    2    0    0  0.00000000000E+00  0.00000000000E+00 -0.36105255717E+03  0.38964590482E+04  0.38796951124E+04 0.  0.
        4    1    3    3  502    0  0.13324845147E+04  0.12550033904E+04  0.46447802763E+03  0.18884623223E+04  0.12699999809E+01 0.  1.
       -4    1    3    3    0  502 -0.13324845147E+04 -0.12550033904E+04 -0.82553058481E+03  0.20079967259E+04  0.12699999809E+01 0. -1.
</event>
<event>
 5   0  0.3959190E-07  0.3823361E+04  0.7818609E-02  0.8041160E-01
       -2   -1    0    0    0  501  0.00000000000E+00  0.00000000000E+00  0.18433253188E+04  0.18433253188E+04  0.25500000920E-02 0.  1.
        2   -1    0    0  501    0  0.00000000000E+00  0.00000000000E+00 -0.19825709784E+04  0.19825709784E+04  0.25500000920E-02 0. -1.
    10030    2    1    2    0    0  0.00000000000E+00  0.00000000000E+00 -0.13924565961E+03  0.38258962972E+04  0.38233614953E+04 0.  0.
        2    1    3    3  502    0 -0.56933096073E+03 -0.18083952080E+04 -0.31492267871E+03  0.19218759754E+04  0.25500000920E-02 0. -1.
       -2    1    3    3    0  502  0.56933096073E+03  0.18083952080E+04  0.17567701910E+03  0.19040203219E+04  0.25500000920E-02 0.  1.
</event>
<event>
 5   0  0.2666813E-07  0.3896935E+04  0.7818609E-02  0.8025667E-01
       -1   -1    0    0    0  501  0.00000000000E+00  0.00000000000E+00  0.21165290211E+04  0.21165290211E+04  0.50400001928E-02 0.  1.
        1   -1    0    0  501    0  0.00000000000E+00  0.00000000000E+00 -0.17937503990E+04  0.17937503990E+04  0.50400001928E-02 0. -1.
    10030    2    1    2    0    0  0.00000000000E+00  0.00000000000E+00  0.32277862215E+03  0.39102794201E+04  0.38969345779E+04 0.  0.
        1    1    3    3  502    0  0.10629531300E+04 -0.96566949468E+02  0.17971035813E+04  0.20901616718E+04  0.50400001928E-02 0.  1.
       -1    1    3    3    0  502 -0.10629531300E+04  0.96566949468E+02 -0.14743249592E+04  0.18201177483E+04  0.50400001928E-02 0. -1.
</event>
<event>
 5   0  0.3959190E-07  0.2859117E+04  0.7818609E-02  0.8285146E-01
       -2   -1    0    0    0  501  0.00000000000E+00  0.00000000000E+00  0.14908949302E+04  0.14908949302E+04  0.25500000920E-02 0. -1.
        2   -1    0    0  501    0  0.00000000000E+00  0.00000000000E+00 -0.13707455702E+04  0.13707455702E+04  0.25500000920E-02 0.  1.
    10030    2    1    2    0    0  0.00000000000E+00  0.00000000000E+00  0.12014936001E+03  0.28616405004E+04  0.28591170813E+04 0.  0.
        2    1    3    3  502    0 -0.11994662676E+04  0.22681260863E+03  0.80468984514E+03  0.14620837983E+04  0.25500000920E-02 0. -1.
       -2    1    3    3    0  502  0.11994662676E+04 -0.22681260863E+03 -0.68454048513E+03  0.13995567021E+04  0.25500000920E-02 0.  1.
</event>
<event>
 5   0  0.3959190E-07  0.3982349E+04  0.7818609E-02  0.8008117E-01
       -2   -1    0    0    0  501  0.00000000000E+00  0.00000000000E+00  0.24948121773E+04  0.24948121773E+04  0.25500000920E-02 0. -1.
        2   -1    0    0  501    0  0.00000000000E+00  0.00000000000E+00 -0.15892080423E+04  0.15892080423E+04  0.25500000920E-02 0.  1.
    10030    2    1    2    0    0  0.00000000000E+00  0.00000000000E+00  0.90560413499E+03  0.40840202196E+04  0.39823488427E+04 0.  0.
        2    1    3    3  502    0 -0.40145619835E+03 -0.18761307458E+04  0.99907582274E+03  0.21631426569E+04  0.25500000920E-02 0. -1.
       -2    1    3    3    0  502  0.40145619835E+03  0.18761307458E+04 -0.93471687752E+02  0.19208775627E+04  0.25500000920E-02 0.  1.
</event>
<event>
 5   0  0.3959190E-07  0.3920422E+04  0.7818609E-02  0.8020795E-01
       -2   -1    0    0    0  501  0.00000000000E+00  0.00000000000E+00  0.15255103402E+04  0.15255103402E+04  0.25500000920E-02 0. -1.
        2   -1    0    0  501    0  0.00000000000E+00  0.00000000000E+00 -0.25187810843E+04  0.25187810843E+04  0.25500000920E-02 0.  1.
    10030    2    1    2    0    0  0.00000000000E+00  0.00000000000E+00 -0.99327074414E+03  0.40442914245E+04  0.39204217062E+04 0.  0.
        2    1    3    3  502    0 -0.38037535732E+03  0.19158977625E+04 -0.32688550281E+03  0.19804554478E+04  0.25500000920E-02 0.  1.
       -2    1    3    3    0  502  0.38037535732E+03 -0.19158977625E+04 -0.66638524133E+03  0.20638359767E+04  0.25500000920E-02 0. -1.
</event>
<event>
 5   0  0.6095665E-07  0.3749042E+04  0.7818609E-02  0.8057180E-01
        2   -1    0    0  501    0  0.00000000000E+00  0.00000000000E+00  0.16892176652E+04  0.16892176652E+04  0.25500000920E-02 0. -1.
       -2   -1    0    0    0  501  0.00000000000E+00  0.00000000000E+00 -0.20801516018E+04  0.20801516018E+04  0.25500000920E-02 0.  1.
    10030    2    1    2    0    0  0.00000000000E+00  0.00000000000E+00 -0.39093393664E+03  0.37693692670E+04  0.37490419214E+04 0.  0.
        4    1    3    3  502    0 -0.12799002189E+04 -0.12165349097E+04  0.43701097708E+03  0.18190882232E+04  0.12699999809E+01 0. -1.
       -4    1    3    3    0  502  0.12799002189E+04  0.12165349097E+04 -0.82794491371E+03  0.19502810438E+04  0.12699999809E+01 0.  1.
</event>
<event>
 5   0  0.1943459E-07  0.2763071E+04  0.7818609E-02  0.8314826E-01
       -1   -1    0    0    0  501  0.00000000000E+00  0.00000000000E+00  0.95895932839E+03  0.95895932841E+03  0.50400001928E-02 0. -1.
        1   -1    0    0  501    0  0.00000000000E+00  0.00000000000E+00 -0.19903251921E+04  0.19903251921E+04  0.50400001928E-02 0.  1.
    10030    2    1    2    0    0  0.00000000000E+00  0.00000000000E+00 -0.10313658637E+04  0.29492845206E+04  0.27630714139E+04 0.  0.
        2    1    3    3  502    0 -0.12179992854E+03  0.87516518230E+03  0.61791290155E+03  0.10782233872E+04  0.25500000920E-02 0. -1.
       -2    1    3    3    0  502  0.12179992854E+03 -0.87516518230E+03 -0.16492787653E+04  0.18710611333E+04  0.25500000920E-02 0.  1.
</event>
<event>
 5   0  0.6095665E-07  0.3918005E+04  0.7818609E-02  0.8021295E-01
       -2   -1    0    0    0  501  0.00000000000E+00  0.00000000000E+00  0.15223186009E+04  0.15223186009E+04  0.25500000920E-02 0. -1.
        2   -1    0    0  501    0  0.00000000000E+00  0.00000000000E+00 -0.25209506486E+04  0.25209506486E+04  0.25500000920E-02 0.  1.
    10030    2    1    2    0    0  0.00000000000E+00  0.00000000000E+00 -0.99863204766E+03  0.40432692495E+04  0.39180046270E+04 0.  0.
        4    1    3    3  502    0 -0.84209287214E+03 -0.74029442962E+03  0.11584466617E+04  0.16121899791E+04  0.12699999809E+01 0. -1.
       -4    1    3    3    0  502  0.84209287214E+03  0.74029442962E+03 -0.21570787093E+04  0.24310792704E+04  0.12699999809E+01 0.  1.
</event>
<event>
 5   0  0.5735179E-07  0.3109047E+04  0.7818609E-02  0.8213259E-01
        2   -1    0    0  501    0  0.00000000000E+00  0.00000000000E+00  0.16832606157E+04  0.16832606157E+04  0.25500000920E-02 0. -1.
       -2   -1    0    0    0  501  0.00000000000E+00  0.00000000000E+00 -0.14356327158E+04  0.14356327158E+04  0.25500000920E-02 0.  1.
    10030    2    1    2    0    0  0.00000000000E+00  0.00000000000E+00  0.24762789990E+03  0.31188933315E+04  0.31090474484E+04 0.  0.
        5    1    3    3  502    0 -0.66304745725E+02 -0.14221835165E+04  0.74990551767E+03  0.16091558810E+04  0.46999998093E+01 0.  1.
       -5    1    3    3    0  502  0.66304745725E+02  0.14221835165E+04 -0.50227761777E+03  0.15097374505E+04  0.46999998093E+01 0. -1.
</event>
<event>
 5   0  0.1876027E-07  0.3846652E+04  0.7818609E-02  0.8036217E-01
        1   -1    0    0  501    0  0.00000000000E+00  0.00000000000E+00  0.20528628577E+04  0.20528628577E+04  0.50400001928E-02 0. -1.
       -1   -1    0    0    0  501  0.00000000000E+00  0.00000000000E+00 -0.18019628976E+04  0.18019628976E+04  0.50400001928E-02 0.  1.
    10030    2    1    2    0    0  0.00000000000E+00  0.00000000000E+00  0.25089996007E+03  0.38548257553E+04  0.38466518966E+04 0.  0.
        3    1    3    3  502    0  0.47059735438E+03  0.12128868894E+03 -0.17394207414E+04  0.18060335938E+04  0.10100000352E+00 0.  1.
       -3    1    3    3    0  502 -0.47059735438E+03 -0.12128868894E+03  0.19903207015E+04  0.20487921615E+04  0.10100000352E+00 0. -1.
</event>
<event>
 5   0  0.5872444E-07  0.2631629E+04  0.7818609E-02  0.8357536E-01
        2   -1    0    0  501    0  0.00000000000E+00  0.00000000000E+00  0.24101440581E+04  0.24101440581E+04  0.25500000920E-02 0. -1.
       -2   -1    0    0    0  501  0.00000000000E+00  0.00000000000E+00 -0.71836673679E+03  0.71836673680E+03  0.25500000920E-02 0.  1.
    10030    2    1    2    0    0  0.00000000000E+00  0.00000000000E+00  0.16917773213E+04  0.31285107949E+04  0.26316286381E+04 0.  0.
        3    1    3    3  502    0  0.63152758534E+01  0.24734333853E+03 -0.69046296463E+03  0.73345601474E+03  0.10100000352E+00 0.  1.
       -3    1    3    3    0  502 -0.63152758534E+01 -0.24734333853E+03  0.23822402859E+04  0.23950547801E+04  0.10100000352E+00 0. -1.
</event>
<event>
 5   0  0.1860500E-07  0.3868674E+04  0.7818609E-02  0.8031576E-01
       -1   -1    0    0    0  501  0.00000000000E+00  0.00000000000E+00  0.22391493871E+04  0.22391493872E+04  0.50400001928E-02 0. -1.
        1   -1    0    0  501    0  0.00000000000E+00  0.00000000000E+00 -0.16710187358E+04  0.16710187358E+04  0.50400001928E-02 0.  1.
    10030    2    1    2    0    0  0.00000000000E+00  0.00000000000E+00  0.56813065134E+03  0.39101681230E+04  0.38686744904E+04 0.  0.
        5    1    3    3  502    0 -0.66385185142E+03  0.16723952690E+04  0.10016329635E+04  0.20593435605E+04  0.46999998093E+01 0. -1.
       -5    1    3    3    0  502  0.66385185142E+03 -0.16723952690E+04 -0.43350231213E+03  0.18508245625E+04  0.46999998093E+01 0.  1.
</event>
<event>
 5   0  0.5872444E-07  0.2620071E+04  0.7818609E-02  0.8361415E-01
        2   -1    0    0  501    0  0.00000000000E+00  0.00000000000E+00  0.21615741637E+04  0.21615741637E+04  0.25500000920E-02 0. -1.
       -2   -1    0    0    0  501  0.00000000000E+00  0.00000000000E+00 -0.79395505779E+03  0.79395505780E+03  0.25500000920E-02 0.  1.
    10030    2    1    2    0    0  0.00000000000E+00  0.00000000000E+00  0.13676191060E+04  0.29555292215E+04  0.26200707930E+04 0.  0.
        3    1    3    3  502    0  0.13008661269E+04  0.73647976013E+02  0.53031388798E+03  0.14067371946E+04  0.10100000352E+00 0.  1.
       -3    1    3    3    0  502 -0.13008661269E+04 -0.73647976013E+02  0.83730521798E+03  0.15487920270E+04  0.10100000352E+00 0. -1.
</event>
<event>
 5   0  0.3959190E-07  0.3902551E+04  0.7818609E-02  0.8024499E-01
        2   -1    0    0  501    0  0.00000000000E+00  0.00000000000E+00  0.18284113267E+04  0.18284113267E+04  0.25500000920E-02 0. -1.
       -2   -1    0    0    0  501  0.00000000000E+00  0.00000000000E+00 -0.20823954027E+04  0.20823954027E+04  0.25500000920E-02 0.  1.
    10030    2    1    2    0    0  0.00000000000E+00  0.00000000000E+00 -0.25398407604E+03  0.39108067294E+04  0.39025506228E+04 0.  0.
        2    1    3    3  502    0  0.13415118476E+04  0.43256411699E+03  0.12251992956E+04  0.18675864281E+04  0.25500000920E-02 0. -1.
       -2    1    3    3    0  502 -0.13415118476E+04 -0.43256411699E+03 -0.14791833716E+04  0.20432203013E+04  0.25500000920E-02 0.  1.
</event>
<event>
 5   0  0.1860500E-07  0.3884779E+04  0.7818609E-02  0.8028202E-01
       -1   -1    0    0    0  501  0.00000000000E+00  0.00000000000E+00  0.13240012584E+04  0.13240012584E+04  0.50400001928E-02 0.  1.
        1   -1    0    0  501    0  0.00000000000E+00  0.00000000000E+00 -0.28496028824E+04  0.28496028824E+04  0.50400001928E-02 0. -1.
    10030    2    1    2    0    0  0.00000000000E+00  0.00000000000E+00 -0.15256016240E+04  0.41736041408E+04  0.38847794286E+04 0.  0.
        4    1    3    3  502    0 -0.13289902994E+04  0.13109228919E+04 -0.13394985949E+04  0.22976057414E+04  0.12699999809E+01 0. -1.
       -4    1    3    3    0  502  0.13289902994E+04 -0.13109228919E+04 -0.18610302908E+03  0.18759983994E+04  0.12699999809E+01 0.  1.
</event>
<event>
 5   0  0.1876027E-07  0.3785324E+04  0.7818609E-02  0.8049312E-01
       -1   -1    0    0    0  501  0.00000000000E+00  0.00000000000E+00  0.17728598967E+04  0.17728598967E+04  0.50400001928E-02 0. -1.
        1   -1    0    0  501    0  0.00000000000E+00  0.00000000000E+00 -0.20205602588E+04  0.20205602588E+04  0.50400001928E-02 0.  1.
    10030    2    1    2    0    0  0.00000000000E+00  0.00000000000E+00 -0.24770036209E+03  0.37934201556E+04  0.37853244256E+04 0.  0.
        3    1    3    3  502    0  0.18705635809E+04 -0.31744057267E+02 -0.41108916122E+03  0.19154660279E+04  0.10100000352E+00 0.  1.
       -3    1    3    3    0  502 -0.18705635809E+04  0.31744057267E+02  0.16338879913E+03  0.18779541276E+04  0.10100000352E+00 0. -1.
</event>
<event>
 5   0  0.3959190E-07  0.3667185E+04  0.7818609E-02  0.8075273E-01
       -2   -1    0    0    0  501  0.00000000000E+00  0.00000000000E+00  0.16893862709E+04  0.16893862709E+04  0.25500000920E-02 0. -1.
        2   -1    0    0  501    0  0.00000000000E+00  0.00000000000E+00 -0.19901078772E+04  0.19901078772E+04  0.25500000920E-02 0.  1.
    10030    2    1    2    0    0  0.00000000000E+00  0.00000000000E+00 -0.30072160636E+03  0.36794941481E+04  0.36671847106E+04 0.  0.
        2    1    3    3  502    0  0.10535504688E+04 -0.61209143102E+03 -0.15251558220E+04  0.19521077818E+04  0.25500000920E-02 0.  1.
       -2    1    3    3    0  502 -0.10535504688E+04  0.61209143102E+03  0.12244342157E+04  0.17273863664E+04  0.25500000920E-02 0. -1.
</event>
<event>
 5   0  0.3959190E-07  0.3699821E+04  0.7818609E-02  0.8068001E-01
       -2   -1    0    0    0  501  0.00000000000E+00  0.00000000000E+00  0.12641744676E+04  0.12641744676E+04  0.25500000920E-02 0. -1.
        2   -1    0    0  501    0  0.00000000000E+00  0.00000000000E+00 -0.27070384032E+04  0.27070384032E+04  0.25500000920E-02 0.  1.
    10030    2    1    2    0    0  0.00000000000E+00  0.00000000000E+00 -0.14428639355E+04  0.39712128708E+04  0.36998209860E+04 0.  0.
        2    1    3    3  502    0 -0.18056117708E+04 -0.73372479953E+02 -0.11461209516E+04  0.21399090222E+04  0.25500000920E-02 0.  1.
       -2    1    3    3    0  502  0.18056117708E+04  0.73372479953E+02 -0.29674298396E+03  0.18313038486E+04  0.25500000920E-02 0. -1.
</event>
<event>
 5   0  0.5805753E-07  0.3957047E+04  0.7818609E-02  0.8013268E-01
        2   -1    0    0  501    0  0.00000000000E+00  0.00000000000E+00  0.22039202945E+04  0.22039202945E+04  0.25500000920E-02 0.  1.
       -2   -1    0    0    0  501  0.00000000000E+00  0.00000000000E+00 -0.17761782883E+04  0.17761782883E+04  0.25500000920E-02 0. -1.
    10030    2    1    2    0    0  0.00000000000E+00  0.00000000000E+00  0.42774200625E+03  0.39800985828E+04  0.39570470688E+04 0.  0.
        1    1    3    3  502    0 -0.92994183559E+03 -0.16250134391E+04 -0.42946022884E+03  0.19209103527E+04  0.50400001928E-02 0. -1.
       -1    1    3    3    0  502  0.92994183559E+03  0.16250134391E+04  0.85720223509E+03  0.20591882301E+04  0.50400001928E-02 0.  1.
</event>
<event>
 5   0  0.5735179E-07  0.3869655E+04  0.7818609E-02  0.8031370E-01
       -2   -1    0    0    0  501  0.00000000000E+00  0.00000000000E+00  0.21741799242E+04  0.21741799242E+04  0.25500000920E-02 0.  1.
        2   -1    0    0  501    0  0.00000000000E+00  0.00000000000E+00 -0.17218249810E+04  0.17218249810E+04  0.25500000920E-02 0. -1.
    10030    2    1    2    0    0  0.00000000000E+00  0.00000000000E+00  0.45235494327E+03  0.38960049052E+04  0.38696549234E+04 0.  0.
        5    1    3    3  502    0 -0.15534478636E+04  0.59624549526E+03  0.12202335073E+04  0.20634196999E+04  0.46999998093E+01 0.  1.
       -5    1    3    3    0  502  0.15534478636E+04 -0.59624549526E+03 -0.76787856399E+03  0.18325852053E+04  0.46999998093E+01 0. -1.
</event>
<event>
 5   0  0.1876027E-07  0.3832568E+04  0.7818609E-02  0.8039202E-01
       -1   -1    0    0    0  501  0.00000000000E+00  0.00000000000E+00  0.17547820047E+04  0.17547820047E+04  0.50400001928E-02 0.  1.
        1   -1    0    0  501    0  0.00000000000E+00  0.00000000000E+00 -0.20926496794E+04  0.20926496794E+04  0.50400001928E-02 0. -1.
    10030    2    1    2    0    0  0.00000000000E+00  0.00000000000E+00 -0.33786767471E+03  0.38474316842E+04  0.38325678074E+04 0.  0.
        3    1    3    3  502    0  0.10103140060E+04  0.21358900652E+03  0.14515724522E+04  0.17814087820E+04  0.10100000352E+00 0.  1.
       -3    1    3    3    0  502 -0.10103140060E+04 -0.21358900652E+03 -0.17894401269E+04  0.20660229022E+04  0.10100000352E+00 0. -1.
</event>
<event>
 5   0  0.2666813E-07  0.3944009E+04  0.7818609E-02  0.8015938E-01
        1   -1    0    0  501    0  0.00000000000E+00  0.00000000000E+00  0.16665862464E+04  0.16665862465E+04  0.50400001928E-02 0. -1.
       -1   -1    0    0    0  501  0.00000000000E+00  0.00000000000E+00 -0.23333938118E+04  0.23333938118E+04  0.50400001928E-02 0.  1.
    10030    2    1    2    0    0  0.00000000000E+00  0.00000000000E+00 -0.66680756536E+03  0.39999800583E+04  0.39440091452E+04 0.  0.
        1    1    3    3  502    0 -0.17157981556E+04  0.97075188309E+03 -0.28290250197E+03  0.19915713282E+04  0.50400001928E-02 0. -1.
       -1    1    3    3    0  502  0.17157981556E+04 -0.97075188309E+03 -0.38390506339E+03  0.20084087301E+04  0.50400001928E-02 0.  1.
</event>
<event>
 5   0  0.3959190E-07  0.3914791E+04  0.7818609E-02  0.8021960E-01
        2   -1    0    0  501    0  0.00000000000E+00  0.00000000000E+00  0.24931435603E+04  0.24931435603E+04  0.25500000920E-02 0.  1.
       -2   -1    0    0    0  501  0.00000000000E+00  0.00000000000E+00 -0.15367733284E+04  0.15367733284E+04  0.25500000920E-02 0. -1.
    10030    2    1    2    0    0  0.00000000000E+00  0.00000000000E+00  0.95637023193E+03  0.40299168888E+04  0.39147906853E+04 0.  0.
        2    1    3    3  502    0 -0.16093752140E+04  0.70167364297E+03 -0.41269127226E+03  0.18035377919E+04  0.25500000920E-02 0. -1.
       -2    1    3    3    0  502  0.16093752140E+04 -0.70167364297E+03  0.13690615042E+04  0.22263790968E+04  0.25500000920E-02 0.  1.
</event>
<event>
 5   0  0.1860500E-07  0.3830264E+04  0.7818609E-02  0.8039691E-01
        1   -1    0    0  501    0  0.00000000000E+00  0.00000000000E+00  0.23883389647E+04  0.23883389647E+04  0.50400001928E-02 0. -1.
       -1   -1    0    0    0  501  0.00000000000E+00  0.00000000000E+00 -0.15356824978E+04  0.15356824978E+04  0.50400001928E-02 0.  1.
    10030    2    1    2    0    0  0.00000000000E+00  0.00000000000E+00  0.85265646696E+03  0.39240214625E+04  0.38302638796E+04 0.  0.
        5    1    3    3  502    0 -0.48505050746E+03  0.25034714105E+03  0.23069532171E+04  0.23706545344E+04  0.46999998093E+01 0. -1.
       -5    1    3    3    0  502  0.48505050746E+03 -0.25034714105E+03 -0.14542967501E+04  0.15533669281E+04  0.46999998093E+01 0.  1.
</event>
<event>
 5   0  0.2666813E-07  0.3258563E+04  0.7818609E-02  0.8173520E-01
       -1   -1    0    0    0  501  0.00000000000E+00  0.00000000000E+00  0.10136049264E+04  0.10136049264E+04  0.50400001928E-02 0. -1.
        1   -1    0    0  501    0  0.00000000000E+00  0.00000000000E+00 -0.26189285029E+04  0.26189285029E+04  0.50400001928E-02 0.  1.
    10030    2    1    2    0    0  0.00000000000E+00  0.00000000000E+00 -0.16053235765E+04  0.36325334293E+04  0.32585633843E+04 0.  0.
        1    1    3    3  502    0 -0.90018240293E+03  0.13413605671E+04 -0.56623085907E+03  0.17117809192E+04  0.50400001928E-02 0. -1.
       -1    1    3    3    0  502  0.90018240293E+03 -0.13413605671E+04 -0.10390927174E+04  0.19207525101E+04  0.50400001928E-02 0.  1.
</event>
<event>
 5   0  0.1943459E-07  0.3954406E+04  0.7818609E-02  0.8013808E-01
        1   -1    0    0  501    0  0.00000000000E+00  0.00000000000E+00  0.14097286586E+04  0.14097286586E+04  0.50400001928E-02 0. -1.
       -1   -1    0    0    0  501  0.00000000000E+00  0.00000000000E+00 -0.27731087005E+04  0.27731087005E+04  0.50400001928E-02 0.  1.
    10030    2    1    2    0    0  0.00000000000E+00  0.00000000000E+00 -0.13633800419E+04  0.41828373591E+04  0.39544055475E+04 0.  0.
        2    1    3    3  502    0  0.49041676278E+03 -0.91245532496E+02 -0.27054535597E+04  0.27510567628E+04  0.25500000920E-02 0.  1.
       -2    1    3    3    0  502 -0.49041676278E+03  0.91245532496E+02  0.13420735179E+04  0.14317805962E+04  0.25500000920E-02 0. -1.
</event>
<event>
 5   0  0.3959190E-07  0.3874972E+04  0.7818609E-02  0.8030255E-01
       -2   -1    0    0    0  501  0.00000000000E+00  0.00000000000E+00  0.18529861611E+04  0.18529861611E+04  0.25500000920E-02 0. -1.
        2   -1    0    0  501    0  0.00000000000E+00  0.00000000000E+00 -0.20258394817E+04  0.20258394817E+04  0.25500000920E-02 0.  1.
    10030    2    1    2    0    0  0.00000000000E+00  0.00000000000E+00 -0.17285332057E+03  0.38788256429E+04  0.38749722705E+04 0.  0.
        2    1    3    3  502    0 -0.17043446303E+04 -0.63788087653E+03 -0.75204647699E+03  0.19690750456E+04  0.25500000920E-02 0.  1.
       -2    1    3    3    0  502  0.17043446303E+04  0.63788087653E+03  0.57919315642E+03  0.19097505973E+04  0.25500000920E-02 0. -1.
</event>
<event>
 5   0  0.5872444E-07  0.3665881E+04  0.7818609E-02  0.8075565E-01
       -2   -1    0    0    0  501  0.00000000000E+00  0.00000000000E+00  0.12069310356E+04  0.12069310356E+04  0.25500000920E-02 0. -1.
        2   -1    0    0  501    0  0.00000000000E+00  0.00000000000E+00 -0.27836476061E+04  0.27836476061E+04  0.25500000920E-02 0.  1.
    10030    2    1    2    0    0  0.00000000000E+00  0.00000000000E+00 -0.15767165704E+04  0.39905786417E+04  0.36658808971E+04 0.  0.
        3    1    3    3  502    0  0.69680531632E+03 -0.94149719129E+03  0.74638130788E+03  0.13888987281E+04  0.10100000352E+00 0. -1.
       -3    1    3    3    0  502 -0.69680531632E+03  0.94149719129E+03 -0.23230978783E+04  0.26016799135E+04  0.10100000352E+00 0.  1.
</event>
<event>
 5   0  0.1860500E-07  0.3856828E+04  0.7818609E-02  0.8034068E-01
       -1   -1    0    0    0  501  0.00000000000E+00  0.00000000000E+00  0.16522243096E+04  0.16522243096E+04  0.50400001928E-02 0. -1.
        1   -1    0    0  501    0  0.00000000000E+00  0.00000000000E+00 -0.22507724906E+04  0.22507724906E+04  0.50400001928E-02 0.  1.
    10030    2    1    2    0    0  0.00000000000E+00  0.00000000000E+00 -0.59854818097E+03  0.39029968001E+04  0.38568282431E+04 0.  0.
        5    1    3    3  502    0 -0.48882909174E+02 -0.13014738035E+04 -0.17384568747E+04  0.21722057902E+04  0.46999998093E+01 0.  1.
       -5    1    3    3    0  502  0.48882909174E+02  0.13014738035E+04  0.11399086937E+04  0.17307910099E+04  0.46999998093E+01 0. -1.
</event>
<event>
 5   0  0.2666813E-07  0.3930263E+04  0.7818609E-02  0.8018764E-01
       -1   -1    0    0    0  501  0.00000000000E+00  0.00000000000E+00  0.26856963884E+04  0.26856963884E+04  0.50400001928E-02 0.  1.
        1   -1    0    0  501    0  0.00000000000E+00  0.00000000000E+00 -0.14378925171E+04  0.14378925171E+04  0.50400001928E-02 0. -1.
    10030    2    1    2    0    0  0.00000000000E+00  0.00000000000E+00  0.12478038713E+04  0.41235889055E+04  0.39302634722E+04 0.  0.
        1    1    3    3  502    0  0.15655854632E+04  0.10058615933E+04  0.12865769633E+04  0.22623208592E+04  0.50400001928E-02 0.  1.
       -1    1    3    3    0  502 -0.15655854632E+04 -0.10058615933E+04 -0.38773092070E+02  0.18612680463E+04  0.50400001928E-02 0. -1.
</event>
<event>
 5   0  0.1876027E-07  0.3844880E+04  0.7818609E-02  0.8036592E-01
       -1   -1    0    0    0  501  0.00000000000E+00  0.00000000000E+00  0.24204981131E+04  0.24204981131E+04  0.50400001928E-02 0.  1.
        1   -1    0    0  501    0  0.00000000000E+00  0.00000000000E+00 -0.15268659405E+04  0.15268659406E+04  0.50400001928E-02 0. -1.
    10030    2    1    2    0    0  0.00000000000E+00  0.00000000000E+00  0.89363217260E+03  0.39473640537E+04  0.38448802989E+04 0.  0.
        3    1    3    3  502    0 -0.10408974782E+04  0.22035733260E+03 -0.11970343337E+04  0.16015355508E+04  0.10100000352E+00 0. -1.
       -3    1    3    3    0  502  0.10408974782E+04 -0.22035733260E+03  0.20906665063E+04  0.23458285029E+04  0.10100000352E+00 0.  1.
</event>
<event>
 5   0  0.5872444E-07  0.3811274E+04  0.7818609E-02  0.8043740E-01
        2   -1    0    0  501    0  0.00000000000E+00  0.00000000000E+00  0.13240172745E+04  0.13240172745E+04  0.25500000920E-02 0.  1.
       -2   -1    0    0    0  501  0.00000000000E+00  0.00000000000E+00 -0.27427529532E+04  0.27427529532E+04  0.25500000920E-02 0. -1.
    10030    2    1    2    0    0  0.00000000000E+00  0.00000000000E+00 -0.14187356788E+04  0.40667702277E+04  0.38112739548E+04 0.  0.
        3    1    3    3  502    0 -0.66294510053E+03 -0.16996106653E+04 -0.12969939844E+04  0.22383846912E+04  0.10100000352E+00 0. -1.
       -3    1    3    3    0  502  0.66294510053E+03  0.16996106653E+04 -0.12174169441E+03  0.18283855365E+04  0.10100000352E+00 0.  1.
</event>
<event>
 5   0  0.1860500E-07  0.3876662E+04  0.7818609E-02  0.8029901E-01
        3   -1    0    0  501    0  0.00000000000E+00  0.00000000000E+00  0.25847132271E+04  0.25847132291E+04  0.10100000352E+00 0.  1.
       -3   -1    0    0    0  501  0.00000000000E+00  0.00000000000E+00 -0.14535955111E+04  0.14535955146E+04  0.10100000352E+00 0. -1.
    10030    2    1    2    0    0  0.00000000000E+00  0.00000000000E+00  0.11311177160E+04  0.40383087436E+04  0.38766622527E+04 0.  0.
        1    1    3    3  502    0 -0.18520658469E+04  0.22437686101E+03  0.11134507385E+04  0.21726171831E+04  0.50400001928E-02 0.  1.
       -1    1    3    3    0  502  0.18520658469E+04 -0.22437686101E+03  0.17666977513E+02  0.18656915606E+04  0.50400001928E-02 0. -1.
</event>
<event>
 5   0  0.3959190E-07  0.3888552E+04  0.7818609E-02  0.8027414E-01
       -2   -1    0    0    0  501  0.00000000000E+00  0.00000000000E+00  0.17948299209E+04  0.17948299209E+04  0.25500000920E-02 0. -1.
        2   -1    0    0  501    0  0.00000000000E+00  0.00000000000E+00 -0.21061659948E+04  0.21061659948E+04  0.25500000920E-02 0.  1.
    10030    2    1    2    0    0  0.00000000000E+00  0.00000000000E+00 -0.31133607390E+03  0.39009959157E+04  0.38885522992E+04 0.  0.
        2    1    3    3  502    0  0.15078166206E+04 -0.11124927672E+04 -0.67603655290E+03  0.19920282476E+04  0.25500000920E-02 0.  1.
       -2    1    3    3    0  502 -0.15078166206E+04  0.11124927672E+04  0.36470047900E+03  0.19089676681E+04  0.25500000920E-02 0. -1.
</event>
<event>
 5   0  0.3959190E-07  0.2438225E+04  0.7818609E-02  0.8425330E-01
       -2   -1    0    0    0  501  0.00000000000E+00  0.00000000000E+00  0.14056746717E+04  0.14056746717E+04  0.25500000920E-02 0.  1.
        2   -1    0    0  501    0  0.00000000000E+00  0.00000000000E+00 -0.10573113666E+04  0.10573113666E+04  0.25500000920E-02 0. -1.
    10030    2    1    2    0    0  0.00000000000E+00  0.00000000000E+00  0.34836330512E+03  0.24629860383E+04  0.24382254269E+04 0.  0.
        2    1    3    3  502    0  0.11201021594E+04  0.41723688076E+03  0.41645120607E+03  0.12657594831E+04  0.25500000920E-02 0. -1.
       -2    1    3    3    0  502 -0.11201021594E+04 -0.41723688076E+03 -0.68087900941E+02  0.11972265551E+04  0.25500000920E-02 0.  1.
</event>
<event>
 5   0  0.5735179E-07  0.2516721E+04  0.7818609E-02  0.8397053E-01
        2   -1    0    0  501    0  0.00000000000E+00  0.00000000000E+00  0.18903828118E+04  0.18903828118E+04  0.25500000920E-02 0. -1.
       -2   -1    0    0    0  501  0.00000000000E+00  0.00000000000E+00 -0.83764578746E+03  0.83764578747E+03  0.25500000920E-02 0.  1.
    10030    2    1    2    0    0  0.00000000000E+00  0.00000000000E+00  0.10527370243E+04  0.27280285992E+04  0.25167210405E+04 0.  0.
        5    1    3    3  502    0  0.70167093936E+03 -0.60043785472E+03  0.14528743070E+04  0.17215497572E+04  0.46999998093E+01 0. -1.
       -5    1    3    3    0  502 -0.70167093936E+03  0.60043785472E+03 -0.40013728269E+03  0.10064788421E+04  0.46999998093E+01 0.  1.
</event>
<event>
 5   0  0.6095665E-07  0.3900755E+04  0.7818609E-02  0.8024872E-01
       -2   -1    0    0    0  501  0.00000000000E+00  0.00000000000E+00  0.15305886625E+04  0.15305886625E+04  0.25500000920E-02 0.  1.
        2   -1    0    0  501    0  0.00000000000E+00  0.00000000000E+00 -0.24853008572E+04  0.24853008572E+04  0.25500000920E-02 0. -1.
    10030    2    1    2    0    0  0.00000000000E+00  0.00000000000E+00 -0.95471219472E+03  0.40158895198E+04  0.39007554730E+04 0.  0.
        4    1    3    3  502    0  0.16432664597E+04 -0.92127119193E+03 -0.99714072335E+03  0.21315150719E+04  0.12699999809E+01 0. -1.
       -4    1    3    3    0  502 -0.16432664597E+04  0.92127119193E+03  0.42428528625E+02  0.18843744479E+04  0.12699999809E+01 0.  1.
</event>
<event>
 5   0  0.3959190E-07  0.3894602E+04  0.7818609E-02  0.8026153E-01
       -2   -1    0    0    0  501  0.00000000000E+00  0.00000000000E+00  0.20651665456E+04  0.20651665456E+04  0.25500000920E-02 0.  1.
        2   -1    0    0  501    0  0.00000000000E+00  0.00000000000E+00 -0.18361627939E+04  0.18361627939E+04  0.25500000920E-02 0. -1.
    10030    2    1    2    0    0  0.00000000000E+00  0.00000000000E+00  0.22900375168E+03  0.39013293396E+04  0.38946024056E+04 0.  0.
        2    1    3    3  502    0  0.16127881545E+04  0.10510447146E+04 -0.17960591019E+03  0.19334008654E+04  0.25500000920E-02 0. -1.
       -2    1    3    3    0  502 -0.16127881545E+04 -0.10510447146E+04  0.40860966187E+03  0.19679284741E+04  0.25500000920E-02 0.  1.
</event>
<event>
 5   0  0.6095665E-07  0.3987141E+04  0.7818609E-02  0.8007146E-01
       -2   -1    0    0    0  501  0.00000000000E+00  0.00000000000E+00  0.19389582089E+04  0.19389582089E+04  0.25500000920E-02 0. -1.
        2   -1    0    0  501    0  0.00000000000E+00  0.00000000000E+00 -0.20497213934E+04  0.20497213934E+04  0.25500000920E-02 0.  1.
    10030    2    1    2    0    0  0.00000000000E+00  0.00000000000E+00 -0.11076318443E+03  0.39886796023E+04  0.39871413929E+04 0.  0.
        4    1    3    3  502    0 -0.14593284002E+04 -0.13263101792E+04 -0.34804263537E+03  0.20024668187E+04  0.12699999809E+01 0.  1.
       -4    1    3    3    0  502  0.14593284002E+04  0.13263101792E+04  0.23727945094E+03  0.19862127836E+04  0.12699999809E+01 0. -1.
</event>
<event>
 5   0  0.1943459E-07  0.3576997E+04  0.7818609E-02  0.8095781E-01
        1   -1    0    0  501    0  0.00000000000E+00  0.00000000000E+00  0.17205726951E+04  0.17205726951E+04  0.50400001928E-02 0.  1.
       -1   -1    0    0    0  501  0.00000000000E+00  0.00000000000E+00 -0.18591061529E+04  0.18591061529E+04  0.50400001928E-02 0. -1.
    10030    2    1    2    0    0  0.00000000000E+00  0.00000000000E+00 -0.13853345787E+03  0.35796788480E+04  0.35769972234E+04 0.  0.
        2    1    3    3  502    0 -0.70598884741E+03 -0.12350333803E+04 -0.11540533451E+04  0.18318206317E+04  0.25500000920E-02 0. -1.
       -2    1    3    3    0  502  0.70598884741E+03  0.12350333803E+04  0.10155198872E+04  0.17478582164E+04  0.25500000920E-02 0.  1.
</event>
<event>
 5   0  0.1860500E-07  0.3909821E+04  0.7818609E-02  0.8022990E-01
       -1   -1    0    0    0  501  0.00000000000E+00  0.00000000000E+00  0.13251794386E+04  0.13251794387E+04  0.50400001928E-02 0. -1.
        1   -1    0    0  501    0  0.00000000000E+00  0.00000000000E+00 -0.28838918019E+04  0.28838918019E+04  0.50400001928E-02 0.  1.
    10030    2    1    2    0    0  0.00000000000E+00  0.00000000000E+00 -0.15587123632E+04  0.42090712405E+04  0.39098205172E+04 0.  0.
        4    1    3    3  502    0 -0.65523231046E+03 -0.43881034245E+03  0.11463503310E+04  0.13914038205E+04  0.12699999809E+01 0. -1.
       -4    1    3    3    0  502  0.65523231046E+03  0.43881034245E+03 -0.27050626942E+04  0.28176674200E+04  0.12699999809E+01 0.  1.
</event>
<event>
 5   0  0.1860500E-07  0.3944453E+04  0.7818609E-02  0.8015847E-01
        1   -1    0    0  501    0  0.00000000000E+00  0.00000000000E+00  0.24073740422E+04  0.24073740423E+04  0.50400001928E-02 0.  1.
       -1   -1    0    0    0  501  0.00000000000E+00  0.00000000000E+00 -0.16157343812E+04  0.16157343812E+04  0.50400001928E-02 0. -1.
    10030    2    1    2    0    0  0.00000000000E+00  0.00000000000E+00  0.79163966107E+03  0.40231084234E+04  0.39444528180E+04 0.  0.
        4    1    3    3  502    0  0.22946609911E+03 -0.10157243274E+04  0.21041292936E+04  0.23477036221E+04  0.12699999809E+01 0.  1.
       -4    1    3    3    0  502 -0.22946609911E+03  0.10157243274E+04 -0.13124896325E+04  0.16754048014E+04  0.12699999809E+01 0. -1.
</event>
<event>
 5   0  0.3959190E-07  0.3934102E+04  0.7818609E-02  0.8017974E-01
       -2   -1    0    0    0  501  0.00000000000E+00  0.00000000000E+00  0.17012493359E+04  0.17012493359E+04  0.25500000920E-02 0.  1.
        2   -1    0    0  501    0  0.00000000000E+00  0.00000000000E+00 -0.22743816007E+04  0.22743816007E+04  0.25500000920E-02 0. -1.
    10030    2    1    2    0    0  0.00000000000E+00  0.00000000000E+00 -0.57313226486E+03  0.39756309366E+04  0.39341022802E+04 0.  0.
        2    1    3    3  502    0 -0.14599997616E+04  0.16590891953E+03 -0.16081034653E+04  0.21783300550E+04  0.25500000920E-02 0. -1.
       -2    1    3    3    0  502  0.14599997616E+04 -0.16590891953E+03  0.10349712004E+04  0.17973008816E+04  0.25500000920E-02 0.  1.
</event>
<event>
 5   0  0.1860500E-07  0.4011814E+04  0.7818609E-02  0.8002168E-01
        1   -1    0    0  501    0  0.00000000000E+00  0.00000000000E+00  0.26797694083E+04  0.26797694083E+04  0.50400001928E-02 0. -1.
       -1   -1    0    0    0  501  0.00000000000E+00  0.00000000000E+00 -0.15014960553E+04  0.15014960553E+04  0.50400001928E-02 0.  1.
    10030    2    1    2    0    0  0.00000000000E+00  0.00000000000E+00  0.11782733530E+04  0.41812654636E+04  0.40118141511E+04 0.  0.
        5    1    3    3  502    0  0.60248533496E+03 -0.34953241126E+03 -0.13714014149E+04  0.15381564992E+04  0.46999998093E+01 0.  1.
       -5    1    3    3    0  502 -0.60248533496E+03  0.34953241126E+03  0.25496747679E+04  0.26431089644E+04  0.46999998093E+01 0. -1.
</event>
<event>
 5   0  0.5735179E-07  0.3950384E+04  0.7818609E-02  0.8014631E-01
       -2   -1    0    0    0  501  0.00000000000E+00  0.00000000000E+00  0.17346737057E+04  0.17346737057E+04  0.25500000920E-02 0.  1.
        2   -1    0    0  501    0  0.00000000000E+00  0.00000000000E+00 -0.22490584820E+04  0.22490584820E+04  0.25500000920E-02 0. -1.
    10030    2    1    2    0    0  0.00000000000E+00  0.00000000000E+00 -0.51438477638E+03  0.39837321877E+04  0.39503835820E+04 0.  0.
        5    1    3    3  502    0  0.30663936387E+01  0.99876685456E+03 -0.19756364734E+04  0.22137538701E+04  0.46999998093E+01 0. -1.
       -5    1    3    3    0  502 -0.30663936387E+01 -0.99876685456E+03  0.14612516970E+04  0.17699783176E+04  0.46999998093E+01 0.  1.
</event>
<event>
 5   0  0.1860500E-07  0.3818697E+04  0.7818609E-02  0.8042154E-01
        1   -1    0    0  501    0  0.00000000000E+00  0.00000000000E+00  0.18961386040E+04  0.18961386040E+04  0.50400001928E-02 0. -1.
       -1   -1    0    0    0  501  0.00000000000E+00  0.00000000000E+00 -0.19226502103E+04  0.19226502103E+04  0.50400001928E-02 0.  1.
    10030    2    1    2    0    0  0.00000000000E+00  0.00000000000E+00 -0.26511606312E+02  0.38187888144E+04  0.38186967860E+04 0.  0.
        4    1    3    3  502    0  0.36819199427E+02 -0.14726310233E+04  0.12015211363E+04  0.19009609249E+04  0.12699999809E+01 0. -1.
       -4    1    3    3    0  502 -0.36819199427E+02  0.14726310233E+04 -0.12280327426E+04  0.19178278895E+04  0.12699999809E+01 0.  1.
</event>
<event>
 5   0  0.1860500E-07  0.2396531E+04  0.7818609E-02  0.8440804E-01
       -1   -1    0    0    0  501  0.00000000000E+00  0.00000000000E+00  0.14307218462E+04  0.14307218462E+04  0.50400001928E-02 0. -1.
        1   -1    0    0  501    0  0.00000000000E+00  0.00000000000E+00 -0.10035771092E+04  0.10035771092E+04  0.50400001928E-02 0.  1.
    10030    2    1    2    0    0  0.00000000000E+00  0.00000000000E+00  0.42714473700E+03  0.24342989554E+04  0.23965305710E+04 0.  0.
        4    1    3    3  502    0 -0.45517506544E+03 -0.20465168898E+03  0.13201311276E+04  0.14113165701E+04  0.12699999809E+01 0. -1.
       -4    1    3    3    0  502  0.45517506544E+03  0.20465168898E+03 -0.89298639058E+03  0.10229823853E+04  0.12699999809E+01 0.  1.
</event>
<event>
 5   0  0.5872444E-07  0.3312659E+04  0.7818609E-02  0.8159682E-01
        2   -1    0    0  501    0  0.00000000000E+00  0.00000000000E+00  0.26103650677E+04  0.26103650677E+04  0.25500000920E-02 0. -1.
       -2   -1    0    0    0  501  0.00000000000E+00  0.00000000000E+00 -0.10509746901E+04  0.10509746901E+04  0.25500000920E-02 0.  1.
    10030    2    1    2    0    0  0.00000000000E+00  0.00000000000E+00  0.15593903776E+04  0.36613397577E+04  0.33126591240E+04 0.  0.
        3    1    3    3  502    0 -0.10623256586E+04 -0.25219138464E+03 -0.59691177540E+03  0.12443632819E+04  0.10100000352E+00 0.  1.
       -3    1    3    3    0  502  0.10623256586E+04  0.25219138464E+03  0.21563021530E+04  0.24169764758E+04  0.10100000352E+00 0. -1.
</event>
<event>
 5   0  0.1943459E-07  0.2963327E+04  0.7818609E-02  0.8254281E-01
       -1   -1    0    0    0  501  0.00000000000E+00  0.00000000000E+00  0.16348217552E+04  0.16348217552E+04  0.50400001928E-02 0. -1.
        1   -1    0    0  501    0  0.00000000000E+00  0.00000000000E+00 -0.13428540980E+04  0.13428540980E+04  0.50400001928E-02 0.  1.
    10030    2    1    2    0    0  0.00000000000E+00  0.00000000000E+00  0.29196765722E+03  0.29776758533E+04  0.29633272472E+04 0.  0.
        2    1    3    3  502    0 -0.11015456229E+03  0.14606604806E+04 -0.77949516530E+02  0.14668807703E+04  0.25500000920E-02 0.  1.
       -2    1    3    3    0  502  0.11015456229E+03 -0.14606604806E+04  0.36991717375E+03  0.15107950829E+04  0.25500000920E-02 0. -1.
</event>
<event>
 5   0  0.5872444E-07  0.3851184E+04  0.7818609E-02  0.8035259E-01
        2   -1    0    0  501    0  0.00000000000E+00  0.00000000000E+00  0.16221550568E+04  0.16221550568E+04  0.25500000920E-02 0. -1.
       -2   -1    0    0    0  501  0.00000000000E+00  0.00000000000E+00 -0.22857888281E+04  0.22857888281E+04  0.25500000920E-02 0.  1.
    10030    2    1    2    0    0  0.00000000000E+00  0.00000000000E+00 -0.66363377123E+03  0.39079438849E+04  0.38511836655E+04 0.  0.
        3    1    3    3  502    0  0.78827266079E+03  0.11794898984E+03  0.14469063709E+04  0.16519151941E+04  0.10100000352E+00 0. -1.
       -3    1    3    3    0  502 -0.78827266079E+03 -0.11794898984E+03 -0.21105401422E+04  0.22560286908E+04  0.10100000352E+00 0.  1.
</event>
<event>
 5   0  0.1860500E-07  0.3837080E+04  0.7818609E-02  0.8038244E-01
        1   -1    0    0  501    0  0.00000000000E+00  0.00000000000E+00  0.11238316568E+04  0.11238316568E+04  0.50400001928E-02 0. -1.
       -1   -1    0    0    0  501  0.00000000000E+00  0.00000000000E+00 -0.32752199958E+04  0.32752199958E+04  0.50400001928E-02 0.  1.
    10030    2    1    2    0    0  0.00000000000E+00  0.00000000000E+00 -0.21513883390E+04  0.43990516525E+04  0.38370800951E+04 0.  0.
        5    1    3    3  502    0 -0.31097042135E+03 -0.18670965449E+04 -0.14346320886E+04  0.23750670371E+04  0.46999998093E+01 0.  1.
       -5    1    3    3    0  502  0.31097042135E+03  0.18670965449E+04 -0.71675625035E+03  0.20239846154E+04  0.46999998093E+01 0. -1.
</event>
<event>
 5   0  0.5872444E-07  0.3899179E+04  0.7818609E-02  0.8025200E-01
       -2   -1    0    0    0  501  0.00000000000E+00  0.00000000000E+00  0.17363262204E+04  0.17363262205E+04  0.25500000920E-02 0.  1.
        2   -1    0    0  501    0  0.00000000000E+00  0.00000000000E+00 -0.21890463613E+04  0.21890463613E+04  0.25500000920E-02 0. -1.
    10030    2    1    2    0    0  0.00000000000E+00  0.00000000000E+00 -0.45272014081E+03  0.39253725817E+04  0.38991786801E+04 0.  0.
        3    1    3    3  502    0 -0.16394884167E+04 -0.93990795103E+03  0.25597161243E+03  0.19070581275E+04  0.10100000352E+00 0. -1.
       -3    1    3    3    0  502  0.16394884167E+04  0.93990795103E+03 -0.70869175324E+03  0.20183144543E+04  0.10100000352E+00 0.  1.
</event>
<event>
 5   0  0.1876027E-07  0.3289949E+04  0.7818609E-02  0.8165458E-01
        1   -1    0    0  501    0  0.00000000000E+00  0.00000000000E+00  0.17828990510E+04  0.17828990510E+04  0.50400001928E-02 0.  1.
       -1   -1    0    0    0  501  0.00000000000E+00  0.00000000000E+00 -0.15177194372E+04  0.15177194372E+04  0.50400001928E-02 0. -1.
    10030    2    1    2    0    0  0.00000000000E+00  0.00000000000E+00  0.26517961374E+03  0.33006184882E+04  0.32899486587E+04 0.  0.
        3    1    3    3  502    0 -0.51743217991E+03  0.77410243206E+03  0.14930740542E+04  0.17596138149E+04  0.10100000352E+00 0.  1.
       -3    1    3    3    0  502  0.51743217991E+03 -0.77410243206E+03 -0.12278944404E+04  0.15410046733E+04  0.10100000352E+00 0. -1.
</event>
<event>
 5   0  0.1860500E-07  0.3899534E+04  0.7818609E-02  0.8025126E-01
        1   -1    0    0  501    0  0.00000000000E+00  0.00000000000E+00  0.19982023034E+04  0.19982023034E+04  0.50400001928E-02 0.  1.
       -1   -1    0    0    0  501  0.00000000000E+00  0.00000000000E+00 -0.19025056003E+04  0.19025056003E+04  0.50400001928E-02 0. -1.
    10030    2    1    2    0    0  0.00000000000E+00  0.00000000000E+00  0.95696703104E+02  0.39007079036E+04  0.38995338555E+04 0.  0.
        5    1    3    3  502    0  0.15869349839E+04  0.77140213723E+03 -0.78194650853E+03  0.19299964592E+04  0.46999998093E+01 0. -1.
       -5    1    3    3    0  502 -0.15869349839E+04 -0.77140213723E+03  0.87764321163E+03  0.19707114444E+04  0.46999998093E+01 0.  1.
</event>
<event>
 5   0  0.5872444E-07  0.3843694E+04  0.7818609E-02  0.8036843E-01
       -2   -1    0    0    0  501  0.00000000000E+00  0.00000000000E+00  0.18874658831E+04  0.18874658832E+04  0.25500000920E-02 0.  1.
        2   -1    0    0  501    0  0.00000000000E+00  0.00000000000E+00 -0.19568543181E+04  0.19568543181E+04  0.25500000920E-02 0. -1.
    10030    2    1    2    0    0  0.00000000000E+00  0.00000000000E+00 -0.69388434954E+02  0.38443202013E+04  0.38436939336E+04 0.  0.
        3    1    3    3  502    0  0.13992304807E+04  0.31321555895E+03 -0.13145690144E+04  0.19452613264E+04  0.10100000352E+00 0. -1.
       -3    1    3    3    0  502 -0.13992304807E+04 -0.31321555895E+03  0.12451805794E+04  0.18990588748E+04  0.10100000352E+00 0.  1.
</event>
<event>
 5   0  0.3198970E-07  0.2519661E+04  0.7818609E-02  0.8396015E-01
        1   -1    0    0  501    0  0.00000000000E+00  0.00000000000E+00  0.17517848553E+04  0.17517848554E+04  0.50400001928E-02 0. -1.
       -1   -1    0    0    0  501  0.00000000000E+00  0.00000000000E+00 -0.90603174795E+03  0.90603174797E+03  0.50400001928E-02 0.  1.
    10030    2    1    2    0    0  0.00000000000E+00  0.00000000000E+00  0.84575310740E+03  0.26578166033E+04  0.25196608459E+04 0.  0.
        1    1    3    3  502    0 -0.18831840554E+03  0.26821843739E+03 -0.86028016040E+03  0.92059052049E+03  0.50400001928E-02 0.  1.
       -1    1    3    3    0  502  0.18831840554E+03 -0.26821843739E+03  0.17060332678E+04  0.17372260828E+04  0.50400001928E-02 0. -1.
</event>
<event>
 5   0  0.1943459E-07  0.3903701E+04  0.7818609E-02  0.8024260E-01
        1   -1    0    0  501    0  0.00000000000E+00  0.00000000000E+00  0.24598361130E+04  0.24598361130E+04  0.50400001928E-02 0.  1.
       -1   -1    0    0    0  501  0.00000000000E+00  0.00000000000E+00 -0.15487701480E+04  0.15487701480E+04  0.50400001928E-02 0. -1.
    10030    2    1    2    0    0  0.00000000000E+00  0.00000000000E+00  0.91106596505E+03  0.40086062610E+04  0.39037011878E+04 0.  0.
        2    1    3    3  502    0  0.13342016244E+04  0.41273942417E+03 -0.94466164593E+03  0.16860704114E+04  0.25500000920E-02 0. -1.
       -2    1    3    3    0  502 -0.13342016244E+04 -0.41273942417E+03  0.18557276110E+04  0.23225358497E+04  0.25500000920E-02 0.  1.
</event>
<event>
 5   0  0.3959190E-07  0.3781087E+04  0.7818609E-02  0.8050226E-01
        2   -1    0    0  501    0  0.00000000000E+00  0.00000000000E+00  0.14965566548E+04  0.14965566548E+04  0.25500000920E-02 0. -1.
       -2   -1    0    0    0  501  0.00000000000E+00  0.00000000000E+00 -0.23882523338E+04  0.23882523338E+04  0.25500000920E-02 0.  1.
    10030    2    1    2    0    0  0.00000000000E+00  0.00000000000E+00 -0.89169567903E+03  0.38848089886E+04  0.37810871048E+04 0.  0.
        2    1    3    3  502    0 -0.54498879753E+02  0.17308772791E+04 -0.12251049755E+04  0.21212704882E+04  0.25500000920E-02 0.  1.
       -2    1    3    3    0  502  0.54498879753E+02 -0.17308772791E+04  0.33340929647E+03  0.17635385004E+04  0.25500000920E-02 0. -1.
</event>
<event>
 5   0  0.3959190E-07  0.3219074E+04  0.7818609E-02  0.8183798E-01
       -2   -1    0    0    0  501  0.00000000000E+00  0.00000000000E+00  0.13257238002E+04  0.13257238002E+04  0.25500000920E-02 0. -1.
        2   -1    0    0  501    0  0.00000000000E+00  0.00000000000E+00 -0.19541097663E+04  0.19541097663E+04  0.25500000920E-02 0.  1.
    10030    2    1    2    0    0  0.00000000000E+00  0.00000000000E+00 -0.62838596614E+03  0.32798335665E+04  0.32190742927E+04 0.  0.
        2    1    3    3  502    0  0.72311103393E+03  0.12312347123E+04 -0.10710333919E+04  0.17849204494E+04  0.25500000920E-02 0.  1.
       -2    1    3    3    0  502 -0.72311103393E+03 -0.12312347123E+04  0.44264742578E+03  0.14949131171E+04  0.25500000920E-02 0. -1.
</event>
<event>
 5   0  0.6095665E-07  0.3937728E+04  0.7818609E-02  0.8017228E-01
       -2   -1    0    0    0  501  0.00000000000E+00  0.00000000000E+00  0.16279725387E+04  0.16279725387E+04  0.25500000920E-02 0.  1.
        2   -1    0    0  501    0  0.00000000000E+00  0.00000000000E+00 -0.23811372364E+04  0.23811372364E+04  0.25500000920E-02 0. -1.
    10030    2    1    2    0    0  0.00000000000E+00  0.00000000000E+00 -0.75316469765E+03  0.40091097751E+04  0.39377282952E+04 0.  0.
        4    1    3    3  502    0  0.37614362092E+03 -0.13474335469E+04 -0.17871073463E+04  0.22695408053E+04  0.12699999809E+01 0. -1.
       -4    1    3    3    0  502 -0.37614362092E+03  0.13474335469E+04  0.10339426487E+04  0.17395689697E+04  0.12699999809E+01 0.  1.
</event>
<event>
 5   0  0.5805753E-07  0.3613305E+04  0.7818609E-02  0.8087451E-01
       -2   -1    0    0    0  501  0.00000000000E+00  0.00000000000E+00  0.30336976929E+04  0.30336976929E+04  0.25500000920E-02 0. -1.
        2   -1    0    0  501    0  0.00000000000E+00  0.00000000000E+00 -0.10759123569E+04  0.10759123570E+04  0.25500000920E-02 0.  1.
    10030    2    1    2    0    0  0.00000000000E+00  0.00000000000E+00  0.19577853359E+04  0.41096100498E+04  0.36133047671E+04 0.  0.
        1    1    3    3  502    0 -0.44891693760E+03  0.41088926273E+03  0.29136121397E+04  0.29764898965E+04  0.50400001928E-02 0. -1.
       -1    1    3    3    0  502  0.44891693760E+03 -0.41088926273E+03 -0.95582680378E+03  0.11331201534E+04  0.50400001928E-02 0.  1.
</event>
<event>
 5   0  0.5735179E-07  0.3881372E+04  0.7818609E-02  0.8028915E-01
       -2   -1    0    0    0  501  0.00000000000E+00  0.00000000000E+00  0.12845066991E+04  0.12845066991E+04  0.25500000920E-02 0.  1.
        2   -1    0    0  501    0  0.00000000000E+00  0.00000000000E+00 -0.29320693016E+04  0.29320693016E+04  0.25500000920E-02 0. -1.
    10030    2    1    2    0    0  0.00000000000E+00  0.00000000000E+00 -0.16475626025E+04  0.42165760007E+04  0.38813722626E+04 0.  0.
        5    1    3    3  502    0 -0.38676171815E+03  0.17948200884E+04 -0.15067885200E+04  0.23751626281E+04  0.46999998093E+01 0. -1.
       -5    1    3    3    0  502  0.38676171815E+03 -0.17948200884E+04 -0.14077408250E+03  0.18414133725E+04  0.46999998093E+01 0.  1.
</event>
<event>
 5   0  0.3959190E-07  0.3880031E+04  0.7818609E-02  0.8029195E-01
        2   -1    0    0  501    0  0.00000000000E+00  0.00000000000E+00  0.22510371475E+04  0.22510371475E+04  0.25500000920E-02 0.  1.
       -2   -1    0    0    0  501  0.00000000000E+00  0.00000000000E+00 -0.16719673483E+04  0.16719673483E+04  0.25500000920E-02 0. -1.
    10030    2    1    2    0    0  0.00000000000E+00  0.00000000000E+00  0.57906979920E+03  0.39230044957E+04  0.38800312423E+04 0.  0.
        2    1    3    3  502    0  0.19418342756E+03  0.16883379094E+04 -0.65649278990E+03  0.18218602809E+04  0.25500000920E-02 0. -1.
       -2    1    3    3    0  502 -0.19418342756E+03 -0.16883379094E+04  0.12355625891E+04  0.21011442148E+04  0.25500000920E-02 0.  1.
</event>
<event>
 5   0  0.5805753E-07  0.3733432E+04  0.7818609E-02  0.8060593E-01
       -2   -1    0    0    0  501  0.00000000000E+00  0.00000000000E+00  0.15966387197E+04  0.15966387197E+04  0.25500000920E-02 0. -1.
        2   -1    0    0  501    0  0.00000000000E+00  0.00000000000E+00 -0.21824781784E+04  0.21824781784E+04  0.25500000920E-02 0.  1.
    10030    2    1    2    0    0  0.00000000000E+00  0.00000000000E+00 -0.58583945878E+03  0.37791168981E+04  0.37334322892E+04 0.  0.
        1    1    3    3  502    0 -0.12937221312E+03  0.86711581797E+03  0.13752763713E+04  0.16309543552E+04  0.50400001928E-02 0. -1.
       -1    1    3    3    0  502  0.12937221312E+03 -0.86711581797E+03 -0.19611158301E+04  0.21481625428E+04  0.50400001928E-02 0.  1.
</event>
<event>
 5   0  0.1860500E-07  0.2909673E+04  0.7818609E-02  0.8270005E-01
        3   -1    0    0  501    0  0.00000000000E+00  0.00000000000E+00  0.10262438233E+04  0.10262438282E+04  0.10100000352E+00 0.  1.
       -3   -1    0    0    0  501  0.00000000000E+00  0.00000000000E+00 -0.20624228044E+04  0.20624228069E+04  0.10100000352E+00 0. -1.
    10030    2    1    2    0    0  0.00000000000E+00  0.00000000000E+00 -0.10361789811E+04  0.30886666351E+04  0.29096726108E+04 0.  0.
        3    1    3    3  502    0 -0.52355357403E+03 -0.98741615015E+03 -0.15067542473E+04  0.18760083610E+04  0.10100000352E+00 0. -1.
       -3    1    3    3    0  502  0.52355357403E+03  0.98741615015E+03  0.47057526618E+03  0.12126582741E+04  0.10100000352E+00 0.  1.
</event>
<event>
 5   0  0.1860500E-07  0.3869364E+04  0.7818609E-02  0.8031431E-01
        3   -1    0    0  501    0  0.00000000000E+00  0.00000000000E+00  0.16412524624E+04  0.16412524655E+04  0.10100000352E+00 0.  1.
       -3   -1    0    0    0  501  0.00000000000E+00  0.00000000000E+00 -0.22805714610E+04  0.22805714632E+04  0.10100000352E+00 0. -1.
    10030    2    1    2    0    0  0.00000000000E+00  0.00000000000E+00 -0.63931899860E+03  0.39218239287E+04  0.38693635324E+04 0.  0.
        1    1    3    3  502    0 -0.60076611506E+03 -0.15884135017E+04  0.61973762103E+03  0.18077754551E+04  0.50400001928E-02 0.  1.
       -1    1    3    3    0  502  0.60076611506E+03  0.15884135017E+04 -0.12590566196E+04  0.21140484736E+04  0.50400001928E-02 0. -1.
</event>
<event>
 5   0  0.1876027E-07  0.3874097E+04  0.7818609E-02  0.8030438E-01
        1   -1    0    0  501    0  0.00000000000E+00  0.00000000000E+00  0.22655162936E+04  0.22655162936E+04  0.50400001928E-02 0.  1.
       -1   -1    0    0    0  501  0.00000000000E+00  0.00000000000E+00 -0.16562036075E+04  0.16562036075E+04  0.50400001928E-02 0. -1.
    10030    2    1    2    0    0  0.00000000000E+00  0.00000000000E+00  0.60931268612E+03  0.39217199012E+04  0.38740966733E+04 0.  0.
        3    1    3    3  502    0 -0.12788326390E+04 -0.12662514844E+04  0.10299487258E+04  0.20735477154E+04  0.10100000352E+00 0.  1.
       -3    1    3    3    0  502  0.12788326390E+04  0.12662514844E+04 -0.42063603963E+03  0.18481721858E+04  0.10100000352E+00 0. -1.
</event>
<event>
 5   0  0.5735179E-07  0.2626753E+04  0.7818609E-02  0.8359170E-01
       -2   -1    0    0    0  501  0.00000000000E+00  0.00000000000E+00  0.13663200908E+04  0.13663200908E+04  0.25500000920E-02 0.  1.
        2   -1    0    0  501    0  0.00000000000E+00  0.00000000000E+00 -0.12624846833E+04  0.12624846833E+04  0.25500000920E-02 0. -1.
    10030    2    1    2    0    0  0.00000000000E+00  0.00000000000E+00  0.10383540748E+03  0.26288047742E+04  0.26267532714E+04 0.  0.
        5    1    3    3  502    0  0.48123102459E+03 -0.10245741448E+04  0.71847137564E+03  0.13407306534E+04  0.46999998093E+01 0.  1.
       -5    1    3    3    0  502 -0.48123102459E+03  0.10245741448E+04 -0.61463596815E+03  0.12880741208E+04  0.46999998093E+01 0. -1.
</event>
<event>
 5   0  0.1860500E-07  0.3856406E+04  0.7818609E-02  0.8034157E-01
       -1   -1    0    0    0  501  0.00000000000E+00  0.00000000000E+00  0.17169037841E+04  0.17169037841E+04  0.50400001928E-02 0. -1.
        1   -1    0    0  501    0  0.00000000000E+00  0.00000000000E+00 -0.21655068209E+04  0.21655068209E+04  0.50400001928E-02 0.  1.
    10030    2    1    2    0    0  0.00000000000E+00  0.00000000000E+00 -0.44860303679E+03  0.38824106050E+04  0.38564060239E+04 0.  0.
        4    1    3    3  502    0 -0.16562877041E+04 -0.21738928633E+03 -0.11938209436E+04  0.20532308976E+04  0.12699999809E+01 0.  1.
       -4    1    3    3    0  502  0.16562877041E+04  0.21738928633E+03  0.74521790677E+03  0.18291797074E+04  0.12699999809E+01 0. -1.
</event>
<event>
 5   0  0.5805753E-07  0.2386136E+04  0.7818609E-02  0.8444712E-01
       -2   -1    0    0    0  501  0.00000000000E+00  0.00000000000E+00  0.80169448297E+03  0.80169448298E+03  0.25500000920E-02 0. -1.
        2   -1    0    0  501    0  0.00000000000E+00  0.00000000000E+00 -0.17755037190E+04  0.17755037190E+04  0.25500000920E-02 0.  1.
    10030    2    1    2    0    0  0.00000000000E+00  0.00000000000E+00 -0.97380923606E+03  0.25771982020E+04  0.23861362376E+04 0.  0.
        1    1    3    3  502    0  0.63347716199E+03 -0.98303041674E+03 -0.23183974579E+03  0.11922213648E+04  0.50400001928E-02 0. -1.
       -1    1    3    3    0  502 -0.63347716199E+03  0.98303041674E+03 -0.74196949026E+03  0.13849768372E+04  0.50400001928E-02 0.  1.
</event>
<event>
 5   0  0.3959190E-07  0.3853041E+04  0.7818609E-02  0.8034867E-01
        2   -1    0    0  501    0  0.00000000000E+00  0.00000000000E+00  0.23802228713E+04  0.23802228713E+04  0.25500000920E-02 0.  1.
       -2   -1    0    0    0  501  0.00000000000E+00  0.00000000000E+00 -0.15593002581E+04  0.15593002581E+04  0.25500000920E-02 0. -1.
    10030    2    1    2    0    0  0.00000000000E+00  0.00000000000E+00  0.82092261323E+03  0.39395231295E+04  0.38530414675E+04 0.  0.
        2    1    3    3  502    0 -0.26928148335E+03 -0.19075913410E+04  0.41869793009E+03  0.19714779223E+04  0.25500000920E-02 0. -1.
       -2    1    3    3    0  502  0.26928148335E+03  0.19075913410E+04  0.40222468314E+03  0.19680452071E+04  0.25500000920E-02 0.  1.
</event>
<event>
 5   0  0.1860500E-07  0.3892900E+04  0.7818609E-02  0.8026507E-01
       -1   -1    0    0    0  501  0.00000000000E+00  0.00000000000E+00  0.30049715194E+04  0.30049715194E+04  0.50400001928E-02 0.  1.
        1   -1    0    0  501    0  0.00000000000E+00  0.00000000000E+00 -0.12607999893E+04  0.12607999894E+04  0.50400001928E-02 0. -1.
    10030    2    1    2    0    0  0.00000000000E+00  0.00000000000E+00  0.17441715301E+04  0.42657715088E+04  0.38929002349E+04 0.  0.
        5    1    3    3  502    0 -0.17134876096E+04 -0.73864470960E+03  0.26492919419E+03  0.18846340131E+04  0.46999998093E+01 0. -1.
       -5    1    3    3    0  502  0.17134876096E+04  0.73864470960E+03  0.14792423359E+04  0.23811374957E+04  0.46999998093E+01 0.  1.
</event>
<event>
 5   0  0.3959190E-07  0.3967127E+04  0.7818609E-02  0.8011211E-01
       -2   -1    0    0    0  501  0.00000000000E+00  0.00000000000E+00  0.28625188065E+04  0.28625188065E+04  0.25500000920E-02 0.  1.
        2   -1    0    0  501    0  0.00000000000E+00  0.00000000000E+00 -0.13744974960E+04  0.13744974960E+04  0.25500000920E-02 0. -1.
    10030    2    1    2    0    0  0.00000000000E+00  0.00000000000E+00  0.14880213105E+04  0.42370163026E+04  0.39671273899E+04 0.  0.
        2    1    3    3  502    0  0.16318675611E+04  0.11064036286E+04  0.51147346219E+03  0.20368421217E+04  0.25500000920E-02 0. -1.
       -2    1    3    3    0  502 -0.16318675611E+04 -0.11064036286E+04  0.97654784830E+03  0.22001741809E+04  0.25500000920E-02 0.  1.
</event>
<event>
 5   0  0.5872444E-07  0.2807634E+04  0.7818609E-02  0.8300902E-01
        2   -1    0    0  501    0  0.00000000000E+00  0.00000000000E+00  0.23222502507E+04  0.23222502507E+04  0.25500000920E-02 0.  1.
       -2   -1    0    0    0  501  0.00000000000E+00  0.00000000000E+00 -0.84861740037E+03  0.84861740037E+03  0.25500000920E-02 0. -1.
    10030    2    1    2    0    0  0.00000000000E+00  0.00000000000E+00  0.14736328503E+04  0.31708676510E+04  0.28076338584E+04 0.  0.
        3    1    3    3  502    0  0.33882944996E+02 -0.55491863892E+03 -0.71898921155E+03  0.90886096093E+03  0.10100000352E+00 0. -1.
       -3    1    3    3    0  502 -0.33882944996E+02  0.55491863892E+03  0.21926220618E+04  0.22620066901E+04  0.10100000352E+00 0.  1.
</event>
<event>
 5   0  0.1860500E-07  0.3891178E+04  0.7818609E-02  0.8026866E-01
       -1   -1    0    0    0  501  0.00000000000E+00  0.00000000000E+00  0.13715488352E+04  0.13715488352E+04  0.50400001928E-02 0. -1.
        1   -1    0    0  501    0  0.00000000000E+00  0.00000000000E+00 -0.27598849834E+04  0.27598849834E+04  0.50400001928E-02 0.  1.
    10030    2    1    2    0    0  0.00000000000E+00  0.00000000000E+00 -0.13883361482E+04  0.41314338186E+04  0.38911782454E+04 0.  0.
        4    1    3    3  502    0  0.95153211586E+03  0.43040322106E+03 -0.24370632573E+04  0.26514032574E+04  0.12699999809E+01 0.  1.
       -4    1    3    3    0  502 -0.95153211586E+03 -0.43040322106E+03  0.10487271090E+04  0.14800305613E+04  0.12699999809E+01 0. -1.
</event>
<event>
 5   0  0.5805753E-07  0.2568644E+04  0.7818609E-02  0.8378931E-01
        2   -1    0    0  501    0  0.00000000000E+00  0.00000000000E+00  0.11375212315E+04  0.11375212315E+04  0.25500000920E-02 0.  1.
       -2   -1    0    0    0  501  0.00000000000E+00  0.00000000000E+00 -0.14500682718E+04  0.14500682718E+04  0.25500000920E-02 0. -1.
    10030    2    1    2    0    0  0.00000000000E+00  0.00000000000E+00 -0.31254704023E+03  0.25875895033E+04  0.25686443478E+04 0.  0.
        1    1    3    3  502    0  0.93164511422E+03 -0.74087374278E+03 -0.64214498530E+03  0.13524816833E+04  0.50400001928E-02 0. -1.
       -1    1    3    3    0  502 -0.93164511422E+03  0.74087374278E+03  0.32959794507E+03  0.12351078200E+04  0.50400001928E-02 0.  1.
</event>
<event>
 5   0  0.1860500E-07  0.3978123E+04  0.7818609E-02  0.8008974E-01
        1   -1    0    0  501    0  0.00000000000E+00  0.00000000000E+00  0.21884404630E+04  0.21884404630E+04  0.50400001928E-02 0. -1.
       -1   -1    0    0    0  501  0.00000000000E+00  0.00000000000E+00 -0.18078468722E+04  0.18078468722E+04  0.50400001928E-02 0.  1.
    10030    2    1    2    0    0  0.00000000000E+00  0.00000000000E+00  0.38059359079E+03  0.39962873352E+04  0.39781227965E+04 0.  0.
        5    1    3    3  502    0  0.25720514301E+03  0.19196983798E+04 -0.26448083419E+03  0.19548321045E+04  0.46999998093E+01 0.  1.
       -5    1    3    3    0  502 -0.25720514301E+03 -0.19196983798E+04  0.64507442499E+03  0.20414552307E+04  0.46999998093E+01 0. -1.
</event>
<event>
 5   0  0.1876027E-07  0.2916948E+04  0.7818609E-02  0.8267853E-01
        1   -1    0    0  501    0  0.00000000000E+00  0.00000000000E+00  0.18597075043E+04  0.18597075043E+04  0.50400001928E-02 0. -1.
       -1   -1    0    0    0  501  0.00000000000E+00  0.00000000000E+00 -0.11438066212E+04  0.11438066212E+04  0.50400001928E-02 0.  1.
    10030    2    1    2    0    0  0.00000000000E+00  0.00000000000E+00  0.71590088309E+03  0.30035141256E+04  0.29169475532E+04 0.  0.
        3    1    3    3  502    0 -0.72745515009E+02  0.28350000123E+03  0.18291574724E+04  0.18524257690E+04  0.10100000352E+00 0. -1.
       -3    1    3    3    0  502  0.72745515009E+02 -0.28350000123E+03 -0.11132565893E+04  0.11510883565E+04  0.10100000352E+00 0.  1.
</event>
<event>
 5   0  0.1876027E-07  0.2944358E+04  0.7818609E-02  0.8259801E-01
       -1   -1    0    0    0  501  0.00000000000E+00  0.00000000000E+00  0.16019478159E+04  0.16019478159E+04  0.50400001928E-02 0. -1.
        1   -1    0    0  501    0  0.00000000000E+00  0.00000000000E+00 -0.13529226378E+04  0.13529226378E+04  0.50400001928E-02 0.  1.
    10030    2    1    2    0    0  0.00000000000E+00  0.00000000000E+00  0.24902517810E+03  0.29548704537E+04  0.29443583102E+04 0.  0.
        3    1    3    3  502    0  0.41714308793E+03 -0.13149969885E+04 -0.39121514924E+03  0.14339716660E+04  0.10100000352E+00 0. -1.
       -3    1    3    3    0  502 -0.41714308793E+03  0.13149969885E+04  0.64024032734E+03  0.15208987877E+04  0.10100000352E+00 0.  1.
</event>
<event>
 5   0  0.1860500E-07  0.3800475E+04  0.7818609E-02  0.8046053E-01
       -1   -1    0    0    0  501  0.00000000000E+00  0.00000000000E+00  0.15480371786E+04  0.15480371786E+04  0.50400001928E-02 0.  1.
        1   -1    0    0  501    0  0.00000000000E+00  0.00000000000E+00 -0.23325684292E+04  0.23325684292E+04  0.50400001928E-02 0. -1.
    10030    2    1    2    0    0  0.00000000000E+00  0.00000000000E+00 -0.78453125064E+03  0.38806056078E+04  0.38004750493E+04 0.  0.
        4    1    3    3  502    0 -0.18011051202E+04  0.55721556341E+03 -0.14970231606E+03  0.18912644538E+04  0.12699999809E+01 0. -1.
       -4    1    3    3    0  502  0.18011051202E+04 -0.55721556341E+03 -0.63482893458E+03  0.19893411540E+04  0.12699999809E+01 0.  1.
</event>
<event>
 5   0  0.5805753E-07  0.4001986E+04  0.7818609E-02  0.8004146E-01
       -2   -1    0    0    0  501  0.00000000000E+00  0.00000000000E+00  0.15871035426E+04  0.15871035426E+04  0.25500000920E-02 0. -1.
        2   -1    0    0  501    0  0.00000000000E+00  0.00000000000E+00 -0.25228173426E+04  0.25228173426E+04  0.25500000920E-02 0.  1.
    10030    2    1    2    0    0  0.00000000000E+00  0.00000000000E+00 -0.93571380005E+03  0.41099208852E+04  0.40019856780E+04 0.  0.
        1    1    3    3  502    0 -0.15023145589E+04  0.10801465597E+04  0.31446723880E+03  0.18768471618E+04  0.50400001928E-02 0.  1.
       -1    1    3    3    0  502  0.15023145589E+04 -0.10801465597E+04 -0.12501810389E+04  0.22330737234E+04  0.50400001928E-02 0. -1.
</event>
<event>
 5   0  0.1860500E-07  0.3879172E+04  0.7818609E-02  0.8029375E-01
       -3   -1    0    0    0  501  0.00000000000E+00  0.00000000000E+00  0.25113420520E+04  0.25113420540E+04  0.10100000352E+00 0. -1.
        3   -1    0    0  501    0  0.00000000000E+00  0.00000000000E+00 -0.14980015609E+04  0.14980015643E+04  0.10100000352E+00 0.  1.
    10030    2    1    2    0    0  0.00000000000E+00  0.00000000000E+00  0.10133404911E+04  0.40093436182E+04  0.38791722440E+04 0.  0.
        4    1    3    3  502    0  0.12648791327E+04  0.14282090027E+04  0.86810856214E+03  0.20960234407E+04  0.12699999809E+01 0.  1.
       -4    1    3    3    0  502 -0.12648791327E+04 -0.14282090027E+04  0.14523192896E+03  0.19133201775E+04  0.12699999809E+01 0. -1.
</event>
<event>
 5   0  0.5872444E-07  0.3814449E+04  0.7818609E-02  0.8043061E-01
        2   -1    0    0  501    0  0.00000000000E+00  0.00000000000E+00  0.22896593208E+04  0.22896593208E+04  0.25500000920E-02 0. -1.
       -2   -1    0    0    0  501  0.00000000000E+00  0.00000000000E+00 -0.15886665133E+04  0.15886665133E+04  0.25500000920E-02 0.  1.
    10030    2    1    2    0    0  0.00000000000E+00  0.00000000000E+00  0.70099280755E+03  0.38783258341E+04  0.38144488933E+04 0.  0.
        3    1    3    3  502    0 -0.13929016459E+04 -0.84343603616E+03  0.13600723612E+04  0.21216399742E+04  0.10100000352E+00 0. -1.
       -3    1    3    3    0  502  0.13929016459E+04  0.84343603616E+03 -0.65907955368E+03  0.17566858599E+04  0.10100000352E+00 0.  1.
</event>
<event>
 5   0  0.5735179E-07  0.3815487E+04  0.7818609E-02  0.8042840E-01
       -2   -1    0    0    0  501  0.00000000000E+00  0.00000000000E+00  0.20699699755E+04  0.20699699755E+04  0.25500000920E-02 0.  1.
        2   -1    0    0  501    0  0.00000000000E+00  0.00000000000E+00 -0.17582311498E+04  0.17582311498E+04  0.25500000920E-02 0. -1.
    10030    2    1    2    0    0  0.00000000000E+00  0.00000000000E+00  0.31173882570E+03  0.38282011254E+04  0.38154872246E+04 0.  0.
        5    1    3    3  502    0 -0.43729002093E+03  0.18513068947E+04  0.10806108506E+02  0.19022877392E+04  0.46999998093E+01 0. -1.
       -5    1    3    3    0  502  0.43729002093E+03 -0.18513068947E+04  0.30093271720E+03  0.19259133862E+04  0.46999998093E+01 0.  1.
</event>
<event>
 5   0  0.1943459E-07  0.3982833E+04  0.7818609E-02  0.8008019E-01
        1   -1    0    0  501    0  0.00000000000E+00  0.00000000000E+00  0.13477614083E+04  0.13477614083E+04  0.50400001928E-02 0. -1.
       -1   -1    0    0    0  501  0.00000000000E+00  0.00000000000E+00 -0.29424644182E+04  0.29424644182E+04  0.50400001928E-02 0.  1.
    10030    2    1    2    0    0  0.00000000000E+00  0.00000000000E+00 -0.15947030099E+04  0.42902258264E+04  0.39828331564E+04 0.  0.
        2    1    3    3  502    0  0.11585310103E+04  0.18441874111E+02  0.94728204398E+03  0.14966220215E+04  0.25500000920E-02 0. -1.
       -2    1    3    3    0  502 -0.11585310103E+04 -0.18441874111E+02 -0.25419850539E+04  0.27936038049E+04  0.25500000920E-02 0.  1.
</event>
<event>
 5   0  0.1860500E-07  0.3804295E+04  0.7818609E-02  0.8045234E-01
        1   -1    0    0  501    0  0.00000000000E+00  0.00000000000E+00  0.19563839543E+04  0.19563839543E+04  0.50400001928E-02 0. -1.
       -1   -1    0    0    0  501  0.00000000000E+00  0.00000000000E+00 -0.18494144114E+04  0.18494144114E+04  0.50400001928E-02 0.  1.
    10030    2    1    2    0    0  0.00000000000E+00  0.00000000000E+00  0.10696954286E+03  0.38057983657E+04  0.38042947726E+04 0.  0.
        4    1    3    3  502    0  0.49257815667E+03 -0.17368572491E+04 -0.54579850404E+03  0.18860551328E+04  0.12699999809E+01 0.  1.
       -4    1    3    3    0  502 -0.49257815667E+03  0.17368572491E+04  0.65276804690E+03  0.19197432328E+04  0.12699999809E+01 0. -1.
</event>
<event>
 5   0  0.3959190E-07  0.3885247E+04  0.7818609E-02  0.8028104E-01
       -2   -1    0    0    0  501  0.00000000000E+00  0.00000000000E+00  0.15107461653E+04  0.15107461653E+04  0.25500000920E-02 0.  1.
        2   -1    0    0  501    0  0.00000000000E+00  0.00000000000E+00 -0.24979621105E+04  0.24979621105E+04  0.25500000920E-02 0. -1.
    10030    2    1    2    0    0  0.00000000000E+00  0.00000000000E+00 -0.98721594526E+03  0.40087082758E+04  0.38852473175E+04 0.  0.
        2    1    3    3  502    0  0.59592356848E+03  0.59657597746E+03 -0.22992937923E+04  0.24490364921E+04  0.25500000920E-02 0. -1.
       -2    1    3    3    0  502 -0.59592356848E+03 -0.59657597746E+03  0.13120778470E+04  0.15596717837E+04  0.25500000920E-02 0.  1.
</event>
<event>
 5   0  0.5872444E-07  0.3213467E+04  0.7818609E-02  0.8185270E-01
        2   -1    0    0  501    0  0.00000000000E+00  0.00000000000E+00  0.15185316523E+04  0.15185316523E+04  0.25500000920E-02 0.  1.
       -2   -1    0    0    0  501  0.00000000000E+00  0.00000000000E+00 -0.17000586499E+04  0.17000586499E+04  0.25500000920E-02 0. -1.
    10030    2    1    2    0    0  0.00000000000E+00  0.00000000000E+00 -0.18152699767E+03  0.32185903022E+04  0.32134672058E+04 0.  0.
        3    1    3    3  502    0  0.44177304696E+03  0.10782570751E+04 -0.11987780763E+04  0.16717866585E+04  0.10100000352E+00 0. -1.
       -3    1    3    3    0  502 -0.44177304696E+03 -0.10782570751E+04  0.10172510786E+04  0.15468036437E+04  0.10100000352E+00 0.  1.
</event>
<event>
 5   0  0.2666813E-07  0.3913926E+04  0.7818609E-02  0.8022139E-01
       -1   -1    0    0    0  501  0.00000000000E+00  0.00000000000E+00  0.14574602352E+04  0.14574602352E+04  0.50400001928E-02 0. -1.
        1   -1    0    0  501    0  0.00000000000E+00  0.00000000000E+00 -0.26276564458E+04  0.26276564458E+04  0.50400001928E-02 0.  1.
    10030    2    1    2    0    0  0.00000000000E+00  0.00000000000E+00 -0.11701962106E+04  0.40851166811E+04  0.39139263057E+04 0.  0.
        1    1    3    3  502    0  0.56650456540E+03 -0.12633590997E+04  0.85839721481E+03  0.16290639693E+04  0.50400001928E-02 0. -1.
       -1    1    3    3    0  502 -0.56650456540E+03  0.12633590997E+04 -0.20285934254E+04  0.24560527118E+04  0.50400001928E-02 0.  1.
</event>
<event>
 5   0  0.5872444E-07  0.3862440E+04  0.7818609E-02  0.8032887E-01
       -2   -1    0    0    0  501  0.00000000000E+00  0.00000000000E+00  0.13620239374E+04  0.13620239374E+04  0.25500000920E-02 0. -1.
        2   -1    0    0  501    0  0.00000000000E+00  0.00000000000E+00 -0.27382857416E+04  0.27382857416E+04  0.25500000920E-02 0.  1.
    10030    2    1    2    0    0  0.00000000000E+00  0.00000000000E+00 -0.13762618042E+04  0.41003096790E+04  0.38624400203E+04 0.  0.
        3    1    3    3  502    0  0.13128664088E+04 -0.12868489990E+04 -0.13161841686E+04  0.22609598248E+04  0.10100000352E+00 0.  1.
       -3    1    3    3    0  502 -0.13128664088E+04  0.12868489990E+04 -0.60077635610E+02  0.18393498542E+04  0.10100000352E+00 0. -1.
</event>
<event>
 5   0  0.1860500E-07  0.3863328E+04  0.7818609E-02  0.8032700E-01
       -1   -1    0    0    0  501  0.00000000000E+00  0.00000000000E+00  0.17758642805E+04  0.17758642805E+04  0.50400001928E-02 0. -1.
        1   -1    0    0  501    0  0.00000000000E+00  0.00000000000E+00 -0.21011324795E+04  0.21011324795E+04  0.50400001928E-02 0.  1.
    10030    2    1    2    0    0  0.00000000000E+00  0.00000000000E+00 -0.32526819905E+03  0.38769967600E+04  0.38633281605E+04 0.  0.
        4    1    3    3  502    0  0.20938277377E+03 -0.41294738906E+03  0.17193563613E+04  0.17806051225E+04  0.12699999809E+01 0. -1.
       -4    1    3    3    0  502 -0.20938277377E+03  0.41294738906E+03 -0.20446245604E+04  0.20963916375E+04  0.12699999809E+01 0.  1.
</event>
<event>
 5   0  0.1860500E-07  0.2766891E+04  0.7818609E-02  0.8313622E-01
       -1   -1    0    0    0  501  0.00000000000E+00  0.00000000000E+00  0.96163493902E+03  0.96163493903E+03  0.50400001928E-02 0.  1.
        1   -1    0    0  501    0  0.00000000000E+00  0.00000000000E+00 -0.19902780683E+04  0.19902780683E+04  0.50400001928E-02 0. -1.
    10030    2    1    2    0    0  0.00000000000E+00  0.00000000000E+00 -0.10286431293E+04  0.29519130073E+04  0.27668906222E+04 0.  0.
        5    1    3    3  502    0  0.10379231115E+04  0.60150931939E+03 -0.12494570251E+04  0.17321266681E+04  0.46999998093E+01 0. -1.
       -5    1    3    3    0  502 -0.10379231115E+04 -0.60150931939E+03  0.22081389587E+03  0.12197863392E+04  0.46999998093E+01 0.  1.
</event>
<event>
 5   0  0.3959190E-07  0.3883540E+04  0.7818609E-02  0.8028461E-01
        2   -1    0    0  501    0  0.00000000000E+00  0.00000000000E+00  0.18538861030E+04  0.18538861030E+04  0.25500000920E-02 0. -1.
       -2   -1    0    0    0  501  0.00000000000E+00  0.00000000000E+00 -0.20338203165E+04  0.20338203165E+04  0.25500000920E-02 0.  1.
    10030    2    1    2    0    0  0.00000000000E+00  0.00000000000E+00 -0.17993421352E+03  0.38877064196E+04  0.38835402513E+04 0.  0.
        2    1    3    3  502    0 -0.76004843928E+03  0.21698540051E+03  0.16855519275E+04  0.18616770919E+04  0.25500000920E-02 0. -1.
       -2    1    3    3    0  502  0.76004843928E+03 -0.21698540051E+03 -0.18654861410E+04  0.20260293277E+04  0.25500000920E-02 0.  1.
</event>
<event>
 5   0  0.2666813E-07  0.3619657E+04  0.7818609E-02  0.8086004E-01
       -1   -1    0    0    0  501  0.00000000000E+00  0.00000000000E+00  0.24815527165E+04  0.24815527165E+04  0.50400001928E-02 0.  1.
        1   -1    0    0  501    0  0.00000000000E+00  0.00000000000E+00 -0.13199315317E+04  0.13199315317E+04  0.50400001928E-02 0. -1.
    10030    2    1    2    0    0  0.00000000000E+00  0.00000000000E+00  0.11616211848E+04  0.38014842482E+04  0.36196572645E+04 0.  0.
        1    1    3    3  502    0  0.12951877286E+04 -0.14809596336E+03 -0.73765503833E+03  0.14978580114E+04  0.50400001928E-02 0. -1.
       -1    1    3    3    0  502 -0.12951877286E+04  0.14809596336E+03  0.18992762232E+04  0.23036262368E+04  0.50400001928E-02 0.  1.
</event>
<event>
 5   0  0.1943459E-07  0.3859370E+04  0.7818609E-02  0.8033533E-01
       -1   -1    0    0    0  501  0.00000000000E+00  0.00000000000E+00  0.15111243375E+04  0.15111243375E+04  0.50400001928E-02 0. -1.
        1   -1    0    0  501    0  0.00000000000E+00  0.00000000000E+00 -0.24641815369E+04  0.24641815369E+04  0.50400001928E-02 0.  1.
    10030    2    1    2    0    0  0.00000000000E+00  0.00000000000E+00 -0.95305719935E+03  0.39753058744E+04  0.38593702556E+04 0.  0.
        2    1    3    3  502    0  0.17743883424E+04  0.59757614227E+03 -0.95760632222E+03  0.21029886124E+04  0.25500000920E-02 0.  1.
       -2    1    3    3    0  502 -0.17743883424E+04 -0.59757614227E+03  0.45491228718E+01  0.18723172621E+04  0.25500000920E-02 0. -1.
</event>
<event>
 5   0  0.5735179E-07  0.3176455E+04  0.7818609E-02  0.8195063E-01
        2   -1    0    0  501    0  0.00000000000E+00  0.00000000000E+00  0.22504674125E+04  0.22504674125E+04  0.25500000920E-02 0. -1.
       -2   -1    0    0    0  501  0.00000000000E+00  0.00000000000E+00 -0.11208636741E+04  0.11208636741E+04  0.25500000920E-02 0.  1.
    10030    2    1    2    0    0  0.00000000000E+00  0.00000000000E+00  0.11296037384E+04  0.33713310866E+04  0.31764553656E+04 0.  0.
        5    1    3    3  502    0  0.10551104529E+04  0.52827309176E+02 -0.69386993634E+03  0.12639328981E+04  0.46999998093E+01 0.  1.
       -5    1    3    3    0  502 -0.10551104529E+04 -0.52827309176E+02  0.18234736747E+04  0.21073981885E+04  0.46999998093E+01 0. -1.
</event>
<event>
 5   0  0.6095665E-07  0.3898337E+04  0.7818609E-02  0.8025375E-01
       -2   -1    0    0    0  501  0.00000000000E+00  0.00000000000E+00  0.15448961602E+04  0.15448961603E+04  0.25500000920E-02 0.  1.
        2   -1    0    0  501    0  0.00000000000E+00  0.00000000000E+00 -0.24592312902E+04  0.24592312902E+04  0.25500000920E-02 0. -1.
    10030    2    1    2    0    0  0.00000000000E+00  0.00000000000E+00 -0.91433512997E+03  0.40041274505E+04  0.38983365568E+04 0.  0.
        4    1    3    3  502    0 -0.15251602615E+04 -0.89400163736E+02 -0.17004490925E+04  0.22859647726E+04  0.12699999809E+01 0. -1.
       -4    1    3    3    0  502  0.15251602615E+04  0.89400163736E+02  0.78611396256E+03  0.17181626778E+04  0.12699999809E+01 0.  1.
</event>
<event>
 5   0  0.1943459E-07  0.3917252E+04  0.7818609E-02  0.8021451E-01
       -1   -1    0    0    0  501  0.00000000000E+00  0.00000000000E+00  0.22596264670E+04  0.22596264670E+04  0.50400001928E-02 0. -1.
        1   -1    0    0  501    0  0.00000000000E+00  0.00000000000E+00 -0.16977215729E+04  0.16977215729E+04  0.50400001928E-02 0.  1.
    10030    2    1    2    0    0  0.00000000000E+00  0.00000000000E+00  0.56190489407E+03  0.39573480399E+04  0.39172524043E+04 0.  0.
        2    1    3    3  502    0 -0.34976784769E+03  0.19135532391E+04  0.51174885471E+03  0.20114448629E+04  0.25500000920E-02 0.  1.
       -2    1    3    3    0  502  0.34976784769E+03 -0.19135532391E+04  0.50156039364E+02  0.19459031770E+04  0.25500000920E-02 0. -1.
</event>
<event>
 5   0  0.1876027E-07  0.3954037E+04  0.7818609E-02  0.8013883E-01
        1   -1    0    0  501    0  0.00000000000E+00  0.00000000000E+00  0.17514778762E+04  0.17514778762E+04  0.50400001928E-02 0. -1.
       -1   -1    0    0    0  501  0.00000000000E+00  0.00000000000E+00 -0.22316026888E+04  0.22316026888E+04  0.50400001928E-02 0.  1.
    10030    2    1    2    0    0  0.00000000000E+00  0.00000000000E+00 -0.48012481257E+03  0.39830805650E+04  0.39540372977E+04 0.  0.
        3    1    3    3  502    0  0.11791714450E+04 -0.47825963291E+03 -0.17642609923E+04  0.21752688184E+04  0.10100000352E+00 0.  1.
       -3    1    3    3    0  502 -0.11791714450E+04  0.47825963291E+03  0.12841361797E+04  0.18078117466E+04  0.10100000352E+00 0. -1.
</event>
<event>
 5   0  0.1943459E-07  0.2756285E+04  0.7818609E-02  0.8316970E-01
       -1   -1    0    0    0  501  0.00000000000E+00  0.00000000000E+00  0.10415497734E+04  0.10415497734E+04  0.50400001928E-02 0.  1.
        1   -1    0    0  501    0  0.00000000000E+00  0.00000000000E+00 -0.18235097502E+04  0.18235097502E+04  0.50400001928E-02 0. -1.
    10030    2    1    2    0    0  0.00000000000E+00  0.00000000000E+00 -0.78195997678E+03  0.28650595236E+04  0.27562845768E+04 0.  0.
        2    1    3    3  502    0 -0.93033107166E+03  0.99777235045E+03 -0.18779036380E+03  0.13770732686E+04  0.25500000920E-02 0.  1.
       -2    1    3    3    0  502  0.93033107166E+03 -0.99777235045E+03 -0.59416961298E+03  0.14879862550E+04  0.25500000920E-02 0. -1.
</event>
<event>
 5   0  0.5805753E-07  0.3912779E+04  0.7818609E-02  0.8022377E-01
       -2   -1    0    0    0  501  0.00000000000E+00  0.00000000000E+00  0.23169542427E+04  0.23169542427E+04  0.25500000920E-02 0.  1.
        2   -1    0    0  501    0  0.00000000000E+00  0.00000000000E+00 -0.16519359504E+04  0.16519359504E+04  0.25500000920E-02 0. -1.
    10030    2    1    2    0    0  0.00000000000E+00  0.00000000000E+00  0.66501829235E+03  0.39688901931E+04  0.39127790681E+04 0.  0.
        1    1    3    3  502    0 -0.10713520416E+04 -0.99885396561E+03 -0.98299135037E+03  0.17640227994E+04  0.50400001928E-02 0. -1.
       -1    1    3    3    0  502  0.10713520416E+04  0.99885396561E+03  0.16480096427E+04  0.22048673938E+04  0.50400001928E-02 0.  1.
</event>
<event>
 5   0  0.1860500E-07  0.3147106E+04  0.7818609E-02  0.8202928E-01
       -1   -1    0    0    0  501  0.00000000000E+00  0.00000000000E+00  0.10320469655E+04  0.10320469655E+04  0.50400001928E-02 0. -1.
        1   -1    0    0  501    0  0.00000000000E+00  0.00000000000E+00 -0.23991823246E+04  0.23991823246E+04  0.50400001928E-02 0.  1.
    10030    2    1    2    0    0  0.00000000000E+00  0.00000000000E+00 -0.13671353591E+04  0.34312292901E+04  0.31471058691E+04 0.  0.
        5    1    3    3  502    0  0.15088170666E+04  0.11697484880E+03 -0.11535719284E+04  0.19028826395E+04  0.46999998093E+01 0.  1.
       -5    1    3    3    0  502 -0.15088170666E+04 -0.11697484880E+03 -0.21356343063E+03  0.15283466506E+04  0.46999998093E+01 0. -1.
</event>
<event>
 5   0  0.1860500E-07  0.3965839E+04  0.7818609E-02  0.8011474E-01
        1   -1    0    0  501    0  0.00000000000E+00  0.00000000000E+00  0.14070879747E+04  0.14070879747E+04  0.50400001928E-02 0.  1.
       -1   -1    0    0    0  501  0.00000000000E+00  0.00000000000E+00 -0.27944021618E+04  0.27944021618E+04  0.50400001928E-02 0. -1.
    10030    2    1    2    0    0  0.00000000000E+00  0.00000000000E+00 -0.13873141872E+04  0.42014901365E+04  0.39658389671E+04 0.  0.
        4    1    3    3  502    0 -0.10658194641E+04  0.13736519462E+04  0.31645290785E+03  0.17672110386E+04  0.12699999809E+01 0.  1.
       -4    1    3    3    0  502  0.10658194641E+04 -0.13736519462E+04 -0.17037670950E+04  0.24342790978E+04  0.12699999809E+01 0. -1.
</event>
<event>
 5   0  0.1876027E-07  0.3828675E+04  0.7818609E-02  0.8040029E-01
        1   -1    0    0  501    0  0.00000000000E+00  0.00000000000E+00  0.27389573103E+04  0.27389573103E+04  0.50400001928E-02 0.  1.
       -1   -1    0    0    0  501  0.00000000000E+00  0.00000000000E+00 -0.13379866659E+04  0.13379866659E+04  0.50400001928E-02 0. -1.
    10030    2    1    2    0    0  0.00000000000E+00  0.00000000000E+00  0.14009706444E+04  0.40769439762E+04  0.38286751545E+04 0.  0.
        3    1    3    3  502    0  0.17109735753E+04 -0.38030464357E+03 -0.11925562621E+03  0.17567823177E+04  0.10100000352E+00 0. -1.
       -3    1    3    3    0  502 -0.17109735753E+04  0.38030464357E+03  0.15202262706E+04  0.23201616585E+04  0.10100000352E+00 0.  1.
</event>
<event>
 5   0  0.6095665E-07  0.3833390E+04  0.7818609E-02  0.8039027E-01
        2   -1    0    0  501    0  0.00000000000E+00  0.00000000000E+00  0.28561496180E+04  0.28561496180E+04  0.25500000920E-02 0. -1.
       -2   -1    0    0    0  501  0.00000000000E+00  0.00000000000E+00 -0.12862491671E+04  0.12862491671E+04  0.25500000920E-02 0.  1.
    10030    2    1    2    0    0  0.00000000000E+00  0.00000000000E+00  0.15699004510E+04  0.41423987851E+04  0.38333901796E+04 0.  0.
        4    1    3    3  502    0 -0.14057722920E+04 -0.98427702209E+03  0.17074147211E+04  0.24207981402E+04  0.12699999809E+01 0. -1.
       -4    1    3    3    0  502  0.14057722920E+04  0.98427702209E+03 -0.13751427012E+03  0.17216006449E+04  0.12699999809E+01 0.  1.
</event>
<event>
 5   0  0.2666813E-07  0.3615737E+04  0.7818609E-02  0.8086896E-01
       -1   -1    0    0    0  501  0.00000000000E+00  0.00000000000E+00  0.12915643891E+04  0.12915643891E+04  0.50400001928E-02 0.  1.
        1   -1    0    0  501    0  0.00000000000E+00  0.00000000000E+00 -0.25305659077E+04  0.25305659077E+04  0.50400001928E-02 0. -1.
    10030    2    1    2    0    0  0.00000000000E+00  0.00000000000E+00 -0.12390015186E+04  0.38221302968E+04  0.36157371645E+04 0.  0.
        1    1    3    3  502    0 -0.15058923518E+04 -0.34263561684E+03  0.37397507958E+03  0.15890148839E+04  0.50400001928E-02 0.  1.
       -1    1    3    3    0  502  0.15058923518E+04  0.34263561684E+03 -0.16129765981E+04  0.22331154129E+04  0.50400001928E-02 0. -1.
</event>
<event>
 5   0  0.5805753E-07  0.3921210E+04  0.7818609E-02  0.8020632E-01
        2   -1    0    0  501    0  0.00000000000E+00  0.00000000000E+00  0.17153995718E+04  0.17153995718E+04  0.25500000920E-02 0. -1.
       -2   -1    0    0    0  501  0.00000000000E+00  0.00000000000E+00 -0.22408615132E+04  0.22408615132E+04  0.25500000920E-02 0.  1.
    10030    2    1    2    0    0  0.00000000000E+00  0.00000000000E+00 -0.52546194140E+03  0.39562610851E+04  0.39212104663E+04 0.  0.
        1    1    3    3  502    0  0.67896234656E+03  0.18291785542E+04 -0.45703703425E+03  0.20039378488E+04  0.50400001928E-02 0.  1.
       -1    1    3    3    0  502 -0.67896234656E+03 -0.18291785542E+04 -0.68424907152E+02  0.19523232363E+04  0.50400001928E-02 0. -1.
</event>
<event>
 5   0  0.5872444E-07  0.3972533E+04  0.7818609E-02  0.8010110E-01
       -2   -1    0    0    0  501  0.00000000000E+00  0.00000000000E+00  0.20666052462E+04  0.20666052462E+04  0.25500000920E-02 0. -1.
        2   -1    0    0  501    0  0.00000000000E+00  0.00000000000E+00 -0.19090511200E+04  0.19090511200E+04  0.25500000920E-02 0.  1.
    10030    2    1    2    0    0  0.00000000000E+00  0.00000000000E+00  0.15755412614E+03  0.39756563662E+04  0.39725332270E+04 0.  0.
        3    1    3    3  502    0  0.10647543265E+04 -0.23615597986E+03  0.17401374792E+04  0.20536674218E+04  0.10100000352E+00 0. -1.
       -3    1    3    3    0  502 -0.10647543265E+04  0.23615597986E+03 -0.15825833531E+04  0.19219889444E+04  0.10100000352E+00 0.  1.
</event>
<event>
 5   0  0.6095665E-07  0.3713715E+04  0.7818609E-02  0.8064929E-01
        2   -1    0    0  501    0  0.00000000000E+00  0.00000000000E+00  0.19301524042E+04  0.19301524042E+04  0.25500000920E-02 0. -1.
       -2   -1    0    0    0  501  0.00000000000E+00  0.00000000000E+00 -0.17863456107E+04  0.17863456107E+04  0.25500000920E-02 0.  1.
    10030    2    1    2    0    0  0.00000000000E+00  0.00000000000E+00  0.14380679349E+03  0.37164980149E+04  0.37137147307E+04 0.  0.
        4    1    3    3  502    0  0.12265675598E+04 -0.69359498352E+03 -0.11382901790E+04  0.18114215756E+04  0.12699999809E+01 0.  1.
       -4    1    3    3    0  502 -0.12265675598E+04  0.69359498352E+03  0.12820969725E+04  0.19050764393E+04  0.12699999809E+01 0. -1.
</event>
<event>
 5   0  0.1876027E-07  0.3822521E+04  0.7818609E-02  0.8041339E-01
        1   -1    0    0  501    0  0.00000000000E+00  0.00000000000E+00  0.21418320766E+04  0.21418320766E+04  0.50400001928E-02 0.  1.
       -1   -1    0    0    0  501  0.00000000000E+00  0.00000000000E+00 -0.17055099121E+04  0.17055099121E+04  0.50400001928E-02 0. -1.
    10030    2    1    2    0    0  0.00000000000E+00  0.00000000000E+00  0.43632216448E+03  0.38473419887E+04  0.38225205489E+04 0.  0.
        3    1    3    3  502    0  0.12121890796E+04 -0.42856597241E+03 -0.12051803644E+04  0.17622516501E+04  0.10100000352E+00 0. -1.
       -3    1    3    3    0  502 -0.12121890796E+04  0.42856597241E+03  0.16415025289E+04  0.20850903386E+04  0.10100000352E+00 0.  1.
</event>
<event>
 5   0  0.3959190E-07  0.2981422E+04  0.7818609E-02  0.8249056E-01
        2   -1    0    0  501    0  0.00000000000E+00  0.00000000000E+00  0.15988600295E+04  0.15988600295E+04  0.25500000920E-02 0.  1.
       -2   -1    0    0    0  501  0.00000000000E+00  0.00000000000E+00 -0.13898776777E+04  0.13898776777E+04  0.25500000920E-02 0. -1.
    10030    2    1    2    0    0  0.00000000000E+00  0.00000000000E+00  0.20898235186E+03  0.29887377072E+04  0.29814223886E+04 0.  0.
        2    1    3    3  502    0 -0.22206234332E+02  0.24727887474E+03  0.15779888709E+04  0.15974006496E+04  0.25500000920E-02 0.  1.
       -2    1    3    3    0  502  0.22206234332E+02 -0.24727887474E+03 -0.13690065190E+04  0.13913370576E+04  0.25500000920E-02 0. -1.
</event>
<event>
 5   0  0.1860500E-07  0.3942553E+04  0.7818609E-02  0.8016237E-01
       -1   -1    0    0    0  501  0.00000000000E+00  0.00000000000E+00  0.11678040591E+04  0.11678040591E+04  0.50400001928E-02 0.  1.
        1   -1    0    0  501    0  0.00000000000E+00  0.00000000000E+00 -0.33275542019E+04  0.33275542019E+04  0.50400001928E-02 0. -1.
    10030    2    1    2    0    0  0.00000000000E+00  0.00000000000E+00 -0.21597501427E+04  0.44953582610E+04  0.39425531342E+04 0.  0.
        5    1    3    3  502    0  0.12134578098E+04  0.14571141704E+04 -0.16941617701E+04  0.25428070621E+04  0.46999998093E+01 0. -1.
       -5    1    3    3    0  502 -0.12134578098E+04 -0.14571141704E+04 -0.46558837267E+03  0.19525511989E+04  0.46999998093E+01 0.  1.
</event>
<event>
 5   0  0.5805753E-07  0.3399460E+04  0.7818609E-02  0.8138039E-01
       -2   -1    0    0    0  501  0.00000000000E+00  0.00000000000E+00  0.29119938593E+04  0.29119938593E+04  0.25500000920E-02 0. -1.
        2   -1    0    0  501    0  0.00000000000E+00  0.00000000000E+00 -0.99213207570E+03  0.99213207570E+03  0.25500000920E-02 0.  1.
    10030    2    1    2    0    0  0.00000000000E+00  0.00000000000E+00  0.19198617836E+04  0.39041259350E+04  0.33994602584E+04 0.  0.
        1    1    3    3  502    0 -0.15943841878E+04  0.49591107212E+03  0.59477688351E+03  0.17724977492E+04  0.50400001928E-02 0.  1.
       -1    1    3    3    0  502  0.15943841878E+04 -0.49591107212E+03  0.13250849001E+04  0.21316281858E+04  0.50400001928E-02 0. -1.
</event>
<event>
 5   0  0.5735179E-07  0.3716220E+04  0.7818609E-02  0.8064377E-01
        2   -1    0    0  501    0  0.00000000000E+00  0.00000000000E+00  0.13063054182E+04  0.13063054182E+04  0.25500000920E-02 0.  1.
       -2   -1    0    0    0  501  0.00000000000E+00  0.00000000000E+00 -0.26430057047E+04  0.26430057047E+04  0.25500000920E-02 0. -1.
    10030    2    1    2    0    0  0.00000000000E+00  0.00000000000E+00 -0.13367002864E+04  0.39493111229E+04  0.37162199463E+04 0.  0.
        5    1    3    3  502    0 -0.14410169701E+04  0.44582796903E+03 -0.18214204307E+04  0.23649285320E+04  0.46999998093E+01 0. -1.
       -5    1    3    3    0  502  0.14410169701E+04 -0.44582796903E+03  0.48472014424E+03  0.15843825909E+04  0.46999998093E+01 0.  1.
</event>
<event>
 5   0  0.5735179E-07  0.3829236E+04  0.7818609E-02  0.8039910E-01
        2   -1    0    0  501    0  0.00000000000E+00  0.00000000000E+00  0.28442989671E+04  0.28442989671E+04  0.25500000920E-02 0. -1.
       -2   -1    0    0    0  501  0.00000000000E+00  0.00000000000E+00 -0.12888104447E+04  0.12888104447E+04  0.25500000920E-02 0.  1.
    10030    2    1    2    0    0  0.00000000000E+00  0.00000000000E+00  0.15554885224E+04  0.41331094119E+04  0.38292360684E+04 0.  0.
        5    1    3    3  502    0  0.56241257589E+03 -0.15811028673E+04  0.17725956179E+04  0.24409652798E+04  0.46999998093E+01 0. -1.
       -5    1    3    3    0  502 -0.56241257589E+03  0.15811028673E+04 -0.21710709553E+03  0.16921441320E+04  0.46999998093E+01 0.  1.
</event>
<event>
 5   0  0.1876027E-07  0.3882028E+04  0.7818609E-02  0.8028777E-01
        1   -1    0    0  501    0  0.00000000000E+00  0.00000000000E+00  0.24265709757E+04  0.24265709757E+04  0.50400001928E-02 0. -1.
       -1   -1    0    0    0  501  0.00000000000E+00  0.00000000000E+00 -0.15526171574E+04  0.15526171574E+04  0.50400001928E-02 0.  1.
    10030    2    1    2    0    0  0.00000000000E+00  0.00000000000E+00  0.87395381829E+03  0.39791881331E+04  0.38820281969E+04 0.  0.
        3    1    3    3  502    0  0.51231679667E+03 -0.18178600509E+04 -0.21947380232E+02  0.18887999795E+04  0.10100000352E+00 0.  1.
       -3    1    3    3    0  502 -0.51231679667E+03  0.18178600509E+04  0.89590119853E+03  0.20903881536E+04  0.10100000352E+00 0. -1.
</event>
<event>
 5   0  0.1876027E-07  0.2968723E+04  0.7818609E-02  0.8252719E-01
        1   -1    0    0  501    0  0.00000000000E+00  0.00000000000E+00  0.17957297344E+04  0.17957297344E+04  0.50400001928E-02 0. -1.
       -1   -1    0    0    0  501  0.00000000000E+00  0.00000000000E+00 -0.12269829577E+04  0.12269829577E+04  0.50400001928E-02 0.  1.
    10030    2    1    2    0    0  0.00000000000E+00  0.00000000000E+00  0.56874677675E+03  0.30227126921E+04  0.29687234838E+04 0.  0.
        3    1    3    3  502    0  0.14819118380E+04  0.42888589877E+02  0.20936103497E+03  0.14972421915E+04  0.10100000352E+00 0. -1.
       -3    1    3    3    0  502 -0.14819118380E+04 -0.42888589877E+02  0.35938574179E+03  0.15254705006E+04  0.10100000352E+00 0.  1.
</event>
<event>
 5   0  0.1860500E-07  0.3375566E+04  0.7818609E-02  0.8143929E-01
        3   -1    0    0  501    0  0.00000000000E+00  0.00000000000E+00  0.15462733984E+04  0.15462734017E+04  0.10100000352E+00 0. -1.
       -3   -1    0    0    0  501  0.00000000000E+00  0.00000000000E+00 -0.18422428506E+04  0.18422428534E+04  0.10100000352E+00 0.  1.
    10030    2    1    2    0    0  0.00000000000E+00  0.00000000000E+00 -0.29596945218E+03  0.33885162551E+04  0.33755658036E+04 0.  0.
        1    1    3    3  502    0  0.66361829737E+03  0.17110835247E+03 -0.16962846304E+04  0.18294941542E+04  0.50400001928E-02 0.  1.
       -1    1    3    3    0  502 -0.66361829737E+03 -0.17110835247E+03  0.14003151782E+04  0.15590221009E+04  0.50400001928E-02 0. -1.
</event>
<event>
 5   0  0.2666813E-07  0.3649911E+04  0.7818609E-02  0.8079154E-01
        1   -1    0    0  501    0  0.00000000000E+00  0.00000000000E+00  0.12336799699E+04  0.12336799699E+04  0.50400001928E-02 0. -1.
       -1   -1    0    0    0  501  0.00000000000E+00  0.00000000000E+00 -0.26996169773E+04  0.26996169773E+04  0.50400001928E-02 0.  1.
    10030    2    1    2    0    0  0.00000000000E+00  0.00000000000E+00 -0.14659370074E+04  0.39332969472E+04  0.36499114462E+04 0.  0.
        1    1    3    3  502    0 -0.37059770741E+03 -0.12636220004E+04 -0.20945466415E+04  0.24741076885E+04  0.50400001928E-02 0.  1.
       -1    1    3    3    0  502  0.37059770741E+03  0.12636220004E+04  0.62860963406E+03  0.14591892587E+04  0.50400001928E-02 0. -1.
</event>
<event>
 5   0  0.1943459E-07  0.3939618E+04  0.7818609E-02  0.8016840E-01
       -1   -1    0    0    0  501  0.00000000000E+00  0.00000000000E+00  0.20784828374E+04  0.20784828374E+04  0.50400001928E-02 0. -1.
        1   -1    0    0  501    0  0.00000000000E+00  0.00000000000E+00 -0.18668170557E+04  0.18668170557E+04  0.50400001928E-02 0.  1.
    10030    2    1    2    0    0  0.00000000000E+00  0.00000000000E+00  0.21166578167E+03  0.39452998931E+04  0.39396178550E+04 0.  0.
        2    1    3    3  502    0  0.34909433730E+03  0.18793678459E+04  0.58218357799E+03  0.19982062143E+04  0.25500000920E-02 0. -1.
       -2    1    3    3    0  502 -0.34909433730E+03 -0.18793678459E+04 -0.37051779633E+03  0.19470936788E+04  0.25500000920E-02 0.  1.
</event>
<event>
 5   0  0.1860500E-07  0.3886735E+04  0.7818609E-02  0.8027794E-01
       -1   -1    0    0    0  501  0.00000000000E+00  0.00000000000E+00  0.14502245901E+04  0.14502245901E+04  0.50400001928E-02 0. -1.
        1   -1    0    0  501    0  0.00000000000E+00  0.00000000000E+00 -0.26042012897E+04  0.26042012897E+04  0.50400001928E-02 0.  1.
    10030    2    1    2    0    0  0.00000000000E+00  0.00000000000E+00 -0.11539766996E+04  0.40544258798E+04  0.38867347467E+04 0.  0.
        5    1    3    3  502    0 -0.97214217078E+03  0.24986059126E+03 -0.23128647407E+04  0.25212806496E+04  0.46999998093E+01 0.  1.
       -5    1    3    3    0  502  0.97214217078E+03 -0.24986059126E+03  0.11588880411E+04  0.15331452302E+04  0.46999998093E+01 0. -1.
</event>
<event>
 5   0  0.5735179E-07  0.3634159E+04  0.7818609E-02  0.8082712E-01
       -2   -1    0    0    0  501  0.00000000000E+00  0.00000000000E+00  0.25849512141E+04  0.25849512141E+04  0.25500000920E-02 0. -1.
        2   -1    0    0  501    0  0.00000000000E+00  0.00000000000E+00 -0.12773077733E+04  0.12773077733E+04  0.25500000920E-02 0.  1.
    10030    2    1    2    0    0  0.00000000000E+00  0.00000000000E+00  0.13076434408E+04  0.38622589874E+04  0.36341592037E+04 0.  0.
        5    1    3    3  502    0  0.17238810272E+04 -0.39192321585E+03  0.11001662552E+04  0.20822481797E+04  0.46999998093E+01 0. -1.
       -5    1    3    3    0  502 -0.17238810272E+04  0.39192321585E+03  0.20747718555E+03  0.17800108077E+04  0.46999998093E+01 0.  1.
</event>
<event>
 5   0  0.1860500E-07  0.2584504E+04  0.7818609E-02  0.8373484E-01
       -1   -1    0    0    0  501  0.00000000000E+00  0.00000000000E+00  0.82136541775E+03  0.82136541777E+03  0.50400001928E-02 0. -1.
        1   -1    0    0  501    0  0.00000000000E+00  0.00000000000E+00 -0.20330961968E+04  0.20330961968E+04  0.50400001928E-02 0.  1.
    10030    2    1    2    0    0  0.00000000000E+00  0.00000000000E+00 -0.12117307790E+04  0.28544616146E+04  0.25845037489E+04 0.  0.
        5    1    3    3  502    0 -0.70365370835E+02  0.96232884829E+03  0.34349149803E+03  0.10242248761E+04  0.46999998093E+01 0. -1.
       -5    1    3    3    0  502  0.70365370835E+02 -0.96232884829E+03 -0.15552222771E+04  0.18302367384E+04  0.46999998093E+01 0.  1.
</event>
<event>
 5   0  0.5805753E-07  0.3937729E+04  0.7818609E-02  0.8017228E-01
        2   -1    0    0  501    0  0.00000000000E+00  0.00000000000E+00  0.32108044645E+04  0.32108044645E+04  0.25500000920E-02 0. -1.
       -2   -1    0    0    0  501  0.00000000000E+00  0.00000000000E+00 -0.12073073567E+04  0.12073073567E+04  0.25500000920E-02 0.  1.
    10030    2    1    2    0    0  0.00000000000E+00  0.00000000000E+00  0.20034971078E+04  0.44181118211E+04  0.39377292191E+04 0.  0.
        1    1    3    3  502    0  0.37232454610E+03  0.16346765933E+04  0.21599791574E+04  0.27342829212E+04  0.50400001928E-02 0. -1.
       -1    1    3    3    0  502 -0.37232454610E+03 -0.16346765933E+04 -0.15648204965E+03  0.16838288999E+04  0.50400001928E-02 0.  1.
</event>
<event>
 5   0  0.2666813E-07  0.3381964E+04  0.7818609E-02  0.8142347E-01
        1   -1    0    0  501    0  0.00000000000E+00  0.00000000000E+00  0.18548568202E+04  0.18548568202E+04  0.50400001928E-02 0.  1.
       -1   -1    0    0    0  501  0.00000000000E+00  0.00000000000E+00 -0.15415854049E+04  0.15415854049E+04  0.50400001928E-02 0. -1.
    10030    2    1    2    0    0  0.00000000000E+00  0.00000000000E+00  0.31327141533E+03  0.33964422252E+04  0.33819640461E+04 0.  0.
        1    1    3    3  502    0  0.16574374786E+04  0.29904803348E+03  0.30858272691E+03  0.17122359713E+04  0.50400001928E-02 0. -1.
       -1    1    3    3    0  502 -0.16574374786E+04 -0.29904803348E+03  0.46886884131E+01  0.16842062539E+04  0.50400001928E-02 0.  1.
</event>
<event>
 5   0  0.6095665E-07  0.3075869E+04  0.7818609E-02  0.8222392E-01
        2   -1    0    0  501    0  0.00000000000E+00  0.00000000000E+00  0.19450916534E+04  0.19450916534E+04  0.25500000920E-02 0.  1.
       -2   -1    0    0    0  501  0.00000000000E+00  0.00000000000E+00 -0.12160053425E+04  0.12160053425E+04  0.25500000920E-02 0. -1.
    10030    2    1    2    0    0  0.00000000000E+00  0.00000000000E+00  0.72908631090E+03  0.31610969959E+04  0.30758685552E+04 0.  0.
        4    1    3    3  502    0  0.78628677831E+03  0.11307206644E+04  0.10679526274E+04  0.17427852840E+04  0.12699999809E+01 0.  1.
       -4    1    3    3    0  502 -0.78628677831E+03 -0.11307206644E+04 -0.33886631652E+03  0.14183117119E+04  0.12699999809E+01 0. -1.
</event>
<event>
 5   0  0.5805753E-07  0.3653271E+04  0.7818609E-02  0.8078397E-01
        2   -1    0    0  501    0  0.00000000000E+00  0.00000000000E+00  0.15501144794E+04  0.15501144794E+04  0.25500000920E-02 0. -1.
       -2   -1    0    0    0  501  0.00000000000E+00  0.00000000000E+00 -0.21524844343E+04  0.21524844343E+04  0.25500000920E-02 0.  1.
    10030    2    1    2    0    0  0.00000000000E+00  0.00000000000E+00 -0.60236995497E+03  0.37025989137E+04  0.36532710210E+04 0.  0.
        1    1    3    3  502    0  0.52232224858E+03 -0.16718066935E+04 -0.82668292416E+03  0.19367918858E+04  0.50400001928E-02 0.  1.
       -1    1    3    3    0  502 -0.52232224858E+03  0.16718066935E+04  0.22431296919E+03  0.17658070279E+04  0.50400001928E-02 0. -1.
</event>
<event>
 5   0  0.1876027E-07  0.3424333E+04  0.7818609E-02  0.8131960E-01
        1   -1    0    0  501    0  0.00000000000E+00  0.00000000000E+00  0.12535910794E+04  0.12535910794E+04  0.50400001928E-02 0. -1.
       -1   -1    0    0    0  501  0.00000000000E+00  0.00000000000E+00 -0.23384927963E+04  0.23384927963E+04  0.50400001928E-02 0.  1.
    10030    2    1    2    0    0  0.00000000000E+00  0.00000000000E+00 -0.10849017169E+04  0.35920838757E+04  0.34243327576E+04 0.  0.
        3    1    3    3  502    0 -0.13402768459E+04 -0.85782941462E+03 -0.12053086491E+04  0.19962420390E+04  0.10100000352E+00 0.  1.
       -3    1    3    3    0  502  0.13402768459E+04  0.85782941462E+03  0.12040693220E+03  0.15958418367E+04  0.10100000352E+00 0. -1.
</event>
<event>
 5   0  0.1860500E-07  0.3904223E+04  0.7818609E-02  0.8024151E-01
        1   -1    0    0  501    0  0.00000000000E+00  0.00000000000E+00  0.22707194554E+04  0.22707194554E+04  0.50400001928E-02 0.  1.
       -1   -1    0    0    0  501  0.00000000000E+00  0.00000000000E+00 -0.16782078540E+04  0.16782078540E+04  0.50400001928E-02 0. -1.
    10030    2    1    2    0    0  0.00000000000E+00  0.00000000000E+00  0.59251160139E+03  0.39489273094E+04  0.39042229569E+04 0.  0.
        5    1    3    3  502    0  0.11976259234E+04  0.10325704626E+04  0.14540052227E+04  0.21481766431E+04  0.46999998093E+01 0.  1.
       -5    1    3    3    0  502 -0.11976259234E+04 -0.10325704626E+04 -0.86149362127E+03  0.18007506663E+04  0.46999998093E+01 0. -1.
</event>
<event>
 5   0  0.1860500E-07  0.2835331E+04  0.7818609E-02  0.8292383E-01
        3   -1    0    0  501    0  0.00000000000E+00  0.00000000000E+00  0.19347046564E+04  0.19347046590E+04  0.10100000352E+00 0. -1.
       -3   -1    0    0    0  501  0.00000000000E+00  0.00000000000E+00 -0.10388018395E+04  0.10388018444E+04  0.10100000352E+00 0.  1.
    10030    2    1    2    0    0  0.00000000000E+00  0.00000000000E+00  0.89590281687E+03  0.29735065034E+04  0.28353305043E+04 0.  0.
        5    1    3    3  502    0  0.10694979289E+04 -0.61759789756E+02  0.14217007903E+04  0.17801391290E+04  0.46999998093E+01 0. -1.
       -5    1    3    3    0  502 -0.10694979289E+04  0.61759789756E+02 -0.52579797341E+03  0.11933673744E+04  0.46999998093E+01 0.  1.
</event>
<event>
 5   0  0.1943459E-07  0.4031275E+04  0.7818609E-02  0.7998267E-01
       -1   -1    0    0    0  501  0.00000000000E+00  0.00000000000E+00  0.15755423856E+04  0.15755423856E+04  0.50400001928E-02 0. -1.
        1   -1    0    0  501    0  0.00000000000E+00  0.00000000000E+00 -0.25786639114E+04  0.25786639114E+04  0.50400001928E-02 0.  1.
    10030    2    1    2    0    0  0.00000000000E+00  0.00000000000E+00 -0.10031215258E+04  0.41542062970E+04  0.40312748805E+04 0.  0.
        2    1    3    3  502    0 -0.42000762840E+03 -0.11611413385E+04 -0.21432967597E+04  0.24735352466E+04  0.25500000920E-02 0.  1.
       -2    1    3    3    0  502  0.42000762840E+03  0.11611413385E+04  0.11401752339E+04  0.16806710504E+04  0.25500000920E-02 0. -1.
</event>
<event>
 5   0  0.5872444E-07  0.3762661E+04  0.7818609E-02  0.8054216E-01
        2   -1    0    0  501    0  0.00000000000E+00  0.00000000000E+00  0.27663685718E+04  0.27663685718E+04  0.25500000920E-02 0. -1.
       -2   -1    0    0    0  501  0.00000000000E+00  0.00000000000E+00 -0.12794403740E+04  0.12794403740E+04  0.25500000920E-02 0.  1.
    10030    2    1    2    0    0  0.00000000000E+00  0.00000000000E+00  0.14869281978E+04  0.40458089457E+04  0.37626605693E+04 0.  0.
        3    1    3    3  502    0  0.28334169642E+03  0.98126265903E+03  0.24423096866E+04  0.26472694496E+04  0.10100000352E+00 0. -1.
       -3    1    3    3    0  502 -0.28334169642E+03 -0.98126265903E+03 -0.95538148885E+03  0.13985394962E+04  0.10100000352E+00 0.  1.
</event>
<event>
 5   0  0.3959190E-07  0.3872108E+04  0.7818609E-02  0.8030855E-01
        2   -1    0    0  501    0  0.00000000000E+00  0.00000000000E+00  0.10851735560E+04  0.10851735560E+04  0.25500000920E-02 0. -1.
       -2   -1    0    0    0  501  0.00000000000E+00  0.00000000000E+00 -0.34541070852E+04  0.34541070852E+04  0.25500000920E-02 0.  1.
    10030    2    1    2    0    0  0.00000000000E+00  0.00000000000E+00 -0.23689335292E+04  0.45392806413E+04  0.38721082984E+04 0.  0.
        2    1    3    3  502    0  0.45408285778E+03  0.15659280765E+04  0.39443387711E+02  0.16309131685E+04  0.25500000920E-02 0. -1.
       -2    1    3    3    0  502 -0.45408285778E+03 -0.15659280765E+04 -0.24083769169E+04  0.29083674727E+04  0.25500000920E-02 0.  1.
</event>
<event>
 5   0  0.5872444E-07  0.3786028E+04  0.7818609E-02  0.8049160E-01
       -2   -1    0    0    0  501  0.00000000000E+00  0.00000000000E+00  0.23481920542E+04  0.23481920542E+04  0.25500000920E-02 0.  1.
        2   -1    0    0  501    0  0.00000000000E+00  0.00000000000E+00 -0.15260682117E+04  0.15260682117E+04  0.25500000920E-02 0. -1.
    10030    2    1    2    0    0  0.00000000000E+00  0.00000000000E+00  0.82212384252E+03  0.38742602660E+04  0.37860276011E+04 0.  0.
        3    1    3    3  502    0 -0.13089774907E+04 -0.26045716626E+03 -0.96270001030E+03  0.16456157895E+04  0.10100000352E+00 0. -1.
       -3    1    3    3    0  502  0.13089774907E+04  0.26045716626E+03  0.17848238528E+04  0.22286444765E+04  0.10100000352E+00 0.  1.
</event>
<event>
 5   0  0.3959190E-07  0.2709915E+04  0.7818609E-02  0.8331795E-01
       -2   -1    0    0    0  501  0.00000000000E+00  0.00000000000E+00  0.12590517289E+04  0.12590517289E+04  0.25500000920E-02 0.  1.
        2   -1    0    0  501    0  0.00000000000E+00  0.00000000000E+00 -0.14581683292E+04  0.14581683292E+04  0.25500000920E-02 0. -1.
    10030    2    1    2    0    0  0.00000000000E+00  0.00000000000E+00 -0.19911660035E+03  0.27172200581E+04  0.27099146524E+04 0.  0.
        2    1    3    3  502    0  0.92576319955E+03 -0.96772176603E+03  0.10687637974E+03  0.13434825934E+04  0.25500000920E-02 0. -1.
       -2    1    3    3    0  502 -0.92576319955E+03  0.96772176603E+03 -0.30599298009E+03  0.13737374647E+04  0.25500000920E-02 0.  1.
</event>
<event>
 5   0  0.5872444E-07  0.2467006E+04  0.7818609E-02  0.8414835E-01
       -2   -1    0    0    0  501  0.00000000000E+00  0.00000000000E+00  0.70210387991E+03  0.70210387991E+03  0.25500000920E-02 0. -1.
        2   -1    0    0  501    0  0.00000000000E+00  0.00000000000E+00 -0.21671003231E+04  0.21671003231E+04  0.25500000920E-02 0.  1.
    10030    2    1    2    0    0  0.00000000000E+00  0.00000000000E+00 -0.14649964432E+04  0.28692042030E+04  0.24670059140E+04 0.  0.
        3    1    3    3  502    0  0.44874880599E+03 -0.88144705109E+03 -0.15896805382E+04  0.18722736495E+04  0.10100000352E+00 0.  1.
       -3    1    3    3    0  502 -0.44874880599E+03  0.88144705109E+03  0.12468409506E+03  0.99693055350E+03  0.10100000352E+00 0. -1.
</event>
<event>
 5   0  0.5872444E-07  0.2751481E+04  0.7818609E-02  0.8318492E-01
        2   -1    0    0  501    0  0.00000000000E+00  0.00000000000E+00  0.15548104702E+04  0.15548104702E+04  0.25500000920E-02 0.  1.
       -2   -1    0    0    0  501  0.00000000000E+00  0.00000000000E+00 -0.12172944789E+04  0.12172944789E+04  0.25500000920E-02 0. -1.
    10030    2    1    2    0    0  0.00000000000E+00  0.00000000000E+00  0.33751599131E+03  0.27721049490E+04  0.27514812018E+04 0.  0.
        3    1    3    3  502    0 -0.29521120192E+03 -0.12841966634E+04 -0.22961885859E+03  0.13375483373E+04  0.10100000352E+00 0. -1.
       -3    1    3    3    0  502  0.29521120192E+03  0.12841966634E+04  0.56713484990E+03  0.14345566117E+04  0.10100000352E+00 0.  1.
</event>
<event>
 5   0  0.3959190E-07  0.3739981E+04  0.7818609E-02  0.8059159E-01
        2   -1    0    0  501    0  0.00000000000E+00  0.00000000000E+00  0.21186570868E+04  0.21186570868E+04  0.25500000920E-02 0. -1.
       -2   -1    0    0    0  501  0.00000000000E+00  0.00000000000E+00 -0.16505099433E+04  0.16505099433E+04  0.25500000920E-02 0.  1.
    10030    2    1    2    0    0  0.00000000000E+00  0.00000000000E+00  0.46814714348E+03  0.37691670301E+04  0.37399810631E+04 0.  0.
        2    1    3    3  502    0  0.70948940566E+03 -0.62603341802E+03 -0.13914522251E+04  0.16826860527E+04  0.25500000920E-02 0.  1.
       -2    1    3    3    0  502 -0.70948940566E+03  0.62603341802E+03  0.18595993686E+04  0.20864809774E+04  0.25500000920E-02 0. -1.
</event>
<event>
 5   0  0.6095665E-07  0.3803867E+04  0.7818609E-02  0.8045326E-01
        2   -1    0    0  501    0  0.00000000000E+00  0.00000000000E+00  0.27389527813E+04  0.27389527813E+04  0.25500000920E-02 0.  1.
       -2   -1    0    0    0  501  0.00000000000E+00  0.00000000000E+00 -0.13207055571E+04  0.13207055571E+04  0.25500000920E-02 0. -1.
    10030    2    1    2    0    0  0.00000000000E+00  0.00000000000E+00  0.14182472242E+04  0.40596583384E+04  0.38038665376E+04 0.  0.
        4    1    3    3  502    0 -0.11448532734E+04  0.78022271105E+03  0.20997863212E+04  0.25156590994E+04  0.12699999809E+01 0.  1.
       -4    1    3    3    0  502  0.11448532734E+04 -0.78022271105E+03 -0.68153909706E+03  0.15439992391E+04  0.12699999809E+01 0. -1.
</event>
<event>
 5   0  0.2666813E-07  0.3897540E+04  0.7818609E-02  0.8025541E-01
       -1   -1    0    0    0  501  0.00000000000E+00  0.00000000000E+00  0.14957059311E+04  0.14957059311E+04  0.50400001928E-02 0. -1.
        1   -1    0    0  501    0  0.00000000000E+00  0.00000000000E+00 -0.25390722397E+04  0.25390722397E+04  0.50400001928E-02 0.  1.
    10030    2    1    2    0    0  0.00000000000E+00  0.00000000000E+00 -0.10433663085E+04  0.40347781708E+04  0.38975404596E+04 0.  0.
        1    1    3    3  502    0  0.33448051527E+03 -0.15465546819E+04  0.65591097813E+03  0.17128712183E+04  0.50400001928E-02 0. -1.
       -1    1    3    3    0  502 -0.33448051527E+03  0.15465546819E+04 -0.16992772867E+04  0.23219069525E+04  0.50400001928E-02 0.  1.
</event>
<event>
 5   0  0.3959190E-07  0.3883286E+04  0.7818609E-02  0.8028514E-01
        2   -1    0    0  501    0  0.00000000000E+00  0.00000000000E+00  0.18772404535E+04  0.18772404535E+04  0.25500000920E-02 0. -1.
       -2   -1    0    0    0  501  0.00000000000E+00  0.00000000000E+00 -0.20082546520E+04  0.20082546520E+04  0.25500000920E-02 0.  1.
    10030    2    1    2    0    0  0.00000000000E+00  0.00000000000E+00 -0.13101419842E+03  0.38854951055E+04  0.38832856571E+04 0.  0.
        2    1    3    3  502    0 -0.94319706021E+02 -0.40171640911E+03 -0.19638753356E+04  0.20067582351E+04  0.25500000920E-02 0.  1.
       -2    1    3    3    0  502  0.94319706021E+02  0.40171640911E+03  0.18328611372E+04  0.18787368705E+04  0.25500000920E-02 0. -1.
</event>
<event>
 5   0  0.1860500E-07  0.3887355E+04  0.7818609E-02  0.8027664E-01
        1   -1    0    0  501    0  0.00000000000E+00  0.00000000000E+00  0.28575838216E+04  0.28575838216E+04  0.50400001928E-02 0. -1.
       -1   -1    0    0    0  501  0.00000000000E+00  0.00000000000E+00 -0.13220545868E+04  0.13220545868E+04  0.50400001928E-02 0.  1.
    10030    2    1    2    0    0  0.00000000000E+00  0.00000000000E+00  0.15355292348E+04  0.41796384084E+04  0.38873547811E+04 0.  0.
        5    1    3    3  502    0 -0.61779782827E+03 -0.22687095184E+03  0.27341294562E+04  0.28122287529E+04  0.46999998093E+01 0. -1.
       -5    1    3    3    0  502  0.61779782827E+03  0.22687095184E+03 -0.11986002214E+04  0.13674096555E+04  0.46999998093E+01 0.  1.
</event>
<event>
 5   0  0.1860500E-07  0.3912379E+04  0.7818609E-02  0.8022459E-01
        1   -1    0    0  501    0  0.00000000000E+00  0.00000000000E+00  0.19145130045E+04  0.19145130045E+04  0.50400001928E-02 0. -1.
       -1   -1    0    0    0  501  0.00000000000E+00  0.00000000000E+00 -0.19987734747E+04  0.19987734747E+04  0.50400001928E-02 0.  1.
    10030    2    1    2    0    0  0.00000000000E+00  0.00000000000E+00 -0.84260470134E+02  0.39132864792E+04  0.39123792303E+04 0.  0.
        4    1    3    3  502    0  0.13800402227E+04  0.86675565911E+03 -0.11244624003E+04  0.19799479012E+04  0.12699999809E+01 0.  1.
       -4    1    3    3    0  502 -0.13800402227E+04 -0.86675565911E+03  0.10402019302E+04  0.19333385780E+04  0.12699999809E+01 0. -1.
</event>
<event>
 5   0  0.1860500E-07  0.3857653E+04  0.7818609E-02  0.8033895E-01
       -1   -1    0    0    0  501  0.00000000000E+00  0.00000000000E+00  0.12563854545E+04  0.12563854546E+04  0.50400001928E-02 0. -1.
        1   -1    0    0  501    0  0.00000000000E+00  0.00000000000E+00 -0.29611702941E+04  0.29611702941E+04  0.50400001928E-02 0.  1.
    10030    2    1    2    0    0  0.00000000000E+00  0.00000000000E+00 -0.17047848396E+04  0.42175557487E+04  0.38576528024E+04 0.  0.
        5    1    3    3  502    0  0.76031490536E+03 -0.11620005288E+04 -0.23159497932E+04  0.27003647011E+04  0.46999998093E+01 0.  1.
       -5    1    3    3    0  502 -0.76031490536E+03  0.11620005288E+04  0.61116495362E+03  0.15171910476E+04  0.46999998093E+01 0. -1.
</event>
<event>
 5   0  0.5805753E-07  0.3820696E+04  0.7818609E-02  0.8041728E-01
       -2   -1    0    0    0  501  0.00000000000E+00  0.00000000000E+00  0.12453531018E+04  0.12453531018E+04  0.25500000920E-02 0. -1.
        2   -1    0    0  501    0  0.00000000000E+00  0.00000000000E+00 -0.29304375326E+04  0.29304375326E+04  0.25500000920E-02 0.  1.
    10030    2    1    2    0    0  0.00000000000E+00  0.00000000000E+00 -0.16850844308E+04  0.41757906344E+04  0.38206959946E+04 0.  0.
        1    1    3    3  502    0 -0.14968363096E+04  0.11860750047E+04 -0.79202266275E+03  0.20675088278E+04  0.50400001928E-02 0. -1.
       -1    1    3    3    0  502  0.14968363096E+04 -0.11860750047E+04 -0.89306176804E+03  0.21082818066E+04  0.50400001928E-02 0.  1.
</event>
<event>
 5   0  0.5872444E-07  0.3868577E+04  0.7818609E-02  0.8031597E-01
        2   -1    0    0  501    0  0.00000000000E+00  0.00000000000E+00  0.21193893333E+04  0.21193893333E+04  0.25500000920E-02 0. -1.
       -2   -1    0    0    0  501  0.00000000000E+00  0.00000000000E+00 -0.17653534279E+04  0.17653534279E+04  0.25500000920E-02 0.  1.
    10030    2    1    2    0    0  0.00000000000E+00  0.00000000000E+00  0.35403590535E+03  0.38847427612E+04  0.38685765985E+04 0.  0.
        3    1    3    3  502    0 -0.11180351038E+04 -0.13974257532E+04 -0.55999047560E+03  0.18752041415E+04  0.10100000352E+00 0.  1.
       -3    1    3    3    0  502  0.11180351038E+04  0.13974257532E+04  0.91402638095E+03  0.20095386198E+04  0.10100000352E+00 0. -1.
</event>
<event>
 5   0  0.5735179E-07  0.3860219E+04  0.7818609E-02  0.8033354E-01
       -2   -1    0    0    0  501  0.00000000000E+00  0.00000000000E+00  0.14962216917E+04  0.14962216917E+04  0.25500000920E-02 0.  1.
        2   -1    0    0  501    0  0.00000000000E+00  0.00000000000E+00 -0.24898202134E+04  0.24898202134E+04  0.25500000920E-02 0. -1.
    10030    2    1    2    0    0  0.00000000000E+00  0.00000000000E+00 -0.99359852166E+03  0.39860419052E+04  0.38602191709E+04 0.  0.
        5    1    3    3  502    0 -0.12263247009E+04 -0.80199451249E+03  0.80042636434E+03  0.16696622188E+04  0.46999998093E+01 0.  1.
       -5    1    3    3    0  502  0.12263247009E+04  0.80199451249E+03 -0.17940248860E+04  0.23163796864E+04  0.46999998093E+01 0. -1.
</event>
<event>
 5   0  0.1860500E-07  0.3898397E+04  0.7818609E-02  0.8025363E-01
       -1   -1    0    0    0  501  0.00000000000E+00  0.00000000000E+00  0.23958331444E+04  0.23958331444E+04  0.50400001928E-02 0.  1.
        1   -1    0    0  501    0  0.00000000000E+00  0.00000000000E+00 -0.15858260339E+04  0.15858260340E+04  0.50400001928E-02 0. -1.
    10030    2    1    2    0    0  0.00000000000E+00  0.00000000000E+00  0.81000711045E+03  0.39816591784E+04  0.38983968876E+04 0.  0.
        5    1    3    3  502    0 -0.11478584578E+04 -0.15106508610E+04  0.86143455358E+03  0.20836834316E+04  0.46999998093E+01 0. -1.
       -5    1    3    3    0  502  0.11478584578E+04  0.15106508610E+04 -0.51427443127E+02  0.18979757467E+04  0.46999998093E+01 0.  1.
</event>
<event>
 5   0  0.5805753E-07  0.3881995E+04  0.7818609E-02  0.8028784E-01
        2   -1    0    0  501    0  0.00000000000E+00  0.00000000000E+00  0.25494188567E+04  0.25494188567E+04  0.25500000920E-02 0. -1.
       -2   -1    0    0    0  501  0.00000000000E+00  0.00000000000E+00 -0.14777768038E+04  0.14777768038E+04  0.25500000920E-02 0.  1.
    10030    2    1    2    0    0  0.00000000000E+00  0.00000000000E+00  0.10716420530E+04  0.40271956605E+04  0.38819953887E+04 0.  0.
        1    1    3    3  502    0 -0.72319049330E+03 -0.17110595967E+04  0.11196705970E+04  0.21689609675E+04  0.50400001928E-02 0. -1.
       -1    1    3    3    0  502  0.72319049330E+03  0.17110595967E+04 -0.48028544034E+02  0.18582346929E+04  0.50400001928E-02 0.  1.
</event>
<event>
 5   0  0.6095665E-07  0.3886595E+04  0.7818609E-02  0.8027823E-01
       -2   -1    0    0    0  501  0.00000000000E+00  0.00000000000E+00  0.22331352681E+04  0.22331352681E+04  0.25500000920E-02 0.  1.
        2   -1    0    0  501    0  0.00000000000E+00  0.00000000000E+00 -0.16910780842E+04  0.16910780842E+04  0.25500000920E-02 0. -1.
    10030    2    1    2    0    0  0.00000000000E+00  0.00000000000E+00  0.54205718392E+03  0.39242133523E+04  0.38865954824E+04 0.  0.
        4    1    3    3  502    0  0.76884513244E+03  0.45795256058E+03  0.20127059531E+04  0.22026870526E+04  0.12699999809E+01 0.  1.
       -4    1    3    3    0  502 -0.76884513244E+03 -0.45795256058E+03 -0.14706487692E+04  0.17215262997E+04  0.12699999809E+01 0. -1.
</event>
<event>
 5   0  0.5735179E-07  0.3886418E+04  0.7818609E-02  0.8027860E-01
        2   -1    0    0  501    0  0.00000000000E+00  0.00000000000E+00  0.14996528948E+04  0.14996528948E+04  0.25500000920E-02 0.  1.
       -2   -1    0    0    0  501  0.00000000000E+00  0.00000000000E+00 -0.25179566541E+04  0.25179566541E+04  0.25500000920E-02 0. -1.
    10030    2    1    2    0    0  0.00000000000E+00  0.00000000000E+00 -0.10183037593E+04  0.40176095489E+04  0.38864178804E+04 0.  0.
        5    1    3    3  502    0  0.10252754715E+04 -0.14935799007E+04  0.21747536164E+03  0.18246337537E+04  0.46999998093E+01 0.  1.
       -5    1    3    3    0  502 -0.10252754715E+04  0.14935799007E+04 -0.12357791210E+04  0.21929757952E+04  0.46999998093E+01 0. -1.
</event>
<event>
 5   0  0.1860500E-07  0.3241419E+04  0.7818609E-02  0.8177963E-01
       -1   -1    0    0    0  501  0.00000000000E+00  0.00000000000E+00  0.90171723885E+03  0.90171723886E+03  0.50400001928E-02 0. -1.
        1   -1    0    0  501    0  0.00000000000E+00  0.00000000000E+00 -0.29129965407E+04  0.29129965407E+04  0.50400001928E-02 0.  1.
    10030    2    1    2    0    0  0.00000000000E+00  0.00000000000E+00 -0.20112793019E+04  0.38147137796E+04  0.32414189470E+04 0.  0.
        5    1    3    3  502    0  0.10204939891E+04 -0.26693540025E+03  0.44243791676E+03  0.11438688255E+04  0.46999998093E+01 0. -1.
       -5    1    3    3    0  502 -0.10204939891E+04  0.26693540025E+03 -0.24537172186E+04  0.26708449541E+04  0.46999998093E+01 0.  1.
</event>
<event>
 5   0  0.5872444E-07  0.3858200E+04  0.7818609E-02  0.8033779E-01
        2   -1    0    0  501    0  0.00000000000E+00  0.00000000000E+00  0.18734549731E+04  0.18734549731E+04  0.25500000920E-02 0.  1.
       -2   -1    0    0    0  501  0.00000000000E+00  0.00000000000E+00 -0.19863976000E+04  0.19863976000E+04  0.25500000920E-02 0. -1.
    10030    2    1    2    0    0  0.00000000000E+00  0.00000000000E+00 -0.11294262689E+03  0.38598525730E+04  0.38581998197E+04 0.  0.
        3    1    3    3  502    0 -0.12275123848E+04 -0.87763304946E+03 -0.12588180937E+04  0.19651079939E+04  0.10100000352E+00 0. -1.
       -3    1    3    3    0  502  0.12275123848E+04  0.87763304946E+03  0.11458754668E+04  0.18947445791E+04  0.10100000352E+00 0.  1.
</event>
<event>
 5   0  0.5805753E-07  0.3893412E+04  0.7818609E-02  0.8026401E-01
        2   -1    0    0  501    0  0.00000000000E+00  0.00000000000E+00  0.22552882708E+04  0.22552882708E+04  0.25500000920E-02 0. -1.
       -2   -1    0    0    0  501  0.00000000000E+00  0.00000000000E+00 -0.16803459794E+04  0.16803459794E+04  0.25500000920E-02 0.  1.
    10030    2    1    2    0    0  0.00000000000E+00  0.00000000000E+00  0.57494229143E+03  0.39356342502E+04  0.38934121684E+04 0.  0.
        1    1    3    3  502    0  0.13036795910E+04 -0.77400647435E+03  0.15217772920E+04  0.21481323574E+04  0.50400001928E-02 0. -1.
       -1    1    3    3    0  502 -0.13036795910E+04  0.77400647435E+03 -0.94683500059E+03  0.17875018928E+04  0.50400001928E-02 0.  1.
</event>
<event>
 5   0  0.3959190E-07  0.3877340E+04  0.7818609E-02  0.8029759E-01
       -2   -1    0    0    0  501  0.00000000000E+00  0.00000000000E+00  0.28343373118E+04  0.28343373118E+04  0.25500000920E-02 0.  1.
        2   -1    0    0  501    0  0.00000000000E+00  0.00000000000E+00 -0.13260385942E+04  0.13260385942E+04  0.25500000920E-02 0. -1.
    10030    2    1    2    0    0  0.00000000000E+00  0.00000000000E+00  0.15082987176E+04  0.41603759060E+04  0.38773396366E+04 0.  0.
        2    1    3    3  502    0 -0.15477240923E+02 -0.22885180958E+03  0.28197261970E+04  0.28290402122E+04  0.25500000920E-02 0.  1.
       -2    1    3    3    0  502  0.15477240923E+02  0.22885180958E+03 -0.13114274794E+04  0.13313356938E+04  0.25500000920E-02 0. -1.
</event>
<event>
 5   0  0.6095665E-07  0.3908806E+04  0.7818609E-02  0.8023200E-01
       -2   -1    0    0    0  501  0.00000000000E+00  0.00000000000E+00  0.20807138357E+04  0.20807138357E+04  0.25500000920E-02 0. -1.
        2   -1    0    0  501    0  0.00000000000E+00  0.00000000000E+00 -0.18357595970E+04  0.18357595970E+04  0.25500000920E-02 0.  1.
    10030    2    1    2    0    0  0.00000000000E+00  0.00000000000E+00  0.24495423864E+03  0.39164734327E+04  0.39088056450E+04 0.  0.
        4    1    3    3  502    0 -0.49813104163E+02  0.17884268029E+04 -0.66566430329E+03  0.19089427315E+04  0.12699999809E+01 0. -1.
       -4    1    3    3    0  502  0.49813104163E+02 -0.17884268029E+04  0.91061854193E+03  0.20075307012E+04  0.12699999809E+01 0.  1.
</event>
<event>
 5   0  0.5872444E-07  0.3542552E+04  0.7818609E-02  0.8103779E-01
        2   -1    0    0  501    0  0.00000000000E+00  0.00000000000E+00  0.10528459999E+04  0.10528459999E+04  0.25500000920E-02 0. -1.
       -2   -1    0    0    0  501  0.00000000000E+00  0.00000000000E+00 -0.29799413871E+04  0.29799413871E+04  0.25500000920E-02 0.  1.
    10030    2    1    2    0    0  0.00000000000E+00  0.00000000000E+00 -0.19270953872E+04  0.40327873870E+04  0.35425523958E+04 0.  0.
        3    1    3    3  502    0 -0.10744684535E+04 -0.14012513369E+03 -0.25586281044E+04  0.27786139166E+04  0.10100000352E+00 0.  1.
       -3    1    3    3    0  502  0.10744684535E+04  0.14012513369E+03  0.63153271720E+03  0.12541734704E+04  0.10100000352E+00 0. -1.
</event>
<event>
 5   0  0.3959190E-07  0.3966352E+04  0.7818609E-02  0.8011369E-01
       -2   -1    0    0    0  501  0.00000000000E+00  0.00000000000E+00  0.29560672307E+04  0.29560672307E+04  0.25500000920E-02 0. -1.
        2   -1    0    0  501    0  0.00000000000E+00  0.00000000000E+00 -0.13304798085E+04  0.13304798085E+04  0.25500000920E-02 0.  1.
    10030    2    1    2    0    0  0.00000000000E+00  0.00000000000E+00  0.16255874222E+04  0.42865470391E+04  0.39663523610E+04 0.  0.
        2    1    3    3  502    0 -0.62838796866E+03 -0.17249170336E+04  0.20479564430E+01  0.18358143714E+04  0.25500000920E-02 0.  1.
       -2    1    3    3    0  502  0.62838796866E+03  0.17249170336E+04  0.16235394658E+04  0.24507326678E+04  0.25500000920E-02 0. -1.
</event>
<event>
 5   0  0.5805753E-07  0.2911552E+04  0.7818609E-02  0.8269449E-01
       -2   -1    0    0    0  501  0.00000000000E+00  0.00000000000E+00  0.16049386142E+04  0.16049386142E+04  0.25500000920E-02 0.  1.
        2   -1    0    0  501    0  0.00000000000E+00  0.00000000000E+00 -0.13204768453E+04  0.13204768453E+04  0.25500000920E-02 0. -1.
    10030    2    1    2    0    0  0.00000000000E+00  0.00000000000E+00  0.28446176892E+03  0.29254154595E+04  0.29115523545E+04 0.  0.
        1    1    3    3  502    0 -0.18616375561E+03 -0.92676440417E+03  0.12546315881E+04  0.15708754332E+04  0.50400001928E-02 0.  1.
       -1    1    3    3    0  502  0.18616375561E+03  0.92676440417E+03 -0.97016981921E+03  0.13545400263E+04  0.50400001928E-02 0. -1.
</event>
<event>
 5   0  0.3959190E-07  0.3925328E+04  0.7818609E-02  0.8019782E-01
        2   -1    0    0  501    0  0.00000000000E+00  0.00000000000E+00  0.17964214689E+04  0.17964214689E+04  0.25500000920E-02 0. -1.
       -2   -1    0    0    0  501  0.00000000000E+00  0.00000000000E+00 -0.21442908362E+04  0.21442908362E+04  0.25500000920E-02 0.  1.
    10030    2    1    2    0    0  0.00000000000E+00  0.00000000000E+00 -0.34786936733E+03  0.39407123051E+04  0.39253280595E+04 0.  0.
        2    1    3    3  502    0  0.16477509812E+04 -0.20457160995E+03 -0.12245145703E+04  0.20630968888E+04  0.25500000920E-02 0. -1.
       -2    1    3    3    0  502 -0.16477509812E+04  0.20457160995E+03  0.87664520296E+03  0.18776154163E+04  0.25500000920E-02 0.  1.
</event>
<event>
 5   0  0.1860500E-07  0.2718387E+04  0.7818609E-02  0.8329064E-01
        1   -1    0    0  501    0  0.00000000000E+00  0.00000000000E+00  0.18479334212E+04  0.18479334212E+04  0.50400001928E-02 0. -1.
       -1   -1    0    0    0  501  0.00000000000E+00  0.00000000000E+00 -0.99971494311E+03  0.99971494312E+03  0.50400001928E-02 0.  1.
    10030    2    1    2    0    0  0.00000000000E+00  0.00000000000E+00  0.84821847812E+03  0.28476483644E+04  0.27183867680E+04 0.  0.
        4    1    3    3  502    0 -0.20114798922E+03  0.13277752939E+04  0.64373870483E+03  0.14892443982E+04  0.12699999809E+01 0. -1.
       -4    1    3    3    0  502  0.20114798922E+03 -0.13277752939E+04  0.20447977329E+03  0.13584039661E+04  0.12699999809E+01 0.  1.
</event>
<event>
 5   0  0.1943459E-07  0.3867834E+04  0.7818609E-02  0.8031753E-01
        1   -1    0    0  501    0  0.00000000000E+00  0.00000000000E+00  0.20141162629E+04  0.20141162629E+04  0.50400001928E-02 0.  1.
       -1   -1    0    0    0  501  0.00000000000E+00  0.00000000000E+00 -0.18569114295E+04  0.18569114295E+04  0.50400001928E-02 0. -1.
    10030    2    1    2    0    0  0.00000000000E+00  0.00000000000E+00  0.15720483339E+03  0.38710276923E+04  0.38678342823E+04 0.  0.
        2    1    3    3  502    0  0.11113136211E+04  0.12562549960E+04  0.10421230554E+04  0.19746430164E+04  0.25500000920E-02 0.  1.
       -2    1    3    3    0  502 -0.11113136211E+04 -0.12562549960E+04 -0.88491822205E+03  0.18963846760E+04  0.25500000920E-02 0. -1.
</event>
<event>
 5   0  0.1943459E-07  0.3059429E+04  0.7818609E-02  0.8226961E-01
       -1   -1    0    0    0  501  0.00000000000E+00  0.00000000000E+00  0.95854967481E+03  0.95854967482E+03  0.50400001928E-02 0. -1.
        1   -1    0    0  501    0  0.00000000000E+00  0.00000000000E+00 -0.24412155430E+04  0.24412155430E+04  0.50400001928E-02 0.  1.
    10030    2    1    2    0    0  0.00000000000E+00  0.00000000000E+00 -0.14826658681E+04  0.33997652178E+04  0.30594289434E+04 0.  0.
        2    1    3    3  502    0 -0.57279228523E+03 -0.11720297284E+04 -0.16291321247E+04  0.20870592147E+04  0.25500000920E-02 0.  1.
       -2    1    3    3    0  502  0.57279228523E+03  0.11720297284E+04  0.14646625651E+03  0.13127060031E+04  0.25500000920E-02 0. -1.
</event>
<event>
 5   0  0.1860500E-07  0.2794463E+04  0.7818609E-02  0.8304989E-01
        1   -1    0    0  501    0  0.00000000000E+00  0.00000000000E+00  0.27757589662E+04  0.27757589662E+04  0.50400001928E-02 0. -1.
       -1   -1    0    0    0  501  0.00000000000E+00  0.00000000000E+00 -0.70332318302E+03  0.70332318303E+03  0.50400001928E-02 0.  1.
    10030    2    1    2    0    0  0.00000000000E+00  0.00000000000E+00  0.20724357831E+04  0.34790821492E+04  0.27944628331E+04 0.  0.
        5    1    3    3  502    0  0.62253013860E+03 -0.20430186368E+03 -0.50019959725E+03  0.82432078225E+03  0.46999998093E+01 0.  1.
       -5    1    3    3    0  502 -0.62253013860E+03  0.20430186368E+03  0.25726353804E+04  0.26547613669E+04  0.46999998093E+01 0. -1.
</event>
<event>
 5   0  0.5805753E-07  0.3808649E+04  0.7818609E-02  0.8044301E-01
        2   -1    0    0  501    0  0.00000000000E+00  0.00000000000E+00  0.15989021147E+04  0.15989021147E+04  0.25500000920E-02 0. -1.
       -2   -1    0    0    0  501  0.00000000000E+00  0.00000000000E+00 -0.22680890679E+04  0.22680890679E+04  0.25500000920E-02 0.  1.
    10030    2    1    2    0    0  0.00000000000E+00  0.00000000000E+00 -0.66918695319E+03  0.38669911826E+04  0.38086493181E+04 0.  0.
        1    1    3    3  502    0  0.18064671967E+04  0.46290310188E+03  0.57126507545E+02  0.18657080298E+04  0.50400001928E-02 0. -1.
       -1    1    3    3    0  502 -0.18064671967E+04 -0.46290310188E+03 -0.72631346074E+03  0.20012831528E+04  0.50400001928E-02 0.  1.
</event>
<event>
 5   0  0.5805753E-07  0.3712113E+04  0.7818609E-02  0.8065283E-01
        2   -1    0    0  501    0  0.00000000000E+00  0.00000000000E+00  0.22374115737E+04  0.22374115737E+04  0.25500000920E-02 0.  1.
       -2   -1    0    0    0  501  0.00000000000E+00  0.00000000000E+00 -0.15397014930E+04  0.15397014930E+04  0.25500000920E-02 0. -1.
    10030    2    1    2    0    0  0.00000000000E+00  0.00000000000E+00  0.69771008070E+03  0.37771130667E+04  0.37121131127E+04 0.  0.
        1    1    3    3  502    0  0.14868482348E+04 -0.17441559749E+03  0.14652485438E+04  0.20947772600E+04  0.50400001928E-02 0.  1.
       -1    1    3    3    0  502 -0.14868482348E+04  0.17441559749E+03 -0.76753846307E+03  0.16823358067E+04  0.50400001928E-02 0. -1.
</event>
<event>
 5   0  0.1876027E-07  0.3936070E+04  0.7818609E-02  0.8017569E-01
       -1   -1    0    0    0  501  0.00000000000E+00  0.00000000000E+00  0.16238212402E+04  0.16238212402E+04  0.50400001928E-02 0.  1.
        1   -1    0    0  501    0  0.00000000000E+00  0.00000000000E+00 -0.23852144104E+04  0.23852144105E+04  0.50400001928E-02 0. -1.
    10030    2    1    2    0    0  0.00000000000E+00  0.00000000000E+00 -0.76139317021E+03  0.40090356507E+04  0.39360700310E+04 0.  0.
        3    1    3    3  502    0 -0.13035456644E+04  0.12631989885E+04 -0.11552265732E+04  0.21516160042E+04  0.10100000352E+00 0. -1.
       -3    1    3    3    0  502  0.13035456644E+04 -0.12631989885E+04  0.39383340296E+03  0.18574196465E+04  0.10100000352E+00 0.  1.
</event>
<event>
 5   0  0.1943459E-07  0.3927827E+04  0.7818609E-02  0.8019266E-01
        1   -1    0    0  501    0  0.00000000000E+00  0.00000000000E+00  0.18830391400E+04  0.18830391400E+04  0.50400001928E-02 0. -1.
       -1   -1    0    0    0  501  0.00000000000E+00  0.00000000000E+00 -0.20482613347E+04  0.20482613347E+04  0.50400001928E-02 0.  1.
    10030    2    1    2    0    0  0.00000000000E+00  0.00000000000E+00 -0.16522219477E+03  0.39313004747E+04  0.39278270136E+04 0.  0.
        2    1    3    3  502    0  0.47116966435E+03  0.47975718661E+03 -0.19294497390E+04  0.20432679966E+04  0.25500000920E-02 0.  1.
       -2    1    3    3    0  502 -0.47116966435E+03 -0.47975718661E+03  0.17642275442E+04  0.18880324781E+04  0.25500000920E-02 0. -1.
</event>
<event>
 5   0  0.1860500E-07  0.3825847E+04  0.7818609E-02  0.8040631E-01
       -1   -1    0    0    0  501  0.00000000000E+00  0.00000000000E+00  0.17414375615E+04  0.17414375615E+04  0.50400001928E-02 0. -1.
        1   -1    0    0  501    0  0.00000000000E+00  0.00000000000E+00 -0.21012960073E+04  0.21012960073E+04  0.50400001928E-02 0.  1.
    10030    2    1    2    0    0  0.00000000000E+00  0.00000000000E+00 -0.35985844581E+03  0.38427335688E+04  0.38258467272E+04 0.  0.
        5    1    3    3  502    0  0.75829443461E+03  0.11668358130E+04 -0.14982535110E+04  0.20448232044E+04  0.46999998093E+01 0.  1.
       -5    1    3    3    0  502 -0.75829443461E+03 -0.11668358130E+04  0.11383950652E+04  0.17979103644E+04  0.46999998093E+01 0. -1.
</event>
<event>
 5   0  0.3959190E-07  0.3708594E+04  0.7818609E-02  0.8066060E-01
        2   -1    0    0  501    0  0.00000000000E+00  0.00000000000E+00  0.34172852572E+04  0.34172852572E+04  0.25500000920E-02 0.  1.
       -2   -1    0    0    0  501  0.00000000000E+00  0.00000000000E+00 -0.10061840732E+04  0.10061840732E+04  0.25500000920E-02 0. -1.
    10030    2    1    2    0    0  0.00000000000E+00  0.00000000000E+00  0.24111011840E+04  0.44234693304E+04  0.37085943425E+04 0.  0.
        2    1    3    3  502    0 -0.49276310992E+03 -0.90024377920E+03 -0.63654761780E+03  0.12076618791E+04  0.25500000920E-02 0. -1.
       -2    1    3    3    0  502  0.49276310992E+03  0.90024377920E+03  0.30476488018E+04  0.32158074513E+04  0.25500000920E-02 0.  1.
</event>
<event>
 5   0  0.3959190E-07  0.3910772E+04  0.7818609E-02  0.8022793E-01
       -2   -1    0    0    0  501  0.00000000000E+00  0.00000000000E+00  0.23682923699E+04  0.23682923699E+04  0.25500000920E-02 0.  1.
        2   -1    0    0  501    0  0.00000000000E+00  0.00000000000E+00 -0.16144686604E+04  0.16144686604E+04  0.25500000920E-02 0. -1.
    10030    2    1    2    0    0  0.00000000000E+00  0.00000000000E+00  0.75382370951E+03  0.39827610303E+04  0.39107716936E+04 0.  0.
        2    1    3    3  502    0 -0.61292933474E+03  0.13819288570E+04  0.16399529197E+04  0.22304383681E+04  0.25500000920E-02 0.  1.
       -2    1    3    3    0  502  0.61292933474E+03 -0.13819288570E+04 -0.88612921020E+03  0.17523226622E+04  0.25500000920E-02 0. -1.
</event>
<event>
 5   0  0.5872444E-07  0.3890099E+04  0.7818609E-02  0.8027091E-01
       -2   -1    0    0    0  501  0.00000000000E+00  0.00000000000E+00  0.15980028445E+04  0.15980028445E+04  0.25500000920E-02 0.  1.
        2   -1    0    0  501    0  0.00000000000E+00  0.00000000000E+00 -0.23674666187E+04  0.23674666187E+04  0.25500000920E-02 0. -1.
    10030    2    1    2    0    0  0.00000000000E+00  0.00000000000E+00 -0.76946377426E+03  0.39654694632E+04  0.38900994285E+04 0.  0.
        3    1    3    3  502    0  0.73237924019E+03  0.27295457525E+03  0.14308816735E+04  0.16304312084E+04  0.10100000352E+00 0.  1.
       -3    1    3    3    0  502 -0.73237924019E+03 -0.27295457525E+03 -0.22003454478E+04  0.23350382548E+04  0.10100000352E+00 0. -1.
</event>
<event>
 5   0  0.1860500E-07  0.3941894E+04  0.7818609E-02  0.8016372E-01
        1   -1    0    0  501    0  0.00000000000E+00  0.00000000000E+00  0.14427716874E+04  0.14427716874E+04  0.50400001928E-02 0. -1.
       -1   -1    0    0    0  501  0.00000000000E+00  0.00000000000E+00 -0.26924792857E+04  0.26924792857E+04  0.50400001928E-02 0.  1.
    10030    2    1    2    0    0  0.00000000000E+00  0.00000000000E+00 -0.12497075983E+04  0.41352509731E+04  0.39418944087E+04 0.  0.
        4    1    3    3  502    0  0.28000064488E+03  0.42193578723E+03  0.13733627946E+04  0.14637476382E+04  0.12699999809E+01 0. -1.
       -4    1    3    3    0  502 -0.28000064488E+03 -0.42193578723E+03 -0.26230703929E+04  0.26715033350E+04  0.12699999809E+01 0.  1.
</event>
<event>
 5   0  0.3959190E-07  0.3855876E+04  0.7818609E-02  0.8034269E-01
        2   -1    0    0  501    0  0.00000000000E+00  0.00000000000E+00  0.34045466711E+04  0.34045466711E+04  0.25500000920E-02 0.  1.
       -2   -1    0    0    0  501  0.00000000000E+00  0.00000000000E+00 -0.10917592687E+04  0.10917592687E+04  0.25500000920E-02 0. -1.
    10030    2    1    2    0    0  0.00000000000E+00  0.00000000000E+00  0.23127874023E+04  0.44963059398E+04  0.38558762345E+04 0.  0.
        2    1    3    3  502    0 -0.18637834893E+04  0.14774122913E+03  0.17051127484E+04  0.25304003341E+04  0.25500000920E-02 0.  1.
       -2    1    3    3    0  502  0.18637834893E+04 -0.14774122913E+03  0.60767465391E+03  0.19659056057E+04  0.25500000920E-02 0. -1.
</event>
<event>
 5   0  0.1860500E-07  0.4210128E+04  0.7818609E-02  0.7963448E-01
        1   -1    0    0  501    0  0.00000000000E+00  0.00000000000E+00  0.25876285860E+04  0.25876285860E+04  0.50400001928E-02 0.  1.
       -1   -1    0    0    0  501  0.00000000000E+00  0.00000000000E+00 -0.17124924866E+04  0.17124924866E+04  0.50400001928E-02 0. -1.
    10030    2    1    2    0    0  0.00000000000E+00  0.00000000000E+00  0.87513609937E+03  0.43001210726E+04  0.42101280321E+04 0.  0.
        4    1    3    3  502    0  0.14993859122E+04  0.14695611023E+04  0.28091106934E+03  0.21181786017E+04  0.12699999809E+01 0.  1.
       -4    1    3    3    0  502 -0.14993859122E+04 -0.14695611023E+04  0.59422503003E+03  0.21819424709E+04  0.12699999809E+01 0. -1.
</event>
<event>
 5   0  0.5805753E-07  0.3353369E+04  0.7818609E-02  0.8149447E-01
        2   -1    0    0  501    0  0.00000000000E+00  0.00000000000E+00  0.12720782324E+04  0.12720782324E+04  0.25500000920E-02 0. -1.
       -2   -1    0    0    0  501  0.00000000000E+00  0.00000000000E+00 -0.22099831392E+04  0.22099831392E+04  0.25500000920E-02 0.  1.
    10030    2    1    2    0    0  0.00000000000E+00  0.00000000000E+00 -0.93790490680E+03  0.34820613717E+04  0.33533693179E+04 0.  0.
        1    1    3    3  502    0  0.13138962055E+04  0.58822013660E+03 -0.13615612736E+04  0.19814578647E+04  0.50400001928E-02 0.  1.
       -1    1    3    3    0  502 -0.13138962055E+04 -0.58822013660E+03  0.42365636679E+03  0.15006035069E+04  0.50400001928E-02 0. -1.
</event>
<event>
 5   0  0.5872444E-07  0.3325676E+04  0.7818609E-02  0.8156393E-01
       -2   -1    0    0    0  501  0.00000000000E+00  0.00000000000E+00  0.96014266020E+03  0.96014266021E+03  0.25500000920E-02 0. -1.
        2   -1    0    0  501    0  0.00000000000E+00  0.00000000000E+00 -0.28798126551E+04  0.28798126551E+04  0.25500000920E-02 0.  1.
    10030    2    1    2    0    0  0.00000000000E+00  0.00000000000E+00 -0.19196699949E+04  0.38399553153E+04  0.33256764626E+04 0.  0.
        3    1    3    3  502    0  0.10265900803E+04 -0.86179716694E+03 -0.20961131234E+04  0.24880256804E+04  0.10100000352E+00 0.  1.
       -3    1    3    3    0  502 -0.10265900803E+04  0.86179716694E+03  0.17644312850E+03  0.13519296349E+04  0.10100000352E+00 0. -1.
</event>
<event>
 5   0  0.1860500E-07  0.3889558E+04  0.7818609E-02  0.8027205E-01
       -1   -1    0    0    0  501  0.00000000000E+00  0.00000000000E+00  0.18225209946E+04  0.18225209946E+04  0.50400001928E-02 0.  1.
        1   -1    0    0  501    0  0.00000000000E+00  0.00000000000E+00 -0.20752378675E+04  0.20752378675E+04  0.50400001928E-02 0. -1.
    10030    2    1    2    0    0  0.00000000000E+00  0.00000000000E+00 -0.25271687292E+03  0.38977588622E+04  0.38895576008E+04 0.  0.
        4    1    3    3  502    0  0.15982602576E+04  0.73392261068E+03 -0.95822002340E+03  0.20028143887E+04  0.12699999809E+01 0.  1.
       -4    1    3    3    0  502 -0.15982602576E+04 -0.73392261068E+03  0.70550315048E+03  0.18949444735E+04  0.12699999809E+01 0. -1.
</event>
<event>
 5   0  0.1860500E-07  0.3843834E+04  0.7818609E-02  0.8036813E-01
        1   -1    0    0  501    0  0.00000000000E+00  0.00000000000E+00  0.32949881348E+04  0.32949881348E+04  0.50400001928E-02 0. -1.
       -1   -1    0    0    0  501  0.00000000000E+00  0.00000000000E+00 -0.11210254387E+04  0.11210254387E+04  0.50400001928E-02 0.  1.
    10030    2    1    2    0    0  0.00000000000E+00  0.00000000000E+00  0.21739626961E+04  0.44160135735E+04  0.38438342937E+04 0.  0.
        4    1    3    3  502    0  0.16650430265E+04  0.69941193678E+03  0.33168488131E+03  0.18361813121E+04  0.12699999809E+01 0.  1.
       -4    1    3    3    0  502 -0.16650430265E+04 -0.69941193678E+03  0.18422778148E+04  0.25798322614E+04  0.12699999809E+01 0. -1.
</event>
<event>
 5   0  0.1860500E-07  0.3310730E+04  0.7818609E-02  0.8160171E-01
        1   -1    0    0  501    0  0.00000000000E+00  0.00000000000E+00  0.13681530934E+04  0.13681530934E+04  0.50400001928E-02 0.  1.
       -1   -1    0    0    0  501  0.00000000000E+00  0.00000000000E+00 -0.20028698732E+04  0.20028698732E+04  0.50400001928E-02 0. -1.
    10030    2    1    2    0    0  0.00000000000E+00  0.00000000000E+00 -0.63471677983E+03  0.33710229666E+04  0.33107295949E+04 0.  0.
        4    1    3    3  502    0  0.31316750225E+03  0.13107321159E+04  0.66146990949E+03  0.15012117166E+04  0.12699999809E+01 0.  1.
       -4    1    3    3    0  502 -0.31316750225E+03 -0.13107321159E+04 -0.12961866893E+04  0.18698112500E+04  0.12699999809E+01 0. -1.
</event>
<event>
 5   0  0.3959190E-07  0.3838311E+04  0.7818609E-02  0.8037983E-01
       -2   -1    0    0    0  501  0.00000000000E+00  0.00000000000E+00  0.17861682119E+04  0.17861682119E+04  0.25500000920E-02 0.  1.
        2   -1    0    0  501    0  0.00000000000E+00  0.00000000000E+00 -0.20620443225E+04  0.20620443225E+04  0.25500000920E-02 0. -1.
    10030    2    1    2    0    0  0.00000000000E+00  0.00000000000E+00 -0.27587611059E+03  0.38482125344E+04  0.38383110975E+04 0.  0.
        2    1    3    3  502    0 -0.71524986479E+02 -0.19038074829E+04  0.94087692855E+02  0.19074724767E+04  0.25500000920E-02 0. -1.
       -2    1    3    3    0  502  0.71524986479E+02  0.19038074829E+04 -0.36996380344E+03  0.19407400577E+04  0.25500000920E-02 0.  1.
</event>
<event>
 5   0  0.2666813E-07  0.3350897E+04  0.7818609E-02  0.8150064E-01
        1   -1    0    0  501    0  0.00000000000E+00  0.00000000000E+00  0.14259476845E+04  0.14259476845E+04  0.50400001928E-02 0.  1.
       -1   -1    0    0    0  501  0.00000000000E+00  0.00000000000E+00 -0.19686051679E+04  0.19686051679E+04  0.50400001928E-02 0. -1.
    10030    2    1    2    0    0  0.00000000000E+00  0.00000000000E+00 -0.54265748333E+03  0.33945528524E+04  0.33508971819E+04 0.  0.
        1    1    3    3  502    0  0.14135342422E+04  0.59555250081E+03  0.41151990855E+03  0.15881153832E+04  0.50400001928E-02 0.  1.
       -1    1    3    3    0  502 -0.14135342422E+04 -0.59555250081E+03 -0.95417739188E+03  0.18064374693E+04  0.50400001928E-02 0. -1.
</event>
<event>
 5   0  0.6095665E-07  0.4287473E+04  0.7818609E-02  0.7948939E-01
        2   -1    0    0  501    0  0.00000000000E+00  0.00000000000E+00  0.23389188465E+04  0.23389188465E+04  0.25500000920E-02 0. -1.
       -2   -1    0    0    0  501  0.00000000000E+00  0.00000000000E+00 -0.19648417069E+04  0.19648417069E+04  0.25500000920E-02 0.  1.
    10030    2    1    2    0    0  0.00000000000E+00  0.00000000000E+00  0.37407713960E+03  0.43037605534E+04  0.42874725882E+04 0.  0.
        4    1    3    3  502    0 -0.93161107882E+03 -0.13697478047E+04  0.15529044837E+04  0.22705995242E+04  0.12699999809E+01 0. -1.
       -4    1    3    3    0  502  0.93161107882E+03  0.13697478047E+04 -0.11788273441E+04  0.20331610293E+04  0.12699999809E+01 0.  1.
</event>
<event>
 5   0  0.1860500E-07  0.3878486E+04  0.7818609E-02  0.8029519E-01
       -3   -1    0    0    0  501  0.00000000000E+00  0.00000000000E+00  0.16179065557E+04  0.16179065588E+04  0.10100000352E+00 0.  1.
        3   -1    0    0  501    0  0.00000000000E+00  0.00000000000E+00 -0.23244003944E+04  0.23244003966E+04  0.10100000352E+00 0. -1.
    10030    2    1    2    0    0  0.00000000000E+00  0.00000000000E+00 -0.70649383874E+03  0.39423069555E+04  0.38784856048E+04 0.  0.
        3    1    3    3  502    0 -0.51501279474E+03 -0.14594078623E+04 -0.15410448284E+04  0.21840166347E+04  0.10100000352E+00 0. -1.
       -3    1    3    3    0  502  0.51501279474E+03  0.14594078623E+04  0.83455098970E+03  0.17582903207E+04  0.10100000352E+00 0.  1.
</event>
<event>
 5   0  0.1860500E-07  0.3861774E+04  0.7818609E-02  0.8033027E-01
       -1   -1    0    0    0  501  0.00000000000E+00  0.00000000000E+00  0.24983032823E+04  0.24983032823E+04  0.50400001928E-02 0.  1.
        1   -1    0    0  501    0  0.00000000000E+00  0.00000000000E+00 -0.14923424181E+04  0.14923424181E+04  0.50400001928E-02 0. -1.
    10030    2    1    2    0    0  0.00000000000E+00  0.00000000000E+00  0.10059608642E+04  0.39906457004E+04  0.38617736658E+04 0.  0.
        5    1    3    3  502    0 -0.13825106947E+04  0.10853340875E+04  0.13290416071E+04  0.22035561227E+04  0.46999998093E+01 0. -1.
       -5    1    3    3    0  502  0.13825106947E+04 -0.10853340875E+04 -0.32308074289E+03  0.17870895777E+04  0.46999998093E+01 0.  1.
</event>
<event>
 5   0  0.5872444E-07  0.3849203E+04  0.7818609E-02  0.8035678E-01
       -2   -1    0    0    0  501  0.00000000000E+00  0.00000000000E+00  0.20530160202E+04  0.20530160202E+04  0.25500000920E-02 0. -1.
        2   -1    0    0  501    0  0.00000000000E+00  0.00000000000E+00 -0.18042189766E+04  0.18042189766E+04  0.25500000920E-02 0.  1.
    10030    2    1    2    0    0  0.00000000000E+00  0.00000000000E+00  0.24879704353E+03  0.38572349968E+04  0.38492027553E+04 0.  0.
        3    1    3    3  502    0 -0.14139579882E+04  0.12209084353E+04  0.58817726535E+03  0.19585318750E+04  0.10100000352E+00 0. -1.
       -3    1    3    3    0  502  0.14139579882E+04 -0.12209084353E+04 -0.33938022182E+03  0.18987031218E+04  0.10100000352E+00 0.  1.
</event>
<event>
 5   0  0.2666813E-07  0.3825728E+04  0.7818609E-02  0.8040656E-01
       -1   -1    0    0    0  501  0.00000000000E+00  0.00000000000E+00  0.13170266654E+04  0.13170266654E+04  0.50400001928E-02 0.  1.
        1   -1    0    0  501    0  0.00000000000E+00  0.00000000000E+00 -0.27782648385E+04  0.27782648385E+04  0.50400001928E-02 0. -1.
    10030    2    1    2    0    0  0.00000000000E+00  0.00000000000E+00 -0.14612381731E+04  0.40952915039E+04  0.38257281011E+04 0.  0.
        1    1    3    3  502    0  0.16136793114E+04 -0.59219361768E+03  0.16779954846E+03  0.17270816105E+04  0.50400001928E-02 0.  1.
       -1    1    3    3    0  502 -0.16136793114E+04  0.59219361768E+03 -0.16290377216E+04  0.23682098934E+04  0.50400001928E-02 0. -1.
</event>
<event>
 5   0  0.1860500E-07  0.3902390E+04  0.7818609E-02  0.8024532E-01
       -1   -1    0    0    0  501  0.00000000000E+00  0.00000000000E+00  0.20532441070E+04  0.20532441071E+04  0.50400001928E-02 0.  1.
        1   -1    0    0  501    0  0.00000000000E+00  0.00000000000E+00 -0.18542179313E+04  0.18542179313E+04  0.50400001928E-02 0. -1.
    10030    2    1    2    0    0  0.00000000000E+00  0.00000000000E+00  0.19902617575E+03  0.39074620384E+04  0.39023900577E+04 0.  0.
        5    1    3    3  502    0 -0.73495810716E+03 -0.30616803715E+03  0.18831867158E+04  0.20445822514E+04  0.46999998093E+01 0.  1.
       -5    1    3    3    0  502  0.73495810716E+03  0.30616803715E+03 -0.16841605400E+04  0.18628797870E+04  0.46999998093E+01 0. -1.
</event>
<event>
 5   0  0.5872444E-07  0.3596679E+04  0.7818609E-02  0.8091253E-01
        2   -1    0    0  501    0  0.00000000000E+00  0.00000000000E+00  0.17783352289E+04  0.17783352289E+04  0.25500000920E-02 0.  1.
       -2   -1    0    0    0  501  0.00000000000E+00  0.00000000000E+00 -0.18185685557E+04  0.18185685557E+04  0.25500000920E-02 0. -1.
    10030    2    1    2    0    0  0.00000000000E+00  0.00000000000E+00 -0.40233326782E+02  0.35969037845E+04  0.35966787617E+04 0.  0.
        3    1    3    3  502    0  0.10603178106E+04 -0.11362975859E+04 -0.92492652501E+03  0.18085726831E+04  0.10100000352E+00 0. -1.
       -3    1    3    3    0  502 -0.10603178106E+04  0.11362975859E+04  0.88469319822E+03  0.17883311014E+04  0.10100000352E+00 0.  1.
</event>
<event>
 5   0  0.2666813E-07  0.2908474E+04  0.7818609E-02  0.8270361E-01
        1   -1    0    0  501    0  0.00000000000E+00  0.00000000000E+00  0.16937885255E+04  0.16937885255E+04  0.50400001928E-02 0.  1.
       -1   -1    0    0    0  501  0.00000000000E+00  0.00000000000E+00 -0.12485648612E+04  0.12485648612E+04  0.50400001928E-02 0. -1.
    10030    2    1    2    0    0  0.00000000000E+00  0.00000000000E+00  0.44522366433E+03  0.29423533867E+04  0.29084737133E+04 0.  0.
        1    1    3    3  502    0  0.72259743113E+03 -0.88143773178E+03  0.11363076947E+04  0.16094330367E+04  0.50400001928E-02 0.  1.
       -1    1    3    3    0  502 -0.72259743113E+03  0.88143773178E+03 -0.69108403038E+03  0.13329203500E+04  0.50400001928E-02 0. -1.
</event>
<event>
 5   0  0.1860500E-07  0.3958617E+04  0.7818609E-02  0.8012947E-01
        1   -1    0    0  501    0  0.00000000000E+00  0.00000000000E+00  0.15026051505E+04  0.15026051505E+04  0.50400001928E-02 0.  1.
       -1   -1    0    0    0  501  0.00000000000E+00  0.00000000000E+00 -0.26072460155E+04  0.26072460155E+04  0.50400001928E-02 0. -1.
    10030    2    1    2    0    0  0.00000000000E+00  0.00000000000E+00 -0.11046408650E+04  0.41098511660E+04  0.39586165722E+04 0.  0.
        5    1    3    3  502    0 -0.18398643957E+04  0.72063865711E+03 -0.43295798605E+03  0.20228434878E+04  0.46999998093E+01 0.  1.
       -5    1    3    3    0  502  0.18398643957E+04 -0.72063865711E+03 -0.67168287897E+03  0.20870076781E+04  0.46999998093E+01 0. -1.
</event>
<event>
 5   0  0.1876027E-07  0.3934214E+04  0.7818609E-02  0.8017951E-01
        1   -1    0    0  501    0  0.00000000000E+00  0.00000000000E+00  0.30426556983E+04  0.30426556984E+04  0.50400001928E-02 0. -1.
       -1   -1    0    0    0  501  0.00000000000E+00  0.00000000000E+00 -0.12717541673E+04  0.12717541673E+04  0.50400001928E-02 0.  1.
    10030    2    1    2    0    0  0.00000000000E+00  0.00000000000E+00  0.17709015310E+04  0.43144098657E+04  0.39342140583E+04 0.  0.
        3    1    3    3  502    0  0.17058717849E+04  0.67654435321E+03  0.10861642357E+03  0.18383439140E+04  0.10100000352E+00 0.  1.
       -3    1    3    3    0  502 -0.17058717849E+04 -0.67654435321E+03  0.16622851074E+04  0.24760659517E+04  0.10100000352E+00 0. -1.
</event>
<event>
 5   0  0.3959190E-07  0.3867480E+04  0.7818609E-02  0.8031827E-01
       -2   -1    0    0    0  501  0.00000000000E+00  0.00000000000E+00  0.13069053724E+04  0.13069053724E+04  0.25500000920E-02 0. -1.
        2   -1    0    0  501    0  0.00000000000E+00  0.00000000000E+00 -0.28612257794E+04  0.28612257794E+04  0.25500000920E-02 0.  1.
    10030    2    1    2    0    0  0.00000000000E+00  0.00000000000E+00 -0.15543204069E+04  0.41681311518E+04  0.38674804940E+04 0.  0.
        2    1    3    3  502    0  0.10553973691E+02  0.92459591645E+03 -0.26075270998E+04  0.27666200627E+04  0.25500000920E-02 0.  1.
       -2    1    3    3    0  502 -0.10553973691E+02 -0.92459591645E+03  0.10532066929E+04  0.14015110891E+04  0.25500000920E-02 0. -1.
</event>
<event>
 5   0  0.5735179E-07  0.3321738E+04  0.7818609E-02  0.8157386E-01
       -2   -1    0    0    0  501  0.00000000000E+00  0.00000000000E+00  0.23410761016E+04  0.23410761016E+04  0.25500000920E-02 0.  1.
        2   -1    0    0  501    0  0.00000000000E+00  0.00000000000E+00 -0.11782985414E+04  0.11782985414E+04  0.25500000920E-02 0. -1.
    10030    2    1    2    0    0  0.00000000000E+00  0.00000000000E+00  0.11627775603E+04  0.35193746430E+04  0.33217384339E+04 0.  0.
        5    1    3    3  502    0  0.42037066404E+03  0.19920895274E+03 -0.11078603977E+04  0.12015708273E+04  0.46999998093E+01 0. -1.
       -5    1    3    3    0  502 -0.42037066404E+03 -0.19920895274E+03  0.22706379580E+04  0.23178038158E+04  0.46999998093E+01 0.  1.
</event>
<event>
 5   0  0.1860500E-07  0.3896549E+04  0.7818609E-02  0.8025747E-01
       -3   -1    0    0    0  501  0.00000000000E+00  0.00000000000E+00  0.24703017407E+04  0.24703017428E+04  0.10100000352E+00 0.  1.
        3   -1    0    0  501    0  0.00000000000E+00  0.00000000000E+00 -0.15365629416E+04  0.15365629449E+04  0.10100000352E+00 0. -1.
    10030    2    1    2    0    0  0.00000000000E+00  0.00000000000E+00  0.93373879912E+03  0.40068646877E+04  0.38965493042E+04 0.  0.
        1    1    3    3  502    0  0.96211712168E+03 -0.14233168038E+04 -0.47798789115E+03  0.17832477405E+04  0.50400001928E-02 0. -1.
       -1    1    3    3    0  502 -0.96211712168E+03  0.14233168038E+04  0.14117266903E+04  0.22236169472E+04  0.50400001928E-02 0.  1.
</event>
<event>
 5   0  0.6095665E-07  0.3608328E+04  0.7818609E-02  0.8088587E-01
       -2   -1    0    0    0  501  0.00000000000E+00  0.00000000000E+00  0.14090811315E+04  0.14090811315E+04  0.25500000920E-02 0.  1.
        2   -1    0    0  501    0  0.00000000000E+00  0.00000000000E+00 -0.23100209297E+04  0.23100209297E+04  0.25500000920E-02 0. -1.
    10030    2    1    2    0    0  0.00000000000E+00  0.00000000000E+00 -0.90093979822E+03  0.37191020612E+04  0.36083275380E+04 0.  0.
        4    1    3    3  502    0 -0.11682090600E+04  0.10703147970E+04  0.43899414321E+03  0.16440813980E+04  0.12699999809E+01 0.  1.
       -4    1    3    3    0  502  0.11682090600E+04 -0.10703147970E+04 -0.13399339414E+04  0.20750206632E+04  0.12699999809E+01 0. -1.
</event>
<event>
 5   0  0.6095665E-07  0.3665960E+04  0.7818609E-02  0.8075548E-01
        2   -1    0    0  501    0  0.00000000000E+00  0.00000000000E+00  0.21354374886E+04  0.21354374886E+04  0.25500000920E-02 0. -1.
       -2   -1    0    0    0  501  0.00000000000E+00  0.00000000000E+00 -0.15733614241E+04  0.15733614241E+04  0.25500000920E-02 0.  1.
    10030    2    1    2    0    0  0.00000000000E+00  0.00000000000E+00  0.56207606456E+03  0.37087989127E+04  0.36659596114E+04 0.  0.
        4    1    3    3  502    0 -0.11839686475E+04 -0.10373164948E+04  0.12311644686E+04  0.19983930620E+04  0.12699999809E+01 0. -1.
       -4    1    3    3    0  502  0.11839686475E+04  0.10373164948E+04 -0.66908840405E+03  0.17104058507E+04  0.12699999809E+01 0.  1.
</event>
<event>
 5   0  0.6095665E-07  0.3740611E+04  0.7818609E-02  0.8059021E-01
        2   -1    0    0  501    0  0.00000000000E+00  0.00000000000E+00  0.21480400275E+04  0.21480400275E+04  0.25500000920E-02 0.  1.
       -2   -1    0    0    0  501  0.00000000000E+00  0.00000000000E+00 -0.16284809472E+04  0.16284809472E+04  0.25500000920E-02 0. -1.
    10030    2    1    2    0    0  0.00000000000E+00  0.00000000000E+00  0.51955908031E+03  0.37765209747E+04  0.37406107836E+04 0.  0.
        4    1    3    3  502    0  0.69595533248E+03  0.60751004543E+03  0.19016197376E+04  0.21141384816E+04  0.12699999809E+01 0.  1.
       -4    1    3    3    0  502 -0.69595533248E+03 -0.60751004543E+03 -0.13820606573E+04  0.16623824931E+04  0.12699999809E+01 0. -1.
</event>
<event>
 5   0  0.3959190E-07  0.3268552E+04  0.7818609E-02  0.8170944E-01
        2   -1    0    0  501    0  0.00000000000E+00  0.00000000000E+00  0.19173272217E+04  0.19173272217E+04  0.25500000920E-02 0.  1.
       -2   -1    0    0    0  501  0.00000000000E+00  0.00000000000E+00 -0.13930111309E+04  0.13930111309E+04  0.25500000920E-02 0. -1.
    10030    2    1    2    0    0  0.00000000000E+00  0.00000000000E+00  0.52431609080E+03  0.33103383526E+04  0.32685520718E+04 0.  0.
        2    1    3    3  502    0 -0.60083172171E+02  0.16331326313E+04  0.27352572961E+03  0.16569696750E+04  0.25500000920E-02 0. -1.
       -2    1    3    3    0  502  0.60083172171E+02 -0.16331326313E+04  0.25079036118E+03  0.16533686777E+04  0.25500000920E-02 0.  1.
</event>
<event>
 5   0  0.5805753E-07  0.3782185E+04  0.7818609E-02  0.8049989E-01
        2   -1    0    0  501    0  0.00000000000E+00  0.00000000000E+00  0.19991314792E+04  0.19991314792E+04  0.25500000920E-02 0.  1.
       -2   -1    0    0    0  501  0.00000000000E+00  0.00000000000E+00 -0.17888925383E+04  0.17888925383E+04  0.25500000920E-02 0. -1.
    10030    2    1    2    0    0  0.00000000000E+00  0.00000000000E+00  0.21023894090E+03  0.37880240175E+04  0.37821852870E+04 0.  0.
        1    1    3    3  502    0 -0.18326242677E+03  0.18221285581E+04  0.57754011412E+03  0.19202318044E+04  0.50400001928E-02 0. -1.
       -1    1    3    3    0  502  0.18326242677E+03 -0.18221285581E+04 -0.36730117322E+03  0.18677922131E+04  0.50400001928E-02 0.  1.
</event>
<event>
 5   0  0.1876027E-07  0.3245249E+04  0.7818609E-02  0.8176968E-01
        1   -1    0    0  501    0  0.00000000000E+00  0.00000000000E+00  0.18617009444E+04  0.18617009444E+04  0.50400001928E-02 0. -1.
       -1   -1    0    0    0  501  0.00000000000E+00  0.00000000000E+00 -0.14142500255E+04  0.14142500255E+04  0.50400001928E-02 0.  1.
    10030    2    1    2    0    0  0.00000000000E+00  0.00000000000E+00  0.44745091894E+03  0.32759509699E+04  0.32452492096E+04 0.  0.
        3    1    3    3  502    0 -0.10761113374E+04  0.85945192274E+03  0.10898857553E+04  0.17562813521E+04  0.10100000352E+00 0. -1.
       -3    1    3    3    0  502  0.10761113374E+04 -0.85945192274E+03 -0.64243483636E+03  0.15196696178E+04  0.10100000352E+00 0.  1.
</event>
<event>
 5   0  0.1860500E-07  0.3928822E+04  0.7818609E-02  0.8019061E-01
        1   -1    0    0  501    0  0.00000000000E+00  0.00000000000E+00  0.13546202701E+04  0.13546202701E+04  0.50400001928E-02 0. -1.
       -1   -1    0    0    0  501  0.00000000000E+00  0.00000000000E+00 -0.28487031569E+04  0.28487031569E+04  0.50400001928E-02 0.  1.
    10030    2    1    2    0    0  0.00000000000E+00  0.00000000000E+00 -0.14940828868E+04  0.42033234270E+04  0.39288222356E+04 0.  0.
        4    1    3    3  502    0  0.15199314992E+03 -0.69000794958E+03 -0.27080543644E+04  0.27987091563E+04  0.12699999809E+01 0.  1.
       -4    1    3    3    0  502 -0.15199314992E+03  0.69000794958E+03  0.12139714776E+04  0.14046142707E+04  0.12699999809E+01 0. -1.
</event>
<event>
 5   0  0.5872444E-07  0.3886897E+04  0.7818609E-02  0.8027760E-01
       -2   -1    0    0    0  501  0.00000000000E+00  0.00000000000E+00  0.16690910660E+04  0.16690910660E+04  0.25500000920E-02 0. -1.
        2   -1    0    0  501    0  0.00000000000E+00  0.00000000000E+00 -0.22629037673E+04  0.22629037673E+04  0.25500000920E-02 0.  1.
    10030    2    1    2    0    0  0.00000000000E+00  0.00000000000E+00 -0.59381270126E+03  0.39319948333E+04  0.38868972002E+04 0.  0.
        3    1    3    3  502    0  0.12236235078E+04 -0.14129187188E+04 -0.83543495616E+03  0.20473263959E+04  0.10100000352E+00 0.  1.
       -3    1    3    3    0  502 -0.12236235078E+04  0.14129187188E+04  0.24162225489E+03  0.18846684375E+04  0.10100000352E+00 0. -1.
</event>
<event>
 5   0  0.3959190E-07  0.3911895E+04  0.7818609E-02  0.8022560E-01
       -2   -1    0    0    0  501  0.00000000000E+00  0.00000000000E+00  0.11866709461E+04  0.11866709461E+04  0.25500000920E-02 0.  1.
        2   -1    0    0  501    0  0.00000000000E+00  0.00000000000E+00 -0.32239181241E+04  0.32239181241E+04  0.25500000920E-02 0. -1.
    10030    2    1    2    0    0  0.00000000000E+00  0.00000000000E+00 -0.20372471780E+04  0.44105890702E+04  0.39118946665E+04 0.  0.
        2    1    3    3  502    0 -0.18992613953E+04  0.28787720077E+02 -0.49255056775E+03  0.19623018734E+04  0.25500000920E-02 0. -1.
       -2    1    3    3    0  502  0.18992613953E+04 -0.28787720077E+02 -0.15446966103E+04  0.24482871969E+04  0.25500000920E-02 0.  1.
</event>
<event>
 5   0  0.2666813E-07  0.3870886E+04  0.7818609E-02  0.8031112E-01
       -1   -1    0    0    0  501  0.00000000000E+00  0.00000000000E+00  0.35800137968E+04  0.35800137968E+04  0.50400001928E-02 0. -1.
        1   -1    0    0  501    0  0.00000000000E+00  0.00000000000E+00 -0.10463480444E+04  0.10463480444E+04  0.50400001928E-02 0.  1.
    10030    2    1    2    0    0  0.00000000000E+00  0.00000000000E+00  0.25336657524E+04  0.46263618411E+04  0.38708864282E+04 0.  0.
        1    1    3    3  502    0  0.14406723496E+04  0.58990662359E+03 -0.10756619442E+03  0.15604797755E+04  0.50400001928E-02 0.  1.
       -1    1    3    3    0  502 -0.14406723496E+04 -0.58990662359E+03  0.26412319468E+04  0.30658820656E+04  0.50400001928E-02 0. -1.
</event>
<event>
 5   0  0.6095665E-07  0.3844608E+04  0.7818609E-02  0.8036649E-01
        2   -1    0    0  501    0  0.00000000000E+00  0.00000000000E+00  0.18000309106E+04  0.18000309106E+04  0.25500000920E-02 0.  1.
       -2   -1    0    0    0  501  0.00000000000E+00  0.00000000000E+00 -0.20528825078E+04  0.20528825078E+04  0.25500000920E-02 0. -1.
    10030    2    1    2    0    0  0.00000000000E+00  0.00000000000E+00 -0.25285159719E+03  0.38529134183E+04  0.38446076365E+04 0.  0.
        4    1    3    3  502    0 -0.87792218632E+03  0.11959897725E+04 -0.13514050235E+04  0.20068472915E+04  0.12699999809E+01 0.  1.
       -4    1    3    3    0  502  0.87792218632E+03 -0.11959897725E+04  0.10985534263E+04  0.18460661268E+04  0.12699999809E+01 0. -1.
</event>
<event>
 5   0  0.1943459E-07  0.3906166E+04  0.7818609E-02  0.8023748E-01
       -1   -1    0    0    0  501  0.00000000000E+00  0.00000000000E+00  0.31598996021E+04  0.31598996021E+04  0.50400001928E-02 0.  1.
        1   -1    0    0  501    0  0.00000000000E+00  0.00000000000E+00 -0.12071693726E+04  0.12071693726E+04  0.50400001928E-02 0. -1.
    10030    2    1    2    0    0  0.00000000000E+00  0.00000000000E+00  0.19527302295E+04  0.43670689747E+04  0.39061664174E+04 0.  0.
        2    1    3    3  502    0  0.31139715036E+03 -0.19253157147E+04  0.86058267678E+03  0.21317624938E+04  0.25500000920E-02 0. -1.
       -2    1    3    3    0  502 -0.31139715036E+03  0.19253157147E+04  0.10921475527E+04  0.22353064808E+04  0.25500000920E-02 0.  1.
</event>
<event>
 5   0  0.5872444E-07  0.3913411E+04  0.7818609E-02  0.8022246E-01
        2   -1    0    0  501    0  0.00000000000E+00  0.00000000000E+00  0.22906974623E+04  0.22906974623E+04  0.25500000920E-02 0. -1.
       -2   -1    0    0    0  501  0.00000000000E+00  0.00000000000E+00 -0.16714110519E+04  0.16714110519E+04  0.25500000920E-02 0.  1.
    10030    2    1    2    0    0  0.00000000000E+00  0.00000000000E+00  0.61928641034E+03  0.39621085142E+04  0.39134113278E+04 0.  0.
        3    1    3    3  502    0  0.18073287369E+04 -0.41618569371E+03  0.94114300197E+03  0.20797590858E+04  0.10100000352E+00 0.  1.
       -3    1    3    3    0  502 -0.18073287369E+04  0.41618569371E+03 -0.32185659163E+03  0.18823494284E+04  0.10100000352E+00 0. -1.
</event>
<event>
 5   0  0.5735179E-07  0.3904502E+04  0.7818609E-02  0.8024094E-01
       -2   -1    0    0    0  501  0.00000000000E+00  0.00000000000E+00  0.21910107369E+04  0.21910107369E+04  0.25500000920E-02 0. -1.
        2   -1    0    0  501    0  0.00000000000E+00  0.00000000000E+00 -0.17395091594E+04  0.17395091594E+04  0.25500000920E-02 0.  1.
    10030    2    1    2    0    0  0.00000000000E+00  0.00000000000E+00  0.45150157748E+03  0.39305198963E+04  0.39045016303E+04 0.  0.
        5    1    3    3  502    0  0.18274395504E+03 -0.18374828679E+04  0.86363131016E+03  0.20385337311E+04  0.46999998093E+01 0. -1.
       -5    1    3    3    0  502 -0.18274395504E+03  0.18374828679E+04 -0.41212973267E+03  0.18919861652E+04  0.46999998093E+01 0.  1.
</event>
<event>
 5   0  0.1876027E-07  0.3312449E+04  0.7818609E-02  0.8159735E-01
       -1   -1    0    0    0  501  0.00000000000E+00  0.00000000000E+00  0.15071344504E+04  0.15071344504E+04  0.50400001928E-02 0. -1.
        1   -1    0    0  501    0  0.00000000000E+00  0.00000000000E+00 -0.18200626617E+04  0.18200626617E+04  0.50400001928E-02 0.  1.
    10030    2    1    2    0    0  0.00000000000E+00  0.00000000000E+00 -0.31292821135E+03  0.33271971121E+04  0.33124487253E+04 0.  0.
        3    1    3    3  502    0 -0.56427892935E+03  0.94551930871E+03  0.10862435320E+04  0.15467199146E+04  0.10100000352E+00 0. -1.
       -3    1    3    3    0  502  0.56427892935E+03 -0.94551930871E+03 -0.13991717434E+04  0.17804771975E+04  0.10100000352E+00 0.  1.
</event>
<event>
 5   0  0.1860500E-07  0.3843825E+04  0.7818609E-02  0.8036815E-01
        1   -1    0    0  501    0  0.00000000000E+00  0.00000000000E+00  0.25967201053E+04  0.25967201053E+04  0.50400001928E-02 0.  1.
       -1   -1    0    0    0  501  0.00000000000E+00  0.00000000000E+00 -0.14224665052E+04  0.14224665052E+04  0.50400001928E-02 0. -1.
    10030    2    1    2    0    0  0.00000000000E+00  0.00000000000E+00  0.11742536001E+04  0.40191866105E+04  0.38438248520E+04 0.  0.
        5    1    3    3  502    0 -0.10383929106E+04  0.14122572771E+04 -0.23685680914E+03  0.17688566057E+04  0.46999998093E+01 0. -1.
       -5    1    3    3    0  502  0.10383929106E+04 -0.14122572771E+04  0.14111104092E+04  0.22503300048E+04  0.46999998093E+01 0.  1.
</event>
<event>
 5   0  0.6095665E-07  0.3527033E+04  0.7818609E-02  0.8107413E-01
       -2   -1    0    0    0  501  0.00000000000E+00  0.00000000000E+00  0.14679860144E+04  0.14679860144E+04  0.25500000920E-02 0.  1.
        2   -1    0    0  501    0  0.00000000000E+00  0.00000000000E+00 -0.21185418591E+04  0.21185418591E+04  0.25500000920E-02 0. -1.
    10030    2    1    2    0    0  0.00000000000E+00  0.00000000000E+00 -0.65055584467E+03  0.35865278735E+04  0.35270326453E+04 0.  0.
        4    1    3    3  502    0  0.83171497863E+03 -0.92950053298E+03 -0.15930102542E+04  0.20232163328E+04  0.12699999809E+01 0. -1.
       -4    1    3    3    0  502 -0.83171497863E+03  0.92950053298E+03  0.94245440951E+03  0.15633115407E+04  0.12699999809E+01 0.  1.
</event>
<event>
 5   0  0.1876027E-07  0.3868570E+04  0.7818609E-02  0.8031598E-01
        1   -1    0    0  501    0  0.00000000000E+00  0.00000000000E+00  0.28491420974E+04  0.28491420974E+04  0.50400001928E-02 0. -1.
       -1   -1    0    0    0  501  0.00000000000E+00  0.00000000000E+00 -0.13131878132E+04  0.13131878132E+04  0.50400001928E-02 0.  1.
    10030    2    1    2    0    0  0.00000000000E+00  0.00000000000E+00  0.15359542842E+04  0.41623299106E+04  0.38685701133E+04 0.  0.
        3    1    3    3  502    0 -0.77544111828E+03  0.15258658018E+04 -0.20148941216E+03  0.17234190920E+04  0.10100000352E+00 0. -1.
       -3    1    3    3    0  502  0.77544111828E+03 -0.15258658018E+04  0.17374436963E+04  0.24389108186E+04  0.10100000352E+00 0.  1.
</event>
<event>
 5   0  0.3959190E-07  0.3744092E+04  0.7818609E-02  0.8058260E-01
       -2   -1    0    0    0  501  0.00000000000E+00  0.00000000000E+00  0.14069316301E+04  0.14069316301E+04  0.25500000920E-02 0. -1.
        2   -1    0    0  501    0  0.00000000000E+00  0.00000000000E+00 -0.24909220908E+04  0.24909220908E+04  0.25500000920E-02 0.  1.
    10030    2    1    2    0    0  0.00000000000E+00  0.00000000000E+00 -0.10839904606E+04  0.38978537209E+04  0.37440924549E+04 0.  0.
        2    1    3    3  502    0  0.34001736436E+02 -0.13275369731E+04  0.83168030332E+03  0.15669086317E+04  0.25500000920E-02 0. -1.
       -2    1    3    3    0  502 -0.34001736436E+02  0.13275369731E+04 -0.19156707640E+04  0.23309450892E+04  0.25500000920E-02 0.  1.
</event>
<event>
 5   0  0.1860500E-07  0.2389544E+04  0.7818609E-02  0.8443428E-01
        1   -1    0    0  501    0  0.00000000000E+00  0.00000000000E+00  0.21028533535E+04  0.21028533535E+04  0.50400001928E-02 0. -1.
       -1   -1    0    0    0  501  0.00000000000E+00  0.00000000000E+00 -0.67883014027E+03  0.67883014029E+03  0.50400001928E-02 0.  1.
    10030    2    1    2    0    0  0.00000000000E+00  0.00000000000E+00  0.14240232132E+04  0.27816834938E+04  0.23895440878E+04 0.  0.
        4    1    3    3  502    0 -0.12268432945E+03  0.74554980700E+02  0.20927756045E+04  0.20976942660E+04  0.12699999809E+01 0. -1.
       -4    1    3    3    0  502  0.12268432945E+03 -0.74554980700E+02 -0.66875239134E+03  0.68398922774E+03  0.12699999809E+01 0.  1.
</event>
<event>
 5   0  0.1860500E-07  0.3700349E+04  0.7818609E-02  0.8067885E-01
       -1   -1    0    0    0  501  0.00000000000E+00  0.00000000000E+00  0.15919369820E+04  0.15919369820E+04  0.50400001928E-02 0. -1.
        1   -1    0    0  501    0  0.00000000000E+00  0.00000000000E+00 -0.21503018483E+04  0.21503018483E+04  0.50400001928E-02 0.  1.
    10030    2    1    2    0    0  0.00000000000E+00  0.00000000000E+00 -0.55836486625E+03  0.37422388303E+04  0.37003486511E+04 0.  0.
        5    1    3    3  502    0  0.12977755495E+04 -0.37647413051E+03  0.99891588576E+03  0.16804193478E+04  0.46999998093E+01 0. -1.
       -5    1    3    3    0  502 -0.12977755495E+04  0.37647413051E+03 -0.15572807520E+04  0.20618194825E+04  0.46999998093E+01 0.  1.
</event>
<event>
 5   0  0.5735179E-07  0.2555467E+04  0.7818609E-02  0.8383488E-01
       -2   -1    0    0    0  501  0.00000000000E+00  0.00000000000E+00  0.81614247200E+03  0.81614247201E+03  0.25500000920E-02 0.  1.
        2   -1    0    0  501    0  0.00000000000E+00  0.00000000000E+00 -0.20003888163E+04  0.20003888163E+04  0.25500000920E-02 0. -1.
    10030    2    1    2    0    0  0.00000000000E+00  0.00000000000E+00 -0.11842463443E+04  0.28165312883E+04  0.25554665120E+04 0.  0.
        5    1    3    3  502    0  0.11757745183E+03 -0.12353426523E+04 -0.92766554690E+03  0.15493486963E+04  0.46999998093E+01 0. -1.
       -5    1    3    3    0  502 -0.11757745183E+03  0.12353426523E+04 -0.25658079740E+03  0.12671825920E+04  0.46999998093E+01 0.  1.
</event>
<event>
 5   0  0.1860500E-07  0.3857643E+04  0.7818609E-02  0.8033897E-01
        1   -1    0    0  501    0  0.00000000000E+00  0.00000000000E+00  0.14871016900E+04  0.14871016900E+04  0.50400001928E-02 0.  1.
       -1   -1    0    0    0  501  0.00000000000E+00  0.00000000000E+00 -0.25017465127E+04  0.25017465127E+04  0.50400001928E-02 0. -1.
    10030    2    1    2    0    0  0.00000000000E+00  0.00000000000E+00 -0.10146448226E+04  0.39888482027E+04  0.38576425272E+04 0.  0.
        5    1    3    3  502    0 -0.59115279547E+03  0.16904448793E+04 -0.12481137079E+04  0.21828594630E+04  0.46999998093E+01 0. -1.
       -5    1    3    3    0  502  0.59115279547E+03 -0.16904448793E+04  0.23346888525E+03  0.18059887397E+04  0.46999998093E+01 0.  1.
</event>
<event>
 5   0  0.5735179E-07  0.3816719E+04  0.7818609E-02  0.8042577E-01
        2   -1    0    0  501    0  0.00000000000E+00  0.00000000000E+00  0.14848713466E+04  0.14848713466E+04  0.25500000920E-02 0. -1.
       -2   -1    0    0    0  501  0.00000000000E+00  0.00000000000E+00 -0.24526273354E+04  0.24526273354E+04  0.25500000920E-02 0.  1.
    10030    2    1    2    0    0  0.00000000000E+00  0.00000000000E+00 -0.96775598880E+03  0.39374986821E+04  0.38167190383E+04 0.  0.
        5    1    3    3  502    0  0.93568552036E+03  0.15467937069E+04  0.14680711934E+03  0.18137399442E+04  0.46999998093E+01 0.  1.
       -5    1    3    3    0  502 -0.93568552036E+03 -0.15467937069E+04 -0.11145631081E+04  0.21237587379E+04  0.46999998093E+01 0. -1.
</event>
<event>
 5   0  0.6095665E-07  0.4018442E+04  0.7818609E-02  0.8000837E-01
       -2   -1    0    0    0  501  0.00000000000E+00  0.00000000000E+00  0.22240171757E+04  0.22240171757E+04  0.25500000920E-02 0.  1.
        2   -1    0    0  501    0  0.00000000000E+00  0.00000000000E+00 -0.18151695016E+04  0.18151695016E+04  0.25500000920E-02 0. -1.
    10030    2    1    2    0    0  0.00000000000E+00  0.00000000000E+00  0.40884767412E+03  0.40391866773E+04  0.40184415627E+04 0.  0.
        4    1    3    3  502    0 -0.12031761634E+04 -0.84685096129E+03  0.15797627571E+04  0.21588055522E+04  0.12699999809E+01 0.  1.
       -4    1    3    3    0  502  0.12031761634E+04  0.84685096129E+03 -0.11709150830E+04  0.18803811250E+04  0.12699999809E+01 0. -1.
</event>
<event>
 5   0  0.1860500E-07  0.3990224E+04  0.7818609E-02  0.8006522E-01
       -1   -1    0    0    0  501  0.00000000000E+00  0.00000000000E+00  0.30687598353E+04  0.30687598353E+04  0.50400001928E-02 0. -1.
        1   -1    0    0  501    0  0.00000000000E+00  0.00000000000E+00 -0.12970948657E+04  0.12970948658E+04  0.50400001928E-02 0.  1.
    10030    2    1    2    0    0  0.00000000000E+00  0.00000000000E+00  0.17716649695E+04  0.43658547010E+04  0.39902243679E+04 0.  0.
        4    1    3    3  502    0 -0.97513842397E+03 -0.10846467177E+04 -0.60360900669E+03  0.15785116071E+04  0.12699999809E+01 0.  1.
       -4    1    3    3    0  502  0.97513842397E+03  0.10846467177E+04  0.23752739762E+04  0.27873430939E+04  0.12699999809E+01 0. -1.
</event>
<event>
 5   0  0.6095665E-07  0.3589836E+04  0.7818609E-02  0.8092824E-01
        2   -1    0    0  501    0  0.00000000000E+00  0.00000000000E+00  0.18647272196E+04  0.18647272196E+04  0.25500000920E-02 0. -1.
       -2   -1    0    0    0  501  0.00000000000E+00  0.00000000000E+00 -0.17277225767E+04  0.17277225767E+04  0.25500000920E-02 0.  1.
    10030    2    1    2    0    0  0.00000000000E+00  0.00000000000E+00  0.13700464284E+03  0.35924497963E+04  0.35898363844E+04 0.  0.
        4    1    3    3  502    0 -0.20731011527E+03 -0.17654671489E+04  0.31743623572E+03  0.18057184482E+04  0.12699999809E+01 0.  1.
       -4    1    3    3    0  502  0.20731011527E+03  0.17654671489E+04 -0.18043159288E+03  0.17867313481E+04  0.12699999809E+01 0. -1.
</event>
<event>
 5   0  0.6095665E-07  0.3882133E+04  0.7818609E-02  0.8028756E-01
       -2   -1    0    0    0  501  0.00000000000E+00  0.00000000000E+00  0.18129501338E+04  0.18129501338E+04  0.25500000920E-02 0. -1.
        2   -1    0    0  501    0  0.00000000000E+00  0.00000000000E+00 -0.20782362224E+04  0.20782362224E+04  0.25500000920E-02 0.  1.
    10030    2    1    2    0    0  0.00000000000E+00  0.00000000000E+00 -0.26528608860E+03  0.38911863563E+04  0.38821327322E+04 0.  0.
        4    1    3    3  502    0 -0.37546522487E+02  0.15657436957E+04 -0.12819530771E+04  0.20239487066E+04  0.12699999809E+01 0.  1.
       -4    1    3    3    0  502  0.37546522487E+02 -0.15657436957E+04  0.10166669885E+04  0.18672376497E+04  0.12699999809E+01 0. -1.
</event>
<event>
 5   0  0.1860500E-07  0.3981074E+04  0.7818609E-02  0.8008375E-01
        1   -1    0    0  501    0  0.00000000000E+00  0.00000000000E+00  0.17163818122E+04  0.17163818122E+04  0.50400001928E-02 0.  1.
       -1   -1    0    0    0  501  0.00000000000E+00  0.00000000000E+00 -0.23084825156E+04  0.23084825156E+04  0.50400001928E-02 0. -1.
    10030    2    1    2    0    0  0.00000000000E+00  0.00000000000E+00 -0.59210070338E+03  0.40248643278E+04  0.39810739273E+04 0.  0.
        4    1    3    3  502    0 -0.43662225705E+02  0.70902817024E+03 -0.21759683633E+04  0.22889882628E+04  0.12699999809E+01 0. -1.
       -4    1    3    3    0  502  0.43662225705E+02 -0.70902817024E+03  0.15838676599E+04  0.17358760650E+04  0.12699999809E+01 0.  1.
</event>
<event>
 5   0  0.1876027E-07  0.3854943E+04  0.7818609E-02  0.8034466E-01
        1   -1    0    0  501    0  0.00000000000E+00  0.00000000000E+00  0.17302490206E+04  0.17302490206E+04  0.50400001928E-02 0.  1.
       -1   -1    0    0    0  501  0.00000000000E+00  0.00000000000E+00 -0.21471740437E+04  0.21471740437E+04  0.50400001928E-02 0. -1.
    10030    2    1    2    0    0  0.00000000000E+00  0.00000000000E+00 -0.41692502304E+03  0.38774230643E+04  0.38549426902E+04 0.  0.
        3    1    3    3  502    0 -0.13909605583E+04 -0.13016859392E+04 -0.50341002189E+03  0.19704261518E+04  0.10100000352E+00 0. -1.
       -3    1    3    3    0  502  0.13909605583E+04  0.13016859392E+04  0.86484998848E+02  0.19069969125E+04  0.10100000352E+00 0.  1.
</event>
<event>
 5   0  0.6095665E-07  0.2650179E+04  0.7818609E-02  0.8351354E-01
        2   -1    0    0  501    0  0.00000000000E+00  0.00000000000E+00  0.20568538127E+04  0.20568538127E+04  0.25500000920E-02 0. -1.
       -2   -1    0    0    0  501  0.00000000000E+00  0.00000000000E+00 -0.85366375762E+03  0.85366375763E+03  0.25500000920E-02 0.  1.
    10030    2    1    2    0    0  0.00000000000E+00  0.00000000000E+00  0.12031900551E+04  0.29105175704E+04  0.26501785258E+04 0.  0.
        4    1    3    3  502    0  0.86834382057E+03  0.98916508371E+03  0.76956169018E+03  0.15246951700E+04  0.12699999809E+01 0.  1.
       -4    1    3    3    0  502 -0.86834382057E+03 -0.98916508371E+03  0.43362836493E+03  0.13858224004E+04  0.12699999809E+01 0. -1.
</event>
<event>
 5   0  0.1860500E-07  0.3747693E+04  0.7818609E-02  0.8057474E-01
       -1   -1    0    0    0  501  0.00000000000E+00  0.00000000000E+00  0.18179594727E+04  0.18179594727E+04  0.50400001928E-02 0.  1.
        1   -1    0    0  501    0  0.00000000000E+00  0.00000000000E+00 -0.19314519622E+04  0.19314519622E+04  0.50400001928E-02 0. -1.
    10030    2    1    2    0    0  0.00000000000E+00  0.00000000000E+00 -0.11349248944E+03  0.37494114349E+04  0.37476933657E+04 0.  0.
        4    1    3    3  502    0  0.75747249538E+03  0.17130113378E+04 -0.11269462477E+03  0.18763992422E+04  0.12699999809E+01 0. -1.
       -4    1    3    3    0  502 -0.75747249538E+03 -0.17130113378E+04 -0.79786466037E+00  0.18730121927E+04  0.12699999809E+01 0.  1.
</event>
<event>
 5   0  0.2666813E-07  0.3910180E+04  0.7818609E-02  0.8022915E-01
       -1   -1    0    0    0  501  0.00000000000E+00  0.00000000000E+00  0.16883351542E+04  0.16883351542E+04  0.50400001928E-02 0. -1.
        1   -1    0    0  501    0  0.00000000000E+00  0.00000000000E+00 -0.22639917438E+04  0.22639917438E+04  0.50400001928E-02 0.  1.
    10030    2    1    2    0    0  0.00000000000E+00  0.00000000000E+00 -0.57565658955E+03  0.39523268980E+04  0.39101799702E+04 0.  0.
        1    1    3    3  502    0 -0.46984792105E+03 -0.48467481137E+03 -0.21424655213E+04  0.22462914440E+04  0.50400001928E-02 0.  1.
       -1    1    3    3    0  502  0.46984792105E+03  0.48467481137E+03  0.15668089317E+04  0.17060354540E+04  0.50400001928E-02 0. -1.
</event>
<event>
 5   0  0.1860500E-07  0.3042016E+04  0.7818609E-02  0.8231834E-01
       -1   -1    0    0    0  501  0.00000000000E+00  0.00000000000E+00  0.17371041344E+04  0.17371041344E+04  0.50400001928E-02 0. -1.
        1   -1    0    0  501    0  0.00000000000E+00  0.00000000000E+00 -0.13317941317E+04  0.13317941317E+04  0.50400001928E-02 0.  1.
    10030    2    1    2    0    0  0.00000000000E+00  0.00000000000E+00  0.40531000272E+03  0.30688982661E+04  0.30420158397E+04 0.  0.
        5    1    3    3  502    0 -0.97879050593E+03 -0.67061556382E+03 -0.75743084416E+03  0.14076504050E+04  0.46999998093E+01 0.  1.
       -5    1    3    3    0  502  0.97879050593E+03  0.67061556382E+03  0.11627408469E+04  0.16612478611E+04  0.46999998093E+01 0. -1.
</event>
<event>
 5   0  0.6095665E-07  0.3870804E+04  0.7818609E-02  0.8031129E-01
       -2   -1    0    0    0  501  0.00000000000E+00  0.00000000000E+00  0.16343417886E+04  0.16343417886E+04  0.25500000920E-02 0. -1.
        2   -1    0    0  501    0  0.00000000000E+00  0.00000000000E+00 -0.22919207472E+04  0.22919207472E+04  0.25500000920E-02 0.  1.
    10030    2    1    2    0    0  0.00000000000E+00  0.00000000000E+00 -0.65757895862E+03  0.39262625358E+04  0.38708044917E+04 0.  0.
        4    1    3    3  502    0  0.11390653291E+02  0.42808864158E+03 -0.22432608150E+04  0.22837710763E+04  0.12699999809E+01 0.  1.
       -4    1    3    3    0  502 -0.11390653291E+02 -0.42808864158E+03  0.15856818564E+04  0.16424914595E+04  0.12699999809E+01 0. -1.
</event>
<event>
 5   0  0.3959190E-07  0.3957148E+04  0.7818609E-02  0.8013247E-01
       -2   -1    0    0    0  501  0.00000000000E+00  0.00000000000E+00  0.20539891617E+04  0.20539891617E+04  0.25500000920E-02 0.  1.
        2   -1    0    0  501    0  0.00000000000E+00  0.00000000000E+00 -0.19059282772E+04  0.19059282772E+04  0.25500000920E-02 0. -1.
    10030    2    1    2    0    0  0.00000000000E+00  0.00000000000E+00  0.14806088450E+03  0.39599174388E+04  0.39571484805E+04 0.  0.
        2    1    3    3  502    0  0.10151831335E+04  0.82657803090E+03  0.15586210263E+04  0.20354674007E+04  0.25500000920E-02 0.  1.
       -2    1    3    3    0  502 -0.10151831335E+04 -0.82657803090E+03 -0.14105601418E+04  0.19244500381E+04  0.25500000920E-02 0. -1.
</event>
<event>
 5   0  0.1860500E-07  0.2548705E+04  0.7818609E-02  0.8385837E-01
       -1   -1    0    0    0  501  0.00000000000E+00  0.00000000000E+00  0.10675100044E+04  0.10675100044E+04  0.50400001928E-02 0. -1.
        1   -1    0    0  501    0  0.00000000000E+00  0.00000000000E+00 -0.15212734252E+04  0.15212734252E+04  0.50400001928E-02 0.  1.
    10030    2    1    2    0    0  0.00000000000E+00  0.00000000000E+00 -0.45376342080E+03  0.25887834296E+04  0.25487052406E+04 0.  0.
        5    1    3    3  502    0  0.10474937463E+04  0.20879045982E+03  0.47911353525E+03  0.11706444697E+04  0.46999998093E+01 0. -1.
       -5    1    3    3    0  502 -0.10474937463E+04 -0.20879045982E+03 -0.93287695605E+03  0.14181389600E+04  0.46999998093E+01 0.  1.
</event>
<event>
 5   0  0.2666813E-07  0.2711383E+04  0.7818609E-02  0.8331321E-01
        1   -1    0    0  501    0  0.00000000000E+00  0.00000000000E+00  0.16511476475E+04  0.16511476475E+04  0.50400001928E-02 0. -1.
       -1   -1    0    0    0  501  0.00000000000E+00  0.00000000000E+00 -0.11131043792E+04  0.11131043792E+04  0.50400001928E-02 0.  1.
    10030    2    1    2    0    0  0.00000000000E+00  0.00000000000E+00  0.53804326824E+03  0.27642520267E+04  0.27113831726E+04 0.  0.
        1    1    3    3  502    0 -0.10265505622E+03 -0.71715631223E+03  0.14372482978E+04  0.16095135620E+04  0.50400001928E-02 0. -1.
       -1    1    3    3    0  502  0.10265505622E+03  0.71715631223E+03 -0.89920502952E+03  0.11547384647E+04  0.50400001928E-02 0.  1.
</event>
<event>
 5   0  0.5872444E-07  0.3957325E+04  0.7818609E-02  0.8013211E-01
        2   -1    0    0  501    0  0.00000000000E+00  0.00000000000E+00  0.16280312806E+04  0.16280312806E+04  0.25500000920E-02 0.  1.
       -2   -1    0    0    0  501  0.00000000000E+00  0.00000000000E+00 -0.24048095370E+04  0.24048095370E+04  0.25500000920E-02 0. -1.
    10030    2    1    2    0    0  0.00000000000E+00  0.00000000000E+00 -0.77677825633E+03  0.40328408176E+04  0.39573249299E+04 0.  0.
        3    1    3    3  502    0 -0.52320231083E+03  0.13314183043E+04 -0.17814752778E+04  0.22847471490E+04  0.10100000352E+00 0. -1.
       -3    1    3    3    0  502  0.52320231083E+03 -0.13314183043E+04  0.10046970214E+04  0.17480936686E+04  0.10100000352E+00 0.  1.
</event>
<event>
 5   0  0.6095665E-07  0.3923368E+04  0.7818609E-02  0.8020187E-01
        2   -1    0    0  501    0  0.00000000000E+00  0.00000000000E+00  0.26696498293E+04  0.26696498293E+04  0.25500000920E-02 0. -1.
       -2   -1    0    0    0  501  0.00000000000E+00  0.00000000000E+00 -0.14414641042E+04  0.14414641042E+04  0.25500000920E-02 0.  1.
    10030    2    1    2    0    0  0.00000000000E+00  0.00000000000E+00  0.12281857251E+04  0.41111139335E+04  0.39233681447E+04 0.  0.
        4    1    3    3  502    0 -0.85138853332E+03  0.73243316894E+03  0.22994376460E+04  0.25590498006E+04  0.12699999809E+01 0. -1.
       -4    1    3    3    0  502  0.85138853332E+03 -0.73243316894E+03 -0.10712519208E+04  0.15520641328E+04  0.12699999809E+01 0.  1.
</event>
<event>
 5   0  0.3959190E-07  0.3902853E+04  0.7818609E-02  0.8024436E-01
        2   -1    0    0  501    0  0.00000000000E+00  0.00000000000E+00  0.18707962625E+04  0.18707962625E+04  0.25500000920E-02 0. -1.
       -2   -1    0    0    0  501  0.00000000000E+00  0.00000000000E+00 -0.20355319116E+04  0.20355319116E+04  0.25500000920E-02 0.  1.
    10030    2    1    2    0    0  0.00000000000E+00  0.00000000000E+00 -0.16473564915E+03  0.39063281741E+04  0.39028530551E+04 0.  0.
        2    1    3    3  502    0 -0.16860661473E+03 -0.12088520901E+04 -0.16063245955E+04  0.20174316029E+04  0.25500000920E-02 0.  1.
       -2    1    3    3    0  502  0.16860661473E+03  0.12088520901E+04  0.14415889464E+04  0.18888965712E+04  0.25500000920E-02 0. -1.
</event>
<event>
 5   0  0.1876027E-07  0.3803337E+04  0.7818609E-02  0.8045439E-01
       -1   -1    0    0    0  501  0.00000000000E+00  0.00000000000E+00  0.22333728011E+04  0.22333728011E+04  0.50400001928E-02 0. -1.
        1   -1    0    0  501    0  0.00000000000E+00  0.00000000000E+00 -0.16192294695E+04  0.16192294695E+04  0.50400001928E-02 0.  1.
    10030    2    1    2    0    0  0.00000000000E+00  0.00000000000E+00  0.61414333160E+03  0.38526022706E+04  0.38033369853E+04 0.  0.
        3    1    3    3  502    0 -0.16483957701E+04  0.10717336531E+02  0.12675198554E+04  0.20794061821E+04  0.10100000352E+00 0. -1.
       -3    1    3    3    0  502  0.16483957701E+04 -0.10717336531E+02 -0.65337652382E+03  0.17731960885E+04  0.10100000352E+00 0.  1.
</event>
<event>
 5   0  0.1876027E-07  0.4026276E+04  0.7818609E-02  0.7999267E-01
        1   -1    0    0  501    0  0.00000000000E+00  0.00000000000E+00  0.22523553963E+04  0.22523553963E+04  0.50400001928E-02 0.  1.
       -1   -1    0    0    0  501  0.00000000000E+00  0.00000000000E+00 -0.17993269238E+04  0.17993269238E+04  0.50400001928E-02 0. -1.
    10030    2    1    2    0    0  0.00000000000E+00  0.00000000000E+00  0.45302847254E+03  0.40516823201E+04  0.40262755527E+04 0.  0.
        3    1    3    3  502    0  0.61326497516E+03 -0.74708558123E+03 -0.15505546869E+04  0.18271427538E+04  0.10100000352E+00 0. -1.
       -3    1    3    3    0  502 -0.61326497516E+03  0.74708558123E+03  0.20035831594E+04  0.22245395664E+04  0.10100000352E+00 0.  1.
</event>
<event>
 5   0  0.2666813E-07  0.3907100E+04  0.7818609E-02  0.8023554E-01
        1   -1    0    0  501    0  0.00000000000E+00  0.00000000000E+00  0.16495301496E+04  0.16495301496E+04  0.50400001928E-02 0.  1.
       -1   -1    0    0    0  501  0.00000000000E+00  0.00000000000E+00 -0.23136030603E+04  0.23136030603E+04  0.50400001928E-02 0. -1.
    10030    2    1    2    0    0  0.00000000000E+00  0.00000000000E+00 -0.66407291062E+03  0.39631332099E+04  0.39071002046E+04 0.  0.
        1    1    3    3  502    0  0.84749840263E+03  0.85768892994E+03  0.12270408652E+04  0.17203235532E+04  0.50400001928E-02 0.  1.
       -1    1    3    3    0  502 -0.84749840263E+03 -0.85768892994E+03 -0.18911137758E+04  0.22428096567E+04  0.50400001928E-02 0. -1.
</event>
<event>
 5   0  0.5735179E-07  0.3253986E+04  0.7818609E-02  0.8174703E-01
       -2   -1    0    0    0  501  0.00000000000E+00  0.00000000000E+00  0.21409632878E+04  0.21409632878E+04  0.25500000920E-02 0.  1.
        2   -1    0    0  501    0  0.00000000000E+00  0.00000000000E+00 -0.12364086093E+04  0.12364086093E+04  0.25500000920E-02 0. -1.
    10030    2    1    2    0    0  0.00000000000E+00  0.00000000000E+00  0.90455467852E+03  0.33773718971E+04  0.32539855200E+04 0.  0.
        5    1    3    3  502    0 -0.67591512132E+03  0.10349826855E+04  0.15502327537E+04  0.19827491246E+04  0.46999998093E+01 0.  1.
       -5    1    3    3    0  502  0.67591512132E+03 -0.10349826855E+04 -0.64567807518E+03  0.13946227724E+04  0.46999998093E+01 0. -1.
</event>
<event>
 5   0  0.5805753E-07  0.3977844E+04  0.7818609E-02  0.8009031E-01
        2   -1    0    0  501    0  0.00000000000E+00  0.00000000000E+00  0.19183333856E+04  0.19183333856E+04  0.25500000920E-02 0. -1.
       -2   -1    0    0    0  501  0.00000000000E+00  0.00000000000E+00 -0.20621083007E+04  0.20621083007E+04  0.25500000920E-02 0.  1.
    10030    2    1    2    0    0  0.00000000000E+00  0.00000000000E+00 -0.14377491502E+03  0.39804416863E+04  0.39778442393E+04 0.  0.
        1    1    3    3  502    0 -0.15510180673E+04 -0.11544570503E+04 -0.53843548041E+03  0.20070727173E+04  0.50400001928E-02 0. -1.
       -1    1    3    3    0  502  0.15510180673E+04  0.11544570503E+04  0.39466056539E+03  0.19733689690E+04  0.50400001928E-02 0.  1.
</event>
<event>
 5   0  0.5805753E-07  0.3630447E+04  0.7818609E-02  0.8083553E-01
        2   -1    0    0  501    0  0.00000000000E+00  0.00000000000E+00  0.14606256241E+04  0.14606256241E+04  0.25500000920E-02 0. -1.
       -2   -1    0    0    0  501  0.00000000000E+00  0.00000000000E+00 -0.22559073470E+04  0.22559073470E+04  0.25500000920E-02 0.  1.
    10030    2    1    2    0    0  0.00000000000E+00  0.00000000000E+00 -0.79528172291E+03  0.37165329711E+04  0.36304468467E+04 0.  0.
        1    1    3    3  502    0 -0.77305144810E+03  0.11775129024E+04  0.77444973502E+03  0.16074568638E+04  0.50400001928E-02 0. -1.
       -1    1    3    3    0  502  0.77305144810E+03 -0.11775129024E+04 -0.15697314579E+04  0.21090761074E+04  0.50400001928E-02 0.  1.
</event>
<event>
 5   0  0.1876027E-07  0.4043821E+04  0.7818609E-02  0.7995764E-01
        1   -1    0    0  501    0  0.00000000000E+00  0.00000000000E+00  0.26814309483E+04  0.26814309483E+04  0.50400001928E-02 0. -1.
       -1   -1    0    0    0  501  0.00000000000E+00  0.00000000000E+00 -0.15246044100E+04  0.15246044100E+04  0.50400001928E-02 0.  1.
    10030    2    1    2    0    0  0.00000000000E+00  0.00000000000E+00  0.11568265383E+04  0.42060353583E+04  0.40438206928E+04 0.  0.
        3    1    3    3  502    0 -0.69074408310E+03  0.86387258456E+03 -0.11820297928E+04  0.16188260166E+04  0.10100000352E+00 0.  1.
       -3    1    3    3    0  502  0.69074408310E+03 -0.86387258456E+03  0.23388563310E+04  0.25872093418E+04  0.10100000352E+00 0. -1.
</event>
<event>
 5   0  0.3959190E-07  0.3822145E+04  0.7818609E-02  0.8041419E-01
        2   -1    0    0  501    0  0.00000000000E+00  0.00000000000E+00  0.26427956015E+04  0.26427956015E+04  0.25500000920E-02 0. -1.
       -2   -1    0    0    0  501  0.00000000000E+00  0.00000000000E+00 -0.13819447650E+04  0.13819447650E+04  0.25500000920E-02 0.  1.
    10030    2    1    2    0    0  0.00000000000E+00  0.00000000000E+00  0.12608508365E+04  0.40247403665E+04  0.38221447102E+04 0.  0.
        2    1    3    3  502    0 -0.10347831364E+04 -0.12357145278E+04 -0.45085871224E+03  0.16736308171E+04  0.25500000920E-02 0.  1.
       -2    1    3    3    0  502  0.10347831364E+04  0.12357145278E+04  0.17117095487E+04  0.23511095493E+04  0.25500000920E-02 0. -1.
</event>
<event>
 5   0  0.6095665E-07  0.4000780E+04  0.7818609E-02  0.8004389E-01
        2   -1    0    0  501    0  0.00000000000E+00  0.00000000000E+00  0.24356771695E+04  0.24356771695E+04  0.25500000920E-02 0.  1.
       -2   -1    0    0    0  501  0.00000000000E+00  0.00000000000E+00 -0.16428944177E+04  0.16428944177E+04  0.25500000920E-02 0. -1.
    10030    2    1    2    0    0  0.00000000000E+00  0.00000000000E+00  0.79278275180E+03  0.40785715872E+04  0.40007801365E+04 0.  0.
        4    1    3    3  502    0  0.29936695230E+03  0.19477429794E+03 -0.16101276419E+04  0.16492635433E+04  0.12699999809E+01 0. -1.
       -4    1    3    3    0  502 -0.29936695230E+03 -0.19477429794E+03  0.24029103937E+04  0.24293080439E+04  0.12699999809E+01 0.  1.
</event>
<event>
 5   0  0.6095665E-07  0.3787809E+04  0.7818609E-02  0.8048776E-01
       -2   -1    0    0    0  501  0.00000000000E+00  0.00000000000E+00  0.18961259126E+04  0.18961259126E+04  0.25500000920E-02 0. -1.
        2   -1    0    0  501    0  0.00000000000E+00  0.00000000000E+00 -0.18916858442E+04  0.18916858442E+04  0.25500000920E-02 0.  1.
    10030    2    1    2    0    0  0.00000000000E+00  0.00000000000E+00  0.44400683551E+01  0.37878117568E+04  0.37878091545E+04 0.  0.
        4    1    3    3  502    0  0.82864825417E+03  0.35081561148E+03  0.16686975253E+04  0.18958593213E+04  0.12699999809E+01 0. -1.
       -4    1    3    3    0  502 -0.82864825417E+03 -0.35081561148E+03 -0.16642574569E+04  0.18919524355E+04  0.12699999809E+01 0.  1.
</event>
<event>
 5   0  0.1860500E-07  0.3865033E+04  0.7818609E-02  0.8032341E-01
        1   -1    0    0  501    0  0.00000000000E+00  0.00000000000E+00  0.12444437689E+04  0.12444437689E+04  0.50400001928E-02 0. -1.
       -1   -1    0    0    0  501  0.00000000000E+00  0.00000000000E+00 -0.30010359867E+04  0.30010359867E+04  0.50400001928E-02 0.  1.
    10030    2    1    2    0    0  0.00000000000E+00  0.00000000000E+00 -0.17565922179E+04  0.42454797556E+04  0.38650332645E+04 0.  0.
        5    1    3    3  502    0 -0.14952460599E+04 -0.12232969911E+04 -0.82468475059E+03  0.21005578630E+04  0.46999998093E+01 0.  1.
       -5    1    3    3    0  502  0.14952460599E+04  0.12232969911E+04 -0.93190746727E+03  0.21449218926E+04  0.46999998093E+01 0. -1.
</event>
<event>
 5   0  0.5805753E-07  0.2403515E+04  0.7818609E-02  0.8438189E-01
        2   -1    0    0  501    0  0.00000000000E+00  0.00000000000E+00  0.18150321079E+04  0.18150321079E+04  0.25500000920E-02 0.  1.
       -2   -1    0    0    0  501  0.00000000000E+00  0.00000000000E+00 -0.79569998613E+03  0.79569998613E+03  0.25500000920E-02 0. -1.
    10030    2    1    2    0    0  0.00000000000E+00  0.00000000000E+00  0.10193321217E+04  0.26107320940E+04  0.24035149453E+04 0.  0.
        1    1    3    3  502    0 -0.10363167708E+03 -0.42816770920E+03 -0.70483311116E+03  0.83117797511E+03  0.50400001928E-02 0. -1.
       -1    1    3    3    0  502  0.10363167708E+03  0.42816770920E+03  0.17241652329E+04  0.17795541189E+04  0.50400001928E-02 0.  1.
</event>
<event>
 5   0  0.5872444E-07  0.3923779E+04  0.7818609E-02  0.8020102E-01
        2   -1    0    0  501    0  0.00000000000E+00  0.00000000000E+00  0.21049312970E+04  0.21049312970E+04  0.25500000920E-02 0.  1.
       -2   -1    0    0    0  501  0.00000000000E+00  0.00000000000E+00 -0.18285678097E+04  0.18285678097E+04  0.25500000920E-02 0. -1.
    10030    2    1    2    0    0  0.00000000000E+00  0.00000000000E+00  0.27636348726E+03  0.39334991067E+04  0.39237785928E+04 0.  0.
        3    1    3    3  502    0  0.14633260401E+04 -0.12276328984E+04  0.58717965651E+03  0.19982956718E+04  0.10100000352E+00 0. -1.
       -3    1    3    3    0  502 -0.14633260401E+04  0.12276328984E+04 -0.31081616925E+03  0.19352034348E+04  0.10100000352E+00 0.  1.
</event>
<event>
 5   0  0.1860500E-07  0.4008248E+04  0.7818609E-02  0.8002885E-01
       -1   -1    0    0    0  501  0.00000000000E+00  0.00000000000E+00  0.13563238552E+04  0.13563238553E+04  0.50400001928E-02 0.  1.
        1   -1    0    0  501    0  0.00000000000E+00  0.00000000000E+00 -0.29613236745E+04  0.29613236745E+04  0.50400001928E-02 0. -1.
    10030    2    1    2    0    0  0.00000000000E+00  0.00000000000E+00 -0.16049998193E+04  0.43176475298E+04  0.40082484668E+04 0.  0.
        4    1    3    3  502    0  0.18272233137E+04 -0.60570059329E+03 -0.20188130700E+03  0.19355557139E+04  0.12699999809E+01 0. -1.
       -4    1    3    3    0  502 -0.18272233137E+04  0.60570059329E+03 -0.14031185123E+04  0.23820918159E+04  0.12699999809E+01 0.  1.
</event>
<event>
 5   0  0.5735179E-07  0.3794313E+04  0.7818609E-02  0.8047376E-01
       -2   -1    0    0    0  501  0.00000000000E+00  0.00000000000E+00  0.21854026527E+04  0.21854026527E+04  0.25500000920E-02 0.  1.
        2   -1    0    0  501    0  0.00000000000E+00  0.00000000000E+00 -0.16469293332E+04  0.16469293332E+04  0.25500000920E-02 0. -1.
    10030    2    1    2    0    0  0.00000000000E+00  0.00000000000E+00  0.53847331952E+03  0.38323319860E+04  0.37943134998E+04 0.  0.
        5    1    3    3  502    0 -0.71805216573E+03  0.16403050343E+03  0.20350901495E+04  0.21642825429E+04  0.46999998093E+01 0.  1.
       -5    1    3    3    0  502  0.71805216573E+03 -0.16403050343E+03 -0.14966168300E+04  0.16680494431E+04  0.46999998093E+01 0. -1.
</event>
<event>
 5   0  0.3959190E-07  0.3938467E+04  0.7818609E-02  0.8017076E-01
        2   -1    0    0  501    0  0.00000000000E+00  0.00000000000E+00  0.12419941213E+04  0.12419941213E+04  0.25500000920E-02 0. -1.
       -2   -1    0    0    0  501  0.00000000000E+00  0.00000000000E+00 -0.31223017756E+04  0.31223017756E+04  0.25500000920E-02 0.  1.
    10030    2    1    2    0    0  0.00000000000E+00  0.00000000000E+00 -0.18803076543E+04  0.43642958969E+04  0.39384669354E+04 0.  0.
        2    1    3    3  502    0  0.89237648529E+03 -0.52754283587E+03  0.91515996849E+03  0.13828069291E+04  0.25500000920E-02 0. -1.
       -2    1    3    3    0  502 -0.89237648529E+03  0.52754283587E+03 -0.27954676228E+04  0.29814889679E+04  0.25500000920E-02 0.  1.
</event>
<event>
 5   0  0.3959190E-07  0.3937782E+04  0.7818609E-02  0.8017217E-01
       -2   -1    0    0    0  501  0.00000000000E+00  0.00000000000E+00  0.14751782969E+04  0.14751782969E+04  0.25500000920E-02 0.  1.
        2   -1    0    0  501    0  0.00000000000E+00  0.00000000000E+00 -0.26278390198E+04  0.26278390198E+04  0.25500000920E-02 0. -1.
    10030    2    1    2    0    0  0.00000000000E+00  0.00000000000E+00 -0.11526607229E+04  0.41030173166E+04  0.39377816545E+04 0.  0.
        2    1    3    3  502    0  0.13821103759E+04 -0.56814214565E+03 -0.19121220993E+04  0.24267726534E+04  0.25500000920E-02 0. -1.
       -2    1    3    3    0  502 -0.13821103759E+04  0.56814214565E+03  0.75946137636E+03  0.16762446632E+04  0.25500000920E-02 0.  1.
</event>
<event>
 5   0  0.1876027E-07  0.2700565E+04  0.7818609E-02  0.8334822E-01
       -1   -1    0    0    0  501  0.00000000000E+00  0.00000000000E+00  0.10116182055E+04  0.10116182055E+04  0.50400001928E-02 0. -1.
        1   -1    0    0  501    0  0.00000000000E+00  0.00000000000E+00 -0.18023236160E+04  0.18023236160E+04  0.50400001928E-02 0.  1.
    10030    2    1    2    0    0  0.00000000000E+00  0.00000000000E+00 -0.79070541056E+03  0.28139418215E+04  0.27005654091E+04 0.  0.
        3    1    3    3  502    0  0.94918392033E+03  0.80639353158E+03  0.14812154912E+03  0.12542570095E+04  0.10100000352E+00 0. -1.
       -3    1    3    3    0  502 -0.94918392033E+03 -0.80639353158E+03 -0.93882695968E+03  0.15596848120E+04  0.10100000352E+00 0.  1.
</event>
<event>
 5   0  0.1943459E-07  0.3986704E+04  0.7818609E-02  0.8007234E-01
       -1   -1    0    0    0  501  0.00000000000E+00  0.00000000000E+00  0.27647913993E+04  0.27647913993E+04  0.50400001928E-02 0.  1.
        1   -1    0    0  501    0  0.00000000000E+00  0.00000000000E+00 -0.14371614048E+04  0.14371614049E+04  0.50400001928E-02 0. -1.
    10030    2    1    2    0    0  0.00000000000E+00  0.00000000000E+00  0.13276299945E+04  0.42019528042E+04  0.39867036467E+04 0.  0.
        2    1    3    3  502    0 -0.51048146378E+03  0.19239182239E+04  0.77634476933E+03  0.21365307997E+04  0.25500000920E-02 0.  1.
       -2    1    3    3    0  502  0.51048146378E+03 -0.19239182239E+04  0.55128522515E+03  0.20654220045E+04  0.25500000920E-02 0. -1.
</event>
<event>
 5   0  0.6095665E-07  0.3220734E+04  0.7818609E-02  0.8183363E-01
        2   -1    0    0  501    0  0.00000000000E+00  0.00000000000E+00  0.20500147750E+04  0.20500147750E+04  0.25500000920E-02 0. -1.
       -2   -1    0    0    0  501  0.00000000000E+00  0.00000000000E+00 -0.12650065718E+04  0.12650065718E+04  0.25500000920E-02 0.  1.
    10030    2    1    2    0    0  0.00000000000E+00  0.00000000000E+00  0.78500820321E+03  0.33150213468E+04  0.32207341788E+04 0.  0.
        4    1    3    3  502    0 -0.68984622247E+03 -0.20232794594E+02  0.18900845820E+04  0.20121427674E+04  0.12699999809E+01 0. -1.
       -4    1    3    3    0  502  0.68984622247E+03  0.20232794594E+02 -0.11050763788E+04  0.13028785793E+04  0.12699999809E+01 0.  1.
</event>
<event>
 5   0  0.5735179E-07  0.4094958E+04  0.7818609E-02  0.7985660E-01
        2   -1    0    0  501    0  0.00000000000E+00  0.00000000000E+00  0.22767265330E+04  0.22767265330E+04  0.25500000920E-02 0. -1.
       -2   -1    0    0    0  501  0.00000000000E+00  0.00000000000E+00 -0.18413144431E+04  0.18413144431E+04  0.25500000920E-02 0.  1.
    10030    2    1    2    0    0  0.00000000000E+00  0.00000000000E+00  0.43541208988E+03  0.41180409762E+04  0.40949576058E+04 0.  0.
        5    1    3    3  502    0  0.14536708158E+04  0.46086957032E+03  0.15916387456E+04  0.22042902685E+04  0.46999998093E+01 0. -1.
       -5    1    3    3    0  502 -0.14536708158E+04 -0.46086957032E+03 -0.11562266557E+04  0.19137507076E+04  0.46999998093E+01 0.  1.
</event>
<event>
 5   0  0.1860500E-07  0.3925103E+04  0.7818609E-02  0.8019828E-01
       -1   -1    0    0    0  501  0.00000000000E+00  0.00000000000E+00  0.18272995247E+04  0.18272995247E+04  0.50400001928E-02 0. -1.
        1   -1    0    0  501    0  0.00000000000E+00  0.00000000000E+00 -0.21078142824E+04  0.21078142824E+04  0.50400001928E-02 0.  1.
    10030    2    1    2    0    0  0.00000000000E+00  0.00000000000E+00 -0.28051475769E+03  0.39351138071E+04  0.39251028198E+04 0.  0.
        5    1    3    3  502    0  0.14043437403E+04 -0.11359646850E+04 -0.90967086157E+03  0.20224045769E+04  0.46999998093E+01 0. -1.
       -5    1    3    3    0  502 -0.14043437403E+04  0.11359646850E+04  0.62915610388E+03  0.19127092302E+04  0.46999998093E+01 0.  1.
</event>
<event>
 5   0  0.5872444E-07  0.3954875E+04  0.7818609E-02  0.8013712E-01
       -2   -1    0    0    0  501  0.00000000000E+00  0.00000000000E+00  0.18542941827E+04  0.18542941827E+04  0.25500000920E-02 0. -1.
        2   -1    0    0  501    0  0.00000000000E+00  0.00000000000E+00 -0.21087587292E+04  0.21087587292E+04  0.25500000920E-02 0.  1.
    10030    2    1    2    0    0  0.00000000000E+00  0.00000000000E+00 -0.25446454643E+03  0.39630529119E+04  0.39548749888E+04 0.  0.
        3    1    3    3  502    0 -0.98390179250E+03  0.62263108368E+03  0.14743614007E+04  0.18786893713E+04  0.10100000352E+00 0. -1.
       -3    1    3    3    0  502  0.98390179250E+03 -0.62263108368E+03 -0.17288259472E+04  0.20843635406E+04  0.10100000352E+00 0.  1.
</event>
<event>
 5   0  0.5735179E-07  0.3891007E+04  0.7818609E-02  0.8026902E-01
       -2   -1    0    0    0  501  0.00000000000E+00  0.00000000000E+00  0.20468703761E+04  0.20468703761E+04  0.25500000920E-02 0.  1.
        2   -1    0    0  501    0  0.00000000000E+00  0.00000000000E+00 -0.18491567958E+04  0.18491567958E+04  0.25500000920E-02 0. -1.
    10030    2    1    2    0    0  0.00000000000E+00  0.00000000000E+00  0.19771358029E+03  0.38960271718E+04  0.38910072043E+04 0.  0.
        5    1    3    3  502    0 -0.54214418946E+03 -0.39360067238E+02 -0.17715715986E+04  0.18530940494E+04  0.46999998093E+01 0. -1.
       -5    1    3    3    0  502  0.54214418946E+03  0.39360067238E+02  0.19692851789E+04  0.20429331224E+04  0.46999998093E+01 0.  1.
</event>
<event>
 5   0  0.1876027E-07  0.3884220E+04  0.7818609E-02  0.8028319E-01
       -1   -1    0    0    0  501  0.00000000000E+00  0.00000000000E+00  0.17400795427E+04  0.17400795427E+04  0.50400001928E-02 0.  1.
        1   -1    0    0  501    0  0.00000000000E+00  0.00000000000E+00 -0.21675973351E+04  0.21675973351E+04  0.50400001928E-02 0. -1.
    10030    2    1    2    0    0  0.00000000000E+00  0.00000000000E+00 -0.42751779237E+03  0.39076768779E+04  0.38842202717E+04 0.  0.
        3    1    3    3  502    0  0.36049419681E+03  0.15338496605E+04 -0.13560189574E+04  0.20788069343E+04  0.10100000352E+00 0. -1.
       -3    1    3    3    0  502 -0.36049419681E+03 -0.15338496605E+04  0.92850116499E+03  0.18288699436E+04  0.10100000352E+00 0.  1.
</event>
<event>
 5   0  0.1860500E-07  0.3877030E+04  0.7818609E-02  0.8029823E-01
       -1   -1    0    0    0  501  0.00000000000E+00  0.00000000000E+00  0.16258833551E+04  0.16258833551E+04  0.50400001928E-02 0.  1.
        1   -1    0    0  501    0  0.00000000000E+00  0.00000000000E+00 -0.23112613055E+04  0.23112613055E+04  0.50400001928E-02 0. -1.
    10030    2    1    2    0    0  0.00000000000E+00  0.00000000000E+00 -0.68537795039E+03  0.39371446605E+04  0.38770304542E+04 0.  0.
        5    1    3    3  502    0  0.10375002151E+04  0.45877608900E+02  0.13195499933E+04  0.16792098517E+04  0.46999998093E+01 0.  1.
       -5    1    3    3    0  502 -0.10375002151E+04 -0.45877608900E+02 -0.20049279437E+04  0.22579348088E+04  0.46999998093E+01 0. -1.
</event>
<event>
 5   0  0.3959190E-07  0.2996047E+04  0.7818609E-02  0.8244861E-01
        2   -1    0    0  501    0  0.00000000000E+00  0.00000000000E+00  0.26386277954E+04  0.26386277954E+04  0.25500000920E-02 0. -1.
       -2   -1    0    0    0  501  0.00000000000E+00  0.00000000000E+00 -0.85047022544E+03  0.85047022544E+03  0.25500000920E-02 0.  1.
    10030    2    1    2    0    0  0.00000000000E+00  0.00000000000E+00  0.17881575700E+04  0.34890980209E+04  0.29960469796E+04 0.  0.
        2    1    3    3  502    0 -0.72206462416E+03  0.11531664049E+04  0.16240537077E+04  0.21186600776E+04  0.25500000920E-02 0. -1.
       -2    1    3    3    0  502  0.72206462416E+03 -0.11531664049E+04  0.16410386229E+03  0.13704379433E+04  0.25500000920E-02 0.  1.
</event>
<event>
 5   0  0.5805753E-07  0.3008239E+04  0.7818609E-02  0.8241382E-01
        2   -1    0    0  501    0  0.00000000000E+00  0.00000000000E+00  0.99779765445E+03  0.99779765445E+03  0.25500000920E-02 0. -1.
       -2   -1    0    0    0  501  0.00000000000E+00  0.00000000000E+00 -0.22673696244E+04  0.22673696244E+04  0.25500000920E-02 0.  1.
    10030    2    1    2    0    0  0.00000000000E+00  0.00000000000E+00 -0.12695719699E+04  0.32651672788E+04  0.30082394140E+04 0.  0.
        1    1    3    3  502    0  0.69200628242E+03  0.37690712351E+03  0.75582651641E+03  0.10918815859E+04  0.50400001928E-02 0. -1.
       -1    1    3    3    0  502 -0.69200628242E+03 -0.37690712351E+03 -0.20253984863E+04  0.21732856929E+04  0.50400001928E-02 0.  1.
</event>
<event>
 5   0  0.1876027E-07  0.3524883E+04  0.7818609E-02  0.8107918E-01
        1   -1    0    0  501    0  0.00000000000E+00  0.00000000000E+00  0.19320912202E+04  0.19320912202E+04  0.50400001928E-02 0. -1.
       -1   -1    0    0    0  501  0.00000000000E+00  0.00000000000E+00 -0.16076882385E+04  0.16076882385E+04  0.50400001928E-02 0.  1.
    10030    2    1    2    0    0  0.00000000000E+00  0.00000000000E+00  0.32440298173E+03  0.35397794587E+04  0.35248831643E+04 0.  0.
        3    1    3    3  502    0  0.51644787320E+03  0.15994151605E+03 -0.15223560740E+04  0.16155085021E+04  0.10100000352E+00 0.  1.
       -3    1    3    3    0  502 -0.51644787320E+03 -0.15994151605E+03  0.18467590557E+04  0.19242709566E+04  0.10100000352E+00 0. -1.
</event>
<event>
 5   0  0.5805753E-07  0.3896941E+04  0.7818609E-02  0.8025666E-01
        2   -1    0    0  501    0  0.00000000000E+00  0.00000000000E+00  0.23797376636E+04  0.23797376636E+04  0.25500000920E-02 0. -1.
       -2   -1    0    0    0  501  0.00000000000E+00  0.00000000000E+00 -0.15953599518E+04  0.15953599518E+04  0.25500000920E-02 0.  1.
    10030    2    1    2    0    0  0.00000000000E+00  0.00000000000E+00  0.78437771187E+03  0.39750976154E+04  0.38969414490E+04 0.  0.
        1    1    3    3  502    0  0.31664789636E+03  0.59089880382E+03  0.22583922156E+04  0.23557934303E+04  0.50400001928E-02 0. -1.
       -1    1    3    3    0  502 -0.31664789636E+03 -0.59089880382E+03 -0.14740145037E+04  0.16193041851E+04  0.50400001928E-02 0.  1.
</event>
<event>
 5   0  0.5805753E-07  0.3370148E+04  0.7818609E-02  0.8145272E-01
       -2   -1    0    0    0  501  0.00000000000E+00  0.00000000000E+00  0.14208328716E+04  0.14208328716E+04  0.25500000920E-02 0. -1.
        2   -1    0    0  501    0  0.00000000000E+00  0.00000000000E+00 -0.19984579933E+04  0.19984579933E+04  0.25500000920E-02 0.  1.
    10030    2    1    2    0    0  0.00000000000E+00  0.00000000000E+00 -0.57762512164E+03  0.34192908649E+04  0.33701482516E+04 0.  0.
        1    1    3    3  502    0  0.89017251409E+03 -0.12877422805E+03 -0.17345416605E+04  0.19538742741E+04  0.50400001928E-02 0.  1.
       -1    1    3    3    0  502 -0.89017251409E+03  0.12877422805E+03  0.11569165389E+04  0.14654165908E+04  0.50400001928E-02 0. -1.
</event>
<event>
 5   0  0.5735179E-07  0.3170988E+04  0.7818609E-02  0.8196521E-01
        2   -1    0    0  501    0  0.00000000000E+00  0.00000000000E+00  0.25826572424E+04  0.25826572424E+04  0.25500000920E-02 0. -1.
       -2   -1    0    0    0  501  0.00000000000E+00  0.00000000000E+00 -0.97333520553E+03  0.97333520553E+03  0.25500000920E-02 0.  1.
    10030    2    1    2    0    0  0.00000000000E+00  0.00000000000E+00  0.16093220369E+04  0.35559924480E+04  0.31709879961E+04 0.  0.
        5    1    3    3  502    0 -0.54584888880E+03  0.76970817528E+03 -0.62414953044E+03  0.11313648443E+04  0.46999998093E+01 0.  1.
       -5    1    3    3    0  502  0.54584888880E+03 -0.76970817528E+03  0.22334715674E+04  0.24246276037E+04  0.46999998093E+01 0. -1.
</event>
<event>
 5   0  0.5805753E-07  0.3778276E+04  0.7818609E-02  0.8050833E-01
       -2   -1    0    0    0  501  0.00000000000E+00  0.00000000000E+00  0.11316852918E+04  0.11316852918E+04  0.25500000920E-02 0. -1.
        2   -1    0    0  501    0  0.00000000000E+00  0.00000000000E+00 -0.31535643818E+04  0.31535643818E+04  0.25500000920E-02 0.  1.
    10030    2    1    2    0    0  0.00000000000E+00  0.00000000000E+00 -0.20218790900E+04  0.42852496737E+04  0.37782760237E+04 0.  0.
        1    1    3    3  502    0  0.11522041200E+04  0.14363186656E+04 -0.53208293978E+03  0.19166893066E+04  0.50400001928E-02 0. -1.
       -1    1    3    3    0  502 -0.11522041200E+04 -0.14363186656E+04 -0.14897961502E+04  0.23685603671E+04  0.50400001928E-02 0.  1.
</event>
<event>
 5   0  0.1860500E-07  0.3915560E+04  0.7818609E-02  0.8021801E-01
       -1   -1    0    0    0  501  0.00000000000E+00  0.00000000000E+00  0.25117329319E+04  0.25117329320E+04  0.50400001928E-02 0.  1.
        1   -1    0    0  501    0  0.00000000000E+00  0.00000000000E+00 -0.15259995786E+04  0.15259995786E+04  0.50400001928E-02 0. -1.
    10030    2    1    2    0    0  0.00000000000E+00  0.00000000000E+00  0.98573335338E+03  0.40377325105E+04  0.39155604430E+04 0.  0.
        4    1    3    3  502    0 -0.68675541536E+03  0.35080978437E+03 -0.13627810425E+04  0.15658461891E+04  0.12699999809E+01 0. -1.
       -4    1    3    3    0  502  0.68675541536E+03 -0.35080978437E+03  0.23485143959E+04  0.24718863214E+04  0.12699999809E+01 0.  1.
</event>
<event>
 5   0  0.2666813E-07  0.3951587E+04  0.7818609E-02  0.8014385E-01
        1   -1    0    0  501    0  0.00000000000E+00  0.00000000000E+00  0.15123471059E+04  0.15123471059E+04  0.50400001928E-02 0. -1.
       -1   -1    0    0    0  501  0.00000000000E+00  0.00000000000E+00 -0.25812594773E+04  0.25812594773E+04  0.50400001928E-02 0.  1.
    10030    2    1    2    0    0  0.00000000000E+00  0.00000000000E+00 -0.10689123714E+04  0.40936065831E+04  0.39515871748E+04 0.  0.
        1    1    3    3  502    0 -0.15883112895E+04 -0.11745387366E+04 -0.57439437187E+03  0.20572318514E+04  0.50400001928E-02 0. -1.
       -1    1    3    3    0  502  0.15883112895E+04  0.11745387366E+04 -0.49451799955E+03  0.20363747317E+04  0.50400001928E-02 0.  1.
</event>
<event>
 5   0  0.2666813E-07  0.3863796E+04  0.7818609E-02  0.8032601E-01
        1   -1    0    0  501    0  0.00000000000E+00  0.00000000000E+00  0.19925644105E+04  0.19925644105E+04  0.50400001928E-02 0.  1.
       -1   -1    0    0    0  501  0.00000000000E+00  0.00000000000E+00 -0.18730785013E+04  0.18730785013E+04  0.50400001928E-02 0. -1.
    10030    2    1    2    0    0  0.00000000000E+00  0.00000000000E+00  0.11948590921E+03  0.38656429117E+04  0.38637958329E+04 0.  0.
        1    1    3    3  502    0  0.74191374387E+03  0.17724921742E+04  0.26000119765E+03  0.19390113805E+04  0.50400001928E-02 0.  1.
       -1    1    3    3    0  502 -0.74191374387E+03 -0.17724921742E+04 -0.14051528845E+03  0.19266315312E+04  0.50400001928E-02 0. -1.
</event>
<event>
 5   0  0.5872444E-07  0.3823846E+04  0.7818609E-02  0.8041057E-01
       -2   -1    0    0    0  501  0.00000000000E+00  0.00000000000E+00  0.14709803720E+04  0.14709803720E+04  0.25500000920E-02 0.  1.
        2   -1    0    0  501    0  0.00000000000E+00  0.00000000000E+00 -0.24850436639E+04  0.24850436639E+04  0.25500000920E-02 0. -1.
    10030    2    1    2    0    0  0.00000000000E+00  0.00000000000E+00 -0.10140632918E+04  0.39560240359E+04  0.38238464683E+04 0.  0.
        3    1    3    3  502    0 -0.93750380382E+03  0.10588796603E+04  0.82403029520E+03  0.16368156447E+04  0.10100000352E+00 0.  1.
       -3    1    3    3    0  502  0.93750380382E+03 -0.10588796603E+04 -0.18380935870E+04  0.23192083912E+04  0.10100000352E+00 0. -1.
</event>
<event>
 5   0  0.6095665E-07  0.3105867E+04  0.7818609E-02  0.8214130E-01
       -2   -1    0    0    0  501  0.00000000000E+00  0.00000000000E+00  0.11721231335E+04  0.11721231335E+04  0.25500000920E-02 0.  1.
        2   -1    0    0  501    0  0.00000000000E+00  0.00000000000E+00 -0.20574646640E+04  0.20574646640E+04  0.25500000920E-02 0. -1.
    10030    2    1    2    0    0  0.00000000000E+00  0.00000000000E+00 -0.88534153049E+03  0.32295877975E+04  0.31058666610E+04 0.  0.
        4    1    3    3  502    0 -0.61285983905E+03 -0.15761238428E+03 -0.19173167024E+04  0.20190452685E+04  0.12699999809E+01 0. -1.
       -4    1    3    3    0  502  0.61285983905E+03  0.15761238428E+03  0.10319751719E+04  0.12105425290E+04  0.12699999809E+01 0.  1.
</event>
<event>
 5   0  0.1860500E-07  0.2483004E+04  0.7818609E-02  0.8409066E-01
       -1   -1    0    0    0  501  0.00000000000E+00  0.00000000000E+00  0.13907930818E+04  0.13907930818E+04  0.50400001928E-02 0. -1.
        1   -1    0    0  501    0  0.00000000000E+00  0.00000000000E+00 -0.11082360691E+04  0.11082360691E+04  0.50400001928E-02 0.  1.
    10030    2    1    2    0    0  0.00000000000E+00  0.00000000000E+00  0.28255701273E+03  0.24990291509E+04  0.24830038726E+04 0.  0.
        5    1    3    3  502    0  0.55750543363E+03  0.24032550710E+03  0.12311972245E+04  0.13727481028E+04  0.46999998093E+01 0. -1.
       -5    1    3    3    0  502 -0.55750543363E+03 -0.24032550710E+03 -0.94864021182E+03  0.11262810481E+04  0.46999998093E+01 0.  1.
</event>
<event>
 5   0  0.1876027E-07  0.3895196E+04  0.7818609E-02  0.8026029E-01
       -1   -1    0    0    0  501  0.00000000000E+00  0.00000000000E+00  0.24014277690E+04  0.24014277690E+04  0.50400001928E-02 0. -1.
        1   -1    0    0  501    0  0.00000000000E+00  0.00000000000E+00 -0.15795341311E+04  0.15795341311E+04  0.50400001928E-02 0.  1.
    10030    2    1    2    0    0  0.00000000000E+00  0.00000000000E+00  0.82189363788E+03  0.39809619001E+04  0.38951955660E+04 0.  0.
        3    1    3    3  502    0 -0.27238038809E+03  0.15186442950E+04  0.16256731070E+04  0.22412685318E+04  0.10100000352E+00 0. -1.
       -3    1    3    3    0  502  0.27238038809E+03 -0.15186442950E+04 -0.80377946912E+03  0.17396933683E+04  0.10100000352E+00 0.  1.
</event>
<event>
 5   0  0.6095665E-07  0.2491798E+04  0.7818609E-02  0.8405914E-01
        2   -1    0    0  501    0  0.00000000000E+00  0.00000000000E+00  0.16644320221E+04  0.16644320221E+04  0.25500000920E-02 0. -1.
       -2   -1    0    0    0  501  0.00000000000E+00  0.00000000000E+00 -0.93260867033E+03  0.93260867034E+03  0.25500000920E-02 0.  1.
    10030    2    1    2    0    0  0.00000000000E+00  0.00000000000E+00  0.73182335179E+03  0.25970406925E+04  0.24917975319E+04 0.  0.
        4    1    3    3  502    0  0.18981044901E+03  0.65829550198E+03 -0.71865535812E+03  0.99289884235E+03  0.12699999809E+01 0.  1.
       -4    1    3    3    0  502 -0.18981044901E+03 -0.65829550198E+03  0.14504787099E+04  0.16041418501E+04  0.12699999809E+01 0. -1.
</event>
<event>
 5   0  0.2666813E-07  0.3813866E+04  0.7818609E-02  0.8043186E-01
       -1   -1    0    0    0  501  0.00000000000E+00  0.00000000000E+00  0.33893810329E+04  0.33893810329E+04  0.50400001928E-02 0.  1.
        1   -1    0    0  501    0  0.00000000000E+00  0.00000000000E+00 -0.10728781055E+04  0.10728781055E+04  0.50400001928E-02 0. -1.
    10030    2    1    2    0    0  0.00000000000E+00  0.00000000000E+00  0.23165029274E+04  0.44622591385E+04  0.38138655989E+04 0.  0.
        1    1    3    3  502    0 -0.26227055604E+03 -0.32102684953E+03 -0.10195221594E+04  0.11005769015E+04  0.50400001928E-02 0. -1.
       -1    1    3    3    0  502  0.26227055604E+03  0.32102684953E+03  0.33360250868E+04  0.33616822370E+04  0.50400001928E-02 0.  1.
</event>
<event>
 5   0  0.1943459E-07  0.3506585E+04  0.7818609E-02  0.8112231E-01
       -1   -1    0    0    0  501  0.00000000000E+00  0.00000000000E+00  0.15425758077E+04  0.15425758077E+04  0.50400001928E-02 0. -1.
        1   -1    0    0  501    0  0.00000000000E+00  0.00000000000E+00 -0.19927936073E+04  0.19927936073E+04  0.50400001928E-02 0.  1.
    10030    2    1    2    0    0  0.00000000000E+00  0.00000000000E+00 -0.45021779957E+03  0.35353694150E+04  0.35065853524E+04 0.  0.
        2    1    3    3  502    0  0.12295726350E+03  0.15753514046E+04 -0.99107188080E+03  0.18652276026E+04  0.25500000920E-02 0.  1.
       -2    1    3    3    0  502 -0.12295726350E+03 -0.15753514046E+04  0.54085408123E+03  0.16701418124E+04  0.25500000920E-02 0. -1.
</event>
<event>
 5   0  0.1860500E-07  0.2537842E+04  0.7818609E-02  0.8389627E-01
        1   -1    0    0  501    0  0.00000000000E+00  0.00000000000E+00  0.10574588896E+04  0.10574588896E+04  0.50400001928E-02 0.  1.
       -1   -1    0    0    0  501  0.00000000000E+00  0.00000000000E+00 -0.15226694380E+04  0.15226694380E+04  0.50400001928E-02 0. -1.
    10030    2    1    2    0    0  0.00000000000E+00  0.00000000000E+00 -0.46521054842E+03  0.25801283276E+04  0.25378418652E+04 0.  0.
        4    1    3    3  502    0  0.28816691953E+03  0.12349251701E+04 -0.18625649624E+03  0.12817072382E+04  0.12699999809E+01 0. -1.
       -4    1    3    3    0  502 -0.28816691953E+03 -0.12349251701E+04 -0.27895405218E+03  0.12984210894E+04  0.12699999809E+01 0.  1.
</event>
<event>
 5   0  0.1943459E-07  0.3897981E+04  0.7818609E-02  0.8025449E-01
        1   -1    0    0  501    0  0.00000000000E+00  0.00000000000E+00  0.31722082234E+04  0.31722082234E+04  0.50400001928E-02 0. -1.
       -1   -1    0    0    0  501  0.00000000000E+00  0.00000000000E+00 -0.11974509836E+04  0.11974509836E+04  0.50400001928E-02 0.  1.
    10030    2    1    2    0    0  0.00000000000E+00  0.00000000000E+00  0.19747572399E+04  0.43696592070E+04  0.38979809426E+04 0.  0.
        2    1    3    3  502    0 -0.70357063782E+03  0.16801188134E+04  0.17646431542E+04  0.25360947008E+04  0.25500000920E-02 0. -1.
       -2    1    3    3    0  502  0.70357063782E+03 -0.16801188134E+04  0.21011408567E+03  0.18335645062E+04  0.25500000920E-02 0.  1.
</event>
<event>
 5   0  0.1860500E-07  0.3935585E+04  0.7818609E-02  0.8017669E-01
        1   -1    0    0  501    0  0.00000000000E+00  0.00000000000E+00  0.16049877695E+04  0.16049877695E+04  0.50400001928E-02 0.  1.
       -1   -1    0    0    0  501  0.00000000000E+00  0.00000000000E+00 -0.24126090436E+04  0.24126090437E+04  0.50400001928E-02 0. -1.
    10030    2    1    2    0    0  0.00000000000E+00  0.00000000000E+00 -0.80762127419E+03  0.40175968131E+04  0.39355853479E+04 0.  0.
        4    1    3    3  502    0  0.69278400117E+03 -0.11801634590E+03 -0.22801352597E+04  0.23859790329E+04  0.12699999809E+01 0. -1.
       -4    1    3    3    0  502 -0.69278400117E+03  0.11801634590E+03  0.14725139855E+04  0.16316177802E+04  0.12699999809E+01 0.  1.
</event>
<event>
 5   0  0.1876027E-07  0.3759981E+04  0.7818609E-02  0.8054798E-01
       -1   -1    0    0    0  501  0.00000000000E+00  0.00000000000E+00  0.19215794453E+04  0.19215794453E+04  0.50400001928E-02 0. -1.
        1   -1    0    0  501    0  0.00000000000E+00  0.00000000000E+00 -0.18393017776E+04  0.18393017776E+04  0.50400001928E-02 0.  1.
    10030    2    1    2    0    0  0.00000000000E+00  0.00000000000E+00  0.82277667650E+02  0.37608812229E+04  0.37599811114E+04 0.  0.
        3    1    3    3  502    0 -0.91877544582E+03  0.47671542926E+03 -0.15286184494E+04  0.18460986686E+04  0.10100000352E+00 0.  1.
       -3    1    3    3    0  502  0.91877544582E+03 -0.47671542926E+03  0.16108961170E+04  0.19147825543E+04  0.10100000352E+00 0. -1.
</event>
<event>
 5   0  0.1860500E-07  0.2519595E+04  0.7818609E-02  0.8396038E-01
       -1   -1    0    0    0  501  0.00000000000E+00  0.00000000000E+00  0.28942626321E+04  0.28942626321E+04  0.50400001928E-02 0. -1.
        1   -1    0    0  501    0  0.00000000000E+00  0.00000000000E+00 -0.54835720773E+03  0.54835720775E+03  0.50400001928E-02 0.  1.
    10030    2    1    2    0    0  0.00000000000E+00  0.00000000000E+00  0.23459054244E+04  0.34426198399E+04  0.25195950273E+04 0.  0.
        4    1    3    3  502    0  0.11279083297E+04  0.25181016169E+01  0.19396922202E+04  0.22437894427E+04  0.12699999809E+01 0. -1.
       -4    1    3    3    0  502 -0.11279083297E+04 -0.25181016169E+01  0.40621320419E+03  0.11988303972E+04  0.12699999809E+01 0.  1.
</event>
<event>
 5   0  0.5872444E-07  0.3872805E+04  0.7818609E-02  0.8030709E-01
        2   -1    0    0  501    0  0.00000000000E+00  0.00000000000E+00  0.25003202506E+04  0.25003202507E+04  0.25500000920E-02 0.  1.
       -2   -1    0    0    0  501  0.00000000000E+00  0.00000000000E+00 -0.14996698280E+04  0.14996698280E+04  0.25500000920E-02 0. -1.
    10030    2    1    2    0    0  0.00000000000E+00  0.00000000000E+00  0.10006504227E+04  0.39999900786E+04  0.38728051024E+04 0.  0.
        3    1    3    3  502    0  0.15354893096E+04  0.81210696262E+03 -0.38358940109E+03  0.17788721082E+04  0.10100000352E+00 0. -1.
       -3    1    3    3    0  502 -0.15354893096E+04 -0.81210696262E+03  0.13842398237E+04  0.22211179704E+04  0.10100000352E+00 0.  1.
</event>
<event>
 5   0  0.1943459E-07  0.4132992E+04  0.7818609E-02  0.7978242E-01
       -1   -1    0    0    0  501  0.00000000000E+00  0.00000000000E+00  0.22691467535E+04  0.22691467535E+04  0.50400001928E-02 0. -1.
        1   -1    0    0  501    0  0.00000000000E+00  0.00000000000E+00 -0.18819433695E+04  0.18819433695E+04  0.50400001928E-02 0.  1.
    10030    2    1    2    0    0  0.00000000000E+00  0.00000000000E+00  0.38720338392E+03  0.41510901230E+04  0.41329919851E+04 0.  0.
        2    1    3    3  502    0  0.62589752815E+03 -0.18462220926E+04 -0.49505514980E+03  0.20113088605E+04  0.25500000920E-02 0.  1.
       -2    1    3    3    0  502 -0.62589752815E+03  0.18462220926E+04  0.88225853373E+03  0.21397812625E+04  0.25500000920E-02 0. -1.
</event>
<event>
 5   0  0.1876027E-07  0.3935703E+04  0.7818609E-02  0.8017644E-01
        1   -1    0    0  501    0  0.00000000000E+00  0.00000000000E+00  0.28449406019E+04  0.28449406019E+04  0.50400001928E-02 0. -1.
       -1   -1    0    0    0  501  0.00000000000E+00  0.00000000000E+00 -0.13611673443E+04  0.13611673443E+04  0.50400001928E-02 0.  1.
    10030    2    1    2    0    0  0.00000000000E+00  0.00000000000E+00  0.14837732576E+04  0.42061079462E+04  0.39357033647E+04 0.  0.
        3    1    3    3  502    0  0.16337503125E+04 -0.13967103985E+03  0.19046618925E+04  0.25132419338E+04  0.10100000352E+00 0. -1.
       -3    1    3    3    0  502 -0.16337503125E+04  0.13967103985E+03 -0.42088863491E+03  0.16928660124E+04  0.10100000352E+00 0.  1.
</event>
<event>
 5   0  0.5735179E-07  0.3829827E+04  0.7818609E-02  0.8039784E-01
       -2   -1    0    0    0  501  0.00000000000E+00  0.00000000000E+00  0.17755009078E+04  0.17755009078E+04  0.25500000920E-02 0.  1.
        2   -1    0    0  501    0  0.00000000000E+00  0.00000000000E+00 -0.20652723672E+04  0.20652723672E+04  0.25500000920E-02 0. -1.
    10030    2    1    2    0    0  0.00000000000E+00  0.00000000000E+00 -0.28977145940E+03  0.38407732749E+04  0.38298266084E+04 0.  0.
        5    1    3    3  502    0  0.93065360591E+03  0.12134743950E+04 -0.13006704763E+04  0.20075861176E+04  0.46999998093E+01 0. -1.
       -5    1    3    3    0  502 -0.93065360591E+03 -0.12134743950E+04  0.10108990169E+04  0.18331871574E+04  0.46999998093E+01 0.  1.
</event>
<event>
 5   0  0.5805753E-07  0.3877098E+04  0.7818609E-02  0.8029809E-01
       -2   -1    0    0    0  501  0.00000000000E+00  0.00000000000E+00  0.25163898485E+04  0.25163898485E+04  0.25500000920E-02 0. -1.
        2   -1    0    0  501    0  0.00000000000E+00  0.00000000000E+00 -0.14933986068E+04  0.14933986068E+04  0.25500000920E-02 0.  1.
    10030    2    1    2    0    0  0.00000000000E+00  0.00000000000E+00  0.10229912418E+04  0.40097884553E+04  0.38770984480E+04 0.  0.
        1    1    3    3  502    0  0.68217958286E+03 -0.60255038899E+03  0.22816621975E+04  0.24565053100E+04  0.50400001928E-02 0. -1.
       -1    1    3    3    0  502 -0.68217958286E+03  0.60255038899E+03 -0.12586709558E+04  0.15532831453E+04  0.50400001928E-02 0.  1.
</event>
<event>
 5   0  0.2666813E-07  0.3874330E+04  0.7818609E-02  0.8030389E-01
        1   -1    0    0  501    0  0.00000000000E+00  0.00000000000E+00  0.18517487088E+04  0.18517487088E+04  0.50400001928E-02 0. -1.
       -1   -1    0    0    0  501  0.00000000000E+00  0.00000000000E+00 -0.20265214034E+04  0.20265214035E+04  0.50400001928E-02 0.  1.
    10030    2    1    2    0    0  0.00000000000E+00  0.00000000000E+00 -0.17477269464E+03  0.38782701123E+04  0.38743300800E+04 0.  0.
        1    1    3    3  502    0  0.10473315697E+04 -0.10628653821E+02  0.15438696124E+04  0.18656231574E+04  0.50400001928E-02 0. -1.
       -1    1    3    3    0  502 -0.10473315697E+04  0.10628653821E+02 -0.17186423071E+04  0.20126469549E+04  0.50400001928E-02 0.  1.
</event>
<event>
 5   0  0.3959190E-07  0.3986146E+04  0.7818609E-02  0.8007347E-01
        2   -1    0    0  501    0  0.00000000000E+00  0.00000000000E+00  0.28620542814E+04  0.28620542814E+04  0.25500000920E-02 0.  1.
       -2   -1    0    0    0  501  0.00000000000E+00  0.00000000000E+00 -0.13879333229E+04  0.13879333229E+04  0.25500000920E-02 0. -1.
    10030    2    1    2    0    0  0.00000000000E+00  0.00000000000E+00  0.14741209585E+04  0.42499876043E+04  0.39861462638E+04 0.  0.
        2    1    3    3  502    0  0.15334361723E+04 -0.85543138946E+03  0.17424219353E+04  0.24737064412E+04  0.25500000920E-02 0.  1.
       -2    1    3    3    0  502 -0.15334361723E+04  0.85543138946E+03 -0.26830097672E+03  0.17762811632E+04  0.25500000920E-02 0. -1.
</event>
<event>
 5   0  0.1860500E-07  0.3919458E+04  0.7818609E-02  0.8020994E-01
       -1   -1    0    0    0  501  0.00000000000E+00  0.00000000000E+00  0.24628509785E+04  0.24628509786E+04  0.50400001928E-02 0.  1.
        1   -1    0    0  501    0  0.00000000000E+00  0.00000000000E+00 -0.15593872486E+04  0.15593872486E+04  0.50400001928E-02 0. -1.
    10030    2    1    2    0    0  0.00000000000E+00  0.00000000000E+00  0.90346372996E+03  0.40222382271E+04  0.39194583356E+04 0.  0.
        5    1    3    3  502    0  0.32682160742E+03  0.26080002652E+03 -0.15130730900E+04  0.15697902034E+04  0.46999998093E+01 0. -1.
       -5    1    3    3    0  502 -0.32682160742E+03 -0.26080002652E+03  0.24165368200E+04  0.24524480238E+04  0.46999998093E+01 0.  1.
</event>
<event>
 5   0  0.1860500E-07  0.2710717E+04  0.7818609E-02  0.8331536E-01
        1   -1    0    0  501    0  0.00000000000E+00  0.00000000000E+00  0.13402977739E+04  0.13402977739E+04  0.50400001928E-02 0.  1.
       -1   -1    0    0    0  501  0.00000000000E+00  0.00000000000E+00 -0.13705880963E+04  0.13705880963E+04  0.50400001928E-02 0. -1.
    10030    2    1    2    0    0  0.00000000000E+00  0.00000000000E+00 -0.30290322402E+02  0.27108858702E+04  0.27107166391E+04 0.  0.
        4    1    3    3  502    0  0.12178136664E+03  0.11369678660E+04  0.71254573728E+03  0.13473120166E+04  0.12699999809E+01 0.  1.
       -4    1    3    3    0  502 -0.12178136664E+03 -0.11369678660E+04 -0.74283605968E+03  0.13635738535E+04  0.12699999809E+01 0. -1.
</event>
<event>
 5   0  0.1876027E-07  0.3961571E+04  0.7818609E-02  0.8012344E-01
        1   -1    0    0  501    0  0.00000000000E+00  0.00000000000E+00  0.17611159481E+04  0.17611159481E+04  0.50400001928E-02 0.  1.
       -1   -1    0    0    0  501  0.00000000000E+00  0.00000000000E+00 -0.22278551641E+04  0.22278551641E+04  0.50400001928E-02 0. -1.
    10030    2    1    2    0    0  0.00000000000E+00  0.00000000000E+00 -0.46673921604E+03  0.39889711122E+04  0.39615710316E+04 0.  0.
        3    1    3    3  502    0  0.14429456169E+04  0.10832653716E+04 -0.10563076784E+04  0.20907754161E+04  0.10100000352E+00 0. -1.
       -3    1    3    3    0  502 -0.14429456169E+04 -0.10832653716E+04  0.58956846233E+03  0.18981956961E+04  0.10100000352E+00 0.  1.
</event>
<event>
 5   0  0.5872444E-07  0.3962755E+04  0.7818609E-02  0.8012102E-01
        2   -1    0    0  501    0  0.00000000000E+00  0.00000000000E+00  0.16102590977E+04  0.16102590977E+04  0.25500000920E-02 0.  1.
       -2   -1    0    0    0  501  0.00000000000E+00  0.00000000000E+00 -0.24380279680E+04  0.24380279680E+04  0.25500000920E-02 0. -1.
    10030    2    1    2    0    0  0.00000000000E+00  0.00000000000E+00 -0.82776887032E+03  0.40482870657E+04  0.39627549588E+04 0.  0.
        3    1    3    3  502    0  0.67481879938E+03  0.18490498515E+04 -0.18207052407E+03  0.19767436484E+04  0.10100000352E+00 0.  1.
       -3    1    3    3    0  502 -0.67481879938E+03 -0.18490498515E+04 -0.64569834625E+03  0.20715434173E+04  0.10100000352E+00 0. -1.
</event>
<event>
 5   0  0.3959190E-07  0.2612259E+04  0.7818609E-02  0.8364049E-01
        2   -1    0    0  501    0  0.00000000000E+00  0.00000000000E+00  0.28151280816E+04  0.28151280816E+04  0.25500000920E-02 0. -1.
       -2   -1    0    0    0  501  0.00000000000E+00  0.00000000000E+00 -0.60600238687E+03  0.60600238688E+03  0.25500000920E-02 0.  1.
    10030    2    1    2    0    0  0.00000000000E+00  0.00000000000E+00  0.22091256947E+04  0.34211304684E+04  0.26122590505E+04 0.  0.
        2    1    3    3  502    0  0.36072682321E+03 -0.41414204469E+02 -0.53857663590E+03  0.64954119966E+03  0.25500000920E-02 0.  1.
       -2    1    3    3    0  502 -0.36072682321E+03  0.41414204469E+02  0.27477023306E+04  0.27715892688E+04  0.25500000920E-02 0. -1.
</event>
<event>
 5   0  0.1860500E-07  0.3884602E+04  0.7818609E-02  0.8028239E-01
       -1   -1    0    0    0  501  0.00000000000E+00  0.00000000000E+00  0.24916284195E+04  0.24916284195E+04  0.50400001928E-02 0. -1.
        1   -1    0    0  501    0  0.00000000000E+00  0.00000000000E+00 -0.15140829921E+04  0.15140829921E+04  0.50400001928E-02 0.  1.
    10030    2    1    2    0    0  0.00000000000E+00  0.00000000000E+00  0.97754542740E+03  0.40057114115E+04  0.38846015046E+04 0.  0.
        4    1    3    3  502    0  0.18574663131E+04 -0.41599002648E+03  0.88721524952E+03  0.21000907881E+04  0.12699999809E+01 0. -1.
       -4    1    3    3    0  502 -0.18574663131E+04  0.41599002648E+03  0.90330177876E+02  0.19056206234E+04  0.12699999809E+01 0.  1.
</event>
<event>
 5   0  0.1860500E-07  0.3910623E+04  0.7818609E-02  0.8022823E-01
        1   -1    0    0  501    0  0.00000000000E+00  0.00000000000E+00  0.24246870421E+04  0.24246870421E+04  0.50400001928E-02 0.  1.
       -1   -1    0    0    0  501  0.00000000000E+00  0.00000000000E+00 -0.15767983722E+04  0.15767983722E+04  0.50400001928E-02 0. -1.
    10030    2    1    2    0    0  0.00000000000E+00  0.00000000000E+00  0.84788866984E+03  0.40014854143E+04  0.39106227541E+04 0.  0.
        5    1    3    3  502    0 -0.12939114113E+04  0.14398147219E+04  0.14195574590E+03  0.19409911637E+04  0.46999998093E+01 0. -1.
       -5    1    3    3    0  502  0.12939114113E+04 -0.14398147219E+04  0.70593292395E+03  0.20604942506E+04  0.46999998093E+01 0.  1.
</event>
<event>
 5   0  0.5805753E-07  0.3923289E+04  0.7818609E-02  0.8020203E-01
        2   -1    0    0  501    0  0.00000000000E+00  0.00000000000E+00  0.16454314198E+04  0.16454314198E+04  0.25500000920E-02 0.  1.
       -2   -1    0    0    0  501  0.00000000000E+00  0.00000000000E+00 -0.23386258943E+04  0.23386258943E+04  0.25500000920E-02 0. -1.
    10030    2    1    2    0    0  0.00000000000E+00  0.00000000000E+00 -0.69319447454E+03  0.39840573141E+04  0.39232886846E+04 0.  0.
        1    1    3    3  502    0 -0.15642094959E+04  0.61672882296E+02  0.85386977618E+03  0.17831568877E+04  0.50400001928E-02 0.  1.
       -1    1    3    3    0  502  0.15642094959E+04 -0.61672882296E+02 -0.15470642507E+04  0.22009004265E+04  0.50400001928E-02 0. -1.
</event>
<event>
 5   0  0.1943459E-07  0.3041345E+04  0.7818609E-02  0.8232022E-01
       -1   -1    0    0    0  501  0.00000000000E+00  0.00000000000E+00  0.15630845838E+04  0.15630845838E+04  0.50400001928E-02 0. -1.
        1   -1    0    0  501    0  0.00000000000E+00  0.00000000000E+00 -0.14794111169E+04  0.14794111169E+04  0.50400001928E-02 0.  1.
    10030    2    1    2    0    0  0.00000000000E+00  0.00000000000E+00  0.83673466883E+02  0.30424957007E+04  0.30413449064E+04 0.  0.
        2    1    3    3  502    0  0.74983528802E+03  0.12578010988E+04 -0.36835274055E+03  0.15099669879E+04  0.25500000920E-02 0. -1.
       -2    1    3    3    0  502 -0.74983528802E+03 -0.12578010988E+04  0.45202620743E+03  0.15325287128E+04  0.25500000920E-02 0.  1.
</event>
<event>
 5   0  0.5872444E-07  0.3968382E+04  0.7818609E-02  0.8010955E-01
       -2   -1    0    0    0  501  0.00000000000E+00  0.00000000000E+00  0.21490841879E+04  0.21490841879E+04  0.25500000920E-02 0.  1.
        2   -1    0    0  501    0  0.00000000000E+00  0.00000000000E+00 -0.18319498381E+04  0.18319498381E+04  0.25500000920E-02 0. -1.
    10030    2    1    2    0    0  0.00000000000E+00  0.00000000000E+00  0.31713434977E+03  0.39810340260E+04  0.39683822548E+04 0.  0.
        3    1    3    3  502    0  0.32493150890E+03 -0.85249900311E+03 -0.16090604064E+04  0.18497055002E+04  0.10100000352E+00 0. -1.
       -3    1    3    3    0  502 -0.32493150890E+03  0.85249900311E+03  0.19261947562E+04  0.21313285258E+04  0.10100000352E+00 0.  1.
</event>
<event>
 5   0  0.1860500E-07  0.3885319E+04  0.7818609E-02  0.8028090E-01
        1   -1    0    0  501    0  0.00000000000E+00  0.00000000000E+00  0.12970616964E+04  0.12970616964E+04  0.50400001928E-02 0.  1.
       -1   -1    0    0    0  501  0.00000000000E+00  0.00000000000E+00 -0.29095957869E+04  0.29095957869E+04  0.50400001928E-02 0. -1.
    10030    2    1    2    0    0  0.00000000000E+00  0.00000000000E+00 -0.16125340905E+04  0.42066574833E+04  0.38853186471E+04 0.  0.
        5    1    3    3  502    0 -0.12000784691E+03  0.49626986381E+03  0.12231113293E+04  0.13254090217E+04  0.46999998093E+01 0.  1.
       -5    1    3    3    0  502  0.12000784691E+03 -0.49626986381E+03 -0.28356454198E+04  0.28812484616E+04  0.46999998093E+01 0. -1.
</event>
<event>
 5   0  0.1943459E-07  0.3759684E+04  0.7818609E-02  0.8054862E-01
       -1   -1    0    0    0  501  0.00000000000E+00  0.00000000000E+00  0.14014226681E+04  0.14014226681E+04  0.50400001928E-02 0. -1.
        1   -1    0    0  501    0  0.00000000000E+00  0.00000000000E+00 -0.25215841772E+04  0.25215841772E+04  0.50400001928E-02 0.  1.
    10030    2    1    2    0    0  0.00000000000E+00  0.00000000000E+00 -0.11201615091E+04  0.39230068453E+04  0.37596836172E+04 0.  0.
        2    1    3    3  502    0  0.28586931721E+03 -0.10164340526E+04 -0.21829399196E+04  0.24248888928E+04  0.25500000920E-02 0.  1.
       -2    1    3    3    0  502 -0.28586931721E+03  0.10164340526E+04  0.10627784105E+04  0.14981179525E+04  0.25500000920E-02 0. -1.
</event>
<event>
 5   0  0.5872444E-07  0.3949971E+04  0.7818609E-02  0.8014716E-01
        2   -1    0    0  501    0  0.00000000000E+00  0.00000000000E+00  0.31679987594E+04  0.31679987594E+04  0.25500000920E-02 0.  1.
       -2   -1    0    0    0  501  0.00000000000E+00  0.00000000000E+00 -0.12312404545E+04  0.12312404545E+04  0.25500000920E-02 0. -1.
    10030    2    1    2    0    0  0.00000000000E+00  0.00000000000E+00  0.19367583050E+04  0.43992392139E+04  0.39499712568E+04 0.  0.
        3    1    3    3  502    0  0.74395465261E+03  0.15442589200E+04  0.20609594032E+04  0.26806263837E+04  0.10100000352E+00 0.  1.
       -3    1    3    3    0  502 -0.74395465261E+03 -0.15442589200E+04 -0.12420109826E+03  0.17186128302E+04  0.10100000352E+00 0. -1.
</event>
<event>
 5   0  0.2666813E-07  0.3824498E+04  0.7818609E-02  0.8040918E-01
        1   -1    0    0  501    0  0.00000000000E+00  0.00000000000E+00  0.14552005809E+04  0.14552005809E+04  0.50400001928E-02 0.  1.
       -1   -1    0    0    0  501  0.00000000000E+00  0.00000000000E+00 -0.25128464527E+04  0.25128464527E+04  0.50400001928E-02 0. -1.
    10030    2    1    2    0    0  0.00000000000E+00  0.00000000000E+00 -0.10576458718E+04  0.39680470336E+04  0.38244976756E+04 0.  0.
        1    1    3    3  502    0  0.13267023849E+04 -0.18318418166E+03 -0.19449715516E+04  0.23614847022E+04  0.50400001928E-02 0. -1.
       -1    1    3    3    0  502 -0.13267023849E+04  0.18318418166E+03  0.88732567976E+03  0.16065623313E+04  0.50400001928E-02 0.  1.
</event>
<event>
 5   0  0.2666813E-07  0.3887338E+04  0.7818609E-02  0.8027668E-01
        1   -1    0    0  501    0  0.00000000000E+00  0.00000000000E+00  0.35492837552E+04  0.35492837552E+04  0.50400001928E-02 0.  1.
       -1   -1    0    0    0  501  0.00000000000E+00  0.00000000000E+00 -0.10643974592E+04  0.10643974592E+04  0.50400001928E-02 0. -1.
    10030    2    1    2    0    0  0.00000000000E+00  0.00000000000E+00  0.24848862960E+04  0.46136812145E+04  0.38873377065E+04 0.  0.
        1    1    3    3  502    0  0.15496146914E+04 -0.90591689567E+03  0.35757808903E+03  0.18302604196E+04  0.50400001928E-02 0. -1.
       -1    1    3    3    0  502 -0.15496146914E+04  0.90591689567E+03  0.21273082070E+04  0.27834207949E+04  0.50400001928E-02 0.  1.
</event>
<event>
 5   0  0.5872444E-07  0.3885919E+04  0.7818609E-02  0.8027964E-01
       -2   -1    0    0    0  501  0.00000000000E+00  0.00000000000E+00  0.12180301528E+04  0.12180301528E+04  0.25500000920E-02 0.  1.
        2   -1    0    0  501    0  0.00000000000E+00  0.00000000000E+00 -0.30993413293E+04  0.30993413293E+04  0.25500000920E-02 0. -1.
    10030    2    1    2    0    0  0.00000000000E+00  0.00000000000E+00 -0.18813111765E+04  0.43173714821E+04  0.38859187809E+04 0.  0.
        3    1    3    3  502    0 -0.93607196144E+03  0.11035325940E+04 -0.23811759765E+04  0.27863980233E+04  0.10100000352E+00 0.  1.
       -3    1    3    3    0  502  0.93607196144E+03 -0.11035325940E+04  0.49986479998E+03  0.15309734588E+04  0.10100000352E+00 0. -1.
</event>
<event>
 5   0  0.1943459E-07  0.3193269E+04  0.7818609E-02  0.8190597E-01
       -1   -1    0    0    0  501  0.00000000000E+00  0.00000000000E+00  0.13678147068E+04  0.13678147068E+04  0.50400001928E-02 0.  1.
        1   -1    0    0  501    0  0.00000000000E+00  0.00000000000E+00 -0.18637332963E+04  0.18637332963E+04  0.50400001928E-02 0. -1.
    10030    2    1    2    0    0  0.00000000000E+00  0.00000000000E+00 -0.49591858950E+03  0.32315480031E+04  0.31932690537E+04 0.  0.
        2    1    3    3  502    0 -0.65485770392E+03  0.29576085840E+02 -0.17212712910E+04  0.18418708463E+04  0.25500000920E-02 0. -1.
       -2    1    3    3    0  502  0.65485770392E+03 -0.29576085840E+02  0.12253527015E+04  0.13896771569E+04  0.25500000920E-02 0.  1.
</event>
<event>
 5   0  0.2666813E-07  0.2729005E+04  0.7818609E-02  0.8325655E-01
        1   -1    0    0  501    0  0.00000000000E+00  0.00000000000E+00  0.86275421161E+03  0.86275421163E+03  0.50400001928E-02 0.  1.
       -1   -1    0    0    0  501  0.00000000000E+00  0.00000000000E+00 -0.21580501656E+04  0.21580501656E+04  0.50400001928E-02 0. -1.
    10030    2    1    2    0    0  0.00000000000E+00  0.00000000000E+00 -0.12952959540E+04  0.30208043773E+04  0.27290048511E+04 0.  0.
        1    1    3    3  502    0 -0.19731027740E+02 -0.45301546495E+03 -0.20722115524E+04  0.21212432776E+04  0.50400001928E-02 0. -1.
       -1    1    3    3    0  502  0.19731027740E+02  0.45301546495E+03  0.77691559839E+03  0.89956109964E+03  0.50400001928E-02 0.  1.
</event>
<event>
 5   0  0.5872444E-07  0.3760393E+04  0.7818609E-02  0.8054708E-01
       -2   -1    0    0    0  501  0.00000000000E+00  0.00000000000E+00  0.19748480060E+04  0.19748480060E+04  0.25500000920E-02 0.  1.
        2   -1    0    0  501    0  0.00000000000E+00  0.00000000000E+00 -0.17900817619E+04  0.17900817619E+04  0.25500000920E-02 0. -1.
    10030    2    1    2    0    0  0.00000000000E+00  0.00000000000E+00  0.18476624408E+03  0.37649297679E+04  0.37603932763E+04 0.  0.
        3    1    3    3  502    0  0.18024523837E+04  0.53428542407E+03  0.12146774923E+03  0.18838922299E+04  0.10100000352E+00 0.  1.
       -3    1    3    3    0  502 -0.18024523837E+04 -0.53428542407E+03  0.63298494844E+02  0.18810375380E+04  0.10100000352E+00 0. -1.
</event>
<event>
 5   0  0.1860500E-07  0.3982467E+04  0.7818609E-02  0.8008093E-01
       -1   -1    0    0    0  501  0.00000000000E+00  0.00000000000E+00  0.17633191132E+04  0.17633191132E+04  0.50400001928E-02 0. -1.
        1   -1    0    0  501    0  0.00000000000E+00  0.00000000000E+00 -0.22486059646E+04  0.22486059646E+04  0.50400001928E-02 0.  1.
    10030    2    1    2    0    0  0.00000000000E+00  0.00000000000E+00 -0.48528685137E+03  0.40119250778E+04  0.39824665098E+04 0.  0.
        5    1    3    3  502    0 -0.12254112131E+04  0.86592289436E+02 -0.18213528884E+04  0.21969249645E+04  0.46999998093E+01 0.  1.
       -5    1    3    3    0  502  0.12254112131E+04 -0.86592289436E+02  0.13360660370E+04  0.18150001132E+04  0.46999998093E+01 0. -1.
</event>
<event>
 5   0  0.5805753E-07  0.3662650E+04  0.7818609E-02  0.8076290E-01
        2   -1    0    0  501    0  0.00000000000E+00  0.00000000000E+00  0.25462772535E+04  0.25462772535E+04  0.25500000920E-02 0. -1.
       -2   -1    0    0    0  501  0.00000000000E+00  0.00000000000E+00 -0.13171196107E+04  0.13171196107E+04  0.25500000920E-02 0.  1.
    10030    2    1    2    0    0  0.00000000000E+00  0.00000000000E+00  0.12291576428E+04  0.38633968642E+04  0.36626502453E+04 0.  0.
        1    1    3    3  502    0 -0.69187785985E+02 -0.18299038129E+04  0.63611322310E+03  0.19385497019E+04  0.50400001928E-02 0.  1.
       -1    1    3    3    0  502  0.69187785985E+02  0.18299038129E+04  0.59304441971E+03  0.19248471623E+04  0.50400001928E-02 0. -1.
</event>
<event>
 5   0  0.1943459E-07  0.3650681E+04  0.7818609E-02  0.8078980E-01
        1   -1    0    0  501    0  0.00000000000E+00  0.00000000000E+00  0.23878545922E+04  0.23878545922E+04  0.50400001928E-02 0. -1.
       -1   -1    0    0    0  501  0.00000000000E+00  0.00000000000E+00 -0.13953397283E+04  0.13953397283E+04  0.50400001928E-02 0.  1.
    10030    2    1    2    0    0  0.00000000000E+00  0.00000000000E+00  0.99251486389E+03  0.37831943205E+04  0.36506812394E+04 0.  0.
        2    1    3    3  502    0  0.47364994892E+03  0.55795894636E+03 -0.12366258436E+04  0.14369780573E+04  0.25500000920E-02 0.  1.
       -2    1    3    3    0  502 -0.47364994892E+03 -0.55795894636E+03  0.22291407075E+04  0.23462162632E+04  0.25500000920E-02 0. -1.
</event>
<event>
 5   0  0.1943459E-07  0.3684024E+04  0.7818609E-02  0.8071512E-01
        1   -1    0    0  501    0  0.00000000000E+00  0.00000000000E+00  0.22770949881E+04  0.22770949881E+04  0.50400001928E-02 0.  1.
       -1   -1    0    0    0  501  0.00000000000E+00  0.00000000000E+00 -0.14900601653E+04  0.14900601653E+04  0.50400001928E-02 0. -1.
    10030    2    1    2    0    0  0.00000000000E+00  0.00000000000E+00  0.78703482286E+03  0.37671551534E+04  0.36840241771E+04 0.  0.
        2    1    3    3  502    0  0.15376992520E+04 -0.48230534317E+03 -0.51872950318E+03  0.16929907653E+04  0.25500000920E-02 0. -1.
       -2    1    3    3    0  502 -0.15376992520E+04  0.48230534317E+03  0.13057643260E+04  0.20741643881E+04  0.25500000920E-02 0.  1.
</event>
<event>
 5   0  0.1860500E-07  0.3428717E+04  0.7818609E-02  0.8130894E-01
       -1   -1    0    0    0  501  0.00000000000E+00  0.00000000000E+00  0.14835407724E+04  0.14835407724E+04  0.50400001928E-02 0. -1.
        1   -1    0    0  501    0  0.00000000000E+00  0.00000000000E+00 -0.19810884542E+04  0.19810884542E+04  0.50400001928E-02 0.  1.
    10030    2    1    2    0    0  0.00000000000E+00  0.00000000000E+00 -0.49754768177E+03  0.34646292266E+04  0.34287172502E+04 0.  0.
        4    1    3    3  502    0 -0.15228912648E+04 -0.77766724564E+03 -0.37277728083E+03  0.17501224709E+04  0.12699999809E+01 0.  1.
       -4    1    3    3    0  502  0.15228912648E+04  0.77766724564E+03 -0.12477040093E+03  0.17145067556E+04  0.12699999809E+01 0. -1.
</event>
<event>
 5   0  0.1860500E-07  0.3903197E+04  0.7818609E-02  0.8024365E-01
       -1   -1    0    0    0  501  0.00000000000E+00  0.00000000000E+00  0.18847714142E+04  0.18847714143E+04  0.50400001928E-02 0. -1.
        1   -1    0    0  501    0  0.00000000000E+00  0.00000000000E+00 -0.20207946688E+04  0.20207946688E+04  0.50400001928E-02 0.  1.
    10030    2    1    2    0    0  0.00000000000E+00  0.00000000000E+00 -0.13602325451E+03  0.39055660830E+04  0.39031966518E+04 0.  0.
        4    1    3    3  502    0 -0.17070618017E+04 -0.91974478362E+02 -0.10099730871E+04  0.19855897232E+04  0.12699999809E+01 0.  1.
       -4    1    3    3    0  502  0.17070618017E+04  0.91974478362E+02  0.87394983259E+03  0.19199763598E+04  0.12699999809E+01 0. -1.
</event>
<event>
 5   0  0.3959190E-07  0.3914699E+04  0.7818609E-02  0.8021979E-01
       -2   -1    0    0    0  501  0.00000000000E+00  0.00000000000E+00  0.14859467968E+04  0.14859467968E+04  0.25500000920E-02 0.  1.
        2   -1    0    0  501    0  0.00000000000E+00  0.00000000000E+00 -0.25783008526E+04  0.25783008526E+04  0.25500000920E-02 0. -1.
    10030    2    1    2    0    0  0.00000000000E+00  0.00000000000E+00 -0.10923540558E+04  0.40642476494E+04  0.39146994230E+04 0.  0.
        2    1    3    3  502    0 -0.82618426938E+03 -0.85983023547E+03 -0.21576752570E+04  0.24652486680E+04  0.25500000920E-02 0. -1.
       -2    1    3    3    0  502  0.82618426938E+03  0.85983023547E+03  0.10653212011E+04  0.15989989813E+04  0.25500000920E-02 0.  1.
</event>
<event>
 5   0  0.5805753E-07  0.3899810E+04  0.7818609E-02  0.8025069E-01
        2   -1    0    0  501    0  0.00000000000E+00  0.00000000000E+00  0.15563271070E+04  0.15563271070E+04  0.25500000920E-02 0.  1.
       -2   -1    0    0    0  501  0.00000000000E+00  0.00000000000E+00 -0.24430147975E+04  0.24430147975E+04  0.25500000920E-02 0. -1.
    10030    2    1    2    0    0  0.00000000000E+00  0.00000000000E+00 -0.88668769047E+03  0.39993419045E+04  0.38998103299E+04 0.  0.
        1    1    3    3  502    0 -0.48349600204E+03  0.18266215099E+04 -0.93710441286E+03  0.21091418172E+04  0.50400001928E-02 0. -1.
       -1    1    3    3    0  502  0.48349600204E+03 -0.18266215099E+04  0.50416722390E+02  0.18902000874E+04  0.50400001928E-02 0.  1.
</event>
<event>
 5   0  0.5805753E-07  0.3706198E+04  0.7818609E-02  0.8066590E-01
        2   -1    0    0  501    0  0.00000000000E+00  0.00000000000E+00  0.12939075580E+04  0.12939075580E+04  0.25500000920E-02 0. -1.
       -2   -1    0    0    0  501  0.00000000000E+00  0.00000000000E+00 -0.26539579620E+04  0.26539579620E+04  0.25500000920E-02 0.  1.
    10030    2    1    2    0    0  0.00000000000E+00  0.00000000000E+00 -0.13600504040E+04  0.39478655200E+04  0.37061981953E+04 0.  0.
        1    1    3    3  502    0  0.61465791454E+03 -0.75770393972E+03  0.99815871730E+03  0.13957938376E+04  0.50400001928E-02 0. -1.
       -1    1    3    3    0  502 -0.61465791454E+03  0.75770393972E+03 -0.23582091213E+04  0.25520716824E+04  0.50400001928E-02 0.  1.
</event>
<event>
 5   0  0.5805753E-07  0.3881147E+04  0.7818609E-02  0.8028962E-01
        2   -1    0    0  501    0  0.00000000000E+00  0.00000000000E+00  0.19603664140E+04  0.19603664140E+04  0.25500000920E-02 0.  1.
       -2   -1    0    0    0  501  0.00000000000E+00  0.00000000000E+00 -0.19209804869E+04  0.19209804869E+04  0.25500000920E-02 0. -1.
    10030    2    1    2    0    0  0.00000000000E+00  0.00000000000E+00  0.39385927104E+02  0.38813469009E+04  0.38811470616E+04 0.  0.
        1    1    3    3  502    0  0.75867501427E+03 -0.90870806802E+03 -0.15180752239E+04  0.19250689638E+04  0.50400001928E-02 0. -1.
       -1    1    3    3    0  502 -0.75867501427E+03  0.90870806802E+03  0.15574611510E+04  0.19562779371E+04  0.50400001928E-02 0.  1.
</event>
<event>
 5   0  0.6095665E-07  0.3846923E+04  0.7818609E-02  0.8036160E-01
        2   -1    0    0  501    0  0.00000000000E+00  0.00000000000E+00  0.14389192979E+04  0.14389192979E+04  0.25500000920E-02 0.  1.
       -2   -1    0    0    0  501  0.00000000000E+00  0.00000000000E+00 -0.25711680043E+04  0.25711680043E+04  0.25500000920E-02 0. -1.
    10030    2    1    2    0    0  0.00000000000E+00  0.00000000000E+00 -0.11322487063E+04  0.40100873022E+04  0.38469225412E+04 0.  0.
        4    1    3    3  502    0  0.11805545794E+04  0.18881287542E+03 -0.21367983343E+04  0.24485236676E+04  0.12699999809E+01 0. -1.
       -4    1    3    3    0  502 -0.11805545794E+04 -0.18881287542E+03  0.10045496279E+04  0.15615636345E+04  0.12699999809E+01 0.  1.
</event>
<event>
 5   0  0.1876027E-07  0.3963779E+04  0.7818609E-02  0.8011893E-01
        1   -1    0    0  501    0  0.00000000000E+00  0.00000000000E+00  0.17812264878E+04  0.17812264878E+04  0.50400001928E-02 0. -1.
       -1   -1    0    0    0  501  0.00000000000E+00  0.00000000000E+00 -0.22051585484E+04  0.22051585484E+04  0.50400001928E-02 0.  1.
    10030    2    1    2    0    0  0.00000000000E+00  0.00000000000E+00 -0.42393206065E+03  0.39863850362E+04  0.39637794168E+04 0.  0.
        3    1    3    3  502    0  0.60792304837E+03  0.17300177193E+04  0.54422306316E+03  0.19127755996E+04  0.10100000352E+00 0. -1.
       -3    1    3    3    0  502 -0.60792304837E+03 -0.17300177193E+04 -0.96815512381E+03  0.20736094366E+04  0.10100000352E+00 0.  1.
</event>
<event>
 5   0  0.2666813E-07  0.3946840E+04  0.7818609E-02  0.8015357E-01
       -1   -1    0    0    0  501  0.00000000000E+00  0.00000000000E+00  0.20675215132E+04  0.20675215132E+04  0.50400001928E-02 0.  1.
        1   -1    0    0  501    0  0.00000000000E+00  0.00000000000E+00 -0.18836014663E+04  0.18836014663E+04  0.50400001928E-02 0. -1.
    10030    2    1    2    0    0  0.00000000000E+00  0.00000000000E+00  0.18392004685E+03  0.39511229795E+04  0.39468400291E+04 0.  0.
        1    1    3    3  502    0 -0.11030956918E+04  0.17912951199E+03 -0.15362978537E+04  0.18997680339E+04  0.50400001928E-02 0. -1.
       -1    1    3    3    0  502  0.11030956918E+04 -0.17912951199E+03  0.17202179006E+04  0.20513549456E+04  0.50400001928E-02 0.  1.
</event>
<event>
 5   0  0.1860500E-07  0.3867500E+04  0.7818609E-02  0.8031823E-01
        1   -1    0    0  501    0  0.00000000000E+00  0.00000000000E+00  0.16150735238E+04  0.16150735238E+04  0.50400001928E-02 0.  1.
       -1   -1    0    0    0  501  0.00000000000E+00  0.00000000000E+00 -0.23153062705E+04  0.23153062705E+04  0.50400001928E-02 0. -1.
    10030    2    1    2    0    0  0.00000000000E+00  0.00000000000E+00 -0.70023274672E+03  0.39303797943E+04  0.38675004108E+04 0.  0.
        5    1    3    3  502    0  0.15043051345E+04  0.76378055482E+03  0.61027367784E+03  0.17940877140E+04  0.46999998093E+01 0.  1.
       -5    1    3    3    0  502 -0.15043051345E+04 -0.76378055482E+03 -0.13105064246E+04  0.21362920803E+04  0.46999998093E+01 0. -1.
</event>
<event>
 5   0  0.1860500E-07  0.3907188E+04  0.7818609E-02  0.8023536E-01
       -1   -1    0    0    0  501  0.00000000000E+00  0.00000000000E+00  0.12787951708E+04  0.12787951708E+04  0.50400001928E-02 0. -1.
        1   -1    0    0  501    0  0.00000000000E+00  0.00000000000E+00 -0.29844732920E+04  0.29844732920E+04  0.50400001928E-02 0.  1.
    10030    2    1    2    0    0  0.00000000000E+00  0.00000000000E+00 -0.17056781212E+04  0.42632684628E+04  0.39071882643E+04 0.  0.
        4    1    3    3  502    0  0.12667113097E+04 -0.38399577210E+03 -0.24206283521E+04  0.27588862838E+04  0.12699999809E+01 0.  1.
       -4    1    3    3    0  502 -0.12667113097E+04  0.38399577210E+03  0.71495023087E+03  0.15043821790E+04  0.12699999809E+01 0. -1.
</event>
<event>
 5   0  0.1860500E-07  0.3881674E+04  0.7818609E-02  0.8028851E-01
       -1   -1    0    0    0  501  0.00000000000E+00  0.00000000000E+00  0.29684491612E+04  0.29684491612E+04  0.50400001928E-02 0.  1.
        1   -1    0    0  501    0  0.00000000000E+00  0.00000000000E+00 -0.12689619969E+04  0.12689619969E+04  0.50400001928E-02 0. -1.
    10030    2    1    2    0    0  0.00000000000E+00  0.00000000000E+00  0.16994871643E+04  0.42374111582E+04  0.38816744714E+04 0.  0.
        4    1    3    3  502    0  0.80438567270E+03  0.16790790070E+04  0.25132192482E+03  0.18786982049E+04  0.12699999809E+01 0.  1.
       -4    1    3    3    0  502 -0.80438567270E+03 -0.16790790070E+04  0.14481652395E+04  0.23587129533E+04  0.12699999809E+01 0. -1.
</event>
<event>
 5   0  0.1876027E-07  0.3868837E+04  0.7818609E-02  0.8031542E-01
       -1   -1    0    0    0  501  0.00000000000E+00  0.00000000000E+00  0.17503821534E+04  0.17503821534E+04  0.50400001928E-02 0. -1.
        1   -1    0    0  501    0  0.00000000000E+00  0.00000000000E+00 -0.21378048020E+04  0.21378048020E+04  0.50400001928E-02 0.  1.
    10030    2    1    2    0    0  0.00000000000E+00  0.00000000000E+00 -0.38742264858E+03  0.38881869554E+04  0.38688372273E+04 0.  0.
        3    1    3    3  502    0 -0.85607758646E+03  0.14007090322E+04 -0.12221184111E+04  0.20465649385E+04  0.10100000352E+00 0.  1.
       -3    1    3    3    0  502  0.85607758646E+03 -0.14007090322E+04  0.83469576249E+03  0.18416220168E+04  0.10100000352E+00 0. -1.
</event>
<event>
 5   0  0.6095665E-07  0.3914914E+04  0.7818609E-02  0.8021934E-01
        2   -1    0    0  501    0  0.00000000000E+00  0.00000000000E+00  0.11653092913E+04  0.11653092913E+04  0.25500000920E-02 0.  1.
       -2   -1    0    0    0  501  0.00000000000E+00  0.00000000000E+00 -0.32880869648E+04  0.32880869648E+04  0.25500000920E-02 0. -1.
    10030    2    1    2    0    0  0.00000000000E+00  0.00000000000E+00 -0.21227776735E+04  0.44533962561E+04  0.39149141961E+04 0.  0.
        4    1    3    3  502    0 -0.84637823031E+03  0.11561779368E+04  0.45566178777E+03  0.15035733464E+04  0.12699999809E+01 0.  1.
       -4    1    3    3    0  502  0.84637823031E+03 -0.11561779368E+04 -0.25784394613E+04  0.29498229097E+04  0.12699999809E+01 0. -1.
</event>
<event>
 5   0  0.1943459E-07  0.3788174E+04  0.7818609E-02  0.8048698E-01
       -1   -1    0    0    0  501  0.00000000000E+00  0.00000000000E+00  0.15941452275E+04  0.15941452275E+04  0.50400001928E-02 0. -1.
        1   -1    0    0  501    0  0.00000000000E+00  0.00000000000E+00 -0.22504629071E+04  0.22504629071E+04  0.50400001928E-02 0.  1.
    10030    2    1    2    0    0  0.00000000000E+00  0.00000000000E+00 -0.65631767958E+03  0.38446081346E+04  0.37881735456E+04 0.  0.
        2    1    3    3  502    0  0.15894035302E+04  0.10174348005E+04 -0.16392235849E+03  0.18942670600E+04  0.25500000920E-02 0.  1.
       -2    1    3    3    0  502 -0.15894035302E+04 -0.10174348005E+04 -0.49239532108E+03  0.19503410746E+04  0.25500000920E-02 0. -1.
</event>
<event>
 5   0  0.1876027E-07  0.3448800E+04  0.7818609E-02  0.8126032E-01
       -1   -1    0    0    0  501  0.00000000000E+00  0.00000000000E+00  0.17487130139E+04  0.17487130139E+04  0.50400001928E-02 0. -1.
        1   -1    0    0  501    0  0.00000000000E+00  0.00000000000E+00 -0.17004248642E+04  0.17004248642E+04  0.50400001928E-02 0.  1.
    10030    2    1    2    0    0  0.00000000000E+00  0.00000000000E+00  0.48288149737E+02  0.34491378782E+04  0.34487998430E+04 0.  0.
        3    1    3    3  502    0  0.50090194835E+03 -0.81833526657E+03 -0.14088186515E+04  0.17045073697E+04  0.10100000352E+00 0.  1.
       -3    1    3    3    0  502 -0.50090194835E+03  0.81833526657E+03  0.14571068013E+04  0.17446305084E+04  0.10100000352E+00 0. -1.
</event>
<event>
 5   0  0.5872444E-07  0.4000806E+04  0.7818609E-02  0.8004384E-01
        2   -1    0    0  501    0  0.00000000000E+00  0.00000000000E+00  0.24886101302E+04  0.24886101302E+04  0.25500000920E-02 0.  1.
       -2   -1    0    0    0  501  0.00000000000E+00  0.00000000000E+00 -0.16079709070E+04  0.16079709070E+04  0.25500000920E-02 0. -1.
    10030    2    1    2    0    0  0.00000000000E+00  0.00000000000E+00  0.88063922317E+03  0.40965810372E+04  0.40008062629E+04 0.  0.
        3    1    3    3  502    0  0.58313848175E+03 -0.66283163594E+03  0.22783444738E+04  0.24434094659E+04  0.10100000352E+00 0.  1.
       -3    1    3    3    0  502 -0.58313848175E+03  0.66283163594E+03 -0.13977052506E+04  0.16531715714E+04  0.10100000352E+00 0. -1.
</event>
<event>
 5   0  0.1943459E-07  0.3088210E+04  0.7818609E-02  0.8218981E-01
        1   -1    0    0  501    0  0.00000000000E+00  0.00000000000E+00  0.12966014043E+04  0.12966014044E+04  0.50400001928E-02 0. -1.
       -1   -1    0    0    0  501  0.00000000000E+00  0.00000000000E+00 -0.18388536894E+04  0.18388536894E+04  0.50400001928E-02 0.  1.
    10030    2    1    2    0    0  0.00000000000E+00  0.00000000000E+00 -0.54225228505E+03  0.31354550938E+04  0.30882100162E+04 0.  0.
        2    1    3    3  502    0 -0.77900193229E+03 -0.43984702035E+03  0.10066789380E+04  0.13467412135E+04  0.25500000920E-02 0. -1.
       -2    1    3    3    0  502  0.77900193229E+03  0.43984702035E+03 -0.15489312230E+04  0.17887138803E+04  0.25500000920E-02 0.  1.
</event>
<event>
 5   0  0.1860500E-07  0.3853406E+04  0.7818609E-02  0.8034790E-01
       -1   -1    0    0    0  501  0.00000000000E+00  0.00000000000E+00  0.17048166595E+04  0.17048166595E+04  0.50400001928E-02 0.  1.
        1   -1    0    0  501    0  0.00000000000E+00  0.00000000000E+00 -0.21774682612E+04  0.21774682612E+04  0.50400001928E-02 0. -1.
    10030    2    1    2    0    0  0.00000000000E+00  0.00000000000E+00 -0.47265160169E+03  0.38822849207E+04  0.38534058532E+04 0.  0.
        5    1    3    3  502    0  0.99670015454E+03  0.72748158912E+03 -0.17271184792E+04  0.21226400994E+04  0.46999998093E+01 0. -1.
       -5    1    3    3    0  502 -0.99670015454E+03 -0.72748158912E+03  0.12544668775E+04  0.17596448213E+04  0.46999998093E+01 0.  1.
</event>
<event>
 5   0  0.1860500E-07  0.2825923E+04  0.7818609E-02  0.8295265E-01
        1   -1    0    0  501    0  0.00000000000E+00  0.00000000000E+00  0.32097429548E+04  0.32097429548E+04  0.50400001928E-02 0. -1.
       -1   -1    0    0    0  501  0.00000000000E+00  0.00000000000E+00 -0.62200024078E+03  0.62200024081E+03  0.50400001928E-02 0.  1.
    10030    2    1    2    0    0  0.00000000000E+00  0.00000000000E+00  0.25877427140E+04  0.38317431956E+04  0.28259234885E+04 0.  0.
        5    1    3    3  502    0  0.42449801547E+03 -0.20876030101E+03 -0.51142556315E+03  0.69667612637E+03  0.46999998093E+01 0.  1.
       -5    1    3    3    0  502 -0.42449801547E+03  0.20876030101E+03  0.30991682771E+04  0.31350670692E+04  0.46999998093E+01 0. -1.
</event>
<event>
 5   0  0.3959190E-07  0.3962677E+04  0.7818609E-02  0.8012118E-01
        2   -1    0    0  501    0  0.00000000000E+00  0.00000000000E+00  0.19151672708E+04  0.19151672708E+04  0.25500000920E-02 0. -1.
       -2   -1    0    0    0  501  0.00000000000E+00  0.00000000000E+00 -0.20497962237E+04  0.20497962237E+04  0.25500000920E-02 0.  1.
    10030    2    1    2    0    0  0.00000000000E+00  0.00000000000E+00 -0.13462895290E+03  0.39649634944E+04  0.39626771957E+04 0.  0.
        2    1    3    3  502    0 -0.14121211257E+04  0.84602646097E+03  0.10359802228E+04  0.19450197604E+04  0.25500000920E-02 0. -1.
       -2    1    3    3    0  502  0.14121211257E+04 -0.84602646097E+03 -0.11706091757E+04  0.20199437340E+04  0.25500000920E-02 0.  1.
</event>
<event>
 5   0  0.3959190E-07  0.3629635E+04  0.7818609E-02  0.8083737E-01
       -2   -1    0    0    0  501  0.00000000000E+00  0.00000000000E+00  0.18813244851E+04  0.18813244851E+04  0.25500000920E-02 0.  1.
        2   -1    0    0  501    0  0.00000000000E+00  0.00000000000E+00 -0.17506616619E+04  0.17506616619E+04  0.25500000920E-02 0. -1.
    10030    2    1    2    0    0  0.00000000000E+00  0.00000000000E+00  0.13066282318E+03  0.36319861470E+04  0.36296350504E+04 0.  0.
        2    1    3    3  502    0  0.68196619698E+02 -0.83957294095E+03 -0.15432014113E+04  0.17581251656E+04  0.25500000920E-02 0. -1.
       -2    1    3    3    0  502 -0.68196619698E+02  0.83957294095E+03  0.16738642345E+04  0.18738609814E+04  0.25500000920E-02 0.  1.
</event>
<event>
 5   0  0.5872444E-07  0.3889016E+04  0.7818609E-02  0.8027318E-01
       -2   -1    0    0    0  501  0.00000000000E+00  0.00000000000E+00  0.28457767656E+04  0.28457767656E+04  0.25500000920E-02 0. -1.
        2   -1    0    0  501    0  0.00000000000E+00  0.00000000000E+00 -0.13286743486E+04  0.13286743486E+04  0.25500000920E-02 0.  1.
    10030    2    1    2    0    0  0.00000000000E+00  0.00000000000E+00  0.15171024171E+04  0.41744511142E+04  0.38890156031E+04 0.  0.
        3    1    3    3  502    0 -0.18350800482E+04 -0.43671061766E+03  0.25180443898E+03  0.19030608064E+04  0.10100000352E+00 0.  1.
       -3    1    3    3    0  502  0.18350800482E+04  0.43671061766E+03  0.12652979781E+04  0.22713903078E+04  0.10100000352E+00 0. -1.
</event>
<event>
 5   0  0.6095665E-07  0.4016185E+04  0.7818609E-02  0.8001289E-01
        2   -1    0    0  501    0  0.00000000000E+00  0.00000000000E+00  0.22073776791E+04  0.22073776791E+04  0.25500000920E-02 0.  1.
       -2   -1    0    0    0  501  0.00000000000E+00  0.00000000000E+00 -0.18267994039E+04  0.18267994039E+04  0.25500000920E-02 0. -1.
    10030    2    1    2    0    0  0.00000000000E+00  0.00000000000E+00  0.38057827525E+03  0.40341770830E+04  0.40161853684E+04 0.  0.
        4    1    3    3  502    0  0.15580773756E+04 -0.82963420466E+03  0.11519370940E+04  0.21078089817E+04  0.12699999809E+01 0.  1.
       -4    1    3    3    0  502 -0.15580773756E+04  0.82963420466E+03 -0.77135881877E+03  0.19263681014E+04  0.12699999809E+01 0. -1.
</event>
<event>
 5   0  0.2666813E-07  0.3841839E+04  0.7818609E-02  0.8037236E-01
        1   -1    0    0  501    0  0.00000000000E+00  0.00000000000E+00  0.18404432028E+04  0.18404432028E+04  0.50400001928E-02 0. -1.
       -1   -1    0    0    0  501  0.00000000000E+00  0.00000000000E+00 -0.20049144304E+04  0.20049144304E+04  0.50400001928E-02 0.  1.
    10030    2    1    2    0    0  0.00000000000E+00  0.00000000000E+00 -0.16447122758E+03  0.38453576332E+04  0.38418386929E+04 0.  0.
        1    1    3    3  502    0 -0.13080101800E+04 -0.42861980460E+03  0.12588892642E+04  0.18653170635E+04  0.50400001928E-02 0. -1.
       -1    1    3    3    0  502  0.13080101800E+04  0.42861980460E+03 -0.14233604918E+04  0.19800405697E+04  0.50400001928E-02 0.  1.
</event>
<event>
 5   0  0.6095665E-07  0.3927286E+04  0.7818609E-02  0.8019378E-01
        2   -1    0    0  501    0  0.00000000000E+00  0.00000000000E+00  0.20999758252E+04  0.20999758252E+04  0.25500000920E-02 0. -1.
       -2   -1    0    0    0  501  0.00000000000E+00  0.00000000000E+00 -0.18361606131E+04  0.18361606131E+04  0.25500000920E-02 0.  1.
    10030    2    1    2    0    0  0.00000000000E+00  0.00000000000E+00  0.26381521206E+03  0.39361364382E+04  0.39272855249E+04 0.  0.
        4    1    3    3  502    0 -0.15762815633E+03 -0.12788331090E+04  0.16170130754E+04  0.20676057785E+04  0.12699999809E+01 0. -1.
       -4    1    3    3    0  502  0.15762815633E+03  0.12788331090E+04 -0.13531978633E+04  0.18685306598E+04  0.12699999809E+01 0.  1.
</event>
<event>
 5   0  0.1860500E-07  0.3674108E+04  0.7818609E-02  0.8073724E-01
       -1   -1    0    0    0  501  0.00000000000E+00  0.00000000000E+00  0.14483126957E+04  0.14483126957E+04  0.50400001928E-02 0. -1.
        1   -1    0    0  501    0  0.00000000000E+00  0.00000000000E+00 -0.23301376028E+04  0.23301376028E+04  0.50400001928E-02 0.  1.
    10030    2    1    2    0    0  0.00000000000E+00  0.00000000000E+00 -0.88182490704E+03  0.37784502985E+04  0.36741082580E+04 0.  0.
        4    1    3    3  502    0  0.48105025974E+03  0.10139952254E+04  0.10547530081E+04  0.15401627156E+04  0.12699999809E+01 0. -1.
       -4    1    3    3    0  502 -0.48105025974E+03 -0.10139952254E+04 -0.19365779151E+04  0.22382875829E+04  0.12699999809E+01 0.  1.
</event>
<event>
 5   0  0.6095665E-07  0.3878266E+04  0.7818609E-02  0.8029565E-01
       -2   -1    0    0    0  501  0.00000000000E+00  0.00000000000E+00  0.20642177401E+04  0.20642177401E+04  0.25500000920E-02 0.  1.
        2   -1    0    0  501    0  0.00000000000E+00  0.00000000000E+00 -0.18216276346E+04  0.18216276346E+04  0.25500000920E-02 0. -1.
    10030    2    1    2    0    0  0.00000000000E+00  0.00000000000E+00  0.24259010554E+03  0.38858453747E+04  0.38782656326E+04 0.  0.
        4    1    3    3  502    0 -0.17106204816E+04  0.18390037819E+03 -0.77498813885E+03  0.18869684707E+04  0.12699999809E+01 0. -1.
       -4    1    3    3    0  502  0.17106204816E+04 -0.18390037819E+03  0.10175782444E+04  0.19988769040E+04  0.12699999809E+01 0.  1.
</event>
<event>
 5   0  0.1876027E-07  0.2704736E+04  0.7818609E-02  0.8333470E-01
       -1   -1    0    0    0  501  0.00000000000E+00  0.00000000000E+00  0.94460811259E+03  0.94460811260E+03  0.50400001928E-02 0. -1.
        1   -1    0    0  501    0  0.00000000000E+00  0.00000000000E+00 -0.19361462265E+04  0.19361462265E+04  0.50400001928E-02 0.  1.
    10030    2    1    2    0    0  0.00000000000E+00  0.00000000000E+00 -0.99153811390E+03  0.28807543391E+04  0.27047361666E+04 0.  0.
        3    1    3    3  502    0  0.26669783426E+03 -0.49399868476E+03  0.81463891904E+03  0.98934271815E+03  0.10100000352E+00 0. -1.
       -3    1    3    3    0  502 -0.26669783426E+03  0.49399868476E+03 -0.18061770329E+04  0.18914116210E+04  0.10100000352E+00 0.  1.
</event>
<event>
 5   0  0.5805753E-07  0.3883155E+04  0.7818609E-02  0.8028542E-01
       -2   -1    0    0    0  501  0.00000000000E+00  0.00000000000E+00  0.19363313568E+04  0.19363313568E+04  0.25500000920E-02 0.  1.
        2   -1    0    0  501    0  0.00000000000E+00  0.00000000000E+00 -0.19468376241E+04  0.19468376241E+04  0.25500000920E-02 0. -1.
    10030    2    1    2    0    0  0.00000000000E+00  0.00000000000E+00 -0.10506267325E+02  0.38831689809E+04  0.38831547680E+04 0.  0.
        1    1    3    3  502    0 -0.58010789080E+03 -0.14526161995E+04  0.11450135466E+04  0.19384723392E+04  0.50400001928E-02 0.  1.
       -1    1    3    3    0  502  0.58010789080E+03  0.14526161995E+04 -0.11555198139E+04  0.19446966417E+04  0.50400001928E-02 0. -1.
</event>
<event>
 5   0  0.1860500E-07  0.3829067E+04  0.7818609E-02  0.8039946E-01
       -1   -1    0    0    0  501  0.00000000000E+00  0.00000000000E+00  0.13688004859E+04  0.13688004859E+04  0.50400001928E-02 0. -1.
        1   -1    0    0  501    0  0.00000000000E+00  0.00000000000E+00 -0.26778473869E+04  0.26778473869E+04  0.50400001928E-02 0.  1.
    10030    2    1    2    0    0  0.00000000000E+00  0.00000000000E+00 -0.13090469010E+04  0.40466478729E+04  0.38290671472E+04 0.  0.
        5    1    3    3  502    0  0.54184974567E+03 -0.17246061293E+03  0.12774910982E+04  0.13983380871E+04  0.46999998093E+01 0. -1.
       -5    1    3    3    0  502 -0.54184974567E+03  0.17246061293E+03 -0.25865379992E+04  0.26483097858E+04  0.46999998093E+01 0.  1.
</event>
<event>
 5   0  0.6095665E-07  0.3804560E+04  0.7818609E-02  0.8045177E-01
       -2   -1    0    0    0  501  0.00000000000E+00  0.00000000000E+00  0.20244411862E+04  0.20244411862E+04  0.25500000920E-02 0. -1.
        2   -1    0    0  501    0  0.00000000000E+00  0.00000000000E+00 -0.17874905188E+04  0.17874905188E+04  0.25500000920E-02 0.  1.
    10030    2    1    2    0    0  0.00000000000E+00  0.00000000000E+00  0.23695066738E+03  0.38119317050E+04  0.38045601197E+04 0.  0.
        4    1    3    3  502    0  0.12972886983E+04 -0.12966503248E+04  0.62384114221E+03  0.19373795227E+04  0.12699999809E+01 0. -1.
       -4    1    3    3    0  502 -0.12972886983E+04  0.12966503248E+04 -0.38689047483E+03  0.18745521822E+04  0.12699999809E+01 0.  1.
</event>
<event>
 5   0  0.5805753E-07  0.3876090E+04  0.7818609E-02  0.8030021E-01
       -2   -1    0    0    0  501  0.00000000000E+00  0.00000000000E+00  0.16388044792E+04  0.16388044792E+04  0.25500000920E-02 0. -1.
        2   -1    0    0  501    0  0.00000000000E+00  0.00000000000E+00 -0.22919255679E+04  0.22919255679E+04  0.25500000920E-02 0.  1.
    10030    2    1    2    0    0  0.00000000000E+00  0.00000000000E+00 -0.65312108866E+03  0.39307300471E+04  0.38760897237E+04 0.  0.
        1    1    3    3  502    0  0.32324151728E+03  0.89661690466E+03  0.13847141293E+04  0.16810235489E+04  0.50400001928E-02 0. -1.
       -1    1    3    3    0  502 -0.32324151728E+03 -0.89661690466E+03 -0.20378352179E+04  0.22497064981E+04  0.50400001928E-02 0.  1.
</event>
<event>
 5   0  0.1860500E-07  0.4047439E+04  0.7818609E-02  0.7995044E-01
       -1   -1    0    0    0  501  0.00000000000E+00  0.00000000000E+00  0.24052371494E+04  0.24052371494E+04  0.50400001928E-02 0.  1.
        1   -1    0    0  501    0  0.00000000000E+00  0.00000000000E+00 -0.17027180304E+04  0.17027180304E+04  0.50400001928E-02 0. -1.
    10030    2    1    2    0    0  0.00000000000E+00  0.00000000000E+00  0.70251911901E+03  0.41079551797E+04  0.40474390231E+04 0.  0.
        5    1    3    3  502    0  0.19979283626E+02 -0.70248836684E+03  0.22774040811E+04  0.23833758655E+04  0.46999998093E+01 0.  1.
       -5    1    3    3    0  502 -0.19979283626E+02  0.70248836684E+03 -0.15748849621E+04  0.17245793143E+04  0.46999998093E+01 0. -1.
</event>
<event>
 5   0  0.1860500E-07  0.2981793E+04  0.7818609E-02  0.8248949E-01
        1   -1    0    0  501    0  0.00000000000E+00  0.00000000000E+00  0.23817566837E+04  0.23817566837E+04  0.50400001928E-02 0.  1.
       -1   -1    0    0    0  501  0.00000000000E+00  0.00000000000E+00 -0.93324940920E+03  0.93324940922E+03  0.50400001928E-02 0. -1.
    10030    2    1    2    0    0  0.00000000000E+00  0.00000000000E+00  0.14485072745E+04  0.33150060930E+04  0.29817934321E+04 0.  0.
        4    1    3    3  502    0 -0.38373893373E+03 -0.63754394515E+02 -0.87583533383E+03  0.95833675551E+03  0.12699999809E+01 0. -1.
       -4    1    3    3    0  502  0.38373893373E+03  0.63754394515E+02  0.23243426084E+04  0.23566693374E+04  0.12699999809E+01 0.  1.
</event>
<event>
 5   0  0.1943459E-07  0.2485462E+04  0.7818609E-02  0.8408183E-01
       -1   -1    0    0    0  501  0.00000000000E+00  0.00000000000E+00  0.10593594378E+04  0.10593594378E+04  0.50400001928E-02 0. -1.
        1   -1    0    0  501    0  0.00000000000E+00  0.00000000000E+00 -0.14578436692E+04  0.14578436692E+04  0.50400001928E-02 0.  1.
    10030    2    1    2    0    0  0.00000000000E+00  0.00000000000E+00 -0.39848423139E+03  0.25172031070E+04  0.24854620897E+04 0.  0.
        2    1    3    3  502    0  0.47934345698E+03  0.75056525909E+02 -0.13579583546E+04  0.14420313882E+04  0.25500000920E-02 0.  1.
       -2    1    3    3    0  502 -0.47934345698E+03 -0.75056525909E+02  0.95947412321E+03  0.10751717188E+04  0.25500000920E-02 0. -1.
</event>
<event>
 5   0  0.6095665E-07  0.3894102E+04  0.7818609E-02  0.8026257E-01
       -2   -1    0    0    0  501  0.00000000000E+00  0.00000000000E+00  0.18550927015E+04  0.18550927015E+04  0.25500000920E-02 0.  1.
        2   -1    0    0  501    0  0.00000000000E+00  0.00000000000E+00 -0.20435675839E+04  0.20435675839E+04  0.25500000920E-02 0. -1.
    10030    2    1    2    0    0  0.00000000000E+00  0.00000000000E+00 -0.18847488240E+03  0.38986602854E+04  0.38941018528E+04 0.  0.
        4    1    3    3  502    0  0.18691586306E+04 -0.28938277868E+03  0.36837414360E+03  0.19269658797E+04  0.12699999809E+01 0. -1.
       -4    1    3    3    0  502 -0.18691586306E+04  0.28938277868E+03 -0.55684902600E+03  0.19716944057E+04  0.12699999809E+01 0.  1.
</event>
<event>
 5   0  0.5805753E-07  0.3888506E+04  0.7818609E-02  0.8027424E-01
       -2   -1    0    0    0  501  0.00000000000E+00  0.00000000000E+00  0.13404668375E+04  0.13404668375E+04  0.25500000920E-02 0.  1.
        2   -1    0    0  501    0  0.00000000000E+00  0.00000000000E+00 -0.28200025270E+04  0.28200025270E+04  0.25500000920E-02 0. -1.
    10030    2    1    2    0    0  0.00000000000E+00  0.00000000000E+00 -0.14795356895E+04  0.41604693646E+04  0.38885060726E+04 0.  0.
        1    1    3    3  502    0  0.15686468972E+04  0.11379641316E+04 -0.90725508584E+03  0.21397960752E+04  0.50400001928E-02 0. -1.
       -1    1    3    3    0  502 -0.15686468972E+04 -0.11379641316E+04 -0.57228060369E+03  0.20206732893E+04  0.50400001928E-02 0.  1.
</event>
<event>
 5   0  0.1860500E-07  0.3839837E+04  0.7818609E-02  0.8037660E-01
       -1   -1    0    0    0  501  0.00000000000E+00  0.00000000000E+00  0.11100804478E+04  0.11100804479E+04  0.50400001928E-02 0. -1.
        1   -1    0    0  501    0  0.00000000000E+00  0.00000000000E+00 -0.33205591181E+04  0.33205591181E+04  0.50400001928E-02 0.  1.
    10030    2    1    2    0    0  0.00000000000E+00  0.00000000000E+00 -0.22104786702E+04  0.44306395659E+04  0.38398373679E+04 0.  0.
        4    1    3    3  502    0 -0.22752584231E+03  0.17338669578E+04 -0.19082812925E+03  0.17591133062E+04  0.12699999809E+01 0. -1.
       -4    1    3    3    0  502  0.22752584231E+03 -0.17338669578E+04 -0.20196505410E+04  0.26715262598E+04  0.12699999809E+01 0.  1.
</event>
<event>
 5   0  0.5872444E-07  0.3866327E+04  0.7818609E-02  0.8032069E-01
        2   -1    0    0  501    0  0.00000000000E+00  0.00000000000E+00  0.27718529789E+04  0.27718529789E+04  0.25500000920E-02 0.  1.
       -2   -1    0    0    0  501  0.00000000000E+00  0.00000000000E+00 -0.13482394752E+04  0.13482394752E+04  0.25500000920E-02 0. -1.
    10030    2    1    2    0    0  0.00000000000E+00  0.00000000000E+00  0.14236135037E+04  0.41200924541E+04  0.38663272524E+04 0.  0.
        3    1    3    3  502    0 -0.10191528754E+04  0.28925263843E+03 -0.10113551653E+04  0.14646429438E+04  0.10100000352E+00 0.  1.
       -3    1    3    3    0  502  0.10191528754E+04 -0.28925263843E+03  0.24349686690E+04  0.26554495103E+04  0.10100000352E+00 0. -1.
</event>
<event>
 5   0  0.1943459E-07  0.3495906E+04  0.7818609E-02  0.8114761E-01
        1   -1    0    0  501    0  0.00000000000E+00  0.00000000000E+00  0.24905042506E+04  0.24905042506E+04  0.50400001928E-02 0.  1.
       -1   -1    0    0    0  501  0.00000000000E+00  0.00000000000E+00 -0.12267957572E+04  0.12267957572E+04  0.50400001928E-02 0. -1.
    10030    2    1    2    0    0  0.00000000000E+00  0.00000000000E+00  0.12637084934E+04  0.37173000078E+04  0.34959062046E+04 0.  0.
        2    1    3    3  502    0 -0.11884948898E+04  0.11166742226E+04  0.13008723916E+04  0.20860849460E+04  0.25500000920E-02 0.  1.
       -2    1    3    3    0  502  0.11884948898E+04 -0.11166742226E+04 -0.37163898193E+02  0.16312150618E+04  0.25500000920E-02 0. -1.
</event>
<event>
 5   0  0.1876027E-07  0.3857886E+04  0.7818609E-02  0.8033846E-01
       -1   -1    0    0    0  501  0.00000000000E+00  0.00000000000E+00  0.16709382420E+04  0.16709382420E+04  0.50400001928E-02 0. -1.
        1   -1    0    0  501    0  0.00000000000E+00  0.00000000000E+00 -0.22267850426E+04  0.22267850426E+04  0.50400001928E-02 0.  1.
    10030    2    1    2    0    0  0.00000000000E+00  0.00000000000E+00 -0.55584680055E+03  0.38977232846E+04  0.38578855786E+04 0.  0.
        3    1    3    3  502    0 -0.45153836535E+03 -0.13468058623E+04 -0.15964078802E+04  0.21368881712E+04  0.10100000352E+00 0.  1.
       -3    1    3    3    0  502  0.45153836535E+03  0.13468058623E+04  0.10405610796E+04  0.17608351134E+04  0.10100000352E+00 0. -1.
</event>
<event>
 5   0  0.1943459E-07  0.3635194E+04  0.7818609E-02  0.8082477E-01
        1   -1    0    0  501    0  0.00000000000E+00  0.00000000000E+00  0.26295377804E+04  0.26295377804E+04  0.50400001928E-02 0. -1.
       -1   -1    0    0    0  501  0.00000000000E+00  0.00000000000E+00 -0.12563650487E+04  0.12563650487E+04  0.50400001928E-02 0.  1.
    10030    2    1    2    0    0  0.00000000000E+00  0.00000000000E+00  0.13731727317E+04  0.38859028292E+04  0.36351942791E+04 0.  0.
        2    1    3    3  502    0 -0.22195090164E+03 -0.10465378415E+04  0.22573335552E+04  0.24980108959E+04  0.25500000920E-02 0. -1.
       -2    1    3    3    0  502  0.22195090164E+03  0.10465378415E+04 -0.88416082354E+03  0.13878919333E+04  0.25500000920E-02 0.  1.
</event>
<event>
 5   0  0.3959190E-07  0.3915009E+04  0.7818609E-02  0.8021915E-01
       -2   -1    0    0    0  501  0.00000000000E+00  0.00000000000E+00  0.14072226519E+04  0.14072226519E+04  0.25500000920E-02 0. -1.
        2   -1    0    0  501    0  0.00000000000E+00  0.00000000000E+00 -0.27229684553E+04  0.27229684553E+04  0.25500000920E-02 0.  1.
    10030    2    1    2    0    0  0.00000000000E+00  0.00000000000E+00 -0.13157458034E+04  0.41301911072E+04  0.39150085010E+04 0.  0.
        2    1    3    3  502    0  0.69084606399E+02 -0.17682111725E+04 -0.15408209270E+04  0.23463743440E+04  0.25500000920E-02 0.  1.
       -2    1    3    3    0  502 -0.69084606399E+02  0.17682111725E+04  0.22507512363E+03  0.17838167632E+04  0.25500000920E-02 0. -1.
</event>
<event>
 5   0  0.2666813E-07  0.3699861E+04  0.7818609E-02  0.8067993E-01
       -1   -1    0    0    0  501  0.00000000000E+00  0.00000000000E+00  0.11317788136E+04  0.11317788136E+04  0.50400001928E-02 0.  1.
        1   -1    0    0  501    0  0.00000000000E+00  0.00000000000E+00 -0.30237731127E+04  0.30237731128E+04  0.50400001928E-02 0. -1.
    10030    2    1    2    0    0  0.00000000000E+00  0.00000000000E+00 -0.18919942992E+04  0.41555519263E+04  0.36998607250E+04 0.  0.
        1    1    3    3  502    0 -0.13441756857E+04 -0.11777871032E+04 -0.40939764970E+03  0.18334658901E+04  0.50400001928E-02 0.  1.
       -1    1    3    3    0  502  0.13441756857E+04  0.11777871032E+04 -0.14825966495E+04  0.23220860362E+04  0.50400001928E-02 0. -1.
</event>
<event>
 5   0  0.1876027E-07  0.3772276E+04  0.7818609E-02  0.8052131E-01
       -1   -1    0    0    0  501  0.00000000000E+00  0.00000000000E+00  0.13747096332E+04  0.13747096332E+04  0.50400001928E-02 0. -1.
        1   -1    0    0  501    0  0.00000000000E+00  0.00000000000E+00 -0.25878306872E+04  0.25878306872E+04  0.50400001928E-02 0.  1.
    10030    2    1    2    0    0  0.00000000000E+00  0.00000000000E+00 -0.12131210541E+04  0.39625403204E+04  0.37722755863E+04 0.  0.
        3    1    3    3  502    0  0.60027422085E+02 -0.17876975155E+04 -0.12351138990E+04  0.21737000833E+04  0.10100000352E+00 0.  1.
       -3    1    3    3    0  502 -0.60027422085E+02  0.17876975155E+04  0.21992844937E+02  0.17888402371E+04  0.10100000352E+00 0. -1.
</event>
<event>
 5   0  0.3959190E-07  0.3087711E+04  0.7818609E-02  0.8219119E-01
        2   -1    0    0  501    0  0.00000000000E+00  0.00000000000E+00  0.10158138614E+04  0.10158138614E+04  0.25500000920E-02 0. -1.
       -2   -1    0    0    0  501  0.00000000000E+00  0.00000000000E+00 -0.23463838284E+04  0.23463838284E+04  0.25500000920E-02 0.  1.
    10030    2    1    2    0    0  0.00000000000E+00  0.00000000000E+00 -0.13305699670E+04  0.33621976898E+04  0.30877106192E+04 0.  0.
        2    1    3    3  502    0  0.69886962371E+03  0.12016753701E+04  0.66018164613E+02  0.13916899239E+04  0.25500000920E-02 0. -1.
       -2    1    3    3    0  502 -0.69886962371E+03 -0.12016753701E+04 -0.13965881316E+04  0.19705077659E+04  0.25500000920E-02 0.  1.
</event>
<event>
 5   0  0.3959190E-07  0.3908648E+04  0.7818609E-02  0.8023233E-01
       -2   -1    0    0    0  501  0.00000000000E+00  0.00000000000E+00  0.22419133955E+04  0.22419133955E+04  0.25500000920E-02 0.  1.
        2   -1    0    0  501    0  0.00000000000E+00  0.00000000000E+00 -0.17036262670E+04  0.17036262671E+04  0.25500000920E-02 0. -1.
    10030    2    1    2    0    0  0.00000000000E+00  0.00000000000E+00  0.53828712841E+03  0.39455396625E+04  0.39086481289E+04 0.  0.
        2    1    3    3  502    0 -0.37351943432E+02  0.19538737642E+04  0.28842079572E+03  0.19753998100E+04  0.25500000920E-02 0.  1.
       -2    1    3    3    0  502  0.37351943432E+02 -0.19538737642E+04  0.24986633269E+03  0.19701398525E+04  0.25500000920E-02 0. -1.
</event>
<event>
 5   0  0.1860500E-07  0.3868094E+04  0.7818609E-02  0.8031698E-01
        1   -1    0    0  501    0  0.00000000000E+00  0.00000000000E+00  0.19459831812E+04  0.19459831812E+04  0.50400001928E-02 0.  1.
       -1   -1    0    0    0  501  0.00000000000E+00  0.00000000000E+00 -0.19221836698E+04  0.19221836698E+04  0.50400001928E-02 0. -1.
    10030    2    1    2    0    0  0.00000000000E+00  0.00000000000E+00  0.23799511476E+02  0.38681668510E+04  0.38680936352E+04 0.  0.
        5    1    3    3  502    0 -0.17738407696E+04  0.32064096556E+03  0.71276485885E+03  0.19383956095E+04  0.46999998093E+01 0.  1.
       -5    1    3    3    0  502  0.17738407696E+04 -0.32064096556E+03 -0.68896534738E+03  0.19297712415E+04  0.46999998093E+01 0. -1.
</event>
<event>
 5   0  0.6095665E-07  0.3965310E+04  0.7818609E-02  0.8011581E-01
        2   -1    0    0  501    0  0.00000000000E+00  0.00000000000E+00  0.17841707869E+04  0.17841707869E+04  0.25500000920E-02 0. -1.
       -2   -1    0    0    0  501  0.00000000000E+00  0.00000000000E+00 -0.22032200291E+04  0.22032200291E+04  0.25500000920E-02 0.  1.
    10030    2    1    2    0    0  0.00000000000E+00  0.00000000000E+00 -0.41904924213E+03  0.39873908160E+04  0.39653099819E+04 0.  0.
        4    1    3    3  502    0  0.11518561366E+04  0.90982843520E+03  0.11306982166E+04  0.18528465697E+04  0.12699999809E+01 0. -1.
       -4    1    3    3    0  502 -0.11518561366E+04 -0.90982843520E+03 -0.15497474587E+04  0.21345442463E+04  0.12699999809E+01 0.  1.
</event>
<event>
 5   0  0.1943459E-07  0.3907297E+04  0.7818609E-02  0.8023513E-01
       -1   -1    0    0    0  501  0.00000000000E+00  0.00000000000E+00  0.10719051867E+04  0.10719051867E+04  0.50400001928E-02 0. -1.
        1   -1    0    0  501    0  0.00000000000E+00  0.00000000000E+00 -0.35607087120E+04  0.35607087120E+04  0.50400001928E-02 0.  1.
    10030    2    1    2    0    0  0.00000000000E+00  0.00000000000E+00 -0.24888035253E+04  0.46326138987E+04  0.39072968337E+04 0.  0.
        2    1    3    3  502    0  0.30900219913E+03 -0.17258247433E+04 -0.22256304501E+03  0.17673391617E+04  0.25500000920E-02 0. -1.
       -2    1    3    3    0  502 -0.30900219913E+03  0.17258247433E+04 -0.22662404803E+04  0.28652747370E+04  0.25500000920E-02 0.  1.
</event>
<event>
 5   0  0.5872444E-07  0.3708930E+04  0.7818609E-02  0.8065986E-01
       -2   -1    0    0    0  501  0.00000000000E+00  0.00000000000E+00  0.27176432964E+04  0.27176432964E+04  0.25500000920E-02 0.  1.
        2   -1    0    0  501    0  0.00000000000E+00  0.00000000000E+00 -0.12654498104E+04  0.12654498104E+04  0.25500000920E-02 0. -1.
    10030    2    1    2    0    0  0.00000000000E+00  0.00000000000E+00  0.14521934861E+04  0.39830931068E+04  0.37089304087E+04 0.  0.
        3    1    3    3  502    0 -0.14582952356E+04  0.11455770506E+04  0.73504390916E+03  0.19948085952E+04  0.10100000352E+00 0. -1.
       -3    1    3    3    0  502  0.14582952356E+04 -0.11455770506E+04  0.71714957692E+03  0.19882845116E+04  0.10100000352E+00 0.  1.
</event>
<event>
 5   0  0.1943459E-07  0.3863182E+04  0.7818609E-02  0.8032730E-01
        1   -1    0    0  501    0  0.00000000000E+00  0.00000000000E+00  0.12419548283E+04  0.12419548283E+04  0.50400001928E-02 0. -1.
       -1   -1    0    0    0  501  0.00000000000E+00  0.00000000000E+00 -0.30041704624E+04  0.30041704624E+04  0.50400001928E-02 0.  1.
    10030    2    1    2    0    0  0.00000000000E+00  0.00000000000E+00 -0.17622156341E+04  0.42461252907E+04  0.38631821137E+04 0.  0.
        2    1    3    3  502    0  0.17109450869E+04 -0.25398447210E+03 -0.18261026355E+04  0.25152518836E+04  0.25500000920E-02 0.  1.
       -2    1    3    3    0  502 -0.17109450869E+04  0.25398447210E+03  0.63887001422E+02  0.17308734071E+04  0.25500000920E-02 0. -1.
</event>
<event>
 5   0  0.5805753E-07  0.3876293E+04  0.7818609E-02  0.8029978E-01
        2   -1    0    0  501    0  0.00000000000E+00  0.00000000000E+00  0.19591280551E+04  0.19591280551E+04  0.25500000920E-02 0. -1.
       -2   -1    0    0    0  501  0.00000000000E+00  0.00000000000E+00 -0.19173892888E+04  0.19173892888E+04  0.25500000920E-02 0.  1.
    10030    2    1    2    0    0  0.00000000000E+00  0.00000000000E+00  0.41738766266E+02  0.38765173439E+04  0.38762926351E+04 0.  0.
        1    1    3    3  502    0  0.91382854516E+03 -0.12414622712E+04  0.11957140455E+04  0.19509083166E+04  0.50400001928E-02 0. -1.
       -1    1    3    3    0  502 -0.91382854516E+03  0.12414622712E+04 -0.11539752793E+04  0.19256090273E+04  0.50400001928E-02 0.  1.
</event>
<event>
 5   0  0.5735179E-07  0.3509256E+04  0.7818609E-02  0.8111600E-01
        2   -1    0    0  501    0  0.00000000000E+00  0.00000000000E+00  0.26097687942E+04  0.26097687942E+04  0.25500000920E-02 0.  1.
       -2   -1    0    0    0  501  0.00000000000E+00  0.00000000000E+00 -0.11796902971E+04  0.11796902971E+04  0.25500000920E-02 0. -1.
    10030    2    1    2    0    0  0.00000000000E+00  0.00000000000E+00  0.14300784970E+04  0.37894590913E+04  0.35092557184E+04 0.  0.
        5    1    3    3  502    0  0.13945030783E+04  0.96159110839E+03  0.22089800429E+03  0.17082489027E+04  0.46999998093E+01 0. -1.
       -5    1    3    3    0  502 -0.13945030783E+04 -0.96159110839E+03  0.12091804927E+04  0.20812101886E+04  0.46999998093E+01 0.  1.
</event>
<event>
 5   0  0.3959190E-07  0.2623459E+04  0.7818609E-02  0.8360276E-01
        2   -1    0    0  501    0  0.00000000000E+00  0.00000000000E+00  0.19627053416E+04  0.19627053416E+04  0.25500000920E-02 0.  1.
       -2   -1    0    0    0  501  0.00000000000E+00  0.00000000000E+00 -0.87666489932E+03  0.87666489932E+03  0.25500000920E-02 0. -1.
    10030    2    1    2    0    0  0.00000000000E+00  0.00000000000E+00  0.10860404422E+04  0.28393702409E+04  0.26234594570E+04 0.  0.
        2    1    3    3  502    0  0.12686744123E+04 -0.61662075901E+02  0.89754230203E+03  0.15552874846E+04  0.25500000920E-02 0.  1.
       -2    1    3    3    0  502 -0.12686744123E+04  0.61662075901E+02  0.18849814021E+03  0.12840827562E+04  0.25500000920E-02 0. -1.
</event>
<event>
 5   0  0.1860500E-07  0.3617639E+04  0.7818609E-02  0.8086463E-01
        3   -1    0    0  501    0  0.00000000000E+00  0.00000000000E+00  0.19668395184E+04  0.19668395210E+04  0.10100000352E+00 0.  1.
       -3   -1    0    0    0  501  0.00000000000E+00  0.00000000000E+00 -0.16634949486E+04  0.16634949517E+04  0.10100000352E+00 0. -1.
    10030    2    1    2    0    0  0.00000000000E+00  0.00000000000E+00  0.30334456983E+03  0.36303344727E+04  0.36176387956E+04 0.  0.
        1    1    3    3  502    0 -0.10975472486E+04 -0.15933593858E+03 -0.12822684314E+04  0.16953495906E+04  0.50400001928E-02 0. -1.
       -1    1    3    3    0  502  0.10975472486E+04  0.15933593858E+03  0.15856130012E+04  0.19349848821E+04  0.50400001928E-02 0.  1.
</event>
<event>
 5   0  0.3959190E-07  0.3916092E+04  0.7818609E-02  0.8021691E-01
       -2   -1    0    0    0  501  0.00000000000E+00  0.00000000000E+00  0.34955502878E+04  0.34955502878E+04  0.25500000920E-02 0.  1.
        2   -1    0    0  501    0  0.00000000000E+00  0.00000000000E+00 -0.10968069228E+04  0.10968069228E+04  0.25500000920E-02 0. -1.
    10030    2    1    2    0    0  0.00000000000E+00  0.00000000000E+00  0.23987433650E+04  0.45923572106E+04  0.39160918042E+04 0.  0.
        2    1    3    3  502    0 -0.12199151726E+04  0.63362314145E+03  0.28345358350E+04  0.31502801008E+04  0.25500000920E-02 0.  1.
       -2    1    3    3    0  502  0.12199151726E+04 -0.63362314145E+03 -0.43579247006E+03  0.14420771098E+04  0.25500000920E-02 0. -1.
</event>
<event>
 5   0  0.5872444E-07  0.3862700E+04  0.7818609E-02  0.8032832E-01
       -2   -1    0    0    0  501  0.00000000000E+00  0.00000000000E+00  0.16326186612E+04  0.16326186612E+04  0.25500000920E-02 0.  1.
        2   -1    0    0  501    0  0.00000000000E+00  0.00000000000E+00 -0.22847424324E+04  0.22847424324E+04  0.25500000920E-02 0. -1.
    10030    2    1    2    0    0  0.00000000000E+00  0.00000000000E+00 -0.65212377115E+03  0.39173610936E+04  0.38627001599E+04 0.  0.
        3    1    3    3  502    0 -0.53450649810E+03 -0.72367634318E+03  0.14071302652E+04  0.16701557531E+04  0.10100000352E+00 0.  1.
       -3    1    3    3    0  502  0.53450649810E+03  0.72367634318E+03 -0.20592540363E+04  0.22472053405E+04  0.10100000352E+00 0. -1.
</event>
<event>
 5   0  0.1860500E-07  0.2831822E+04  0.7818609E-02  0.8293456E-01
        1   -1    0    0  501    0  0.00000000000E+00  0.00000000000E+00  0.23044158931E+04  0.23044158931E+04  0.50400001928E-02 0. -1.
       -1   -1    0    0    0  501  0.00000000000E+00  0.00000000000E+00 -0.86998361193E+03  0.86998361195E+03  0.50400001928E-02 0.  1.
    10030    2    1    2    0    0  0.00000000000E+00  0.00000000000E+00  0.14344322811E+04  0.31743995050E+04  0.28318220721E+04 0.  0.
        4    1    3    3  502    0  0.64680310031E+03  0.12450254966E+04  0.50346628310E+03  0.14906115017E+04  0.12699999809E+01 0.  1.
       -4    1    3    3    0  502 -0.64680310031E+03 -0.12450254966E+04  0.93096599803E+03  0.16837880033E+04  0.12699999809E+01 0. -1.
</event>
<event>
 5   0  0.5735179E-07  0.3863193E+04  0.7818609E-02  0.8032728E-01
       -2   -1    0    0    0  501  0.00000000000E+00  0.00000000000E+00  0.19501457638E+04  0.19501457638E+04  0.25500000920E-02 0.  1.
        2   -1    0    0  501    0  0.00000000000E+00  0.00000000000E+00 -0.19132232336E+04  0.19132232336E+04  0.25500000920E-02 0. -1.
    10030    2    1    2    0    0  0.00000000000E+00  0.00000000000E+00  0.36922530168E+02  0.38633689975E+04  0.38631925576E+04 0.  0.
        5    1    3    3  502    0  0.14003724567E+04 -0.90003505809E+03 -0.96134670458E+03  0.19223203947E+04  0.46999998093E+01 0. -1.
       -5    1    3    3    0  502 -0.14003724567E+04  0.90003505809E+03  0.99826923474E+03  0.19410486028E+04  0.46999998093E+01 0.  1.
</event>
<event>
 5   0  0.5872444E-07  0.2829354E+04  0.7818609E-02  0.8294213E-01
        2   -1    0    0  501    0  0.00000000000E+00  0.00000000000E+00  0.18142459907E+04  0.18142459907E+04  0.25500000920E-02 0. -1.
       -2   -1    0    0    0  501  0.00000000000E+00  0.00000000000E+00 -0.11031090833E+04  0.11031090833E+04  0.25500000920E-02 0.  1.
    10030    2    1    2    0    0  0.00000000000E+00  0.00000000000E+00  0.71113690740E+03  0.29173550740E+04  0.28293541536E+04 0.  0.
        3    1    3    3  502    0  0.50273820295E+03  0.10987194148E+04 -0.40310266437E+03  0.12737432321E+04  0.10100000352E+00 0.  1.
       -3    1    3    3    0  502 -0.50273820295E+03 -0.10987194148E+04  0.11142395718E+04  0.16436118419E+04  0.10100000352E+00 0. -1.
</event>
<event>
 5   0  0.1876027E-07  0.2772842E+04  0.7818609E-02  0.8311750E-01
        1   -1    0    0  501    0  0.00000000000E+00  0.00000000000E+00  0.16149854359E+04  0.16149854359E+04  0.50400001928E-02 0.  1.
       -1   -1    0    0    0  501  0.00000000000E+00  0.00000000000E+00 -0.11902049169E+04  0.11902049170E+04  0.50400001928E-02 0. -1.
    10030    2    1    2    0    0  0.00000000000E+00  0.00000000000E+00  0.42478051893E+03  0.28051903528E+04  0.27728423010E+04 0.  0.
        3    1    3    3  502    0 -0.12187412656E+03  0.86684126084E+03  0.13000589931E+04  0.15672971863E+04  0.10100000352E+00 0.  1.
       -3    1    3    3    0  502  0.12187412656E+03 -0.86684126084E+03 -0.87527847422E+03  0.12378931666E+04  0.10100000352E+00 0. -1.
</event>
<event>
 5   0  0.6095665E-07  0.3792592E+04  0.7818609E-02  0.8047747E-01
       -2   -1    0    0    0  501  0.00000000000E+00  0.00000000000E+00  0.15248269135E+04  0.15248269135E+04  0.25500000920E-02 0.  1.
        2   -1    0    0  501    0  0.00000000000E+00  0.00000000000E+00 -0.23582597312E+04  0.23582597312E+04  0.25500000920E-02 0. -1.
    10030    2    1    2    0    0  0.00000000000E+00  0.00000000000E+00 -0.83343281766E+03  0.38830866447E+04  0.37925916770E+04 0.  0.
        4    1    3    3  502    0 -0.11311648935E+04  0.10705465078E+04 -0.15243487233E+04  0.21792761378E+04  0.12699999809E+01 0. -1.
       -4    1    3    3    0  502  0.11311648935E+04 -0.10705465078E+04  0.69091590564E+03  0.17038105069E+04  0.12699999809E+01 0.  1.
</event>
<event>
 5   0  0.1860500E-07  0.3772919E+04  0.7818609E-02  0.8051991E-01
        1   -1    0    0  501    0  0.00000000000E+00  0.00000000000E+00  0.36453048638E+04  0.36453048638E+04  0.50400001928E-02 0.  1.
       -1   -1    0    0    0  501  0.00000000000E+00  0.00000000000E+00 -0.97625014763E+03  0.97625014764E+03  0.50400001928E-02 0. -1.
    10030    2    1    2    0    0  0.00000000000E+00  0.00000000000E+00  0.26690547162E+04  0.46215550115E+04  0.37729189822E+04 0.  0.
        4    1    3    3  502    0 -0.13061679673E+04 -0.12493221878E+04  0.19962688202E+04  0.26929484776E+04  0.12699999809E+01 0. -1.
       -4    1    3    3    0  502  0.13061679673E+04  0.12493221878E+04  0.67278589597E+03  0.19286065338E+04  0.12699999809E+01 0.  1.
</event>
<event>
 5   0  0.6095665E-07  0.3017083E+04  0.7818609E-02  0.8238870E-01
        2   -1    0    0  501    0  0.00000000000E+00  0.00000000000E+00  0.24757124852E+04  0.24757124852E+04  0.25500000920E-02 0.  1.
       -2   -1    0    0    0  501  0.00000000000E+00  0.00000000000E+00 -0.91920902068E+03  0.91920902069E+03  0.25500000920E-02 0. -1.
    10030    2    1    2    0    0  0.00000000000E+00  0.00000000000E+00  0.15565034646E+04  0.33949215059E+04  0.30170828620E+04 0.  0.
        4    1    3    3  502    0 -0.12743544466E+04 -0.33535339296E+03  0.16045548308E+04  0.20763041617E+04  0.12699999809E+01 0.  1.
       -4    1    3    3    0  502  0.12743544466E+04  0.33535339296E+03 -0.48051366252E+02  0.13186173442E+04  0.12699999809E+01 0. -1.
</event>
<event>
 5   0  0.5805753E-07  0.3298453E+04  0.7818609E-02  0.8163289E-01
        2   -1    0    0  501    0  0.00000000000E+00  0.00000000000E+00  0.16583208120E+04  0.16583208120E+04  0.25500000920E-02 0. -1.
       -2   -1    0    0    0  501  0.00000000000E+00  0.00000000000E+00 -0.16401817426E+04  0.16401817426E+04  0.25500000920E-02 0.  1.
    10030    2    1    2    0    0  0.00000000000E+00  0.00000000000E+00  0.18139069403E+02  0.32985025546E+04  0.32984526792E+04 0.  0.
        1    1    3    3  502    0 -0.13716054780E+04 -0.32405775977E+03  0.86560598274E+03  0.16539615280E+04  0.50400001928E-02 0.  1.
       -1    1    3    3    0  502  0.13716054780E+04  0.32405775977E+03 -0.84746691334E+03  0.16445410266E+04  0.50400001928E-02 0. -1.
</event>
<event>
 5   0  0.5872444E-07  0.3891068E+04  0.7818609E-02  0.8026889E-01
        2   -1    0    0  501    0  0.00000000000E+00  0.00000000000E+00  0.17673512626E+04  0.17673512626E+04  0.25500000920E-02 0.  1.
       -2   -1    0    0    0  501  0.00000000000E+00  0.00000000000E+00 -0.21416813555E+04  0.21416813555E+04  0.25500000920E-02 0. -1.
    10030    2    1    2    0    0  0.00000000000E+00  0.00000000000E+00 -0.37433009297E+03  0.39090326181E+04  0.38910683611E+04 0.  0.
        3    1    3    3  502    0  0.18072051784E+04 -0.70407173280E+03 -0.33502428130E+02  0.19398015323E+04  0.10100000352E+00 0.  1.
       -3    1    3    3    0  502 -0.18072051784E+04  0.70407173280E+03 -0.34082766484E+03  0.19692310858E+04  0.10100000352E+00 0. -1.
</event>
<event>
 5   0  0.5872444E-07  0.2690189E+04  0.7818609E-02  0.8338195E-01
        2   -1    0    0  501    0  0.00000000000E+00  0.00000000000E+00  0.16329640785E+04  0.16329640785E+04  0.25500000920E-02 0.  1.
       -2   -1    0    0    0  501  0.00000000000E+00  0.00000000000E+00 -0.11079721798E+04  0.11079721798E+04  0.25500000920E-02 0. -1.
    10030    2    1    2    0    0  0.00000000000E+00  0.00000000000E+00  0.52499189868E+03  0.27409362583E+04  0.26901886696E+04 0.  0.
        3    1    3    3  502    0 -0.50009253889E+03  0.87495268019E+03  0.11701682256E+04  0.15443213482E+04  0.10100000352E+00 0.  1.
       -3    1    3    3    0  502  0.50009253889E+03 -0.87495268019E+03 -0.64517632693E+03  0.11966149101E+04  0.10100000352E+00 0. -1.
</event>
<event>
 5   0  0.1943459E-07  0.4150840E+04  0.7818609E-02  0.7974790E-01
        1   -1    0    0  501    0  0.00000000000E+00  0.00000000000E+00  0.19586683621E+04  0.19586683621E+04  0.50400001928E-02 0.  1.
       -1   -1    0    0    0  501  0.00000000000E+00  0.00000000000E+00 -0.21991311119E+04  0.21991311119E+04  0.50400001928E-02 0. -1.
    10030    2    1    2    0    0  0.00000000000E+00  0.00000000000E+00 -0.24046274982E+03  0.41577994740E+04  0.41508401718E+04 0.  0.
        2    1    3    3  502    0  0.54272623410E+02 -0.17434757223E+04 -0.12467125430E+04  0.21440488047E+04  0.25500000920E-02 0. -1.
       -2    1    3    3    0  502 -0.54272623410E+02  0.17434757223E+04  0.10062497932E+04  0.20137506693E+04  0.25500000920E-02 0.  1.
</event>
<event>
 5   0  0.1876027E-07  0.3247222E+04  0.7818609E-02  0.8176456E-01
        1   -1    0    0  501    0  0.00000000000E+00  0.00000000000E+00  0.17886514428E+04  0.17886514428E+04  0.50400001928E-02 0.  1.
       -1   -1    0    0    0  501  0.00000000000E+00  0.00000000000E+00 -0.14737989419E+04  0.14737989419E+04  0.50400001928E-02 0. -1.
    10030    2    1    2    0    0  0.00000000000E+00  0.00000000000E+00  0.31485250092E+03  0.32624503847E+04  0.32472219535E+04 0.  0.
        3    1    3    3  502    0  0.13844557625E+03 -0.85718942938E+03  0.15357827566E+04  0.17642475963E+04  0.10100000352E+00 0.  1.
       -3    1    3    3    0  502 -0.13844557625E+03  0.85718942938E+03 -0.12209302557E+04  0.14982027883E+04  0.10100000352E+00 0. -1.
</event>
<event>
 5   0  0.1860500E-07  0.3885809E+04  0.7818609E-02  0.8027987E-01
       -3   -1    0    0    0  501  0.00000000000E+00  0.00000000000E+00  0.16070525110E+04  0.16070525141E+04  0.10100000352E+00 0.  1.
        3   -1    0    0  501    0  0.00000000000E+00  0.00000000000E+00 -0.23489455557E+04  0.23489455579E+04  0.10100000352E+00 0. -1.
    10030    2    1    2    0    0  0.00000000000E+00  0.00000000000E+00 -0.74189304471E+03  0.39559980720E+04  0.38858094981E+04 0.  0.
        3    1    3    3  502    0 -0.64720487838E+03 -0.25562240305E+03  0.14758378731E+04  0.16316600153E+04  0.10100000352E+00 0.  1.
       -3    1    3    3    0  502  0.64720487838E+03  0.25562240305E+03 -0.22177309179E+04  0.23243380567E+04  0.10100000352E+00 0. -1.
</event>
<event>
 5   0  0.1943459E-07  0.3605851E+04  0.7818609E-02  0.8089153E-01
       -1   -1    0    0    0  501  0.00000000000E+00  0.00000000000E+00  0.10693975294E+04  0.10693975294E+04  0.50400001928E-02 0.  1.
        1   -1    0    0  501    0  0.00000000000E+00  0.00000000000E+00 -0.30395990588E+04  0.30395990588E+04  0.50400001928E-02 0. -1.
    10030    2    1    2    0    0  0.00000000000E+00  0.00000000000E+00 -0.19702015294E+04  0.41089965883E+04  0.36058506480E+04 0.  0.
        2    1    3    3  502    0  0.87397642298E+03 -0.12559265264E+04 -0.20717626052E+04  0.25755361617E+04  0.25500000920E-02 0. -1.
       -2    1    3    3    0  502 -0.87397642298E+03  0.12559265264E+04  0.10156107586E+03  0.15334604266E+04  0.25500000920E-02 0.  1.
</event>
<event>
 5   0  0.2666813E-07  0.3777894E+04  0.7818609E-02  0.8050915E-01
       -1   -1    0    0    0  501  0.00000000000E+00  0.00000000000E+00  0.15123741647E+04  0.15123741647E+04  0.50400001928E-02 0.  1.
        1   -1    0    0  501    0  0.00000000000E+00  0.00000000000E+00 -0.23592846299E+04  0.23592846299E+04  0.50400001928E-02 0. -1.
    10030    2    1    2    0    0  0.00000000000E+00  0.00000000000E+00 -0.84691046525E+03  0.38716587946E+04  0.37778941867E+04 0.  0.
        1    1    3    3  502    0 -0.76624006416E+03  0.37479902777E+03  0.13037599214E+04  0.15580077278E+04  0.50400001928E-02 0.  1.
       -1    1    3    3    0  502  0.76624006416E+03 -0.37479902777E+03 -0.21506703866E+04  0.23136510668E+04  0.50400001928E-02 0. -1.
</event>
<event>
 5   0  0.6095665E-07  0.3938737E+04  0.7818609E-02  0.8017020E-01
        2   -1    0    0  501    0  0.00000000000E+00  0.00000000000E+00  0.14080265030E+04  0.14080265030E+04  0.25500000920E-02 0.  1.
       -2   -1    0    0    0  501  0.00000000000E+00  0.00000000000E+00 -0.27545026657E+04  0.27545026657E+04  0.25500000920E-02 0. -1.
    10030    2    1    2    0    0  0.00000000000E+00  0.00000000000E+00 -0.13464761627E+04  0.41625291686E+04  0.39387372371E+04 0.  0.
        4    1    3    3  502    0  0.16161411128E+04  0.35986296398E+03  0.45364815037E+03  0.17167445083E+04  0.12699999809E+01 0.  1.
       -4    1    3    3    0  502 -0.16161411128E+04 -0.35986296398E+03 -0.18001243131E+04  0.24457846604E+04  0.12699999809E+01 0. -1.
</event>
<event>
 5   0  0.1876027E-07  0.3877499E+04  0.7818609E-02  0.8029725E-01
       -1   -1    0    0    0  501  0.00000000000E+00  0.00000000000E+00  0.17692407995E+04  0.17692407995E+04  0.50400001928E-02 0.  1.
        1   -1    0    0  501    0  0.00000000000E+00  0.00000000000E+00 -0.21244990033E+04  0.21244990033E+04  0.50400001928E-02 0. -1.
    10030    2    1    2    0    0  0.00000000000E+00  0.00000000000E+00 -0.35525820378E+03  0.38937398027E+04  0.38774993566E+04 0.  0.
        3    1    3    3  502    0  0.82434541936E+03  0.14993919609E+04  0.73779680474E+03  0.18633479970E+04  0.10100000352E+00 0. -1.
       -3    1    3    3    0  502 -0.82434541936E+03 -0.14993919609E+04 -0.10930550085E+04  0.20303918057E+04  0.10100000352E+00 0.  1.
</event>
<event>
 5   0  0.3959190E-07  0.4021193E+04  0.7818609E-02  0.8000285E-01
       -2   -1    0    0    0  501  0.00000000000E+00  0.00000000000E+00  0.22927711986E+04  0.22927711986E+04  0.25500000920E-02 0. -1.
        2   -1    0    0  501    0  0.00000000000E+00  0.00000000000E+00 -0.17631490189E+04  0.17631490189E+04  0.25500000920E-02 0.  1.
    10030    2    1    2    0    0  0.00000000000E+00  0.00000000000E+00  0.52962217972E+03  0.40559202175E+04  0.40211925044E+04 0.  0.
        2    1    3    3  502    0 -0.43071770929E+03  0.33526495092E+03  0.22166138123E+04  0.22828265649E+04  0.25500000920E-02 0. -1.
       -2    1    3    3    0  502  0.43071770929E+03 -0.33526495092E+03 -0.16869916326E+04  0.17730936526E+04  0.25500000920E-02 0.  1.
</event>
<event>
 5   0  0.1860500E-07  0.3839811E+04  0.7818609E-02  0.8037665E-01
        1   -1    0    0  501    0  0.00000000000E+00  0.00000000000E+00  0.22924525750E+04  0.22924525750E+04  0.50400001928E-02 0. -1.
       -1   -1    0    0    0  501  0.00000000000E+00  0.00000000000E+00 -0.16079014156E+04  0.16079014156E+04  0.50400001928E-02 0.  1.
    10030    2    1    2    0    0  0.00000000000E+00  0.00000000000E+00  0.68455115942E+03  0.39003539906E+04  0.38398113186E+04 0.  0.
        5    1    3    3  502    0  0.16801670064E+04 -0.28524934029E+03  0.12403465680E+04  0.21077974415E+04  0.46999998093E+01 0. -1.
       -5    1    3    3    0  502 -0.16801670064E+04  0.28524934029E+03 -0.55579540857E+03  0.17925565491E+04  0.46999998093E+01 0.  1.
</event>
<event>
 5   0  0.3959190E-07  0.3940172E+04  0.7818609E-02  0.8016726E-01
       -2   -1    0    0    0  501  0.00000000000E+00  0.00000000000E+00  0.15342657785E+04  0.15342657785E+04  0.25500000920E-02 0. -1.
        2   -1    0    0  501    0  0.00000000000E+00  0.00000000000E+00 -0.25297048001E+04  0.25297048001E+04  0.25500000920E-02 0.  1.
    10030    2    1    2    0    0  0.00000000000E+00  0.00000000000E+00 -0.99543902152E+03  0.40639705786E+04  0.39401723336E+04 0.  0.
        2    1    3    3  502    0  0.78398771220E+03 -0.52262092387E+03  0.12868061745E+04  0.15948791470E+04  0.25500000920E-02 0. -1.
       -2    1    3    3    0  502 -0.78398771220E+03  0.52262092387E+03 -0.22822451960E+04  0.24690914316E+04  0.25500000920E-02 0.  1.
</event>
<event>
 5   0  0.6095665E-07  0.2425162E+04  0.7818609E-02  0.8430143E-01
       -2   -1    0    0    0  501  0.00000000000E+00  0.00000000000E+00  0.10264303971E+04  0.10264303971E+04  0.25500000920E-02 0.  1.
        2   -1    0    0  501    0  0.00000000000E+00  0.00000000000E+00 -0.14324909221E+04  0.14324909221E+04  0.25500000920E-02 0. -1.
    10030    2    1    2    0    0  0.00000000000E+00  0.00000000000E+00 -0.40606052499E+03  0.24589213192E+04  0.24251616243E+04 0.  0.
        4    1    3    3  502    0 -0.27234406863E+03 -0.11006618185E+04  0.23274672626E+03  0.11574974652E+04  0.12699999809E+01 0.  1.
       -4    1    3    3    0  502  0.27234406863E+03  0.11006618185E+04 -0.63880725125E+03  0.13014238540E+04  0.12699999809E+01 0. -1.
</event>
<event>
 5   0  0.5805753E-07  0.3688200E+04  0.7818609E-02  0.8070582E-01
       -2   -1    0    0    0  501  0.00000000000E+00  0.00000000000E+00  0.16937392764E+04  0.16937392764E+04  0.25500000920E-02 0.  1.
        2   -1    0    0  501    0  0.00000000000E+00  0.00000000000E+00 -0.20078094297E+04  0.20078094297E+04  0.25500000920E-02 0. -1.
    10030    2    1    2    0    0  0.00000000000E+00  0.00000000000E+00 -0.31407015336E+03  0.37015487061E+04  0.36882004775E+04 0.  0.
        1    1    3    3  502    0  0.19848968253E+03  0.16120092566E+04  0.71947197468E+03  0.17764042107E+04  0.50400001928E-02 0.  1.
       -1    1    3    3    0  502 -0.19848968253E+03 -0.16120092566E+04 -0.10335421280E+04  0.19251444953E+04  0.50400001928E-02 0. -1.
</event>
<event>
 5   0  0.1943459E-07  0.3939910E+04  0.7818609E-02  0.8016779E-01
        1   -1    0    0  501    0  0.00000000000E+00  0.00000000000E+00  0.17172186471E+04  0.17172186471E+04  0.50400001928E-02 0. -1.
       -1   -1    0    0    0  501  0.00000000000E+00  0.00000000000E+00 -0.22598887684E+04  0.22598887685E+04  0.50400001928E-02 0.  1.
    10030    2    1    2    0    0  0.00000000000E+00  0.00000000000E+00 -0.54267012139E+03  0.39771074155E+04  0.39399102190E+04 0.  0.
        2    1    3    3  502    0 -0.17690495711E+03 -0.70240670698E+03  0.15779138606E+04  0.17362265685E+04  0.25500000920E-02 0. -1.
       -2    1    3    3    0  502  0.17690495711E+03  0.70240670698E+03 -0.21205839820E+04  0.22408808470E+04  0.25500000920E-02 0.  1.
</event>
<event>
 5   0  0.6095665E-07  0.3892016E+04  0.7818609E-02  0.8026692E-01
        2   -1    0    0  501    0  0.00000000000E+00  0.00000000000E+00  0.16960090359E+04  0.16960090359E+04  0.25500000920E-02 0. -1.
       -2   -1    0    0    0  501  0.00000000000E+00  0.00000000000E+00 -0.22328583776E+04  0.22328583776E+04  0.25500000920E-02 0.  1.
    10030    2    1    2    0    0  0.00000000000E+00  0.00000000000E+00 -0.53684934173E+03  0.39288674135E+04  0.38920164358E+04 0.  0.
        4    1    3    3  502    0  0.92559161772E+03 -0.39395206609E+03 -0.19500390626E+04  0.21942133058E+04  0.12699999809E+01 0.  1.
       -4    1    3    3    0  502 -0.92559161772E+03  0.39395206609E+03  0.14131897208E+04  0.17346541076E+04  0.12699999809E+01 0. -1.
</event>
<event>
 5   0  0.3959190E-07  0.2829073E+04  0.7818609E-02  0.8294299E-01
        2   -1    0    0  501    0  0.00000000000E+00  0.00000000000E+00  0.14153242506E+04  0.14153242506E+04  0.25500000920E-02 0.  1.
       -2   -1    0    0    0  501  0.00000000000E+00  0.00000000000E+00 -0.14137492029E+04  0.14137492029E+04  0.25500000920E-02 0. -1.
    10030    2    1    2    0    0  0.00000000000E+00  0.00000000000E+00  0.15750476937E+01  0.28290734535E+04  0.28290730151E+04 0.  0.
        2    1    3    3  502    0 -0.22585085341E+03 -0.86166454021E+02  0.13945166465E+04  0.14153126663E+04  0.25500000920E-02 0.  1.
       -2    1    3    3    0  502  0.22585085341E+03  0.86166454021E+02 -0.13929415988E+04  0.14137607873E+04  0.25500000920E-02 0. -1.
</event>
<event>
 5   0  0.5735179E-07  0.3915961E+04  0.7818609E-02  0.8021718E-01
       -2   -1    0    0    0  501  0.00000000000E+00  0.00000000000E+00  0.14732699896E+04  0.14732699896E+04  0.25500000920E-02 0. -1.
        2   -1    0    0  501    0  0.00000000000E+00  0.00000000000E+00 -0.26021628869E+04  0.26021628869E+04  0.25500000920E-02 0.  1.
    10030    2    1    2    0    0  0.00000000000E+00  0.00000000000E+00 -0.11288928973E+04  0.40754328765E+04  0.39159614346E+04 0.  0.
        5    1    3    3  502    0 -0.26078757169E+03 -0.13431703182E+04  0.89314227863E+03  0.16339650795E+04  0.46999998093E+01 0. -1.
       -5    1    3    3    0  502  0.26078757169E+03  0.13431703182E+04 -0.20220351760E+04  0.24414677970E+04  0.46999998093E+01 0.  1.
</event>
<event>
 5   0  0.6095665E-07  0.3879069E+04  0.7818609E-02  0.8029397E-01
       -2   -1    0    0    0  501  0.00000000000E+00  0.00000000000E+00  0.15608524923E+04  0.15608524923E+04  0.25500000920E-02 0. -1.
        2   -1    0    0  501    0  0.00000000000E+00  0.00000000000E+00 -0.24100896070E+04  0.24100896070E+04  0.25500000920E-02 0.  1.
    10030    2    1    2    0    0  0.00000000000E+00  0.00000000000E+00 -0.84923711464E+03  0.39709420993E+04  0.38790691511E+04 0.  0.
        4    1    3    3  502    0  0.14531177367E+04 -0.56362093816E+03 -0.16063302802E+04  0.22381953223E+04  0.12699999809E+01 0.  1.
       -4    1    3    3    0  502 -0.14531177367E+04  0.56362093816E+03  0.75709316561E+03  0.17327467770E+04  0.12699999809E+01 0. -1.
</event>
<event>
 5   0  0.1860500E-07  0.3989293E+04  0.7818609E-02  0.8006710E-01
        1   -1    0    0  501    0  0.00000000000E+00  0.00000000000E+00  0.16947029785E+04  0.16947029785E+04  0.50400001928E-02 0.  1.
       -1   -1    0    0    0  501  0.00000000000E+00  0.00000000000E+00 -0.23476771982E+04  0.23476771982E+04  0.50400001928E-02 0. -1.
    10030    2    1    2    0    0  0.00000000000E+00  0.00000000000E+00 -0.65297421969E+03  0.40423801768E+04  0.39892934414E+04 0.  0.
        5    1    3    3  502    0  0.57189903066E+03 -0.56288381310E+03 -0.21769002137E+04  0.23200912307E+04  0.46999998093E+01 0. -1.
       -5    1    3    3    0  502 -0.57189903066E+03  0.56288381310E+03  0.15239259940E+04  0.17222889460E+04  0.46999998093E+01 0.  1.
</event>
<event>
 5   0  0.1860500E-07  0.2478044E+04  0.7818609E-02  0.8410850E-01
        1   -1    0    0  501    0  0.00000000000E+00  0.00000000000E+00  0.12242781329E+04  0.12242781329E+04  0.50400001928E-02 0. -1.
       -1   -1    0    0    0  501  0.00000000000E+00  0.00000000000E+00 -0.12539429682E+04  0.12539429683E+04  0.50400001928E-02 0.  1.
    10030    2    1    2    0    0  0.00000000000E+00  0.00000000000E+00 -0.29664835379E+02  0.24782211011E+04  0.24780435476E+04 0.  0.
        5    1    3    3  502    0 -0.33601760611E+03  0.81468521400E+03  0.85616800661E+03  0.12286844896E+04  0.46999998093E+01 0. -1.
       -5    1    3    3    0  502  0.33601760611E+03 -0.81468521400E+03 -0.88583284199E+03  0.12495366115E+04  0.46999998093E+01 0.  1.
</event>
<event>
 5   0  0.1860500E-07  0.3901865E+04  0.7818609E-02  0.8024642E-01
        1   -1    0    0  501    0  0.00000000000E+00  0.00000000000E+00  0.19416219919E+04  0.19416219919E+04  0.50400001928E-02 0.  1.
       -1   -1    0    0    0  501  0.00000000000E+00  0.00000000000E+00 -0.19602873100E+04  0.19602873100E+04  0.50400001928E-02 0. -1.
    10030    2    1    2    0    0  0.00000000000E+00  0.00000000000E+00 -0.18665318120E+02  0.39019093019E+04  0.39018646576E+04 0.  0.
        5    1    3    3  502    0 -0.18093408143E+04  0.18118452321E+03 -0.71614542046E+03  0.19543357867E+04  0.46999998093E+01 0. -1.
       -5    1    3    3    0  502  0.18093408143E+04 -0.18118452321E+03  0.69748010234E+03  0.19475735152E+04  0.46999998093E+01 0.  1.
</event>
<event>
 5   0  0.5735179E-07  0.3900719E+04  0.7818609E-02  0.8024880E-01
       -2   -1    0    0    0  501  0.00000000000E+00  0.00000000000E+00  0.18102640216E+04  0.18102640216E+04  0.25500000920E-02 0. -1.
        2   -1    0    0  501    0  0.00000000000E+00  0.00000000000E+00 -0.21012973676E+04  0.21012973676E+04  0.25500000920E-02 0.  1.
    10030    2    1    2    0    0  0.00000000000E+00  0.00000000000E+00 -0.29103334596E+03  0.39115613892E+04  0.39007194328E+04 0.  0.
        5    1    3    3  502    0  0.12679960500E+04 -0.61367687469E+03 -0.14981422805E+04  0.20564205970E+04  0.46999998093E+01 0.  1.
       -5    1    3    3    0  502 -0.12679960500E+04  0.61367687469E+03  0.12071089345E+04  0.18551407922E+04  0.46999998093E+01 0. -1.
</event>
<event>
 5   0  0.5805753E-07  0.3873267E+04  0.7818609E-02  0.8030612E-01
       -2   -1    0    0    0  501  0.00000000000E+00  0.00000000000E+00  0.18525027267E+04  0.18525027267E+04  0.25500000920E-02 0. -1.
        2   -1    0    0  501    0  0.00000000000E+00  0.00000000000E+00 -0.20245850406E+04  0.20245850406E+04  0.25500000920E-02 0.  1.
    10030    2    1    2    0    0  0.00000000000E+00  0.00000000000E+00 -0.17208231391E+03  0.38770877673E+04  0.38732669974E+04 0.  0.
        1    1    3    3  502    0 -0.74810566085E+02  0.12005560341E+04 -0.16053057582E+04  0.20059755705E+04  0.50400001928E-02 0.  1.
       -1    1    3    3    0  502  0.74810566085E+02 -0.12005560341E+04  0.14332234443E+04  0.18711121969E+04  0.50400001928E-02 0. -1.
</event>
<event>
 5   0  0.5735179E-07  0.3074667E+04  0.7818609E-02  0.8222725E-01
        2   -1    0    0  501    0  0.00000000000E+00  0.00000000000E+00  0.17215851610E+04  0.17215851610E+04  0.25500000920E-02 0.  1.
       -2   -1    0    0    0  501  0.00000000000E+00  0.00000000000E+00 -0.13728012562E+04  0.13728012563E+04  0.25500000920E-02 0. -1.
    10030    2    1    2    0    0  0.00000000000E+00  0.00000000000E+00  0.34878390478E+03  0.30943864173E+04  0.30746669880E+04 0.  0.
        5    1    3    3  502    0 -0.10006974332E+04  0.28014282401E+03 -0.96578920829E+03  0.14186776376E+04  0.46999998093E+01 0. -1.
       -5    1    3    3    0  502  0.10006974332E+04 -0.28014282401E+03  0.13145731131E+04  0.16757087797E+04  0.46999998093E+01 0.  1.
</event>
<event>
 5   0  0.3959190E-07  0.3902549E+04  0.7818609E-02  0.8024499E-01
        2   -1    0    0  501    0  0.00000000000E+00  0.00000000000E+00  0.15726040327E+04  0.15726040327E+04  0.25500000920E-02 0. -1.
       -2   -1    0    0    0  501  0.00000000000E+00  0.00000000000E+00 -0.24211258878E+04  0.24211258878E+04  0.25500000920E-02 0.  1.
    10030    2    1    2    0    0  0.00000000000E+00  0.00000000000E+00 -0.84852185505E+03  0.39937299205E+04  0.39025490823E+04 0.  0.
        2    1    3    3  502    0  0.73747345636E+03 -0.12200874003E+04  0.93915547556E+03  0.17071887331E+04  0.25500000920E-02 0. -1.
       -2    1    3    3    0  502 -0.73747345636E+03  0.12200874003E+04 -0.17876773306E+04  0.22865411874E+04  0.25500000920E-02 0.  1.
</event>
<event>
 5   0  0.1943459E-07  0.4005646E+04  0.7818609E-02  0.8003409E-01
        1   -1    0    0  501    0  0.00000000000E+00  0.00000000000E+00  0.17622626489E+04  0.17622626489E+04  0.50400001928E-02 0.  1.
       -1   -1    0    0    0  501  0.00000000000E+00  0.00000000000E+00 -0.22762210509E+04  0.22762210509E+04  0.50400001928E-02 0. -1.
    10030    2    1    2    0    0  0.00000000000E+00  0.00000000000E+00 -0.51395840194E+03  0.40384836998E+04  0.40056456851E+04 0.  0.
        2    1    3    3  502    0  0.44534337589E+03  0.61670017437E+03  0.16109505266E+04  0.17815194152E+04  0.25500000920E-02 0.  1.
       -2    1    3    3    0  502 -0.44534337589E+03 -0.61670017437E+03 -0.21249089285E+04  0.22569642846E+04  0.25500000920E-02 0. -1.
</event>
<event>
 5   0  0.6095665E-07  0.3865519E+04  0.7818609E-02  0.8032239E-01
       -2   -1    0    0    0  501  0.00000000000E+00  0.00000000000E+00  0.28993245519E+04  0.28993245519E+04  0.25500000920E-02 0. -1.
        2   -1    0    0  501    0  0.00000000000E+00  0.00000000000E+00 -0.12884238191E+04  0.12884238191E+04  0.25500000920E-02 0.  1.
    10030    2    1    2    0    0  0.00000000000E+00  0.00000000000E+00  0.16109007328E+04  0.41877483710E+04  0.38655187554E+04 0.  0.
        4    1    3    3  502    0 -0.14243219656E+04  0.99718242394E+03  0.17199058992E+04  0.24456377007E+04  0.12699999809E+01 0. -1.
       -4    1    3    3    0  502  0.14243219656E+04 -0.99718242394E+03 -0.10900516645E+03  0.17421106703E+04  0.12699999809E+01 0.  1.
</event>
<event>
 5   0  0.5735179E-07  0.4209866E+04  0.7818609E-02  0.7963498E-01
       -2   -1    0    0    0  501  0.00000000000E+00  0.00000000000E+00  0.29110072599E+04  0.29110072599E+04  0.25500000920E-02 0.  1.
        2   -1    0    0  501    0  0.00000000000E+00  0.00000000000E+00 -0.15220655749E+04  0.15220655749E+04  0.25500000920E-02 0. -1.
    10030    2    1    2    0    0  0.00000000000E+00  0.00000000000E+00  0.13889416850E+04  0.44330728347E+04  0.42098664770E+04 0.  0.
        5    1    3    3  502    0  0.65324423424E+03 -0.30312405574E+03 -0.13883027046E+04  0.15639752915E+04  0.46999998093E+01 0. -1.
       -5    1    3    3    0  502 -0.65324423424E+03  0.30312405574E+03  0.27772443897E+04  0.28690975432E+04  0.46999998093E+01 0.  1.
</event>
<event>
 5   0  0.2666813E-07  0.3966610E+04  0.7818609E-02  0.8011316E-01
        1   -1    0    0  501    0  0.00000000000E+00  0.00000000000E+00  0.25412704619E+04  0.25412704619E+04  0.50400001928E-02 0. -1.
       -1   -1    0    0    0  501  0.00000000000E+00  0.00000000000E+00 -0.15478471003E+04  0.15478471004E+04  0.50400001928E-02 0.  1.
    10030    2    1    2    0    0  0.00000000000E+00  0.00000000000E+00  0.99342336160E+03  0.40891175623E+04  0.39666096938E+04 0.  0.
        1    1    3    3  502    0  0.14035951242E+04  0.37411545904E+03  0.18887712737E+04  0.23827502123E+04  0.50400001928E-02 0. -1.
       -1    1    3    3    0  502 -0.14035951242E+04 -0.37411545904E+03 -0.89534791214E+03  0.17063673500E+04  0.50400001928E-02 0.  1.
</event>
<event>
 5   0  0.1876027E-07  0.3691071E+04  0.7818609E-02  0.8069944E-01
        1   -1    0    0  501    0  0.00000000000E+00  0.00000000000E+00  0.23096902091E+04  0.23096902091E+04  0.50400001928E-02 0. -1.
       -1   -1    0    0    0  501  0.00000000000E+00  0.00000000000E+00 -0.14746571011E+04  0.14746571011E+04  0.50400001928E-02 0.  1.
    10030    2    1    2    0    0  0.00000000000E+00  0.00000000000E+00  0.83503310795E+03  0.37843473102E+04  0.36910708843E+04 0.  0.
        3    1    3    3  502    0  0.34774669607E+03 -0.13854902574E+04 -0.78055531217E+03  0.16278137558E+04  0.10100000352E+00 0.  1.
       -3    1    3    3    0  502 -0.34774669607E+03  0.13854902574E+04  0.16155884201E+04  0.21565335544E+04  0.10100000352E+00 0. -1.
</event>
<event>
 5   0  0.1943459E-07  0.4083130E+04  0.7818609E-02  0.7987983E-01
        1   -1    0    0  501    0  0.00000000000E+00  0.00000000000E+00  0.20888152667E+04  0.20888152667E+04  0.50400001928E-02 0. -1.
       -1   -1    0    0    0  501  0.00000000000E+00  0.00000000000E+00 -0.19953834131E+04  0.19953834131E+04  0.50400001928E-02 0.  1.
    10030    2    1    2    0    0  0.00000000000E+00  0.00000000000E+00  0.93431853622E+02  0.40841986798E+04  0.40831298467E+04 0.  0.
        2    1    3    3  502    0 -0.12337258461E+04 -0.15084098822E+04 -0.56221884164E+03  0.20281690910E+04  0.25500000920E-02 0.  1.
       -2    1    3    3    0  502  0.12337258461E+04  0.15084098822E+04  0.65565069526E+03  0.20560295888E+04  0.25500000920E-02 0. -1.
</event>
<event>
 5   0  0.1876027E-07  0.3203512E+04  0.7818609E-02  0.8187890E-01
       -1   -1    0    0    0  501  0.00000000000E+00  0.00000000000E+00  0.10294866341E+04  0.10294866341E+04  0.50400001928E-02 0.  1.
        1   -1    0    0  501    0  0.00000000000E+00  0.00000000000E+00 -0.24921377257E+04  0.24921377257E+04  0.50400001928E-02 0. -1.
    10030    2    1    2    0    0  0.00000000000E+00  0.00000000000E+00 -0.14626510916E+04  0.35216243598E+04  0.32035121220E+04 0.  0.
        3    1    3    3  502    0  0.85452755546E+03 -0.11912466571E+04 -0.14406401725E+04  0.20554148141E+04  0.10100000352E+00 0. -1.
       -3    1    3    3    0  502 -0.85452755546E+03  0.11912466571E+04 -0.22010919097E+02  0.14662095457E+04  0.10100000352E+00 0.  1.
</event>
<event>
 5   0  0.1860500E-07  0.3860129E+04  0.7818609E-02  0.8033373E-01
       -1   -1    0    0    0  501  0.00000000000E+00  0.00000000000E+00  0.27075441349E+04  0.27075441349E+04  0.50400001928E-02 0. -1.
        1   -1    0    0  501    0  0.00000000000E+00  0.00000000000E+00 -0.13758403265E+04  0.13758403265E+04  0.50400001928E-02 0.  1.
    10030    2    1    2    0    0  0.00000000000E+00  0.00000000000E+00  0.13317038085E+04  0.40833844614E+04  0.38601287059E+04 0.  0.
        4    1    3    3  502    0  0.17904738154E+04 -0.48327686388E+03  0.12313678759E+04  0.22261225189E+04  0.12699999809E+01 0. -1.
       -4    1    3    3    0  502 -0.17904738154E+04  0.48327686388E+03  0.10033593262E+03  0.18572619425E+04  0.12699999809E+01 0.  1.
</event>
<event>
 5   0  0.5735179E-07  0.4110245E+04  0.7818609E-02  0.7982669E-01
       -2   -1    0    0    0  501  0.00000000000E+00  0.00000000000E+00  0.19817429939E+04  0.19817429939E+04  0.25500000920E-02 0.  1.
        2   -1    0    0  501    0  0.00000000000E+00  0.00000000000E+00 -0.21312193364E+04  0.21312193364E+04  0.25500000920E-02 0. -1.
    10030    2    1    2    0    0  0.00000000000E+00  0.00000000000E+00 -0.14947634254E+03  0.41129623303E+04  0.41102452425E+04 0.  0.
        5    1    3    3  502    0  0.11275704255E+04  0.81406418603E+02 -0.17921083497E+04  0.21188951122E+04  0.46999998093E+01 0. -1.
       -5    1    3    3    0  502 -0.11275704255E+04 -0.81406418603E+02  0.16426320071E+04  0.19940672181E+04  0.46999998093E+01 0.  1.
</event>
<event>
 5   0  0.3959190E-07  0.3830766E+04  0.7818609E-02  0.8039585E-01
        2   -1    0    0  501    0  0.00000000000E+00  0.00000000000E+00  0.22049912001E+04  0.22049912001E+04  0.25500000920E-02 0. -1.
       -2   -1    0    0    0  501  0.00000000000E+00  0.00000000000E+00 -0.16638125994E+04  0.16638125994E+04  0.25500000920E-02 0.  1.
    10030    2    1    2    0    0  0.00000000000E+00  0.00000000000E+00  0.54117860071E+03  0.38688037994E+04  0.38307660540E+04 0.  0.
        2    1    3    3  502    0 -0.14260516815E+04  0.89515421845E+03  0.11927648434E+04  0.20633982758E+04  0.25500000920E-02 0. -1.
       -2    1    3    3    0  502  0.14260516815E+04 -0.89515421845E+03 -0.65158624265E+03  0.18054055236E+04  0.25500000920E-02 0.  1.
</event>
<event>
 5   0  0.5735179E-07  0.3883906E+04  0.7818609E-02  0.8028385E-01
        2   -1    0    0  501    0  0.00000000000E+00  0.00000000000E+00  0.15767961530E+04  0.15767961530E+04  0.25500000920E-02 0.  1.
       -2   -1    0    0    0  501  0.00000000000E+00  0.00000000000E+00 -0.23916732583E+04  0.23916732583E+04  0.25500000920E-02 0. -1.
    10030    2    1    2    0    0  0.00000000000E+00  0.00000000000E+00 -0.81487710529E+03  0.39684694114E+04  0.38839058655E+04 0.  0.
        5    1    3    3  502    0 -0.16713790276E+04 -0.21344766829E+03  0.57903075801E+03  0.17816751864E+04  0.46999998093E+01 0.  1.
       -5    1    3    3    0  502  0.16713790276E+04  0.21344766829E+03 -0.13939078633E+04  0.21867942250E+04  0.46999998093E+01 0. -1.
</event>
<event>
 5   0  0.1860500E-07  0.2487168E+04  0.7818609E-02  0.8407571E-01
       -1   -1    0    0    0  501  0.00000000000E+00  0.00000000000E+00  0.82906781932E+03  0.82906781934E+03  0.50400001928E-02 0. -1.
        1   -1    0    0  501    0  0.00000000000E+00  0.00000000000E+00 -0.18653493438E+04  0.18653493438E+04  0.50400001928E-02 0.  1.
    10030    2    1    2    0    0  0.00000000000E+00  0.00000000000E+00 -0.10362815245E+04  0.26944171632E+04  0.24871679580E+04 0.  0.
        5    1    3    3  502    0 -0.93764913463E+03  0.62070335983E+03 -0.10934482575E+04  0.15684736984E+04  0.46999998093E+01 0.  1.
       -5    1    3    3    0  502  0.93764913463E+03 -0.62070335983E+03  0.57166733023E+02  0.11259434648E+04  0.46999998093E+01 0. -1.
</event>
<event>
 5   0  0.1860500E-07  0.3968119E+04  0.7818609E-02  0.8011009E-01
        3   -1    0    0  501    0  0.00000000000E+00  0.00000000000E+00  0.24662188760E+04  0.24662188780E+04  0.10100000352E+00 0.  1.
       -3   -1    0    0    0  501  0.00000000000E+00  0.00000000000E+00 -0.15961648851E+04  0.15961648883E+04  0.10100000352E+00 0. -1.
    10030    2    1    2    0    0  0.00000000000E+00  0.00000000000E+00  0.87005399087E+03  0.40623837663E+04  0.39681189395E+04 0.  0.
        1    1    3    3  502    0  0.84762020756E+03  0.30944939294E+03 -0.13739444276E+04  0.16437585690E+04  0.50400001928E-02 0. -1.
       -1    1    3    3    0  502 -0.84762020756E+03 -0.30944939294E+03  0.22439984185E+04  0.24186251973E+04  0.50400001928E-02 0.  1.
</event>
<event>
 5   0  0.5805753E-07  0.2684425E+04  0.7818609E-02  0.8340076E-01
       -2   -1    0    0    0  501  0.00000000000E+00  0.00000000000E+00  0.51035977135E+03  0.51035977136E+03  0.25500000920E-02 0. -1.
        2   -1    0    0  501    0  0.00000000000E+00  0.00000000000E+00 -0.35299302052E+04  0.35299302052E+04  0.25500000920E-02 0.  1.
    10030    2    1    2    0    0  0.00000000000E+00  0.00000000000E+00 -0.30195704338E+04  0.40402899765E+04  0.26844249830E+04 0.  0.
        1    1    3    3  502    0  0.48250580215E+03  0.79412712812E+03 -0.52037822923E+02  0.93067592628E+03  0.50400001928E-02 0. -1.
       -1    1    3    3    0  502 -0.48250580215E+03 -0.79412712812E+03 -0.29675326109E+04  0.31096140502E+04  0.50400001928E-02 0.  1.
</event>
<event>
 5   0  0.5805753E-07  0.3947993E+04  0.7818609E-02  0.8015121E-01
       -2   -1    0    0    0  501  0.00000000000E+00  0.00000000000E+00  0.19703160019E+04  0.19703160019E+04  0.25500000920E-02 0. -1.
        2   -1    0    0  501    0  0.00000000000E+00  0.00000000000E+00 -0.19776841739E+04  0.19776841739E+04  0.25500000920E-02 0.  1.
    10030    2    1    2    0    0  0.00000000000E+00  0.00000000000E+00 -0.73681720558E+01  0.39480001758E+04  0.39479933002E+04 0.  0.
        1    1    3    3  502    0  0.36144299035E+03 -0.60612436060E+03  0.18398578410E+04  0.19705594766E+04  0.50400001928E-02 0. -1.
       -1    1    3    3    0  502 -0.36144299035E+03  0.60612436060E+03 -0.18472260130E+04  0.19774406992E+04  0.50400001928E-02 0.  1.
</event>
<event>
 5   0  0.3959190E-07  0.3989331E+04  0.7818609E-02  0.8006702E-01
       -2   -1    0    0    0  501  0.00000000000E+00  0.00000000000E+00  0.14247747240E+04  0.14247747240E+04  0.25500000920E-02 0. -1.
        2   -1    0    0  501    0  0.00000000000E+00  0.00000000000E+00 -0.27925055047E+04  0.27925055047E+04  0.25500000920E-02 0.  1.
    10030    2    1    2    0    0  0.00000000000E+00  0.00000000000E+00 -0.13677307807E+04  0.42172802287E+04  0.39893314025E+04 0.  0.
        2    1    3    3  502    0 -0.13846368538E+04 -0.15332017780E+03  0.82527867842E+03  0.16192007877E+04  0.25500000920E-02 0. -1.
       -2    1    3    3    0  502  0.13846368538E+04  0.15332017780E+03 -0.21930094591E+04  0.25980794410E+04  0.25500000920E-02 0.  1.
</event>
<event>
 5   0  0.5805753E-07  0.3869499E+04  0.7818609E-02  0.8031403E-01
        2   -1    0    0  501    0  0.00000000000E+00  0.00000000000E+00  0.12137981171E+04  0.12137981171E+04  0.25500000920E-02 0. -1.
       -2   -1    0    0    0  501  0.00000000000E+00  0.00000000000E+00 -0.30839187642E+04  0.30839187642E+04  0.25500000920E-02 0.  1.
    10030    2    1    2    0    0  0.00000000000E+00  0.00000000000E+00 -0.18701206471E+04  0.42977168812E+04  0.38694985666E+04 0.  0.
        1    1    3    3  502    0 -0.63362678100E+03 -0.89431789974E+03 -0.27058545577E+04  0.29194068389E+04  0.50400001928E-02 0.  1.
       -1    1    3    3    0  502  0.63362678100E+03  0.89431789974E+03  0.83573391065E+03  0.13783100423E+04  0.50400001928E-02 0. -1.
</event>
<event>
 5   0  0.6095665E-07  0.2983040E+04  0.7818609E-02  0.8248590E-01
       -2   -1    0    0    0  501  0.00000000000E+00  0.00000000000E+00  0.10705972923E+04  0.10705972923E+04  0.25500000920E-02 0. -1.
        2   -1    0    0  501    0  0.00000000000E+00  0.00000000000E+00 -0.20779358224E+04  0.20779358224E+04  0.25500000920E-02 0.  1.
    10030    2    1    2    0    0  0.00000000000E+00  0.00000000000E+00 -0.10073385301E+04  0.31485331147E+04  0.29830403718E+04 0.  0.
        4    1    3    3  502    0 -0.79402910315E+03 -0.40258947101E+03 -0.17667505822E+04  0.19783755284E+04  0.12699999809E+01 0.  1.
       -4    1    3    3    0  502  0.79402910315E+03  0.40258947101E+03  0.75941205213E+03  0.11701575862E+04  0.12699999809E+01 0. -1.
</event>
<event>
 5   0  0.5872444E-07  0.3914380E+04  0.7818609E-02  0.8022045E-01
        2   -1    0    0  501    0  0.00000000000E+00  0.00000000000E+00  0.27183993909E+04  0.27183993909E+04  0.25500000920E-02 0.  1.
       -2   -1    0    0    0  501  0.00000000000E+00  0.00000000000E+00 -0.14091350667E+04  0.14091350667E+04  0.25500000920E-02 0. -1.
    10030    2    1    2    0    0  0.00000000000E+00  0.00000000000E+00  0.13092643242E+04  0.41275344576E+04  0.39143795968E+04 0.  0.
        3    1    3    3  502    0  0.87821853828E+03  0.14066084876E+04  0.17508471782E+04  0.24114893925E+04  0.10100000352E+00 0.  1.
       -3    1    3    3    0  502 -0.87821853828E+03 -0.14066084876E+04 -0.44158285395E+03  0.17160450651E+04  0.10100000352E+00 0. -1.
</event>
<event>
 5   0  0.5735179E-07  0.3793435E+04  0.7818609E-02  0.8047565E-01
        2   -1    0    0  501    0  0.00000000000E+00  0.00000000000E+00  0.29251163092E+04  0.29251163092E+04  0.25500000920E-02 0. -1.
       -2   -1    0    0    0  501  0.00000000000E+00  0.00000000000E+00 -0.12298783968E+04  0.12298783968E+04  0.25500000920E-02 0.  1.
    10030    2    1    2    0    0  0.00000000000E+00  0.00000000000E+00  0.16952379124E+04  0.41549947059E+04  0.37934350432E+04 0.  0.
        5    1    3    3  502    0 -0.10854873805E+04  0.14980641271E+04  0.38936959751E+03  0.18905316066E+04  0.46999998093E+01 0.  1.
       -5    1    3    3    0  502  0.10854873805E+04 -0.14980641271E+04  0.13058683149E+04  0.22644630993E+04  0.46999998093E+01 0. -1.
</event>
<event>
 5   0  0.1876027E-07  0.3819276E+04  0.7818609E-02  0.8042031E-01
       -1   -1    0    0    0  501  0.00000000000E+00  0.00000000000E+00  0.16613004368E+04  0.16613004368E+04  0.50400001928E-02 0. -1.
        1   -1    0    0  501    0  0.00000000000E+00  0.00000000000E+00 -0.21950979879E+04  0.21950979879E+04  0.50400001928E-02 0.  1.
    10030    2    1    2    0    0  0.00000000000E+00  0.00000000000E+00 -0.53379755112E+03  0.38563984247E+04  0.38192759764E+04 0.  0.
        3    1    3    3  502    0  0.14854091406E+04  0.11393440009E+04 -0.64762093003E+03  0.19808982676E+04  0.10100000352E+00 0. -1.
       -3    1    3    3    0  502 -0.14854091406E+04 -0.11393440009E+04  0.11382337891E+03  0.18755001571E+04  0.10100000352E+00 0.  1.
</event>
<event>
 5   0  0.2666813E-07  0.3773346E+04  0.7818609E-02  0.8051899E-01
        1   -1    0    0  501    0  0.00000000000E+00  0.00000000000E+00  0.24529923543E+04  0.24529923543E+04  0.50400001928E-02 0.  1.
       -1   -1    0    0    0  501  0.00000000000E+00  0.00000000000E+00 -0.14510989074E+04  0.14510989074E+04  0.50400001928E-02 0. -1.
    10030    2    1    2    0    0  0.00000000000E+00  0.00000000000E+00  0.10018934469E+04  0.39040912617E+04  0.37733457436E+04 0.  0.
        1    1    3    3  502    0 -0.43146096487E+03 -0.17860270334E+04  0.57754892694E+02  0.18383108431E+04  0.50400001928E-02 0. -1.
       -1    1    3    3    0  502  0.43146096487E+03  0.17860270334E+04  0.94413855417E+03  0.20657804186E+04  0.50400001928E-02 0.  1.
</event>
<event>
 5   0  0.1876027E-07  0.3798530E+04  0.7818609E-02  0.8046470E-01
       -1   -1    0    0    0  501  0.00000000000E+00  0.00000000000E+00  0.16457087776E+04  0.16457087776E+04  0.50400001928E-02 0.  1.
        1   -1    0    0  501    0  0.00000000000E+00  0.00000000000E+00 -0.21918869999E+04  0.21918869999E+04  0.50400001928E-02 0. -1.
    10030    2    1    2    0    0  0.00000000000E+00  0.00000000000E+00 -0.54617822223E+03  0.38375957775E+04  0.37985300711E+04 0.  0.
        3    1    3    3  502    0 -0.29088790473E+01  0.57347248882E+03  0.15561475378E+04  0.16584554038E+04  0.10100000352E+00 0.  1.
       -3    1    3    3    0  502  0.29088790473E+01 -0.57347248882E+03 -0.21023257600E+04  0.21791403737E+04  0.10100000352E+00 0. -1.
</event>
<event>
 5   0  0.1860500E-07  0.3751427E+04  0.7818609E-02  0.8056660E-01
        1   -1    0    0  501    0  0.00000000000E+00  0.00000000000E+00  0.20953481582E+04  0.20953481582E+04  0.50400001928E-02 0. -1.
       -1   -1    0    0    0  501  0.00000000000E+00  0.00000000000E+00 -0.16791008162E+04  0.16791008162E+04  0.50400001928E-02 0.  1.
    10030    2    1    2    0    0  0.00000000000E+00  0.00000000000E+00  0.41624734207E+03  0.37744489744E+04  0.37514268233E+04 0.  0.
        4    1    3    3  502    0  0.55081793844E+03 -0.17087038770E+04  0.75480873874E+03  0.19475130771E+04  0.12699999809E+01 0. -1.
       -4    1    3    3    0  502 -0.55081793844E+03  0.17087038770E+04 -0.33856139667E+03  0.18269358973E+04  0.12699999809E+01 0.  1.
</event>
<event>
 5   0  0.1943459E-07  0.2557821E+04  0.7818609E-02  0.8382671E-01
       -1   -1    0    0    0  501  0.00000000000E+00  0.00000000000E+00  0.16870582538E+04  0.16870582538E+04  0.50400001928E-02 0.  1.
        1   -1    0    0  501    0  0.00000000000E+00  0.00000000000E+00 -0.96950528035E+03  0.96950528036E+03  0.50400001928E-02 0. -1.
    10030    2    1    2    0    0  0.00000000000E+00  0.00000000000E+00  0.71755297347E+03  0.26565635342E+04  0.25578208580E+04 0.  0.
        2    1    3    3  502    0 -0.70330679504E+03  0.53035416975E+03  0.13217681073E+04  0.15883913003E+04  0.25500000920E-02 0.  1.
       -2    1    3    3    0  502  0.70330679504E+03 -0.53035416975E+03 -0.60421513384E+03  0.10681722339E+04  0.25500000920E-02 0. -1.
</event>
<event>
 5   0  0.6095665E-07  0.3809928E+04  0.7818609E-02  0.8044028E-01
       -2   -1    0    0    0  501  0.00000000000E+00  0.00000000000E+00  0.14407192957E+04  0.14407192957E+04  0.25500000920E-02 0.  1.
        2   -1    0    0  501    0  0.00000000000E+00  0.00000000000E+00 -0.25188034767E+04  0.25188034767E+04  0.25500000920E-02 0. -1.
    10030    2    1    2    0    0  0.00000000000E+00  0.00000000000E+00 -0.10780841810E+04  0.39595227724E+04  0.38099284880E+04 0.  0.
        4    1    3    3  502    0  0.14687979962E+04  0.60999514870E+03 -0.16287470522E+04  0.22764622132E+04  0.12699999809E+01 0. -1.
       -4    1    3    3    0  502 -0.14687979962E+04 -0.60999514870E+03  0.55066287126E+03  0.16830605592E+04  0.12699999809E+01 0.  1.
</event>
<event>
 5   0  0.5872444E-07  0.3283711E+04  0.7818609E-02  0.8167052E-01
        2   -1    0    0  501    0  0.00000000000E+00  0.00000000000E+00  0.28422383676E+04  0.28422383676E+04  0.25500000920E-02 0.  1.
       -2   -1    0    0    0  501  0.00000000000E+00  0.00000000000E+00 -0.94843903223E+03  0.94843903224E+03  0.25500000920E-02 0. -1.
    10030    2    1    2    0    0  0.00000000000E+00  0.00000000000E+00  0.18937993353E+04  0.37906773998E+04  0.32837111972E+04 0.  0.
        3    1    3    3  502    0  0.69627232470E+02  0.98445033979E+03  0.24616132957E+04  0.26520804005E+04  0.10100000352E+00 0.  1.
       -3    1    3    3    0  502 -0.69627232470E+02 -0.98445033979E+03 -0.56781396036E+03  0.11385969993E+04  0.10100000352E+00 0. -1.
</event>
<event>
 5   0  0.1860500E-07  0.3895014E+04  0.7818609E-02  0.8026067E-01
        1   -1    0    0  501    0  0.00000000000E+00  0.00000000000E+00  0.23364671684E+04  0.23364671684E+04  0.50400001928E-02 0.  1.
       -1   -1    0    0    0  501  0.00000000000E+00  0.00000000000E+00 -0.16232986910E+04  0.16232986910E+04  0.50400001928E-02 0. -1.
    10030    2    1    2    0    0  0.00000000000E+00  0.00000000000E+00  0.71316847738E+03  0.39597658594E+04  0.38950142983E+04 0.  0.
        4    1    3    3  502    0 -0.19226134202E+04  0.15225373483E+03  0.63155979715E+03  0.20294070448E+04  0.12699999809E+01 0.  1.
       -4    1    3    3    0  502  0.19226134202E+04 -0.15225373483E+03  0.81608680227E+02  0.19303588146E+04  0.12699999809E+01 0. -1.
</event>
<event>
 5   0  0.5805753E-07  0.4014968E+04  0.7818609E-02  0.8001534E-01
        2   -1    0    0  501    0  0.00000000000E+00  0.00000000000E+00  0.17509030563E+04  0.17509030563E+04  0.25500000920E-02 0.  1.
       -2   -1    0    0    0  501  0.00000000000E+00  0.00000000000E+00 -0.23016649580E+04  0.23016649580E+04  0.25500000920E-02 0. -1.
    10030    2    1    2    0    0  0.00000000000E+00  0.00000000000E+00 -0.55076190167E+03  0.40525680143E+04  0.40149680993E+04 0.  0.
        1    1    3    3  502    0 -0.49181819960E+03  0.19203848626E+04 -0.59493550771E+03  0.20697128836E+04  0.50400001928E-02 0.  1.
       -1    1    3    3    0  502  0.49181819960E+03 -0.19203848626E+04  0.44173606043E+02  0.19828551307E+04  0.50400001928E-02 0. -1.
</event>
<event>
 5   0  0.5805753E-07  0.3901228E+04  0.7818609E-02  0.8024774E-01
       -2   -1    0    0    0  501  0.00000000000E+00  0.00000000000E+00  0.15303242906E+04  0.15303242906E+04  0.25500000920E-02 0. -1.
        2   -1    0    0  501    0  0.00000000000E+00  0.00000000000E+00 -0.24863325922E+04  0.24863325922E+04  0.25500000920E-02 0.  1.
    10030    2    1    2    0    0  0.00000000000E+00  0.00000000000E+00 -0.95600830156E+03  0.40166568828E+04  0.39012280940E+04 0.  0.
        1    1    3    3  502    0 -0.11698008087E+04 -0.59518856985E+03  0.10076777833E+04  0.16547198799E+04  0.50400001928E-02 0. -1.
       -1    1    3    3    0  502  0.11698008087E+04  0.59518856985E+03 -0.19636860849E+04  0.23619370029E+04  0.50400001928E-02 0.  1.
</event>
<event>
 5   0  0.3959190E-07  0.3918045E+04  0.7818609E-02  0.8021287E-01
        2   -1    0    0  501    0  0.00000000000E+00  0.00000000000E+00  0.23391456791E+04  0.23391456791E+04  0.25500000920E-02 0.  1.
       -2   -1    0    0    0  501  0.00000000000E+00  0.00000000000E+00 -0.16406716544E+04  0.16406716545E+04  0.25500000920E-02 0. -1.
    10030    2    1    2    0    0  0.00000000000E+00  0.00000000000E+00  0.69847402467E+03  0.39798173336E+04  0.39180454369E+04 0.  0.
        2    1    3    3  502    0  0.11150705549E+04  0.96640227030E+03 -0.95966500600E+03  0.17601910732E+04  0.25500000920E-02 0. -1.
       -2    1    3    3    0  502 -0.11150705549E+04 -0.96640227030E+03  0.16581390307E+04  0.22196262603E+04  0.25500000920E-02 0.  1.
</event>
<event>
 5   0  0.5735179E-07  0.3907640E+04  0.7818609E-02  0.8023442E-01
        2   -1    0    0  501    0  0.00000000000E+00  0.00000000000E+00  0.29005274325E+04  0.29005274325E+04  0.25500000920E-02 0.  1.
       -2   -1    0    0    0  501  0.00000000000E+00  0.00000000000E+00 -0.13161095978E+04  0.13161095978E+04  0.25500000920E-02 0. -1.
    10030    2    1    2    0    0  0.00000000000E+00  0.00000000000E+00  0.15844178346E+04  0.42166370303E+04  0.39076396931E+04 0.  0.
        5    1    3    3  502    0 -0.26514674147E+03 -0.19169210016E+04  0.50165706403E+03  0.19991425214E+04  0.46999998093E+01 0. -1.
       -5    1    3    3    0  502  0.26514674147E+03  0.19169210016E+04  0.10827607706E+04  0.22174945090E+04  0.46999998093E+01 0.  1.
</event>
<event>
 5   0  0.1860500E-07  0.3607536E+04  0.7818609E-02  0.8088768E-01
        1   -1    0    0  501    0  0.00000000000E+00  0.00000000000E+00  0.17171114504E+04  0.17171114504E+04  0.50400001928E-02 0. -1.
       -1   -1    0    0    0  501  0.00000000000E+00  0.00000000000E+00 -0.18947975487E+04  0.18947975487E+04  0.50400001928E-02 0.  1.
    10030    2    1    2    0    0  0.00000000000E+00  0.00000000000E+00 -0.17768609828E+03  0.36119089991E+04  0.36075357612E+04 0.  0.
        4    1    3    3  502    0 -0.14000216697E+04  0.61693790865E+03  0.86777525183E+03  0.17588941297E+04  0.12699999809E+01 0. -1.
       -4    1    3    3    0  502  0.14000216697E+04 -0.61693790865E+03 -0.10454613501E+04  0.18530148694E+04  0.12699999809E+01 0.  1.
</event>
<event>
 5   0  0.5872444E-07  0.3955917E+04  0.7818609E-02  0.8013499E-01
        2   -1    0    0  501    0  0.00000000000E+00  0.00000000000E+00  0.17577204463E+04  0.17577204463E+04  0.25500000920E-02 0.  1.
       -2   -1    0    0    0  501  0.00000000000E+00  0.00000000000E+00 -0.22257919895E+04  0.22257919895E+04  0.25500000920E-02 0. -1.
    10030    2    1    2    0    0  0.00000000000E+00  0.00000000000E+00 -0.46807154322E+03  0.39835124359E+04  0.39559171323E+04 0.  0.
        3    1    3    3  502    0 -0.14755906925E+04 -0.12370557477E+04 -0.68956876894E+03  0.20452823551E+04  0.10100000352E+00 0.  1.
       -3    1    3    3    0  502  0.14755906925E+04  0.12370557477E+04  0.22149722572E+03  0.19382300808E+04  0.10100000352E+00 0. -1.
</event>
<event>
 5   0  0.5735179E-07  0.3903183E+04  0.7818609E-02  0.8024367E-01
       -2   -1    0    0    0  501  0.00000000000E+00  0.00000000000E+00  0.20473717859E+04  0.20473717859E+04  0.25500000920E-02 0.  1.
        2   -1    0    0  501    0  0.00000000000E+00  0.00000000000E+00 -0.18602923632E+04  0.18602923632E+04  0.25500000920E-02 0. -1.
    10030    2    1    2    0    0  0.00000000000E+00  0.00000000000E+00  0.18707942276E+03  0.39076641491E+04  0.39031833664E+04 0.  0.
        5    1    3    3  502    0 -0.17494547354E+04 -0.46872966783E+03 -0.63419821708E+03  0.19189916209E+04  0.46999998093E+01 0. -1.
       -5    1    3    3    0  502  0.17494547354E+04  0.46872966783E+03  0.82127763984E+03  0.19886725282E+04  0.46999998093E+01 0.  1.
</event>
<event>
 5   0  0.1860500E-07  0.3231424E+04  0.7818609E-02  0.8180567E-01
        1   -1    0    0  501    0  0.00000000000E+00  0.00000000000E+00  0.23863977220E+04  0.23863977220E+04  0.50400001928E-02 0.  1.
       -1   -1    0    0    0  501  0.00000000000E+00  0.00000000000E+00 -0.10939184712E+04  0.10939184712E+04  0.50400001928E-02 0. -1.
    10030    2    1    2    0    0  0.00000000000E+00  0.00000000000E+00  0.12924792509E+04  0.34803161932E+04  0.32314235548E+04 0.  0.
        5    1    3    3  502    0  0.10152146747E+04 -0.12566485770E+04  0.67424171333E+03  0.17505571855E+04  0.46999998093E+01 0.  1.
       -5    1    3    3    0  502 -0.10152146747E+04  0.12566485770E+04  0.61823753754E+03  0.17297590077E+04  0.46999998093E+01 0. -1.
</event>
<event>
 5   0  0.1860500E-07  0.3259202E+04  0.7818609E-02  0.8173355E-01
       -1   -1    0    0    0  501  0.00000000000E+00  0.00000000000E+00  0.81566831536E+03  0.81566831538E+03  0.50400001928E-02 0. -1.
        1   -1    0    0  501    0  0.00000000000E+00  0.00000000000E+00 -0.32557346476E+04  0.32557346476E+04  0.50400001928E-02 0.  1.
    10030    2    1    2    0    0  0.00000000000E+00  0.00000000000E+00 -0.24400663322E+04  0.40714029630E+04  0.32592021081E+04 0.  0.
        4    1    3    3  502    0  0.39291322665E+03  0.15759506210E+04 -0.13857436089E+04  0.21350147835E+04  0.12699999809E+01 0.  1.
       -4    1    3    3    0  502 -0.39291322665E+03 -0.15759506210E+04 -0.10543227234E+04  0.19363881794E+04  0.12699999809E+01 0. -1.
</event>
<event>
 5   0  0.1876027E-07  0.3993413E+04  0.7818609E-02  0.8005877E-01
       -1   -1    0    0    0  501  0.00000000000E+00  0.00000000000E+00  0.26992571057E+04  0.26992571057E+04  0.50400001928E-02 0. -1.
        1   -1    0    0  501    0  0.00000000000E+00  0.00000000000E+00 -0.14770122909E+04  0.14770122909E+04  0.50400001928E-02 0.  1.
    10030    2    1    2    0    0  0.00000000000E+00  0.00000000000E+00  0.12222448148E+04  0.41762693966E+04  0.39934125364E+04 0.  0.
        3    1    3    3  502    0 -0.12552208271E+04 -0.77898907681E+03  0.20159229350E+04  0.24992696127E+04  0.10100000352E+00 0. -1.
       -3    1    3    3    0  502  0.12552208271E+04  0.77898907681E+03 -0.79367812024E+03  0.16769997840E+04  0.10100000352E+00 0.  1.
</event>
<event>
 5   0  0.1860500E-07  0.2433523E+04  0.7818609E-02  0.8427059E-01
        1   -1    0    0  501    0  0.00000000000E+00  0.00000000000E+00  0.14589290965E+04  0.14589290965E+04  0.50400001928E-02 0.  1.
       -1   -1    0    0    0  501  0.00000000000E+00  0.00000000000E+00 -0.10147911389E+04  0.10147911389E+04  0.50400001928E-02 0. -1.
    10030    2    1    2    0    0  0.00000000000E+00  0.00000000000E+00  0.44413795762E+03  0.24737202355E+04  0.24335228123E+04 0.  0.
        5    1    3    3  502    0 -0.65023518714E+03  0.10174558170E+04  0.37442498815E+03  0.12642144991E+04  0.46999998093E+01 0.  1.
       -5    1    3    3    0  502  0.65023518714E+03 -0.10174558170E+04  0.69712969466E+02  0.12095057363E+04  0.46999998093E+01 0. -1.
</event>
<event>
 5   0  0.1860500E-07  0.3993547E+04  0.7818609E-02  0.8005850E-01
       -1   -1    0    0    0  501  0.00000000000E+00  0.00000000000E+00  0.15062457609E+04  0.15062457609E+04  0.50400001928E-02 0.  1.
        1   -1    0    0  501    0  0.00000000000E+00  0.00000000000E+00 -0.26470473215E+04  0.26470473215E+04  0.50400001928E-02 0. -1.
    10030    2    1    2    0    0  0.00000000000E+00  0.00000000000E+00 -0.11408015606E+04  0.41532930824E+04  0.39935466978E+04 0.  0.
        4    1    3    3  502    0  0.60545232495E+03 -0.17099749209E+04  0.29755817324E+03  0.18382407968E+04  0.12699999809E+01 0.  1.
       -4    1    3    3    0  502 -0.60545232495E+03  0.17099749209E+04 -0.14383597339E+04  0.23150522855E+04  0.12699999809E+01 0. -1.
</event>
<event>
 5   0  0.1860500E-07  0.3821101E+04  0.7818609E-02  0.8041642E-01
       -3   -1    0    0    0  501  0.00000000000E+00  0.00000000000E+00  0.18703662980E+04  0.18703663007E+04  0.10100000352E+00 0. -1.
        3   -1    0    0  501    0  0.00000000000E+00  0.00000000000E+00 -0.19515979187E+04  0.19515979213E+04  0.10100000352E+00 0.  1.
    10030    2    1    2    0    0  0.00000000000E+00  0.00000000000E+00 -0.81231620714E+02  0.38219642220E+04  0.38211008804E+04 0.  0.
        3    1    3    3  502    0  0.13727238128E+04  0.21955535548E+03  0.12702632860E+04  0.18831208263E+04  0.10100000352E+00 0. -1.
       -3    1    3    3    0  502 -0.13727238128E+04 -0.21955535548E+03 -0.13514949067E+04  0.19388433958E+04  0.10100000352E+00 0.  1.
</event>
<event>
 5   0  0.6095665E-07  0.4182213E+04  0.7818609E-02  0.7968764E-01
        2   -1    0    0  501    0  0.00000000000E+00  0.00000000000E+00  0.31828274522E+04  0.31828274522E+04  0.25500000920E-02 0. -1.
       -2   -1    0    0    0  501  0.00000000000E+00  0.00000000000E+00 -0.13738499775E+04  0.13738499775E+04  0.25500000920E-02 0.  1.
    10030    2    1    2    0    0  0.00000000000E+00  0.00000000000E+00  0.18089774747E+04  0.45566774298E+04  0.41822134923E+04 0.  0.
        4    1    3    3  502    0 -0.40065139540E+03 -0.13285643620E+04 -0.79990452776E+03  0.16017033655E+04  0.12699999809E+01 0.  1.
       -4    1    3    3    0  502  0.40065139540E+03  0.13285643620E+04  0.26088820025E+04  0.29549740642E+04  0.12699999809E+01 0. -1.
</event>
<event>
 5   0  0.3393046E-07  0.2470231E+04  0.7818609E-02  0.8413668E-01
        1   -1    0    0  501    0  0.00000000000E+00  0.00000000000E+00  0.13623573507E+04  0.13623573507E+04  0.50400001928E-02 0.  1.
       -1   -1    0    0    0  501  0.00000000000E+00  0.00000000000E+00 -0.11197579615E+04  0.11197579615E+04  0.50400001928E-02 0. -1.
    10030    2    1    2    0    0  0.00000000000E+00  0.00000000000E+00  0.24259938919E+03  0.24821153122E+04  0.24702311550E+04 0.  0.
        1    1    3    3  502    0 -0.64599588103E+03  0.48980476871E+03  0.10576040287E+04  0.13325710755E+04  0.50400001928E-02 0.  1.
       -1    1    3    3    0  502  0.64599588103E+03 -0.48980476871E+03 -0.81500463946E+03  0.11495442367E+04  0.50400001928E-02 0. -1.
</event>
<event>
 5   0  0.6095665E-07  0.3521810E+04  0.7818609E-02  0.8108641E-01
       -2   -1    0    0    0  501  0.00000000000E+00  0.00000000000E+00  0.20530854382E+04  0.20530854382E+04  0.25500000920E-02 0.  1.
        2   -1    0    0  501    0  0.00000000000E+00  0.00000000000E+00 -0.15103052999E+04  0.15103052999E+04  0.25500000920E-02 0. -1.
    10030    2    1    2    0    0  0.00000000000E+00  0.00000000000E+00  0.54278013829E+03  0.35633907381E+04  0.35218096589E+04 0.  0.
        4    1    3    3  502    0 -0.35127167801E+03  0.88211180956E+03  0.17718933769E+04  0.20102539114E+04  0.12699999809E+01 0.  1.
       -4    1    3    3    0  502  0.35127167801E+03 -0.88211180956E+03 -0.12291132386E+04  0.15531368267E+04  0.12699999809E+01 0. -1.
</event>
<event>
 5   0  0.5735179E-07  0.3127340E+04  0.7818609E-02  0.8208275E-01
        2   -1    0    0  501    0  0.00000000000E+00  0.00000000000E+00  0.22838017168E+04  0.22838017168E+04  0.25500000920E-02 0. -1.
       -2   -1    0    0    0  501  0.00000000000E+00  0.00000000000E+00 -0.10706109989E+04  0.10706109989E+04  0.25500000920E-02 0.  1.
    10030    2    1    2    0    0  0.00000000000E+00  0.00000000000E+00  0.12131907179E+04  0.33544127157E+04  0.31273395961E+04 0.  0.
        5    1    3    3  502    0  0.67420197406E+03 -0.13741032624E+04  0.26347265682E+03  0.15531091424E+04  0.46999998093E+01 0. -1.
       -5    1    3    3    0  502 -0.67420197406E+03  0.13741032624E+04  0.94971806108E+03  0.18013035732E+04  0.46999998093E+01 0.  1.
</event>
<event>
 5   0  0.5735179E-07  0.3870457E+04  0.7818609E-02  0.8031202E-01
        2   -1    0    0  501    0  0.00000000000E+00  0.00000000000E+00  0.18438869658E+04  0.18438869658E+04  0.25500000920E-02 0.  1.
       -2   -1    0    0    0  501  0.00000000000E+00  0.00000000000E+00 -0.20310948235E+04  0.20310948235E+04  0.25500000920E-02 0. -1.
    10030    2    1    2    0    0  0.00000000000E+00  0.00000000000E+00 -0.18720785776E+03  0.38749817893E+04  0.38704569608E+04 0.  0.
        5    1    3    3  502    0 -0.14392005887E+04  0.12601638628E+04  0.19961366735E+03  0.19233249860E+04  0.46999998093E+01 0.  1.
       -5    1    3    3    0  502  0.14392005887E+04 -0.12601638628E+04 -0.38682152510E+03  0.19516568033E+04  0.46999998093E+01 0. -1.
</event>
<event>
 5   0  0.2666813E-07  0.3903624E+04  0.7818609E-02  0.8024276E-01
       -1   -1    0    0    0  501  0.00000000000E+00  0.00000000000E+00  0.14026173630E+04  0.14026173630E+04  0.50400001928E-02 0. -1.
        1   -1    0    0  501    0  0.00000000000E+00  0.00000000000E+00 -0.27160441581E+04  0.27160441581E+04  0.50400001928E-02 0.  1.
    10030    2    1    2    0    0  0.00000000000E+00  0.00000000000E+00 -0.13134267951E+04  0.41186615210E+04  0.39036243132E+04 0.  0.
        1    1    3    3  502    0 -0.17954067861E+03  0.18337292204E+04  0.22792639293E+02  0.18426386552E+04  0.50400001928E-02 0. -1.
       -1    1    3    3    0  502  0.17954067861E+03 -0.18337292204E+04 -0.13362194344E+04  0.22760228659E+04  0.50400001928E-02 0.  1.
</event>
<event>
 5   0  0.3959190E-07  0.4002153E+04  0.7818609E-02  0.8004112E-01
       -2   -1    0    0    0  501  0.00000000000E+00  0.00000000000E+00  0.27224048287E+04  0.27224048287E+04  0.25500000920E-02 0. -1.
        2   -1    0    0  501    0  0.00000000000E+00  0.00000000000E+00 -0.14708716100E+04  0.14708716100E+04  0.25500000920E-02 0.  1.
    10030    2    1    2    0    0  0.00000000000E+00  0.00000000000E+00  0.12515332187E+04  0.41932764387E+04  0.40021534070E+04 0.  0.
        2    1    3    3  502    0  0.11826451870E+04 -0.62957875905E+02 -0.10642381336E+04  0.15922362066E+04  0.25500000920E-02 0.  1.
       -2    1    3    3    0  502 -0.11826451870E+04  0.62957875905E+02  0.23157713523E+04  0.26010402321E+04  0.25500000920E-02 0. -1.
</event>
<event>
 5   0  0.1876027E-07  0.2622597E+04  0.7818609E-02  0.8360566E-01
        1   -1    0    0  501    0  0.00000000000E+00  0.00000000000E+00  0.82328152905E+03  0.82328152907E+03  0.50400001928E-02 0.  1.
       -1   -1    0    0    0  501  0.00000000000E+00  0.00000000000E+00 -0.20885977298E+04  0.20885977298E+04  0.50400001928E-02 0. -1.
    10030    2    1    2    0    0  0.00000000000E+00  0.00000000000E+00 -0.12653162008E+04  0.29118792589E+04  0.26225971346E+04 0.  0.
        3    1    3    3  502    0  0.72542168440E+03  0.43046386010E+03  0.48206034896E+03  0.97155439646E+03  0.10100000352E+00 0.  1.
       -3    1    3    3    0  502 -0.72542168440E+03 -0.43046386010E+03 -0.17473765497E+04  0.19403248624E+04  0.10100000352E+00 0. -1.
</event>
<event>
 5   0  0.1876027E-07  0.3338337E+04  0.7818609E-02  0.8153209E-01
       -1   -1    0    0    0  501  0.00000000000E+00  0.00000000000E+00  0.14894692606E+04  0.14894692606E+04  0.50400001928E-02 0. -1.
        1   -1    0    0  501    0  0.00000000000E+00  0.00000000000E+00 -0.18705473195E+04  0.18705473195E+04  0.50400001928E-02 0.  1.
    10030    2    1    2    0    0  0.00000000000E+00  0.00000000000E+00 -0.38107805885E+03  0.33600165801E+04  0.33383365516E+04 0.  0.
        3    1    3    3  502    0 -0.10958090973E+04 -0.16186524264E+03 -0.14472972684E+04  0.18225441909E+04  0.10100000352E+00 0.  1.
       -3    1    3    3    0  502  0.10958090973E+04  0.16186524264E+03  0.10662192096E+04  0.15374723892E+04  0.10100000352E+00 0. -1.
</event>
<event>
 5   0  0.3959190E-07  0.4130511E+04  0.7818609E-02  0.7978724E-01
       -2   -1    0    0    0  501  0.00000000000E+00  0.00000000000E+00  0.16316457879E+04  0.16316457879E+04  0.25500000920E-02 0.  1.
        2   -1    0    0  501    0  0.00000000000E+00  0.00000000000E+00 -0.26140964784E+04  0.26140964784E+04  0.25500000920E-02 0. -1.
    10030    2    1    2    0    0  0.00000000000E+00  0.00000000000E+00 -0.98245069048E+03  0.42457422663E+04  0.41305106261E+04 0.  0.
        2    1    3    3  502    0 -0.14622360233E+04  0.11103236815E+04  0.48084561217E+03  0.18979371349E+04  0.25500000920E-02 0.  1.
       -2    1    3    3    0  502  0.14622360233E+04 -0.11103236815E+04 -0.14632963026E+04  0.23478051314E+04  0.25500000920E-02 0. -1.
</event>
<event>
 5   0  0.1860500E-07  0.3859496E+04  0.7818609E-02  0.8033506E-01
        1   -1    0    0  501    0  0.00000000000E+00  0.00000000000E+00  0.24244187643E+04  0.24244187643E+04  0.50400001928E-02 0.  1.
       -1   -1    0    0    0  501  0.00000000000E+00  0.00000000000E+00 -0.15360083489E+04  0.15360083489E+04  0.50400001928E-02 0. -1.
    10030    2    1    2    0    0  0.00000000000E+00  0.00000000000E+00  0.88841041534E+03  0.39604271132E+04  0.38594960621E+04 0.  0.
        5    1    3    3  502    0 -0.21203762969E+03 -0.18622643759E+04  0.91547219822E+03  0.20859290491E+04  0.46999998093E+01 0.  1.
       -5    1    3    3    0  502  0.21203762969E+03  0.18622643759E+04 -0.27061782881E+02  0.18744980641E+04  0.46999998093E+01 0. -1.
</event>
<event>
 5   0  0.5805753E-07  0.3562627E+04  0.7818609E-02  0.8099106E-01
       -2   -1    0    0    0  501  0.00000000000E+00  0.00000000000E+00  0.22966419999E+04  0.22966419999E+04  0.25500000920E-02 0.  1.
        2   -1    0    0  501    0  0.00000000000E+00  0.00000000000E+00 -0.13816163965E+04  0.13816163965E+04  0.25500000920E-02 0. -1.
    10030    2    1    2    0    0  0.00000000000E+00  0.00000000000E+00  0.91502560338E+03  0.36782583965E+04  0.35626272576E+04 0.  0.
        1    1    3    3  502    0 -0.40842589897E+03  0.17008275805E+04  0.10975405541E+03  0.17526186483E+04  0.50400001928E-02 0. -1.
       -1    1    3    3    0  502  0.40842589897E+03 -0.17008275805E+04  0.80527154797E+03  0.19256397482E+04  0.50400001928E-02 0.  1.
</event>
<event>
 5   0  0.5872444E-07  0.3541892E+04  0.7818609E-02  0.8103933E-01
       -2   -1    0    0    0  501  0.00000000000E+00  0.00000000000E+00  0.15322886891E+04  0.15322886891E+04  0.25500000920E-02 0. -1.
        2   -1    0    0  501    0  0.00000000000E+00  0.00000000000E+00 -0.20467747644E+04  0.20467747644E+04  0.25500000920E-02 0.  1.
    10030    2    1    2    0    0  0.00000000000E+00  0.00000000000E+00 -0.51448607528E+03  0.35790634535E+04  0.35418920484E+04 0.  0.
        3    1    3    3  502    0  0.27317953527E+03 -0.17067960049E+04  0.13211904004E+03  0.17335613955E+04  0.10100000352E+00 0. -1.
       -3    1    3    3    0  502 -0.27317953527E+03  0.17067960049E+04 -0.64660511531E+03  0.18455020580E+04  0.10100000352E+00 0.  1.
</event>
<event>
 5   0  0.3959190E-07  0.3862021E+04  0.7818609E-02  0.8032975E-01
        2   -1    0    0  501    0  0.00000000000E+00  0.00000000000E+00  0.17924157538E+04  0.17924157538E+04  0.25500000920E-02 0.  1.
       -2   -1    0    0    0  501  0.00000000000E+00  0.00000000000E+00 -0.20803221157E+04  0.20803221157E+04  0.25500000920E-02 0. -1.
    10030    2    1    2    0    0  0.00000000000E+00  0.00000000000E+00 -0.28790636190E+03  0.38727378694E+04  0.38620213013E+04 0.  0.
        2    1    3    3  502    0  0.14783783429E+03 -0.18399056949E+04  0.42480065458E+03  0.18940867423E+04  0.25500000920E-02 0.  1.
       -2    1    3    3    0  502 -0.14783783429E+03  0.18399056949E+04 -0.71270701648E+03  0.19786511271E+04  0.25500000920E-02 0. -1.
</event>
<event>
 5   0  0.1860500E-07  0.3240118E+04  0.7818609E-02  0.8178302E-01
        1   -1    0    0  501    0  0.00000000000E+00  0.00000000000E+00  0.12276073239E+04  0.12276073239E+04  0.50400001928E-02 0. -1.
       -1   -1    0    0    0  501  0.00000000000E+00  0.00000000000E+00 -0.21379734218E+04  0.21379734218E+04  0.50400001928E-02 0.  1.
    10030    2    1    2    0    0  0.00000000000E+00  0.00000000000E+00 -0.91036609789E+03  0.33655807456E+04  0.32401184119E+04 0.  0.
        4    1    3    3  502    0 -0.57671450107E+03 -0.11566380095E+04  0.55946187289E+03  0.14083360043E+04  0.12699999809E+01 0. -1.
       -4    1    3    3    0  502  0.57671450107E+03  0.11566380095E+04 -0.14698279708E+04  0.19572447413E+04  0.12699999809E+01 0.  1.
</event>
<event>
 5   0  0.6095665E-07  0.3907778E+04  0.7818609E-02  0.8023413E-01
       -2   -1    0    0    0  501  0.00000000000E+00  0.00000000000E+00  0.22457856850E+04  0.22457856850E+04  0.25500000920E-02 0. -1.
        2   -1    0    0  501    0  0.00000000000E+00  0.00000000000E+00 -0.16999320658E+04  0.16999320658E+04  0.25500000920E-02 0.  1.
    10030    2    1    2    0    0  0.00000000000E+00  0.00000000000E+00  0.54585361919E+03  0.39457177507E+04  0.39077784475E+04 0.  0.
        4    1    3    3  502    0 -0.17522023918E+03 -0.16067332108E+04 -0.83563386380E+03  0.18194997418E+04  0.12699999809E+01 0.  1.
       -4    1    3    3    0  502  0.17522023918E+03  0.16067332108E+04  0.13814874830E+04  0.21262180090E+04  0.12699999809E+01 0. -1.
</event>
<event>
 5   0  0.3959190E-07  0.2849350E+04  0.7818609E-02  0.8288109E-01
       -2   -1    0    0    0  501  0.00000000000E+00  0.00000000000E+00  0.81495096390E+03  0.81495096390E+03  0.25500000920E-02 0.  1.
        2   -1    0    0  501    0  0.00000000000E+00  0.00000000000E+00 -0.24905782777E+04  0.24905782777E+04  0.25500000920E-02 0. -1.
    10030    2    1    2    0    0  0.00000000000E+00  0.00000000000E+00 -0.16756273138E+04  0.33055292416E+04  0.28493502193E+04 0.  0.
        2    1    3    3  502    0 -0.98871896364E+03  0.54950035167E+03 -0.18426119282E+04  0.21621134437E+04  0.25500000920E-02 0. -1.
       -2    1    3    3    0  502  0.98871896364E+03 -0.54950035167E+03  0.16698461434E+03  0.11434157979E+04  0.25500000920E-02 0.  1.
</event>
<event>
 5   0  0.6095665E-07  0.3931841E+04  0.7818609E-02  0.8018439E-01
        2   -1    0    0  501    0  0.00000000000E+00  0.00000000000E+00  0.15762173705E+04  0.15762173705E+04  0.25500000920E-02 0.  1.
       -2   -1    0    0    0  501  0.00000000000E+00  0.00000000000E+00 -0.24519737288E+04  0.24519737288E+04  0.25500000920E-02 0. -1.
    10030    2    1    2    0    0  0.00000000000E+00  0.00000000000E+00 -0.87575635823E+03  0.40281910993E+04  0.39318410870E+04 0.  0.
        4    1    3    3  502    0 -0.79552133867E+03  0.94317874313E+03 -0.20058735981E+04  0.23549885023E+04  0.12699999809E+01 0. -1.
       -4    1    3    3    0  502  0.79552133867E+03 -0.94317874313E+03  0.11301172399E+04  0.16732025970E+04  0.12699999809E+01 0.  1.
</event>
<event>
 5   0  0.5872444E-07  0.4048597E+04  0.7818609E-02  0.7994814E-01
       -2   -1    0    0    0  501  0.00000000000E+00  0.00000000000E+00  0.27457821476E+04  0.27457821476E+04  0.25500000920E-02 0.  1.
        2   -1    0    0  501    0  0.00000000000E+00  0.00000000000E+00 -0.14923922255E+04  0.14923922255E+04  0.25500000920E-02 0. -1.
    10030    2    1    2    0    0  0.00000000000E+00  0.00000000000E+00  0.12533899221E+04  0.42381743731E+04  0.40485967594E+04 0.  0.
        3    1    3    3  502    0 -0.15587879335E+04 -0.12845708830E+04  0.48686734289E+03  0.20777348230E+04  0.10100000352E+00 0. -1.
       -3    1    3    3    0  502  0.15587879335E+04  0.12845708830E+04  0.76652257919E+03  0.21604395501E+04  0.10100000352E+00 0.  1.
</event>
<event>
 5   0  0.5735179E-07  0.3816494E+04  0.7818609E-02  0.8042625E-01
        2   -1    0    0  501    0  0.00000000000E+00  0.00000000000E+00  0.18080905844E+04  0.18080905844E+04  0.25500000920E-02 0.  1.
       -2   -1    0    0    0  501  0.00000000000E+00  0.00000000000E+00 -0.20139511081E+04  0.20139511081E+04  0.25500000920E-02 0. -1.
    10030    2    1    2    0    0  0.00000000000E+00  0.00000000000E+00 -0.20586052374E+03  0.38220416925E+04  0.38164936976E+04 0.  0.
        5    1    3    3  502    0 -0.52381171785E+03  0.29006214653E+03  0.17115726068E+04  0.18132891779E+04  0.46999998093E+01 0.  1.
       -5    1    3    3    0  502  0.52381171785E+03 -0.29006214653E+03 -0.19174331305E+04  0.20087525145E+04  0.46999998093E+01 0. -1.
</event>
<event>
 5   0  0.5805753E-07  0.3729992E+04  0.7818609E-02  0.8061347E-01
        2   -1    0    0  501    0  0.00000000000E+00  0.00000000000E+00  0.11350245061E+04  0.11350245061E+04  0.25500000920E-02 0.  1.
       -2   -1    0    0    0  501  0.00000000000E+00  0.00000000000E+00 -0.30644366402E+04  0.30644366402E+04  0.25500000920E-02 0. -1.
    10030    2    1    2    0    0  0.00000000000E+00  0.00000000000E+00 -0.19294121340E+04  0.41994611463E+04  0.37299923239E+04 0.  0.
        1    1    3    3  502    0 -0.87324816280E+03 -0.12774939632E+04  0.20730483322E+03  0.15612586185E+04  0.50400001928E-02 0.  1.
       -1    1    3    3    0  502  0.87324816280E+03  0.12774939632E+04 -0.21367169672E+04  0.26382025278E+04  0.50400001928E-02 0. -1.
</event>
<event>
 5   0  0.3959190E-07  0.3940365E+04  0.7818609E-02  0.8016686E-01
        2   -1    0    0  501    0  0.00000000000E+00  0.00000000000E+00  0.26698853764E+04  0.26698853764E+04  0.25500000920E-02 0. -1.
       -2   -1    0    0    0  501  0.00000000000E+00  0.00000000000E+00 -0.14538522263E+04  0.14538522263E+04  0.25500000920E-02 0.  1.
    10030    2    1    2    0    0  0.00000000000E+00  0.00000000000E+00  0.12160331501E+04  0.41237376027E+04  0.39403648554E+04 0.  0.
        2    1    3    3  502    0  0.14573302829E+04 -0.12680387529E+04  0.20284998827E+03  0.19423907820E+04  0.25500000920E-02 0. -1.
       -2    1    3    3    0  502 -0.14573302829E+04  0.12680387529E+04  0.10131831619E+04  0.21813468206E+04  0.25500000920E-02 0.  1.
</event>
<event>
 5   0  0.1860500E-07  0.4054167E+04  0.7818609E-02  0.7993708E-01
       -1   -1    0    0    0  501  0.00000000000E+00  0.00000000000E+00  0.27326726165E+04  0.27326726165E+04  0.50400001928E-02 0. -1.
        1   -1    0    0  501    0  0.00000000000E+00  0.00000000000E+00 -0.15036808265E+04  0.15036808265E+04  0.50400001928E-02 0.  1.
    10030    2    1    2    0    0  0.00000000000E+00  0.00000000000E+00  0.12289917900E+04  0.42363534429E+04  0.40541669519E+04 0.  0.
        4    1    3    3  502    0 -0.17200423936E+04 -0.58464577101E+03 -0.32519879778E+03  0.18455656001E+04  0.12699999809E+01 0.  1.
       -4    1    3    3    0  502  0.17200423936E+04  0.58464577101E+03  0.15541905878E+04  0.23907878428E+04  0.12699999809E+01 0. -1.
</event>
<event>
 5   0  0.5735179E-07  0.4116137E+04  0.7818609E-02  0.7981519E-01
       -2   -1    0    0    0  501  0.00000000000E+00  0.00000000000E+00  0.18140400186E+04  0.18140400186E+04  0.25500000920E-02 0.  1.
        2   -1    0    0  501    0  0.00000000000E+00  0.00000000000E+00 -0.23349239189E+04  0.23349239189E+04  0.25500000920E-02 0. -1.
    10030    2    1    2    0    0  0.00000000000E+00  0.00000000000E+00 -0.52088390031E+03  0.41489639375E+04  0.41161367466E+04 0.  0.
        5    1    3    3  502    0  0.17362505731E+04  0.64487677298E+03 -0.11649228177E+04  0.21880355038E+04  0.46999998093E+01 0. -1.
       -5    1    3    3    0  502 -0.17362505731E+04 -0.64487677298E+03  0.64403891737E+03  0.19609284336E+04  0.46999998093E+01 0.  1.
</event>
<event>
 5   0  0.1860500E-07  0.3896814E+04  0.7818609E-02  0.8025692E-01
        1   -1    0    0  501    0  0.00000000000E+00  0.00000000000E+00  0.23615803784E+04  0.23615803784E+04  0.50400001928E-02 0.  1.
       -1   -1    0    0    0  501  0.00000000000E+00  0.00000000000E+00 -0.16075209735E+04  0.16075209735E+04  0.50400001928E-02 0. -1.
    10030    2    1    2    0    0  0.00000000000E+00  0.00000000000E+00  0.75405940492E+03  0.39691013518E+04  0.38968140776E+04 0.  0.
        5    1    3    3  502    0 -0.16402856277E+04 -0.10099942625E+04  0.67510589713E+03  0.20411799071E+04  0.46999998093E+01 0.  1.
       -5    1    3    3    0  502  0.16402856277E+04  0.10099942625E+04  0.78953507791E+02  0.19279214448E+04  0.46999998093E+01 0. -1.
</event>
<event>
 5   0  0.1860500E-07  0.2680950E+04  0.7818609E-02  0.8341213E-01
        3   -1    0    0  501    0  0.00000000000E+00  0.00000000000E+00  0.14903087458E+04  0.14903087492E+04  0.10100000352E+00 0. -1.
       -3   -1    0    0    0  501  0.00000000000E+00  0.00000000000E+00 -0.12057052318E+04  0.12057052360E+04  0.10100000352E+00 0.  1.
    10030    2    1    2    0    0  0.00000000000E+00  0.00000000000E+00  0.28460351400E+03  0.26960139852E+04  0.26809498780E+04 0.  0.
        1    1    3    3  502    0 -0.94690642024E+03 -0.68969367565E+03 -0.51294516861E+03  0.12788361431E+04  0.50400001928E-02 0.  1.
       -1    1    3    3    0  502  0.94690642024E+03  0.68969367565E+03  0.79754868262E+03  0.14171778421E+04  0.50400001928E-02 0. -1.
</event>
<event>
 5   0  0.1876027E-07  0.3807221E+04  0.7818609E-02  0.8044607E-01
        1   -1    0    0  501    0  0.00000000000E+00  0.00000000000E+00  0.21332706587E+04  0.21332706587E+04  0.50400001928E-02 0. -1.
       -1   -1    0    0    0  501  0.00000000000E+00  0.00000000000E+00 -0.16986746913E+04  0.16986746913E+04  0.50400001928E-02 0.  1.
    10030    2    1    2    0    0  0.00000000000E+00  0.00000000000E+00  0.43459596741E+03  0.38319453500E+04  0.38072209694E+04 0.  0.
        3    1    3    3  502    0 -0.99895698360E+03 -0.92375477885E+03  0.15572946643E+04  0.20679469597E+04  0.10100000352E+00 0. -1.
       -3    1    3    3    0  502  0.99895698360E+03  0.92375477885E+03 -0.11226986969E+04  0.17639983902E+04  0.10100000352E+00 0.  1.
</event>
<event>
 5   0  0.3959190E-07  0.3865132E+04  0.7818609E-02  0.8032320E-01
        2   -1    0    0  501    0  0.00000000000E+00  0.00000000000E+00  0.13369366426E+04  0.13369366426E+04  0.25500000920E-02 0. -1.
       -2   -1    0    0    0  501  0.00000000000E+00  0.00000000000E+00 -0.27935595809E+04  0.27935595809E+04  0.25500000920E-02 0.  1.
    10030    2    1    2    0    0  0.00000000000E+00  0.00000000000E+00 -0.14566229383E+04  0.41304962236E+04  0.38651324258E+04 0.  0.
        2    1    3    3  502    0  0.15892828596E+04  0.93625193492E+03 -0.11216445776E+03  0.18479633543E+04  0.25500000920E-02 0. -1.
       -2    1    3    3    0  502 -0.15892828596E+04 -0.93625193492E+03 -0.13444584805E+04  0.22825328693E+04  0.25500000920E-02 0.  1.
</event>
<event>
 5   0  0.2720546E-07  0.2406555E+04  0.7818609E-02  0.8437054E-01
        1   -1    0    0  501    0  0.00000000000E+00  0.00000000000E+00  0.19230054356E+04  0.19230054356E+04  0.50400001928E-02 0. -1.
       -1   -1    0    0    0  501  0.00000000000E+00  0.00000000000E+00 -0.75292379804E+03  0.75292379806E+03  0.50400001928E-02 0.  1.
    10030    2    1    2    0    0  0.00000000000E+00  0.00000000000E+00  0.11700816376E+04  0.26759292337E+04  0.24065548456E+04 0.  0.
        1    1    3    3  502    0 -0.46034792880E+03 -0.21368169362E+03  0.17981682805E+04  0.18684189162E+04  0.50400001928E-02 0. -1.
       -1    1    3    3    0  502  0.46034792880E+03  0.21368169362E+03 -0.62808664289E+03  0.80751031742E+03  0.50400001928E-02 0.  1.
</event>
<event>
 5   0  0.5872444E-07  0.3942037E+04  0.7818609E-02  0.8016343E-01
        2   -1    0    0  501    0  0.00000000000E+00  0.00000000000E+00  0.13202556042E+04  0.13202556042E+04  0.25500000920E-02 0. -1.
       -2   -1    0    0    0  501  0.00000000000E+00  0.00000000000E+00 -0.29425473150E+04  0.29425473150E+04  0.25500000920E-02 0.  1.
    10030    2    1    2    0    0  0.00000000000E+00  0.00000000000E+00 -0.16222917109E+04  0.42628029192E+04  0.39420373327E+04 0.  0.
        3    1    3    3  502    0  0.16491368295E+04  0.48558468320E+03  0.23139279500E+03  0.17346433070E+04  0.10100000352E+00 0.  1.
       -3    1    3    3    0  502 -0.16491368295E+04 -0.48558468320E+03 -0.18536845059E+04  0.25281596121E+04  0.10100000352E+00 0. -1.
</event>
<event>
 5   0  0.5735179E-07  0.2717451E+04  0.7818609E-02  0.8329365E-01
       -2   -1    0    0    0  501  0.00000000000E+00  0.00000000000E+00  0.13063315111E+04  0.13063315111E+04  0.25500000920E-02 0.  1.
        2   -1    0    0  501    0  0.00000000000E+00  0.00000000000E+00 -0.14132207119E+04  0.14132207119E+04  0.25500000920E-02 0. -1.
    10030    2    1    2    0    0  0.00000000000E+00  0.00000000000E+00 -0.10688920078E+03  0.27195522230E+04  0.27174508261E+04 0.  0.
        5    1    3    3  502    0  0.10167808290E+04  0.33817372512E+02  0.84787707176E+03  0.13243505909E+04  0.46999998093E+01 0.  1.
       -5    1    3    3    0  502 -0.10167808290E+04 -0.33817372512E+02 -0.95476627254E+03  0.13952016321E+04  0.46999998093E+01 0. -1.
</event>
<event>
 5   0  0.5735179E-07  0.3806429E+04  0.7818609E-02  0.8044777E-01
       -2   -1    0    0    0  501  0.00000000000E+00  0.00000000000E+00  0.17379793765E+04  0.17379793765E+04  0.25500000920E-02 0.  1.
        2   -1    0    0  501    0  0.00000000000E+00  0.00000000000E+00 -0.20841593118E+04  0.20841593118E+04  0.25500000920E-02 0. -1.
    10030    2    1    2    0    0  0.00000000000E+00  0.00000000000E+00 -0.34617993524E+03  0.38221386883E+04  0.38064292460E+04 0.  0.
        5    1    3    3  502    0  0.12725207264E+04  0.10826543162E+04  0.74212900946E+03  0.18281758460E+04  0.46999998093E+01 0.  1.
       -5    1    3    3    0  502 -0.12725207264E+04 -0.10826543162E+04 -0.10883089447E+04  0.19939628423E+04  0.46999998093E+01 0. -1.
</event>
<event>
 5   0  0.3959190E-07  0.3950395E+04  0.7818609E-02  0.8014629E-01
       -2   -1    0    0    0  501  0.00000000000E+00  0.00000000000E+00  0.24640434365E+04  0.24640434365E+04  0.25500000920E-02 0.  1.
        2   -1    0    0  501    0  0.00000000000E+00  0.00000000000E+00 -0.15833347289E+04  0.15833347289E+04  0.25500000920E-02 0. -1.
    10030    2    1    2    0    0  0.00000000000E+00  0.00000000000E+00  0.88070870763E+03  0.40473781654E+04  0.39503951936E+04 0.  0.
        2    1    3    3  502    0 -0.16258341549E+04  0.82891460906E+03  0.12145302829E+04  0.21921496154E+04  0.25500000920E-02 0.  1.
       -2    1    3    3    0  502  0.16258341549E+04 -0.82891460906E+03 -0.33382157522E+03  0.18552285500E+04  0.25500000920E-02 0. -1.
</event>
<event>
 5   0  0.1860500E-07  0.3844293E+04  0.7818609E-02  0.8036716E-01
        1   -1    0    0  501    0  0.00000000000E+00  0.00000000000E+00  0.19686516649E+04  0.19686516649E+04  0.50400001928E-02 0. -1.
       -1   -1    0    0    0  501  0.00000000000E+00  0.00000000000E+00 -0.18767400351E+04  0.18767400351E+04  0.50400001928E-02 0.  1.
    10030    2    1    2    0    0  0.00000000000E+00  0.00000000000E+00  0.91911629796E+02  0.38453917000E+04  0.38442931182E+04 0.  0.
        4    1    3    3  502    0  0.11126116035E+04 -0.11031640313E+04  0.11597237441E+04  0.19493168638E+04  0.12699999809E+01 0. -1.
       -4    1    3    3    0  502 -0.11126116035E+04  0.11031640313E+04 -0.10678121143E+04  0.18960748362E+04  0.12699999809E+01 0.  1.
</event>
<event>
 5   0  0.6095665E-07  0.3968556E+04  0.7818609E-02  0.8010920E-01
       -2   -1    0    0    0  501  0.00000000000E+00  0.00000000000E+00  0.22359212942E+04  0.22359212942E+04  0.25500000920E-02 0. -1.
        2   -1    0    0  501    0  0.00000000000E+00  0.00000000000E+00 -0.17609558835E+04  0.17609558835E+04  0.25500000920E-02 0.  1.
    10030    2    1    2    0    0  0.00000000000E+00  0.00000000000E+00  0.47496541072E+03  0.39968771777E+04  0.39685557868E+04 0.  0.
        4    1    3    3  502    0  0.13831637808E+03  0.19792091375E+04  0.20632790353E+03  0.19947363352E+04  0.12699999809E+01 0.  1.
       -4    1    3    3    0  502 -0.13831637808E+03 -0.19792091375E+04  0.26863750719E+03  0.20021408426E+04  0.12699999809E+01 0. -1.
</event>
<event>
 5   0  0.5872444E-07  0.3894190E+04  0.7818609E-02  0.8026239E-01
        2   -1    0    0  501    0  0.00000000000E+00  0.00000000000E+00  0.18100033353E+04  0.18100033353E+04  0.25500000920E-02 0. -1.
       -2   -1    0    0    0  501  0.00000000000E+00  0.00000000000E+00 -0.20945704949E+04  0.20945704949E+04  0.25500000920E-02 0.  1.
    10030    2    1    2    0    0  0.00000000000E+00  0.00000000000E+00 -0.28456715961E+03  0.39045738302E+04  0.38941903301E+04 0.  0.
        3    1    3    3  502    0  0.55567272324E+03  0.11331820605E+04  0.13443382967E+04  0.18439412202E+04  0.10100000352E+00 0. -1.
       -3    1    3    3    0  502 -0.55567272324E+03 -0.11331820605E+04 -0.16289054563E+04  0.20606326100E+04  0.10100000352E+00 0.  1.
</event>
<event>
 5   0  0.6095665E-07  0.3706056E+04  0.7818609E-02  0.8066621E-01
        2   -1    0    0  501    0  0.00000000000E+00  0.00000000000E+00  0.16989308770E+04  0.16989308770E+04  0.25500000920E-02 0. -1.
       -2   -1    0    0    0  501  0.00000000000E+00  0.00000000000E+00 -0.20211022740E+04  0.20211022740E+04  0.25500000920E-02 0.  1.
    10030    2    1    2    0    0  0.00000000000E+00  0.00000000000E+00 -0.32217139703E+03  0.37200331510E+04  0.37060561565E+04 0.  0.
        4    1    3    3  502    0  0.14838323433E+04  0.41332942554E+03 -0.11950734358E+04  0.19495645070E+04  0.12699999809E+01 0.  1.
       -4    1    3    3    0  502 -0.14838323433E+04 -0.41332942554E+03  0.87290203879E+03  0.17704686440E+04  0.12699999809E+01 0. -1.
</event>
<event>
 5   0  0.5872444E-07  0.3884097E+04  0.7818609E-02  0.8028345E-01
        2   -1    0    0  501    0  0.00000000000E+00  0.00000000000E+00  0.27083124050E+04  0.27083124050E+04  0.25500000920E-02 0.  1.
       -2   -1    0    0    0  501  0.00000000000E+00  0.00000000000E+00 -0.13925841894E+04  0.13925841894E+04  0.25500000920E-02 0. -1.
    10030    2    1    2    0    0  0.00000000000E+00  0.00000000000E+00  0.13157282156E+04  0.41008965944E+04  0.38840973393E+04 0.  0.
        3    1    3    3  502    0 -0.52952701178E+03 -0.16946907777E+04  0.14886636322E+04  0.23170013181E+04  0.10100000352E+00 0. -1.
       -3    1    3    3    0  502  0.52952701178E+03  0.16946907777E+04 -0.17293541668E+03  0.17838952763E+04  0.10100000352E+00 0.  1.
</event>
<event>
 5   0  0.5872444E-07  0.3996788E+04  0.7818609E-02  0.8005195E-01
       -2   -1    0    0    0  501  0.00000000000E+00  0.00000000000E+00  0.26415609933E+04  0.26415609933E+04  0.25500000920E-02 0. -1.
        2   -1    0    0  501    0  0.00000000000E+00  0.00000000000E+00 -0.15118250815E+04  0.15118250815E+04  0.25500000920E-02 0.  1.
    10030    2    1    2    0    0  0.00000000000E+00  0.00000000000E+00  0.11297359118E+04  0.41533860748E+04  0.39967877922E+04 0.  0.
        3    1    3    3  502    0 -0.15068445101E+04  0.11626016308E+04  0.11981336786E+04  0.22489435857E+04  0.10100000352E+00 0. -1.
       -3    1    3    3    0  502  0.15068445101E+04 -0.11626016308E+04 -0.68397766746E+02  0.19044424891E+04  0.10100000352E+00 0.  1.
</event>
<event>
 5   0  0.1860500E-07  0.3536912E+04  0.7818609E-02  0.8105097E-01
       -1   -1    0    0    0  501  0.00000000000E+00  0.00000000000E+00  0.16910256133E+04  0.16910256133E+04  0.50400001928E-02 0.  1.
        1   -1    0    0  501    0  0.00000000000E+00  0.00000000000E+00 -0.18494321886E+04  0.18494321886E+04  0.50400001928E-02 0. -1.
    10030    2    1    2    0    0  0.00000000000E+00  0.00000000000E+00 -0.15840657525E+03  0.35404578019E+04  0.35369123263E+04 0.  0.
        4    1    3    3  502    0 -0.13840755052E+04  0.25618956072E+02  0.10224062453E+04  0.17209408701E+04  0.12699999809E+01 0.  1.
       -4    1    3    3    0  502  0.13840755052E+04 -0.25618956072E+02 -0.11808128206E+04  0.18195169318E+04  0.12699999809E+01 0. -1.
</event>
<event>
 5   0  0.1876027E-07  0.2545092E+04  0.7818609E-02  0.8387095E-01
       -1   -1    0    0    0  501  0.00000000000E+00  0.00000000000E+00  0.15278509196E+04  0.15278509196E+04  0.50400001928E-02 0. -1.
        1   -1    0    0  501    0  0.00000000000E+00  0.00000000000E+00 -0.10599024083E+04  0.10599024083E+04  0.50400001928E-02 0.  1.
    10030    2    1    2    0    0  0.00000000000E+00  0.00000000000E+00  0.46794851135E+03  0.25877533279E+04  0.25450916441E+04 0.  0.
        3    1    3    3  502    0 -0.33489385770E+03 -0.32831434949E+03 -0.96882965441E+03  0.10763712731E+04  0.10100000352E+00 0.  1.
       -3    1    3    3    0  502  0.33489385770E+03  0.32831434949E+03  0.14367781658E+04  0.15113820549E+04  0.10100000352E+00 0. -1.
</event>
<event>
 5   0  0.1860500E-07  0.3966758E+04  0.7818609E-02  0.8011286E-01
        1   -1    0    0  501    0  0.00000000000E+00  0.00000000000E+00  0.22188894712E+04  0.22188894713E+04  0.50400001928E-02 0. -1.
       -1   -1    0    0    0  501  0.00000000000E+00  0.00000000000E+00 -0.17728656918E+04  0.17728656918E+04  0.50400001928E-02 0.  1.
    10030    2    1    2    0    0  0.00000000000E+00  0.00000000000E+00  0.44602377947E+03  0.39917551630E+04  0.39667583831E+04 0.  0.
        5    1    3    3  502    0  0.16840255660E+04 -0.10389173180E+04  0.35980831438E+03  0.20111627019E+04  0.46999998093E+01 0.  1.
       -5    1    3    3    0  502 -0.16840255660E+04  0.10389173180E+04  0.86215465097E+02  0.19805924611E+04  0.46999998093E+01 0. -1.
</event>
<event>
 5   0  0.5805753E-07  0.3892807E+04  0.7818609E-02  0.8026527E-01
        2   -1    0    0  501    0  0.00000000000E+00  0.00000000000E+00  0.23688401389E+04  0.23688401389E+04  0.25500000920E-02 0.  1.
       -2   -1    0    0    0  501  0.00000000000E+00  0.00000000000E+00 -0.15992999879E+04  0.15992999879E+04  0.25500000920E-02 0. -1.
    10030    2    1    2    0    0  0.00000000000E+00  0.00000000000E+00  0.76954015103E+03  0.39681401268E+04  0.38928067024E+04 0.  0.
        1    1    3    3  502    0  0.88539715064E+03 -0.13295442066E+04  0.15184389033E+04  0.22039220981E+04  0.50400001928E-02 0. -1.
       -1    1    3    3    0  502 -0.88539715064E+03  0.13295442066E+04 -0.74889875226E+03  0.17642180287E+04  0.50400001928E-02 0.  1.
</event>
<event>
 5   0  0.5735179E-07  0.3889439E+04  0.7818609E-02  0.8027229E-01
        2   -1    0    0  501    0  0.00000000000E+00  0.00000000000E+00  0.20550587207E+04  0.20550587207E+04  0.25500000920E-02 0. -1.
       -2   -1    0    0    0  501  0.00000000000E+00  0.00000000000E+00 -0.18403044033E+04  0.18403044033E+04  0.25500000920E-02 0.  1.
    10030    2    1    2    0    0  0.00000000000E+00  0.00000000000E+00  0.21475431741E+03  0.38953631240E+04  0.38894388350E+04 0.  0.
        5    1    3    3  502    0  0.11923543077E+04 -0.15280586753E+04  0.26648831233E+03  0.19564534804E+04  0.46999998093E+01 0. -1.
       -5    1    3    3    0  502 -0.11923543077E+04  0.15280586753E+04 -0.51733994912E+02  0.19389096437E+04  0.46999998093E+01 0.  1.
</event>
<event>
 5   0  0.1860500E-07  0.3788290E+04  0.7818609E-02  0.8048673E-01
        1   -1    0    0  501    0  0.00000000000E+00  0.00000000000E+00  0.30766522568E+04  0.30766522568E+04  0.50400001928E-02 0.  1.
       -1   -1    0    0    0  501  0.00000000000E+00  0.00000000000E+00 -0.11661326847E+04  0.11661326847E+04  0.50400001928E-02 0. -1.
    10030    2    1    2    0    0  0.00000000000E+00  0.00000000000E+00  0.19105195721E+04  0.42427849416E+04  0.37882897229E+04 0.  0.
        5    1    3    3  502    0  0.13234393881E+04 -0.78353733407E+03  0.21934970292E+04  0.26789688081E+04  0.46999998093E+01 0.  1.
       -5    1    3    3    0  502 -0.13234393881E+04  0.78353733407E+03 -0.28297745710E+03  0.15638161334E+04  0.46999998093E+01 0. -1.
</event>
<event>
 5   0  0.2666813E-07  0.3586615E+04  0.7818609E-02  0.8093565E-01
       -1   -1    0    0    0  501  0.00000000000E+00  0.00000000000E+00  0.14608694501E+04  0.14608694501E+04  0.50400001928E-02 0.  1.
        1   -1    0    0  501    0  0.00000000000E+00  0.00000000000E+00 -0.22013960852E+04  0.22013960852E+04  0.50400001928E-02 0. -1.
    10030    2    1    2    0    0  0.00000000000E+00  0.00000000000E+00 -0.74052663507E+03  0.36622655354E+04  0.35866152783E+04 0.  0.
        1    1    3    3  502    0  0.42048759548E+03 -0.16067438848E+04 -0.10609299017E+04  0.19707886710E+04  0.50400001928E-02 0.  1.
       -1    1    3    3    0  502 -0.42048759548E+03  0.16067438848E+04  0.32040326661E+03  0.16914768644E+04  0.50400001928E-02 0. -1.
</event>
<event>
 5   0  0.3959190E-07  0.2718308E+04  0.7818609E-02  0.8329089E-01
        2   -1    0    0  501    0  0.00000000000E+00  0.00000000000E+00  0.23961625657E+04  0.23961625657E+04  0.25500000920E-02 0.  1.
       -2   -1    0    0    0  501  0.00000000000E+00  0.00000000000E+00 -0.77094059181E+03  0.77094059182E+03  0.25500000920E-02 0. -1.
    10030    2    1    2    0    0  0.00000000000E+00  0.00000000000E+00  0.16252219739E+04  0.31671031575E+04  0.27183075518E+04 0.  0.
        2    1    3    3  502    0 -0.99599912857E+03  0.21354657344E+03 -0.23577453883E+03  0.10455649364E+04  0.25500000920E-02 0. -1.
       -2    1    3    3    0  502  0.99599912857E+03 -0.21354657344E+03  0.18609965127E+04  0.21215382211E+04  0.25500000920E-02 0.  1.
</event>
<event>
 5   0  0.1860500E-07  0.2769009E+04  0.7818609E-02  0.8312955E-01
       -1   -1    0    0    0  501  0.00000000000E+00  0.00000000000E+00  0.11622624812E+04  0.11622624812E+04  0.50400001928E-02 0. -1.
        1   -1    0    0  501    0  0.00000000000E+00  0.00000000000E+00 -0.16492427331E+04  0.16492427331E+04  0.50400001928E-02 0.  1.
    10030    2    1    2    0    0  0.00000000000E+00  0.00000000000E+00 -0.48698025188E+03  0.28115052143E+04  0.27690091738E+04 0.  0.
        4    1    3    3  502    0 -0.16255863450E+03  0.10885521988E+04  0.60932892745E+03  0.12580359907E+04  0.12699999809E+01 0. -1.
       -4    1    3    3    0  502  0.16255863450E+03 -0.10885521988E+04 -0.10963091793E+04  0.15534692236E+04  0.12699999809E+01 0.  1.
</event>
<event>
 5   0  0.3959190E-07  0.3826320E+04  0.7818609E-02  0.8040530E-01
       -2   -1    0    0    0  501  0.00000000000E+00  0.00000000000E+00  0.14183679852E+04  0.14183679852E+04  0.25500000920E-02 0.  1.
        2   -1    0    0  501    0  0.00000000000E+00  0.00000000000E+00 -0.25805583695E+04  0.25805583695E+04  0.25500000920E-02 0. -1.
    10030    2    1    2    0    0  0.00000000000E+00  0.00000000000E+00 -0.11621903843E+04  0.39989263547E+04  0.38263200991E+04 0.  0.
        2    1    3    3  502    0  0.70705648115E+03 -0.29186738754E+03 -0.24137865134E+04  0.25320901982E+04  0.25500000920E-02 0. -1.
       -2    1    3    3    0  502 -0.70705648115E+03  0.29186738754E+03  0.12515961291E+04  0.14668361564E+04  0.25500000920E-02 0.  1.
</event>
<event>
 5   0  0.5805753E-07  0.3788360E+04  0.7818609E-02  0.8048657E-01
        2   -1    0    0  501    0  0.00000000000E+00  0.00000000000E+00  0.27282584364E+04  0.27282584364E+04  0.25500000920E-02 0.  1.
       -2   -1    0    0    0  501  0.00000000000E+00  0.00000000000E+00 -0.13150946056E+04  0.13150946056E+04  0.25500000920E-02 0. -1.
    10030    2    1    2    0    0  0.00000000000E+00  0.00000000000E+00  0.14131638308E+04  0.40433530420E+04  0.37883600422E+04 0.  0.
        1    1    3    3  502    0 -0.73205701021E+03 -0.33245539062E+03 -0.11239346086E+04  0.13819055892E+04  0.50400001928E-02 0. -1.
       -1    1    3    3    0  502  0.73205701021E+03  0.33245539062E+03  0.25370984394E+04  0.26614474528E+04  0.50400001928E-02 0.  1.
</event>
<event>
 5   0  0.5735179E-07  0.3847634E+04  0.7818609E-02  0.8036009E-01
       -2   -1    0    0    0  501  0.00000000000E+00  0.00000000000E+00  0.28205229216E+04  0.28205229216E+04  0.25500000920E-02 0.  1.
        2   -1    0    0  501    0  0.00000000000E+00  0.00000000000E+00 -0.13121934117E+04  0.13121934117E+04  0.25500000920E-02 0. -1.
    10030    2    1    2    0    0  0.00000000000E+00  0.00000000000E+00  0.15083295099E+04  0.41327163334E+04  0.38476338680E+04 0.  0.
        5    1    3    3  502    0 -0.14002486329E+03  0.41921601718E+03 -0.12569148489E+04  0.13323685897E+04  0.46999998093E+01 0. -1.
       -5    1    3    3    0  502  0.14002486329E+03 -0.41921601718E+03  0.27652443588E+04  0.28003477437E+04  0.46999998093E+01 0.  1.
</event>
<event>
 5   0  0.2666813E-07  0.3796063E+04  0.7818609E-02  0.8047000E-01
        1   -1    0    0  501    0  0.00000000000E+00  0.00000000000E+00  0.12204131990E+04  0.12204131991E+04  0.50400001928E-02 0.  1.
       -1   -1    0    0    0  501  0.00000000000E+00  0.00000000000E+00 -0.29518888952E+04  0.29518888952E+04  0.50400001928E-02 0. -1.
    10030    2    1    2    0    0  0.00000000000E+00  0.00000000000E+00 -0.17314756961E+04  0.41723020942E+04  0.37960633134E+04 0.  0.
        1    1    3    3  502    0  0.92270790867E+02  0.18938404206E+04 -0.96015114681E+03  0.21253318946E+04  0.50400001928E-02 0. -1.
       -1    1    3    3    0  502 -0.92270790867E+02 -0.18938404206E+04 -0.77132454930E+03  0.20469701996E+04  0.50400001928E-02 0.  1.
</event>
<event>
 5   0  0.1860500E-07  0.3878841E+04  0.7818609E-02  0.8029444E-01
        3   -1    0    0  501    0  0.00000000000E+00  0.00000000000E+00  0.15703628052E+04  0.15703628085E+04  0.10100000352E+00 0. -1.
       -3   -1    0    0    0  501  0.00000000000E+00  0.00000000000E+00 -0.23952121210E+04  0.23952121232E+04  0.10100000352E+00 0.  1.
    10030    2    1    2    0    0  0.00000000000E+00  0.00000000000E+00 -0.82484931580E+03  0.39655749317E+04  0.38788410827E+04 0.  0.
        2    1    3    3  502    0 -0.91827910172E+03  0.10413335004E+04  0.97201190697E+03  0.16948212635E+04  0.25500000920E-02 0. -1.
       -2    1    3    3    0  502  0.91827910172E+03 -0.10413335004E+04 -0.17968612228E+04  0.22707536682E+04  0.25500000920E-02 0.  1.
</event>
<event>
 5   0  0.6095665E-07  0.4011082E+04  0.7818609E-02  0.8002315E-01
        2   -1    0    0  501    0  0.00000000000E+00  0.00000000000E+00  0.25611695777E+04  0.25611695777E+04  0.25500000920E-02 0.  1.
       -2   -1    0    0    0  501  0.00000000000E+00  0.00000000000E+00 -0.15704525638E+04  0.15704525638E+04  0.25500000920E-02 0. -1.
    10030    2    1    2    0    0  0.00000000000E+00  0.00000000000E+00  0.99071701383E+03  0.41316221415E+04  0.40110823126E+04 0.  0.
        4    1    3    3  502    0  0.11421829717E+04 -0.16359613606E+04  0.28617379282E+03  0.20156509041E+04  0.12699999809E+01 0.  1.
       -4    1    3    3    0  502 -0.11421829717E+04  0.16359613606E+04  0.70454322101E+03  0.21159712374E+04  0.12699999809E+01 0. -1.
</event>
<event>
 5   0  0.1943459E-07  0.3885394E+04  0.7818609E-02  0.8028074E-01
        1   -1    0    0  501    0  0.00000000000E+00  0.00000000000E+00  0.23473105980E+04  0.23473105980E+04  0.50400001928E-02 0. -1.
       -1   -1    0    0    0  501  0.00000000000E+00  0.00000000000E+00 -0.16078276915E+04  0.16078276915E+04  0.50400001928E-02 0.  1.
    10030    2    1    2    0    0  0.00000000000E+00  0.00000000000E+00  0.73948290653E+03  0.39551382896E+04  0.38853936635E+04 0.  0.
        2    1    3    3  502    0 -0.36905802439E+03 -0.16271266827E+04 -0.64327317557E+03  0.17881681815E+04  0.25500000920E-02 0.  1.
       -2    1    3    3    0  502  0.36905802439E+03  0.16271266827E+04  0.13827560821E+04  0.21669701081E+04  0.25500000920E-02 0. -1.
</event>
<event>
 5   0  0.3959190E-07  0.3874781E+04  0.7818609E-02  0.8030295E-01
       -2   -1    0    0    0  501  0.00000000000E+00  0.00000000000E+00  0.11624322598E+04  0.11624322598E+04  0.25500000920E-02 0. -1.
        2   -1    0    0  501    0  0.00000000000E+00  0.00000000000E+00 -0.32289890221E+04  0.32289890221E+04  0.25500000920E-02 0.  1.
    10030    2    1    2    0    0  0.00000000000E+00  0.00000000000E+00 -0.20665567624E+04  0.43914212819E+04  0.38747805129E+04 0.  0.
        2    1    3    3  502    0 -0.13331125528E+03 -0.13167888216E+04 -0.26367665817E+04  0.29502953577E+04  0.25500000920E-02 0.  1.
       -2    1    3    3    0  502  0.13331125528E+03  0.13167888216E+04  0.57020981928E+03  0.14411259242E+04  0.25500000920E-02 0. -1.
</event>
<event>
 5   0  0.5735179E-07  0.3999373E+04  0.7818609E-02  0.8004673E-01
        2   -1    0    0  501    0  0.00000000000E+00  0.00000000000E+00  0.19468928562E+04  0.19468928562E+04  0.25500000920E-02 0. -1.
       -2   -1    0    0    0  501  0.00000000000E+00  0.00000000000E+00 -0.20539120509E+04  0.20539120509E+04  0.25500000920E-02 0.  1.
    10030    2    1    2    0    0  0.00000000000E+00  0.00000000000E+00 -0.10701919472E+03  0.40008049071E+04  0.39993733005E+04 0.  0.
        5    1    3    3  502    0  0.17179883263E+03  0.19303296589E+02  0.19393975790E+04  0.19470933505E+04  0.46999998093E+01 0. -1.
       -5    1    3    3    0  502 -0.17179883263E+03 -0.19303296589E+02 -0.20464167737E+04  0.20537115566E+04  0.46999998093E+01 0.  1.
</event>
<event>
 5   0  0.6095665E-07  0.4250456E+04  0.7818609E-02  0.7955843E-01
       -2   -1    0    0    0  501  0.00000000000E+00  0.00000000000E+00  0.17631755659E+04  0.17631755659E+04  0.25500000920E-02 0. -1.
        2   -1    0    0  501    0  0.00000000000E+00  0.00000000000E+00 -0.25616242510E+04  0.25616242510E+04  0.25500000920E-02 0.  1.
    10030    2    1    2    0    0  0.00000000000E+00  0.00000000000E+00 -0.79844868506E+03  0.43247998169E+04  0.42504556407E+04 0.  0.
        4    1    3    3  502    0  0.14376415813E+04  0.10727040009E+02 -0.19917400290E+04  0.24564116800E+04  0.12699999809E+01 0.  1.
       -4    1    3    3    0  502 -0.14376415813E+04 -0.10727040009E+02  0.11932913439E+04  0.18683881369E+04  0.12699999809E+01 0. -1.
</event>
<event>
 5   0  0.1876027E-07  0.3882831E+04  0.7818609E-02  0.8028610E-01
        1   -1    0    0  501    0  0.00000000000E+00  0.00000000000E+00  0.11267930594E+04  0.11267930594E+04  0.50400001928E-02 0.  1.
       -1   -1    0    0    0  501  0.00000000000E+00  0.00000000000E+00 -0.33449738284E+04  0.33449738284E+04  0.50400001928E-02 0. -1.
    10030    2    1    2    0    0  0.00000000000E+00  0.00000000000E+00 -0.22181807690E+04  0.44717668878E+04  0.38828305623E+04 0.  0.
        3    1    3    3  502    0  0.49160037655E+03 -0.13856149288E+04  0.35108608557E+03  0.15115757046E+04  0.10100000352E+00 0.  1.
       -3    1    3    3    0  502 -0.49160037655E+03  0.13856149288E+04 -0.25692668545E+04  0.29601911832E+04  0.10100000352E+00 0. -1.
</event>
<event>
 5   0  0.1860500E-07  0.3654396E+04  0.7818609E-02  0.8078144E-01
        1   -1    0    0  501    0  0.00000000000E+00  0.00000000000E+00  0.25470495717E+04  0.25470495717E+04  0.50400001928E-02 0. -1.
       -1   -1    0    0    0  501  0.00000000000E+00  0.00000000000E+00 -0.13107919552E+04  0.13107919552E+04  0.50400001928E-02 0.  1.
    10030    2    1    2    0    0  0.00000000000E+00  0.00000000000E+00  0.12362576165E+04  0.38578415268E+04  0.36543957574E+04 0.  0.
        4    1    3    3  502    0 -0.12752525530E+03  0.19250540186E+03  0.25315838796E+04  0.25420935414E+04  0.12699999809E+01 0. -1.
       -4    1    3    3    0  502  0.12752525530E+03 -0.19250540186E+03 -0.12953262631E+04  0.13157479855E+04  0.12699999809E+01 0.  1.
</event>
<event>
 5   0  0.1876027E-07  0.3924242E+04  0.7818609E-02  0.8020006E-01
        1   -1    0    0  501    0  0.00000000000E+00  0.00000000000E+00  0.26207574244E+04  0.26207574244E+04  0.50400001928E-02 0. -1.
       -1   -1    0    0    0  501  0.00000000000E+00  0.00000000000E+00 -0.14690103492E+04  0.14690103492E+04  0.50400001928E-02 0.  1.
    10030    2    1    2    0    0  0.00000000000E+00  0.00000000000E+00  0.11517470752E+04  0.40897677736E+04  0.39242424896E+04 0.  0.
        3    1    3    3  502    0 -0.31040825546E+03  0.18234964414E+04 -0.10627874502E+03  0.18527783836E+04  0.10100000352E+00 0.  1.
       -3    1    3    3    0  502  0.31040825546E+03 -0.18234964414E+04  0.12580258202E+04  0.22369893901E+04  0.10100000352E+00 0. -1.
</event>
<event>
 5   0  0.5805753E-07  0.3938922E+04  0.7818609E-02  0.8016982E-01
       -2   -1    0    0    0  501  0.00000000000E+00  0.00000000000E+00  0.16463253224E+04  0.16463253224E+04  0.25500000920E-02 0.  1.
        2   -1    0    0  501    0  0.00000000000E+00  0.00000000000E+00 -0.23560212607E+04  0.23560212607E+04  0.25500000920E-02 0. -1.
    10030    2    1    2    0    0  0.00000000000E+00  0.00000000000E+00 -0.70969593826E+03  0.40023465831E+04  0.39389224220E+04 0.  0.
        1    1    3    3  502    0 -0.40906891485E+02 -0.56587406381E+03 -0.22711877807E+04  0.23409785914E+04  0.50400001928E-02 0. -1.
       -1    1    3    3    0  502  0.40906891485E+02  0.56587406381E+03  0.15614918425E+04  0.16613679917E+04  0.50400001928E-02 0.  1.
</event>
<event>
 5   0  0.3959190E-07  0.3918209E+04  0.7818609E-02  0.8021253E-01
        2   -1    0    0  501    0  0.00000000000E+00  0.00000000000E+00  0.20273456251E+04  0.20273456251E+04  0.25500000920E-02 0. -1.
       -2   -1    0    0    0  501  0.00000000000E+00  0.00000000000E+00 -0.18931602937E+04  0.18931602937E+04  0.25500000920E-02 0.  1.
    10030    2    1    2    0    0  0.00000000000E+00  0.00000000000E+00  0.13418533141E+03  0.39205059188E+04  0.39182088965E+04 0.  0.
        2    1    3    3  502    0  0.70460604550E+03 -0.18165945407E+04  0.27118487472E+03  0.19672383285E+04  0.25500000920E-02 0.  1.
       -2    1    3    3    0  502 -0.70460604550E+03  0.18165945407E+04 -0.13699954331E+03  0.19532675904E+04  0.25500000920E-02 0. -1.
</event>
<event>
 5   0  0.1943459E-07  0.3753255E+04  0.7818609E-02  0.8056261E-01
       -1   -1    0    0    0  501  0.00000000000E+00  0.00000000000E+00  0.17273671098E+04  0.17273671098E+04  0.50400001928E-02 0.  1.
        1   -1    0    0  501    0  0.00000000000E+00  0.00000000000E+00 -0.20387857635E+04  0.20387857635E+04  0.50400001928E-02 0. -1.
    10030    2    1    2    0    0  0.00000000000E+00  0.00000000000E+00 -0.31141865374E+03  0.37661528733E+04  0.37532553720E+04 0.  0.
        2    1    3    3  502    0  0.66070695448E+03 -0.35808754182E+03  0.15697843419E+04  0.17403974394E+04  0.25500000920E-02 0.  1.
       -2    1    3    3    0  502 -0.66070695448E+03  0.35808754182E+03 -0.18812029956E+04  0.20257554339E+04  0.25500000920E-02 0. -1.
</event>
<event>
 5   0  0.6095665E-07  0.3168375E+04  0.7818609E-02  0.8197220E-01
       -2   -1    0    0    0  501  0.00000000000E+00  0.00000000000E+00  0.81643944304E+03  0.81643944305E+03  0.25500000920E-02 0. -1.
        2   -1    0    0  501    0  0.00000000000E+00  0.00000000000E+00 -0.30738962755E+04  0.30738962755E+04  0.25500000920E-02 0.  1.
    10030    2    1    2    0    0  0.00000000000E+00  0.00000000000E+00 -0.22574568325E+04  0.38903357185E+04  0.31683750808E+04 0.  0.
        4    1    3    3  502    0 -0.33077452636E+02  0.20032216412E+03  0.80039716726E+03  0.82574834276E+03  0.12699999809E+01 0. -1.
       -4    1    3    3    0  502  0.33077452636E+02 -0.20032216412E+03 -0.30578539997E+04  0.30645873758E+04  0.12699999809E+01 0.  1.
</event>
<event>
 5   0  0.5735179E-07  0.3857228E+04  0.7818609E-02  0.8033984E-01
        2   -1    0    0  501    0  0.00000000000E+00  0.00000000000E+00  0.24927709085E+04  0.24927709085E+04  0.25500000920E-02 0.  1.
       -2   -1    0    0    0  501  0.00000000000E+00  0.00000000000E+00 -0.14921351380E+04  0.14921351380E+04  0.25500000920E-02 0. -1.
    10030    2    1    2    0    0  0.00000000000E+00  0.00000000000E+00  0.10006357705E+04  0.39849060465E+04  0.38572275346E+04 0.  0.
        5    1    3    3  502    0  0.18687082617E+04  0.45256712316E+03  0.34486652870E+03  0.19534181787E+04  0.46999998093E+01 0.  1.
       -5    1    3    3    0  502 -0.18687082617E+04 -0.45256712316E+03  0.65576924182E+03  0.20314878677E+04  0.46999998093E+01 0. -1.
</event>
<event>
 5   0  0.1860500E-07  0.2491407E+04  0.7818609E-02  0.8406053E-01
        1   -1    0    0  501    0  0.00000000000E+00  0.00000000000E+00  0.18309498766E+04  0.18309498766E+04  0.50400001928E-02 0.  1.
       -1   -1    0    0    0  501  0.00000000000E+00  0.00000000000E+00 -0.84752608911E+03  0.84752608912E+03  0.50400001928E-02 0. -1.
    10030    2    1    2    0    0  0.00000000000E+00  0.00000000000E+00  0.98342378751E+03  0.26784759657E+04  0.24914074643E+04 0.  0.
        4    1    3    3  502    0 -0.42311335508E+03  0.51780592327E+03 -0.63821689325E+03  0.92437562773E+03  0.12699999809E+01 0. -1.
       -4    1    3    3    0  502  0.42311335508E+03 -0.51780592327E+03  0.16216406808E+04  0.17541003380E+04  0.12699999809E+01 0.  1.
</event>
<event>
 5   0  0.6095665E-07  0.3875016E+04  0.7818609E-02  0.8030245E-01
       -2   -1    0    0    0  501  0.00000000000E+00  0.00000000000E+00  0.26385183973E+04  0.26385183973E+04  0.25500000920E-02 0.  1.
        2   -1    0    0  501    0  0.00000000000E+00  0.00000000000E+00 -0.14227445877E+04  0.14227445877E+04  0.25500000920E-02 0. -1.
    10030    2    1    2    0    0  0.00000000000E+00  0.00000000000E+00  0.12157738096E+04  0.40612629850E+04  0.38750162680E+04 0.  0.
        4    1    3    3  502    0  0.32081601536E+03 -0.52108540668E+03 -0.13188070347E+04  0.14538591831E+04  0.12699999809E+01 0. -1.
       -4    1    3    3    0  502 -0.32081601536E+03  0.52108540668E+03  0.25345808443E+04  0.26074038018E+04  0.12699999809E+01 0.  1.
</event>
<event>
 5   0  0.1860500E-07  0.3873273E+04  0.7818609E-02  0.8030611E-01
        1   -1    0    0  501    0  0.00000000000E+00  0.00000000000E+00  0.23684442783E+04  0.23684442783E+04  0.50400001928E-02 0.  1.
       -1   -1    0    0    0  501  0.00000000000E+00  0.00000000000E+00 -0.15835549747E+04  0.15835549747E+04  0.50400001928E-02 0. -1.
    10030    2    1    2    0    0  0.00000000000E+00  0.00000000000E+00  0.78488930358E+03  0.39519992530E+04  0.38732734059E+04 0.  0.
        4    1    3    3  502    0 -0.15409135920E+04 -0.11205408735E+04  0.38208656152E+02  0.19056463632E+04  0.12699999809E+01 0.  1.
       -4    1    3    3    0  502  0.15409135920E+04  0.11205408735E+04  0.74668064743E+03  0.20463528898E+04  0.12699999809E+01 0. -1.
</event>
<event>
 5   0  0.5805753E-07  0.3847812E+04  0.7818609E-02  0.8035972E-01
        2   -1    0    0  501    0  0.00000000000E+00  0.00000000000E+00  0.24671790671E+04  0.24671790671E+04  0.25500000920E-02 0. -1.
       -2   -1    0    0    0  501  0.00000000000E+00  0.00000000000E+00 -0.15002615975E+04  0.15002615975E+04  0.25500000920E-02 0.  1.
    10030    2    1    2    0    0  0.00000000000E+00  0.00000000000E+00  0.96691746959E+03  0.39674406646E+04  0.38478118501E+04 0.  0.
        1    1    3    3  502    0  0.12575017970E+04  0.85557715253E+03 -0.73134348776E+03  0.16876570536E+04  0.50400001928E-02 0.  1.
       -1    1    3    3    0  502 -0.12575017970E+04 -0.85557715253E+03  0.16982609573E+04  0.22797836110E+04  0.50400001928E-02 0. -1.
</event>
<event>
 5   0  0.1943459E-07  0.3917534E+04  0.7818609E-02  0.8021392E-01
       -1   -1    0    0    0  501  0.00000000000E+00  0.00000000000E+00  0.24862964504E+04  0.24862964504E+04  0.50400001928E-02 0. -1.
        1   -1    0    0  501    0  0.00000000000E+00  0.00000000000E+00 -0.15431662645E+04  0.15431662645E+04  0.50400001928E-02 0.  1.
    10030    2    1    2    0    0  0.00000000000E+00  0.00000000000E+00  0.94313018590E+03  0.40294627150E+04  0.39175343296E+04 0.  0.
        2    1    3    3  502    0  0.31316563500E+03  0.19230386252E+04  0.26426644557E+03  0.19662113374E+04  0.25500000920E-02 0. -1.
       -2    1    3    3    0  502 -0.31316563500E+03 -0.19230386252E+04  0.67886374033E+03  0.20632513776E+04  0.25500000920E-02 0.  1.
</event>
<event>
 5   0  0.3959190E-07  0.3832186E+04  0.7818609E-02  0.8039283E-01
       -2   -1    0    0    0  501  0.00000000000E+00  0.00000000000E+00  0.15727121894E+04  0.15727121894E+04  0.25500000920E-02 0. -1.
        2   -1    0    0  501    0  0.00000000000E+00  0.00000000000E+00 -0.23344463225E+04  0.23344463225E+04  0.25500000920E-02 0.  1.
    10030    2    1    2    0    0  0.00000000000E+00  0.00000000000E+00 -0.76173413317E+03  0.39071585119E+04  0.38321858968E+04 0.  0.
        2    1    3    3  502    0 -0.17137531725E+04 -0.65996342405E+03 -0.93829030434E+03  0.20622537071E+04  0.25500000920E-02 0. -1.
       -2    1    3    3    0  502  0.17137531725E+04  0.65996342405E+03  0.17655617118E+03  0.18449048048E+04  0.25500000920E-02 0.  1.
</event>
<event>
 5   0  0.3959190E-07  0.2858139E+04  0.7818609E-02  0.8285442E-01
       -2   -1    0    0    0  501  0.00000000000E+00  0.00000000000E+00  0.10674446310E+04  0.10674446310E+04  0.25500000920E-02 0.  1.
        2   -1    0    0  501    0  0.00000000000E+00  0.00000000000E+00 -0.19132041809E+04  0.19132041809E+04  0.25500000920E-02 0. -1.
    10030    2    1    2    0    0  0.00000000000E+00  0.00000000000E+00 -0.84575954993E+03  0.29806488119E+04  0.28581389266E+04 0.  0.
        2    1    3    3  502    0 -0.22298262360E+03 -0.75981086088E+03 -0.16634954512E+04  0.18423492912E+04  0.25500000920E-02 0. -1.
       -2    1    3    3    0  502  0.22298262360E+03  0.75981086088E+03  0.81773590123E+03  0.11382995207E+04  0.25500000920E-02 0.  1.
</event>
<event>
 5   0  0.1860500E-07  0.2994886E+04  0.7818609E-02  0.8245193E-01
       -1   -1    0    0    0  501  0.00000000000E+00  0.00000000000E+00  0.13340147094E+04  0.13340147094E+04  0.50400001928E-02 0.  1.
        1   -1    0    0  501    0  0.00000000000E+00  0.00000000000E+00 -0.16808930253E+04  0.16808930253E+04  0.50400001928E-02 0. -1.
    10030    2    1    2    0    0  0.00000000000E+00  0.00000000000E+00 -0.34687831594E+03  0.30149077347E+04  0.29948863222E+04 0.  0.
        4    1    3    3  502    0 -0.14833030057E+04 -0.65622763962E+02  0.22387000245E+02  0.14849232117E+04  0.12699999809E+01 0.  1.
       -4    1    3    3    0  502  0.14833030057E+04  0.65622763962E+02 -0.36926531618E+03  0.15299845230E+04  0.12699999809E+01 0. -1.
</event>
<event>
 5   0  0.1860500E-07  0.3588723E+04  0.7818609E-02  0.8093080E-01
       -1   -1    0    0    0  501  0.00000000000E+00  0.00000000000E+00  0.11514059361E+04  0.11514059361E+04  0.50400001928E-02 0.  1.
        1   -1    0    0  501    0  0.00000000000E+00  0.00000000000E+00 -0.27963493869E+04  0.27963493869E+04  0.50400001928E-02 0. -1.
    10030    2    1    2    0    0  0.00000000000E+00  0.00000000000E+00 -0.16449434508E+04  0.39477553230E+04  0.35887230506E+04 0.  0.
        5    1    3    3  502    0 -0.14385064208E+03 -0.86048910916E+02 -0.27877110632E+04  0.27927499860E+04  0.46999998093E+01 0. -1.
       -5    1    3    3    0  502  0.14385064208E+03  0.86048910916E+02  0.11427676125E+04  0.11550053369E+04  0.46999998093E+01 0.  1.
</event>
<event>
 5   0  0.5735179E-07  0.3942870E+04  0.7818609E-02  0.8016172E-01
       -2   -1    0    0    0  501  0.00000000000E+00  0.00000000000E+00  0.15209963997E+04  0.15209963997E+04  0.25500000920E-02 0. -1.
        2   -1    0    0  501    0  0.00000000000E+00  0.00000000000E+00 -0.25552692277E+04  0.25552692277E+04  0.25500000920E-02 0.  1.
    10030    2    1    2    0    0  0.00000000000E+00  0.00000000000E+00 -0.10342728281E+04  0.40762656274E+04  0.39428696634E+04 0.  0.
        5    1    3    3  502    0 -0.70897797032E+03  0.83503756391E+03 -0.22116740308E+04  0.24680886540E+04  0.46999998093E+01 0.  1.
       -5    1    3    3    0  502  0.70897797032E+03 -0.83503756391E+03  0.11774012027E+04  0.16081769734E+04  0.46999998093E+01 0. -1.
</event>
<event>
 5   0  0.5872444E-07  0.4047552E+04  0.7818609E-02  0.7995022E-01
        2   -1    0    0  501    0  0.00000000000E+00  0.00000000000E+00  0.18922883070E+04  0.18922883070E+04  0.25500000920E-02 0.  1.
       -2   -1    0    0    0  501  0.00000000000E+00  0.00000000000E+00 -0.21644002371E+04  0.21644002371E+04  0.25500000920E-02 0. -1.
    10030    2    1    2    0    0  0.00000000000E+00  0.00000000000E+00 -0.27211193012E+03  0.40566885442E+04  0.40475519814E+04 0.  0.
        3    1    3    3  502    0 -0.71892183088E+02 -0.19599779324E+04  0.36405664075E+03  0.19947980422E+04  0.10100000352E+00 0.  1.
       -3    1    3    3    0  502  0.71892183088E+02  0.19599779324E+04 -0.63616857087E+03  0.20618905020E+04  0.10100000352E+00 0. -1.
</event>
<event>
 5   0  0.5735179E-07  0.2399662E+04  0.7818609E-02  0.8439630E-01
        2   -1    0    0  501    0  0.00000000000E+00  0.00000000000E+00  0.13616747921E+04  0.13616747922E+04  0.25500000920E-02 0. -1.
       -2   -1    0    0    0  501  0.00000000000E+00  0.00000000000E+00 -0.10572232384E+04  0.10572232384E+04  0.25500000920E-02 0.  1.
    10030    2    1    2    0    0  0.00000000000E+00  0.00000000000E+00  0.30445155376E+03  0.24188980305E+04  0.23996618373E+04 0.  0.
        5    1    3    3  502    0  0.73934298299E+03 -0.90783366422E+03  0.41659161999E+03  0.12427230891E+04  0.46999998093E+01 0. -1.
       -5    1    3    3    0  502 -0.73934298299E+03  0.90783366422E+03 -0.11214006623E+03  0.11761749414E+04  0.46999998093E+01 0.  1.
</event>
<event>
 5   0  0.2666813E-07  0.3953334E+04  0.7818609E-02  0.8014027E-01
        1   -1    0    0  501    0  0.00000000000E+00  0.00000000000E+00  0.22009241828E+04  0.22009241828E+04  0.50400001928E-02 0.  1.
       -1   -1    0    0    0  501  0.00000000000E+00  0.00000000000E+00 -0.17752599603E+04  0.17752599603E+04  0.50400001928E-02 0. -1.
    10030    2    1    2    0    0  0.00000000000E+00  0.00000000000E+00  0.42566422251E+03  0.39761841431E+04  0.39533340751E+04 0.  0.
        1    1    3    3  502    0  0.75234549986E+03  0.15631700990E+04 -0.74010820135E+03  0.18860765253E+04  0.50400001928E-02 0.  1.
       -1    1    3    3    0  502 -0.75234549986E+03 -0.15631700990E+04  0.11657724239E+04  0.20901076178E+04  0.50400001928E-02 0. -1.
</event>
<event>
 5   0  0.5805753E-07  0.3573061E+04  0.7818609E-02  0.8096690E-01
        2   -1    0    0  501    0  0.00000000000E+00  0.00000000000E+00  0.22892617929E+04  0.22892617929E+04  0.25500000920E-02 0. -1.
       -2   -1    0    0    0  501  0.00000000000E+00  0.00000000000E+00 -0.13942013709E+04  0.13942013709E+04  0.25500000920E-02 0.  1.
    10030    2    1    2    0    0  0.00000000000E+00  0.00000000000E+00  0.89506042196E+03  0.36834631638E+04  0.35730613933E+04 0.  0.
        1    1    3    3  502    0 -0.22884256563E+03  0.69093418384E+03 -0.12344249345E+04  0.14330261286E+04  0.50400001928E-02 0.  1.
       -1    1    3    3    0  502  0.22884256563E+03 -0.69093418384E+03  0.21294853564E+04  0.22504370352E+04  0.50400001928E-02 0. -1.
</event>
<event>
 5   0  0.1860500E-07  0.3936488E+04  0.7818609E-02  0.8017483E-01
        1   -1    0    0  501    0  0.00000000000E+00  0.00000000000E+00  0.16124963559E+04  0.16124963560E+04  0.50400001928E-02 0.  1.
       -1   -1    0    0    0  501  0.00000000000E+00  0.00000000000E+00 -0.24024768719E+04  0.24024768719E+04  0.50400001928E-02 0. -1.
    10030    2    1    2    0    0  0.00000000000E+00  0.00000000000E+00 -0.78998051598E+03  0.40149732279E+04  0.39364883850E+04 0.  0.
        5    1    3    3  502    0  0.10926869434E+04  0.14771483107E+04 -0.11147738873E+04  0.21491102340E+04  0.46999998093E+01 0.  1.
       -5    1    3    3    0  502 -0.10926869434E+04 -0.14771483107E+04  0.32479337131E+03  0.18658629939E+04  0.46999998093E+01 0. -1.
</event>
<event>
 5   0  0.1860500E-07  0.3834187E+04  0.7818609E-02  0.8038858E-01
       -1   -1    0    0    0  501  0.00000000000E+00  0.00000000000E+00  0.21012862249E+04  0.21012862249E+04  0.50400001928E-02 0.  1.
        1   -1    0    0  501    0  0.00000000000E+00  0.00000000000E+00 -0.17490464119E+04  0.17490464119E+04  0.50400001928E-02 0. -1.
    10030    2    1    2    0    0  0.00000000000E+00  0.00000000000E+00  0.35223981304E+03  0.38503326368E+04  0.38341868145E+04 0.  0.
        5    1    3    3  502    0  0.13439544737E+04  0.22586939444E+03 -0.11778881720E+04  0.18012976563E+04  0.46999998093E+01 0. -1.
       -5    1    3    3    0  502 -0.13439544737E+04 -0.22586939444E+03  0.15301279851E+04  0.20490349805E+04  0.46999998093E+01 0.  1.
</event>
<event>
 5   0  0.3959190E-07  0.3208780E+04  0.7818609E-02  0.8186502E-01
       -2   -1    0    0    0  501  0.00000000000E+00  0.00000000000E+00  0.17591362660E+04  0.17591362660E+04  0.25500000920E-02 0.  1.
        2   -1    0    0  501    0  0.00000000000E+00  0.00000000000E+00 -0.14632563038E+04  0.14632563038E+04  0.25500000920E-02 0. -1.
    10030    2    1    2    0    0  0.00000000000E+00  0.00000000000E+00  0.29587996221E+03  0.32223925698E+04  0.32087799741E+04 0.  0.
        2    1    3    3  502    0  0.12274624232E+04 -0.99013580237E+02  0.11806993317E+04  0.17060242089E+04  0.25500000920E-02 0.  1.
       -2    1    3    3    0  502 -0.12274624232E+04  0.99013580237E+02 -0.88481936952E+03  0.15163683609E+04  0.25500000920E-02 0. -1.
</event>
<event>
 5   0  0.3959190E-07  0.3591199E+04  0.7818609E-02  0.8092511E-01
       -2   -1    0    0    0  501  0.00000000000E+00  0.00000000000E+00  0.17729533165E+04  0.17729533165E+04  0.25500000920E-02 0.  1.
        2   -1    0    0  501    0  0.00000000000E+00  0.00000000000E+00 -0.18185350567E+04  0.18185350567E+04  0.25500000920E-02 0. -1.
    10030    2    1    2    0    0  0.00000000000E+00  0.00000000000E+00 -0.45581740192E+02  0.35914883733E+04  0.35911991090E+04 0.  0.
        2    1    3    3  502    0 -0.14983774559E+04  0.63987600526E+02 -0.10102651298E+04  0.18082768167E+04  0.25500000920E-02 0. -1.
       -2    1    3    3    0  502  0.14983774559E+04 -0.63987600526E+02  0.96468338965E+03  0.17832115566E+04  0.25500000920E-02 0.  1.
</event>
<event>
 5   0  0.1876027E-07  0.3781579E+04  0.7818609E-02  0.8050120E-01
       -1   -1    0    0    0  501  0.00000000000E+00  0.00000000000E+00  0.14082252439E+04  0.14082252439E+04  0.50400001928E-02 0.  1.
        1   -1    0    0  501    0  0.00000000000E+00  0.00000000000E+00 -0.25387169806E+04  0.25387169806E+04  0.50400001928E-02 0. -1.
    10030    2    1    2    0    0  0.00000000000E+00  0.00000000000E+00 -0.11304917367E+04  0.39469422245E+04  0.37815792147E+04 0.  0.
        3    1    3    3  502    0  0.80835696488E+03 -0.16768280031E+04 -0.91124179842E+03  0.20725720156E+04  0.10100000352E+00 0.  1.
       -3    1    3    3    0  502 -0.80835696488E+03  0.16768280031E+04 -0.21924993826E+03  0.18743702089E+04  0.10100000352E+00 0. -1.
</event>
<event>
 5   0  0.5735179E-07  0.2796047E+04  0.7818609E-02  0.8304497E-01
        2   -1    0    0  501    0  0.00000000000E+00  0.00000000000E+00  0.12315797837E+04  0.12315797837E+04  0.25500000920E-02 0. -1.
       -2   -1    0    0    0  501  0.00000000000E+00  0.00000000000E+00 -0.15869617389E+04  0.15869617389E+04  0.25500000920E-02 0.  1.
    10030    2    1    2    0    0  0.00000000000E+00  0.00000000000E+00 -0.35538195521E+03  0.28185415225E+04  0.27960472064E+04 0.  0.
        5    1    3    3  502    0 -0.10471238260E+02  0.13052551122E+04  0.32698367963E+03  0.13456377564E+04  0.46999998093E+01 0. -1.
       -5    1    3    3    0  502  0.10471238260E+02 -0.13052551122E+04 -0.68236563483E+03  0.14729037661E+04  0.46999998093E+01 0.  1.
</event>
<event>
 5   0  0.1860500E-07  0.3606628E+04  0.7818609E-02  0.8088975E-01
        1   -1    0    0  501    0  0.00000000000E+00  0.00000000000E+00  0.12328730183E+04  0.12328730183E+04  0.50400001928E-02 0. -1.
       -1   -1    0    0    0  501  0.00000000000E+00  0.00000000000E+00 -0.26376937666E+04  0.26376937666E+04  0.50400001928E-02 0.  1.
    10030    2    1    2    0    0  0.00000000000E+00  0.00000000000E+00 -0.14048207483E+04  0.38705667850E+04  0.36066280515E+04 0.  0.
        4    1    3    3  502    0 -0.23187154894E+03 -0.12422948471E+04 -0.20829736814E+04  0.24363583218E+04  0.12699999809E+01 0.  1.
       -4    1    3    3    0  502  0.23187154894E+03  0.12422948471E+04  0.67815293307E+03  0.14342084631E+04  0.12699999809E+01 0. -1.
</event>
<event>
 5   0  0.3959190E-07  0.3679195E+04  0.7818609E-02  0.8072588E-01
        2   -1    0    0  501    0  0.00000000000E+00  0.00000000000E+00  0.18211898249E+04  0.18211898249E+04  0.25500000920E-02 0. -1.
       -2   -1    0    0    0  501  0.00000000000E+00  0.00000000000E+00 -0.18581908070E+04  0.18581908070E+04  0.25500000920E-02 0.  1.
    10030    2    1    2    0    0  0.00000000000E+00  0.00000000000E+00 -0.37000982082E+02  0.36793806319E+04  0.36791945805E+04 0.  0.
        2    1    3    3  502    0 -0.13113125136E+04 -0.10168346131E+04  0.77565870759E+03  0.18317040070E+04  0.25500000920E-02 0. -1.
       -2    1    3    3    0  502  0.13113125136E+04  0.10168346131E+04 -0.81265968967E+03  0.18476766248E+04  0.25500000920E-02 0.  1.
</event>
<event>
 5   0  0.1876027E-07  0.3870336E+04  0.7818609E-02  0.8031227E-01
        1   -1    0    0  501    0  0.00000000000E+00  0.00000000000E+00  0.16158521694E+04  0.16158521694E+04  0.50400001928E-02 0.  1.
       -1   -1    0    0    0  501  0.00000000000E+00  0.00000000000E+00 -0.23175854093E+04  0.23175854093E+04  0.50400001928E-02 0. -1.
    10030    2    1    2    0    0  0.00000000000E+00  0.00000000000E+00 -0.70173323988E+03  0.39334375787E+04  0.38703361153E+04 0.  0.
        3    1    3    3  502    0 -0.78037021329E+03 -0.17280123703E+04  0.42576860189E+02  0.18965276747E+04  0.10100000352E+00 0. -1.
       -3    1    3    3    0  502  0.78037021329E+03  0.17280123703E+04 -0.74431010007E+03  0.20369099040E+04  0.10100000352E+00 0.  1.
</event>
<event>
 5   0  0.1860500E-07  0.3990614E+04  0.7818609E-02  0.8006443E-01
       -1   -1    0    0    0  501  0.00000000000E+00  0.00000000000E+00  0.15939482959E+04  0.15939482959E+04  0.50400001928E-02 0.  1.
        1   -1    0    0  501    0  0.00000000000E+00  0.00000000000E+00 -0.24977282224E+04  0.24977282224E+04  0.50400001928E-02 0. -1.
    10030    2    1    2    0    0  0.00000000000E+00  0.00000000000E+00 -0.90377992647E+03  0.40916765184E+04  0.39906138094E+04 0.  0.
        5    1    3    3  502    0  0.25508512632E+03  0.49293113757E+03 -0.24169805688E+04  0.24798924751E+04  0.46999998093E+01 0. -1.
       -5    1    3    3    0  502 -0.25508512632E+03 -0.49293113757E+03  0.15132006424E+04  0.16117840432E+04  0.46999998093E+01 0.  1.
</event>
<event>
 5   0  0.5735179E-07  0.3527392E+04  0.7818609E-02  0.8107329E-01
       -2   -1    0    0    0  501  0.00000000000E+00  0.00000000000E+00  0.16866892157E+04  0.16866892157E+04  0.25500000920E-02 0.  1.
        2   -1    0    0  501    0  0.00000000000E+00  0.00000000000E+00 -0.18442190929E+04  0.18442190929E+04  0.25500000920E-02 0. -1.
    10030    2    1    2    0    0  0.00000000000E+00  0.00000000000E+00 -0.15752987718E+03  0.35309083086E+04  0.35273924961E+04 0.  0.
        5    1    3    3  502    0  0.36275646894E+03 -0.17256859989E+04 -0.11070195312E+03  0.17668790097E+04  0.46999998093E+01 0.  1.
       -5    1    3    3    0  502 -0.36275646894E+03  0.17256859989E+04 -0.46827924065E+02  0.17640292988E+04  0.46999998093E+01 0. -1.
</event>
<event>
 5   0  0.1860500E-07  0.3204422E+04  0.7818609E-02  0.8187650E-01
       -1   -1    0    0    0  501  0.00000000000E+00  0.00000000000E+00  0.13736259876E+04  0.13736259876E+04  0.50400001928E-02 0. -1.
        1   -1    0    0  501    0  0.00000000000E+00  0.00000000000E+00 -0.18688352910E+04  0.18688352910E+04  0.50400001928E-02 0.  1.
    10030    2    1    2    0    0  0.00000000000E+00  0.00000000000E+00 -0.49520930339E+03  0.32424612787E+04  0.32044223956E+04 0.  0.
        5    1    3    3  502    0  0.29158488349E+03  0.15727659657E+04 -0.34058728894E+03  0.16354315389E+04  0.46999998093E+01 0.  1.
       -5    1    3    3    0  502 -0.29158488349E+03 -0.15727659657E+04 -0.15462201445E+03  0.16070297397E+04  0.46999998093E+01 0. -1.
</event>
<event>
 5   0  0.3959190E-07  0.3902138E+04  0.7818609E-02  0.8024585E-01
       -2   -1    0    0    0  501  0.00000000000E+00  0.00000000000E+00  0.15748690595E+04  0.15748690595E+04  0.25500000920E-02 0. -1.
        2   -1    0    0  501    0  0.00000000000E+00  0.00000000000E+00 -0.24171344589E+04  0.24171344589E+04  0.25500000920E-02 0.  1.
    10030    2    1    2    0    0  0.00000000000E+00  0.00000000000E+00 -0.84226539945E+03  0.39920035184E+04  0.39021380149E+04 0.  0.
        2    1    3    3  502    0  0.18293176943E+04 -0.62738792867E+03 -0.15701772073E+03  0.19402766309E+04  0.25500000920E-02 0. -1.
       -2    1    3    3    0  502 -0.18293176943E+04  0.62738792867E+03 -0.68524767872E+03  0.20517268875E+04  0.25500000920E-02 0.  1.
</event>
<event>
 5   0  0.3959190E-07  0.3214776E+04  0.7818609E-02  0.8184926E-01
        2   -1    0    0  501    0  0.00000000000E+00  0.00000000000E+00  0.18977075668E+04  0.18977075668E+04  0.25500000920E-02 0. -1.
       -2   -1    0    0    0  501  0.00000000000E+00  0.00000000000E+00 -0.13614824016E+04  0.13614824016E+04  0.25500000920E-02 0.  1.
    10030    2    1    2    0    0  0.00000000000E+00  0.00000000000E+00  0.53622516520E+03  0.32591899684E+04  0.32147755477E+04 0.  0.
        2    1    3    3  502    0 -0.15194522319E+03 -0.45580464029E+03  0.18232048454E+04  0.18854498480E+04  0.25500000920E-02 0. -1.
       -2    1    3    3    0  502  0.15194522319E+03  0.45580464029E+03 -0.12869796802E+04  0.13737401204E+04  0.25500000920E-02 0.  1.
</event>
<event>
 5   0  0.1943459E-07  0.3875606E+04  0.7818609E-02  0.8030122E-01
        1   -1    0    0  501    0  0.00000000000E+00  0.00000000000E+00  0.11487707065E+04  0.11487707065E+04  0.50400001928E-02 0.  1.
       -1   -1    0    0    0  501  0.00000000000E+00  0.00000000000E+00 -0.32687815157E+04  0.32687815157E+04  0.50400001928E-02 0. -1.
    10030    2    1    2    0    0  0.00000000000E+00  0.00000000000E+00 -0.21200108092E+04  0.44175522222E+04  0.38756059920E+04 0.  0.
        2    1    3    3  502    0 -0.12971070480E+04 -0.10161640265E+04 -0.22224162889E+04  0.27666243301E+04  0.25500000920E-02 0. -1.
       -2    1    3    3    0  502  0.12971070480E+04  0.10161640265E+04  0.10240547973E+03  0.16509278921E+04  0.25500000920E-02 0.  1.
</event>
<event>
 5   0  0.3959190E-07  0.3077272E+04  0.7818609E-02  0.8222003E-01
        2   -1    0    0  501    0  0.00000000000E+00  0.00000000000E+00  0.17197205249E+04  0.17197205249E+04  0.25500000920E-02 0. -1.
       -2   -1    0    0    0  501  0.00000000000E+00  0.00000000000E+00 -0.13766197878E+04  0.13766197878E+04  0.25500000920E-02 0.  1.
    10030    2    1    2    0    0  0.00000000000E+00  0.00000000000E+00  0.34310073708E+03  0.30963403127E+04  0.30772723663E+04 0.  0.
        2    1    3    3  502    0  0.14733708242E+04  0.24595080169E+03 -0.19963644640E+03  0.15070395128E+04  0.25500000920E-02 0.  1.
       -2    1    3    3    0  502 -0.14733708242E+04 -0.24595080169E+03  0.54273718348E+03  0.15893007999E+04  0.25500000920E-02 0. -1.
</event>
<event>
 5   0  0.1860500E-07  0.3900130E+04  0.7818609E-02  0.8025002E-01
       -3   -1    0    0    0  501  0.00000000000E+00  0.00000000000E+00  0.24837107927E+04  0.24837107947E+04  0.10100000352E+00 0. -1.
        3   -1    0    0  501    0  0.00000000000E+00  0.00000000000E+00 -0.15310770721E+04  0.15310770754E+04  0.10100000352E+00 0.  1.
    10030    2    1    2    0    0  0.00000000000E+00  0.00000000000E+00  0.95263372059E+03  0.40147878701E+04  0.39001295666E+04 0.  0.
        4    1    3    3  502    0  0.82178847627E+03 -0.54492307566E+03 -0.12555444958E+04  0.15964557783E+04  0.12699999809E+01 0.  1.
       -4    1    3    3    0  502 -0.82178847627E+03  0.54492307566E+03  0.22081782164E+04  0.24183320918E+04  0.12699999809E+01 0. -1.
</event>
<event>
 5   0  0.1860500E-07  0.2779722E+04  0.7818609E-02  0.8309592E-01
       -1   -1    0    0    0  501  0.00000000000E+00  0.00000000000E+00  0.95548073660E+03  0.95548073661E+03  0.50400001928E-02 0.  1.
        1   -1    0    0  501    0  0.00000000000E+00  0.00000000000E+00 -0.20217188844E+04  0.20217188845E+04  0.50400001928E-02 0. -1.
    10030    2    1    2    0    0  0.00000000000E+00  0.00000000000E+00 -0.10662381479E+04  0.29771996211E+04  0.27797218918E+04 0.  0.
        5    1    3    3  502    0 -0.87681757990E+03  0.10746160085E+04 -0.43682811732E+03  0.14541146888E+04  0.46999998093E+01 0. -1.
       -5    1    3    3    0  502  0.87681757990E+03 -0.10746160085E+04 -0.62941003054E+03  0.15230849322E+04  0.46999998093E+01 0.  1.
</event>
<event>
 5   0  0.1876027E-07  0.3913504E+04  0.7818609E-02  0.8022227E-01
        1   -1    0    0  501    0  0.00000000000E+00  0.00000000000E+00  0.22888249543E+04  0.22888249543E+04  0.50400001928E-02 0.  1.
       -1   -1    0    0    0  501  0.00000000000E+00  0.00000000000E+00 -0.16728572645E+04  0.16728572645E+04  0.50400001928E-02 0. -1.
    10030    2    1    2    0    0  0.00000000000E+00  0.00000000000E+00  0.61596768979E+03  0.39616822189E+04  0.39135035209E+04 0.  0.
        3    1    3    3  502    0  0.73234924879E+03  0.12725954730E+04  0.16173690535E+04  0.21844260861E+04  0.10100000352E+00 0.  1.
       -3    1    3    3    0  502 -0.73234924879E+03 -0.12725954730E+04 -0.10014013637E+04  0.17772561328E+04  0.10100000352E+00 0. -1.
</event>
<event>
 5   0  0.3959190E-07  0.3911459E+04  0.7818609E-02  0.8022650E-01
       -2   -1    0    0    0  501  0.00000000000E+00  0.00000000000E+00  0.15976976866E+04  0.15976976866E+04  0.25500000920E-02 0. -1.
        2   -1    0    0  501    0  0.00000000000E+00  0.00000000000E+00 -0.23939939272E+04  0.23939939272E+04  0.25500000920E-02 0.  1.
    10030    2    1    2    0    0  0.00000000000E+00  0.00000000000E+00 -0.79629624054E+03  0.39916916138E+04  0.39114593488E+04 0.  0.
        2    1    3    3  502    0 -0.80639527413E+03  0.17321194552E+04  0.27990429859E+02  0.19108361022E+04  0.25500000920E-02 0. -1.
       -2    1    3    3    0  502  0.80639527413E+03 -0.17321194552E+04 -0.82428667040E+03  0.20808555116E+04  0.25500000920E-02 0.  1.
</event>
<event>
 5   0  0.1860500E-07  0.3917356E+04  0.7818609E-02  0.8021429E-01
       -1   -1    0    0    0  501  0.00000000000E+00  0.00000000000E+00  0.18691919702E+04  0.18691919702E+04  0.50400001928E-02 0. -1.
        1   -1    0    0  501    0  0.00000000000E+00  0.00000000000E+00 -0.20524485223E+04  0.20524485223E+04  0.50400001928E-02 0.  1.
    10030    2    1    2    0    0  0.00000000000E+00  0.00000000000E+00 -0.18325655208E+03  0.39216404924E+04  0.39173564030E+04 0.  0.
        4    1    3    3  502    0  0.77798718345E+03 -0.14933213002E+04 -0.10932954164E+04  0.20076277154E+04  0.12699999809E+01 0. -1.
       -4    1    3    3    0  502 -0.77798718345E+03  0.14933213002E+04  0.91003886428E+03  0.19140127770E+04  0.12699999809E+01 0.  1.
</event>
<event>
 5   0  0.3959190E-07  0.3909016E+04  0.7818609E-02  0.8023157E-01
       -2   -1    0    0    0  501  0.00000000000E+00  0.00000000000E+00  0.18410882470E+04  0.18410882470E+04  0.25500000920E-02 0. -1.
        2   -1    0    0  501    0  0.00000000000E+00  0.00000000000E+00 -0.20749146708E+04  0.20749146708E+04  0.25500000920E-02 0.  1.
    10030    2    1    2    0    0  0.00000000000E+00  0.00000000000E+00 -0.23382642379E+03  0.39160029177E+04  0.39090157400E+04 0.  0.
        2    1    3    3  502    0 -0.42159756023E+02  0.10104531686E+04  0.15585917888E+04  0.18579562468E+04  0.25500000920E-02 0. -1.
       -2    1    3    3    0  502  0.42159756023E+02 -0.10104531686E+04 -0.17924182126E+04  0.20580466709E+04  0.25500000920E-02 0.  1.
</event>
<event>
 5   0  0.3959190E-07  0.3943174E+04  0.7818609E-02  0.8016109E-01
       -2   -1    0    0    0  501  0.00000000000E+00  0.00000000000E+00  0.20662506233E+04  0.20662506233E+04  0.25500000920E-02 0.  1.
        2   -1    0    0  501    0  0.00000000000E+00  0.00000000000E+00 -0.18812603607E+04  0.18812603607E+04  0.25500000920E-02 0. -1.
    10030    2    1    2    0    0  0.00000000000E+00  0.00000000000E+00  0.18499026257E+03  0.39475109841E+04  0.39431740479E+04 0.  0.
        2    1    3    3  502    0 -0.17709297497E+04  0.86641204541E+03  0.10964236960E+03  0.19745590546E+04  0.25500000920E-02 0. -1.
       -2    1    3    3    0  502  0.17709297497E+04 -0.86641204541E+03  0.75347892977E+02  0.19729519295E+04  0.25500000920E-02 0.  1.
</event>
<event>
 5   0  0.1876027E-07  0.3901789E+04  0.7818609E-02  0.8024657E-01
        1   -1    0    0  501    0  0.00000000000E+00  0.00000000000E+00  0.17679300798E+04  0.17679300798E+04  0.50400001928E-02 0. -1.
       -1   -1    0    0    0  501  0.00000000000E+00  0.00000000000E+00 -0.21527942052E+04  0.21527942052E+04  0.50400001928E-02 0.  1.
    10030    2    1    2    0    0  0.00000000000E+00  0.00000000000E+00 -0.38486412534E+03  0.39207242850E+04  0.39017891439E+04 0.  0.
        3    1    3    3  502    0  0.80515687752E+03 -0.10279432157E+04  0.12641003711E+04  0.18173867531E+04  0.10100000352E+00 0. -1.
       -3    1    3    3    0  502 -0.80515687752E+03  0.10279432157E+04 -0.16489644964E+04  0.21033375318E+04  0.10100000352E+00 0.  1.
</event>
<event>
 5   0  0.2666813E-07  0.3834698E+04  0.7818609E-02  0.8038750E-01
       -1   -1    0    0    0  501  0.00000000000E+00  0.00000000000E+00  0.10142174180E+04  0.10142174180E+04  0.50400001928E-02 0. -1.
        1   -1    0    0  501    0  0.00000000000E+00  0.00000000000E+00 -0.36246925805E+04  0.36246925805E+04  0.50400001928E-02 0.  1.
    10030    2    1    2    0    0  0.00000000000E+00  0.00000000000E+00 -0.26104751625E+04  0.46389099985E+04  0.38346975631E+04 0.  0.
        1    1    3    3  502    0 -0.12495942279E+04 -0.30157893657E+03  0.41570996582E+03  0.13510182697E+04  0.50400001928E-02 0. -1.
       -1    1    3    3    0  502  0.12495942279E+04  0.30157893657E+03 -0.30261851283E+04  0.32878917288E+04  0.50400001928E-02 0.  1.
</event>
<event>
 5   0  0.1876027E-07  0.3949299E+04  0.7818609E-02  0.8014853E-01
       -1   -1    0    0    0  501  0.00000000000E+00  0.00000000000E+00  0.15252351353E+04  0.15252351354E+04  0.50400001928E-02 0. -1.
        1   -1    0    0  501    0  0.00000000000E+00  0.00000000000E+00 -0.25564854864E+04  0.25564854864E+04  0.50400001928E-02 0.  1.
    10030    2    1    2    0    0  0.00000000000E+00  0.00000000000E+00 -0.10312503511E+04  0.40817206218E+04  0.39492994249E+04 0.  0.
        3    1    3    3  502    0  0.11596033652E+04 -0.46612610901E+03  0.10644557297E+04  0.16416514627E+04  0.10100000352E+00 0. -1.
       -3    1    3    3    0  502 -0.11596033652E+04  0.46612610901E+03 -0.20957060808E+04  0.24400691591E+04  0.10100000352E+00 0.  1.
</event>
<event>
 5   0  0.1860500E-07  0.3850083E+04  0.7818609E-02  0.8035492E-01
       -3   -1    0    0    0  501  0.00000000000E+00  0.00000000000E+00  0.14260889192E+04  0.14260889228E+04  0.10100000352E+00 0. -1.
        3   -1    0    0  501    0  0.00000000000E+00  0.00000000000E+00 -0.25985651351E+04  0.25985651370E+04  0.10100000352E+00 0.  1.
    10030    2    1    2    0    0  0.00000000000E+00  0.00000000000E+00 -0.11724762159E+04  0.40246540598E+04  0.38500830932E+04 0.  0.
        2    1    3    3  502    0 -0.13275818817E+04  0.78465093535E+03  0.61823656304E+03  0.16614352804E+04  0.25500000920E-02 0. -1.
       -2    1    3    3    0  502  0.13275818817E+04 -0.78465093535E+03 -0.17907127789E+04  0.23632187794E+04  0.25500000920E-02 0.  1.
</event>
<event>
 5   0  0.1860500E-07  0.3925436E+04  0.7818609E-02  0.8019760E-01
       -1   -1    0    0    0  501  0.00000000000E+00  0.00000000000E+00  0.21582623187E+04  0.21582623187E+04  0.50400001928E-02 0.  1.
        1   -1    0    0  501    0  0.00000000000E+00  0.00000000000E+00 -0.17848902459E+04  0.17848902459E+04  0.50400001928E-02 0. -1.
    10030    2    1    2    0    0  0.00000000000E+00  0.00000000000E+00  0.37337207275E+03  0.39431525646E+04  0.39254357011E+04 0.  0.
        4    1    3    3  502    0 -0.13893043732E+04 -0.20553726198E+03  0.15639495013E+04  0.21019875982E+04  0.12699999809E+01 0.  1.
       -4    1    3    3    0  502  0.13893043732E+04  0.20553726198E+03 -0.11905774285E+04  0.18411649665E+04  0.12699999809E+01 0. -1.
</event>
<event>
 5   0  0.1943459E-07  0.3816057E+04  0.7818609E-02  0.8042718E-01
       -1   -1    0    0    0  501  0.00000000000E+00  0.00000000000E+00  0.15774091439E+04  0.15774091439E+04  0.50400001928E-02 0.  1.
        1   -1    0    0  501    0  0.00000000000E+00  0.00000000000E+00 -0.23079448600E+04  0.23079448600E+04  0.50400001928E-02 0. -1.
    10030    2    1    2    0    0  0.00000000000E+00  0.00000000000E+00 -0.73053571606E+03  0.38853540039E+04  0.38160572983E+04 0.  0.
        2    1    3    3  502    0  0.38228513134E+03 -0.16648822391E+01 -0.22685527276E+04  0.23005382351E+04  0.25500000920E-02 0. -1.
       -2    1    3    3    0  502 -0.38228513134E+03  0.16648822391E+01  0.15380170115E+04  0.15848157688E+04  0.25500000920E-02 0.  1.
</event>
<event>
 5   0  0.6095665E-07  0.3855467E+04  0.7818609E-02  0.8034355E-01
        2   -1    0    0  501    0  0.00000000000E+00  0.00000000000E+00  0.25238888568E+04  0.25238888568E+04  0.25500000920E-02 0.  1.
       -2   -1    0    0    0  501  0.00000000000E+00  0.00000000000E+00 -0.14723933899E+04  0.14723933899E+04  0.25500000920E-02 0. -1.
    10030    2    1    2    0    0  0.00000000000E+00  0.00000000000E+00  0.10514954669E+04  0.39962822466E+04  0.38554674266E+04 0.  0.
        4    1    3    3  502    0 -0.13704782139E+04  0.11309286848E+04  0.13006801366E+04  0.22020401121E+04  0.12699999809E+01 0. -1.
       -4    1    3    3    0  502  0.13704782139E+04 -0.11309286848E+04 -0.24918466973E+03  0.17942421345E+04  0.12699999809E+01 0.  1.
</event>
<event>
 5   0  0.5872444E-07  0.3857587E+04  0.7818609E-02  0.8033908E-01
        2   -1    0    0  501    0  0.00000000000E+00  0.00000000000E+00  0.18572380593E+04  0.18572380593E+04  0.25500000920E-02 0.  1.
       -2   -1    0    0    0  501  0.00000000000E+00  0.00000000000E+00 -0.20031061867E+04  0.20031061867E+04  0.25500000920E-02 0. -1.
    10030    2    1    2    0    0  0.00000000000E+00  0.00000000000E+00 -0.14586812743E+03  0.38603442461E+04  0.38575873532E+04 0.  0.
        3    1    3    3  502    0 -0.14342709212E+04  0.35607360046E+02 -0.13629806747E+04  0.19789182118E+04  0.10100000352E+00 0. -1.
       -3    1    3    3    0  502  0.14342709212E+04 -0.35607360046E+02  0.12171125473E+04  0.18814260342E+04  0.10100000352E+00 0.  1.
</event>
<event>
 5   0  0.1860500E-07  0.3891200E+04  0.7818609E-02  0.8026862E-01
        1   -1    0    0  501    0  0.00000000000E+00  0.00000000000E+00  0.13094630453E+04  0.13094630453E+04  0.50400001928E-02 0. -1.
       -1   -1    0    0    0  501  0.00000000000E+00  0.00000000000E+00 -0.28907714544E+04  0.28907714544E+04  0.50400001928E-02 0.  1.
    10030    2    1    2    0    0  0.00000000000E+00  0.00000000000E+00 -0.15813084091E+04  0.42002344996E+04  0.38911995024E+04 0.  0.
        5    1    3    3  502    0 -0.11480232524E+04  0.30897608125E+03 -0.24530689785E+04  0.27259847964E+04  0.46999998093E+01 0.  1.
       -5    1    3    3    0  502  0.11480232524E+04 -0.30897608125E+03  0.87176056943E+03  0.14742497032E+04  0.46999998093E+01 0. -1.
</event>
<event>
 5   0  0.3959190E-07  0.2659157E+04  0.7818609E-02  0.8348380E-01
        2   -1    0    0  501    0  0.00000000000E+00  0.00000000000E+00  0.14373025851E+04  0.14373025851E+04  0.25500000920E-02 0. -1.
       -2   -1    0    0    0  501  0.00000000000E+00  0.00000000000E+00 -0.12299280928E+04  0.12299280928E+04  0.25500000920E-02 0.  1.
    10030    2    1    2    0    0  0.00000000000E+00  0.00000000000E+00  0.20737449227E+03  0.26672306779E+04  0.26591568794E+04 0.  0.
        2    1    3    3  502    0  0.13123395368E+04 -0.15665390307E+03 -0.41678008572E+02  0.13223133372E+04  0.25500000920E-02 0. -1.
       -2    1    3    3    0  502 -0.13123395368E+04  0.15665390307E+03  0.24905250084E+03  0.13449173407E+04  0.25500000920E-02 0.  1.
</event>
<event>
 5   0  0.6095665E-07  0.3183230E+04  0.7818609E-02  0.8193260E-01
       -2   -1    0    0    0  501  0.00000000000E+00  0.00000000000E+00  0.28206830184E+04  0.28206830184E+04  0.25500000920E-02 0.  1.
        2   -1    0    0  501    0  0.00000000000E+00  0.00000000000E+00 -0.89809398973E+03  0.89809398974E+03  0.25500000920E-02 0. -1.
    10030    2    1    2    0    0  0.00000000000E+00  0.00000000000E+00  0.19225890286E+04  0.37187770081E+04  0.31832300990E+04 0.  0.
        4    1    3    3  502    0 -0.13116296946E+04 -0.60929905511E+03  0.17376417453E+04  0.22607561218E+04  0.12699999809E+01 0.  1.
       -4    1    3    3    0  502  0.13116296946E+04  0.60929905511E+03  0.18494728332E+03  0.14580208863E+04  0.12699999809E+01 0. -1.
</event>
<event>
 5   0  0.1860500E-07  0.3944059E+04  0.7818609E-02  0.8015928E-01
        1   -1    0    0  501    0  0.00000000000E+00  0.00000000000E+00  0.16563575439E+04  0.16563575439E+04  0.50400001928E-02 0. -1.
       -1   -1    0    0    0  501  0.00000000000E+00  0.00000000000E+00 -0.23478627022E+04  0.23478627022E+04  0.50400001928E-02 0.  1.
    10030    2    1    2    0    0  0.00000000000E+00  0.00000000000E+00 -0.69150515830E+03  0.40042202460E+04  0.39440588732E+04 0.  0.
        4    1    3    3  502    0  0.10969989044E+04  0.13644013680E+03  0.13122147864E+04  0.17157889631E+04  0.12699999809E+01 0. -1.
       -4    1    3    3    0  502 -0.10969989044E+04 -0.13644013680E+03 -0.20037199447E+04  0.22884312830E+04  0.12699999809E+01 0.  1.
</event>
<event>
 5   0  0.5872444E-07  0.3720467E+04  0.7818609E-02  0.8063441E-01
       -2   -1    0    0    0  501  0.00000000000E+00  0.00000000000E+00  0.17732369996E+04  0.17732369996E+04  0.25500000920E-02 0. -1.
        2   -1    0    0  501    0  0.00000000000E+00  0.00000000000E+00 -0.19514977122E+04  0.19514977122E+04  0.25500000920E-02 0.  1.
    10030    2    1    2    0    0  0.00000000000E+00  0.00000000000E+00 -0.17826071257E+03  0.37247347118E+04  0.37204666094E+04 0.  0.
        3    1    3    3  502    0  0.17504812697E+04 -0.52043776321E+03 -0.44369451455E+03  0.18793363119E+04  0.10100000352E+00 0.  1.
       -3    1    3    3    0  502 -0.17504812697E+04  0.52043776321E+03  0.26543380197E+03  0.18453983999E+04  0.10100000352E+00 0. -1.
</event>
<event>
 5   0  0.5805753E-07  0.3887909E+04  0.7818609E-02  0.8027549E-01
       -2   -1    0    0    0  501  0.00000000000E+00  0.00000000000E+00  0.16003207094E+04  0.16003207094E+04  0.25500000920E-02 0. -1.
        2   -1    0    0  501    0  0.00000000000E+00  0.00000000000E+00 -0.23613761702E+04  0.23613761702E+04  0.25500000920E-02 0.  1.
    10030    2    1    2    0    0  0.00000000000E+00  0.00000000000E+00 -0.76105546080E+03  0.39616968795E+04  0.38879090461E+04 0.  0.
        1    1    3    3  502    0 -0.15559942357E+04 -0.76700678822E+03 -0.12744118664E+04  0.21525666261E+04  0.50400001928E-02 0.  1.
       -1    1    3    3    0  502  0.15559942357E+04  0.76700678822E+03  0.51335640563E+03  0.18091302534E+04  0.50400001928E-02 0. -1.
</event>
<event>
 5   0  0.1860500E-07  0.3401633E+04  0.7818609E-02  0.8137506E-01
        1   -1    0    0  501    0  0.00000000000E+00  0.00000000000E+00  0.18512776704E+04  0.18512776704E+04  0.50400001928E-02 0.  1.
       -1   -1    0    0    0  501  0.00000000000E+00  0.00000000000E+00 -0.15625835885E+04  0.15625835885E+04  0.50400001928E-02 0. -1.
    10030    2    1    2    0    0  0.00000000000E+00  0.00000000000E+00  0.28869408188E+03  0.34138612589E+04  0.34016326113E+04 0.  0.
        4    1    3    3  502    0 -0.10282843615E+04 -0.29631901908E+02  0.15036635746E+04  0.18218815923E+04  0.12699999809E+01 0. -1.
       -4    1    3    3    0  502  0.10282843615E+04  0.29631901908E+02 -0.12149694928E+04  0.15919796666E+04  0.12699999809E+01 0.  1.
</event>
<event>
 5   0  0.1876027E-07  0.4078245E+04  0.7818609E-02  0.7988945E-01
        1   -1    0    0  501    0  0.00000000000E+00  0.00000000000E+00  0.23228058271E+04  0.23228058271E+04  0.50400001928E-02 0. -1.
       -1   -1    0    0    0  501  0.00000000000E+00  0.00000000000E+00 -0.17900857207E+04  0.17900857207E+04  0.50400001928E-02 0.  1.
    10030    2    1    2    0    0  0.00000000000E+00  0.00000000000E+00  0.53272010640E+03  0.41128915478E+04  0.40782454772E+04 0.  0.
        3    1    3    3  502    0 -0.98236104809E+03  0.17795950086E+04  0.42906854653E+03  0.20775205056E+04  0.10100000352E+00 0.  1.
       -3    1    3    3    0  502  0.98236104809E+03 -0.17795950086E+04  0.10365155987E+03  0.20353710422E+04  0.10100000352E+00 0. -1.
</event>
<event>
 5   0  0.6095665E-07  0.3918933E+04  0.7818609E-02  0.8021103E-01
        2   -1    0    0  501    0  0.00000000000E+00  0.00000000000E+00  0.21808261028E+04  0.21808261028E+04  0.25500000920E-02 0. -1.
       -2   -1    0    0    0  501  0.00000000000E+00  0.00000000000E+00 -0.17605757461E+04  0.17605757461E+04  0.25500000920E-02 0.  1.
    10030    2    1    2    0    0  0.00000000000E+00  0.00000000000E+00  0.42025035674E+03  0.39414018489E+04  0.39189332952E+04 0.  0.
        4    1    3    3  502    0 -0.55317028009E+03  0.17727760403E+04 -0.41857938053E+03  0.19036655585E+04  0.12699999809E+01 0.  1.
       -4    1    3    3    0  502  0.55317028009E+03 -0.17727760403E+04  0.83882973727E+03  0.20377362903E+04  0.12699999809E+01 0. -1.
</event>
<event>
 5   0  0.5872444E-07  0.3906864E+04  0.7818609E-02  0.8023603E-01
        2   -1    0    0  501    0  0.00000000000E+00  0.00000000000E+00  0.23825033447E+04  0.23825033447E+04  0.25500000920E-02 0. -1.
       -2   -1    0    0    0  501  0.00000000000E+00  0.00000000000E+00 -0.16016331991E+04  0.16016331991E+04  0.25500000920E-02 0.  1.
    10030    2    1    2    0    0  0.00000000000E+00  0.00000000000E+00  0.78087014556E+03  0.39841365438E+04  0.39068639361E+04 0.  0.
        3    1    3    3  502    0  0.12017846288E+04  0.14916596699E+04  0.29511853299E-01  0.19155508022E+04  0.10100000352E+00 0.  1.
       -3    1    3    3    0  502 -0.12017846288E+04 -0.14916596699E+04  0.78084063371E+03  0.20685857416E+04  0.10100000352E+00 0. -1.
</event>
<event>
 5   0  0.3959190E-07  0.3940990E+04  0.7818609E-02  0.8016558E-01
        2   -1    0    0  501    0  0.00000000000E+00  0.00000000000E+00  0.11615034544E+04  0.11615034544E+04  0.25500000920E-02 0.  1.
       -2   -1    0    0    0  501  0.00000000000E+00  0.00000000000E+00 -0.33429517183E+04  0.33429517183E+04  0.25500000920E-02 0. -1.
    10030    2    1    2    0    0  0.00000000000E+00  0.00000000000E+00 -0.21814482639E+04  0.45044551726E+04  0.39409897075E+04 0.  0.
        2    1    3    3  502    0 -0.18880285047E+04  0.33335566006E+03 -0.16108374949E+04  0.25041116320E+04  0.25500000920E-02 0.  1.
       -2    1    3    3    0  502  0.18880285047E+04 -0.33335566006E+03 -0.57061076900E+03  0.20003435406E+04  0.25500000920E-02 0. -1.
</event>
<event>
 5   0  0.3959190E-07  0.3928837E+04  0.7818609E-02  0.8019058E-01
       -2   -1    0    0    0  501  0.00000000000E+00  0.00000000000E+00  0.13805682490E+04  0.13805682490E+04  0.25500000920E-02 0.  1.
        2   -1    0    0  501    0  0.00000000000E+00  0.00000000000E+00 -0.27951828197E+04  0.27951828197E+04  0.25500000920E-02 0. -1.
    10030    2    1    2    0    0  0.00000000000E+00  0.00000000000E+00 -0.14146145707E+04  0.41757510687E+04  0.39288373094E+04 0.  0.
        2    1    3    3  502    0  0.26811738559E+03 -0.34877774503E+03 -0.27421540295E+04  0.27772183151E+04  0.25500000920E-02 0. -1.
       -2    1    3    3    0  502 -0.26811738559E+03  0.34877774503E+03  0.13275394589E+04  0.13985327536E+04  0.25500000920E-02 0.  1.
</event>
<event>
 5   0  0.6095665E-07  0.3787614E+04  0.7818609E-02  0.8048818E-01
       -2   -1    0    0    0  501  0.00000000000E+00  0.00000000000E+00  0.11637520426E+04  0.11637520426E+04  0.25500000920E-02 0. -1.
        2   -1    0    0  501    0  0.00000000000E+00  0.00000000000E+00 -0.30818467380E+04  0.30818467380E+04  0.25500000920E-02 0.  1.
    10030    2    1    2    0    0  0.00000000000E+00  0.00000000000E+00 -0.19180946954E+04  0.42455987806E+04  0.37876142550E+04 0.  0.
        4    1    3    3  502    0 -0.13429196602E+04 -0.65906586479E+03  0.34271389244E+03  0.15346841541E+04  0.12699999809E+01 0. -1.
       -4    1    3    3    0  502  0.13429196602E+04  0.65906586479E+03 -0.22608085879E+04  0.27109146265E+04  0.12699999809E+01 0.  1.
</event>
<event>
 5   0  0.5735179E-07  0.3412978E+04  0.7818609E-02  0.8134728E-01
       -2   -1    0    0    0  501  0.00000000000E+00  0.00000000000E+00  0.11235568211E+04  0.11235568211E+04  0.25500000920E-02 0.  1.
        2   -1    0    0  501    0  0.00000000000E+00  0.00000000000E+00 -0.25918620545E+04  0.25918620545E+04  0.25500000920E-02 0. -1.
    10030    2    1    2    0    0  0.00000000000E+00  0.00000000000E+00 -0.14683052334E+04  0.37154188755E+04  0.34129777559E+04 0.  0.
        5    1    3    3  502    0 -0.15739272806E+04  0.45378450437E+03 -0.12550008601E+04  0.20635446955E+04  0.46999998093E+01 0. -1.
       -5    1    3    3    0  502  0.15739272806E+04 -0.45378450437E+03 -0.21330437327E+03  0.16518741801E+04  0.46999998093E+01 0.  1.
</event>
<event>
 5   0  0.5735179E-07  0.3862357E+04  0.7818609E-02  0.8032904E-01
       -2   -1    0    0    0  501  0.00000000000E+00  0.00000000000E+00  0.12509441841E+04  0.12509441842E+04  0.25500000920E-02 0.  1.
        2   -1    0    0  501    0  0.00000000000E+00  0.00000000000E+00 -0.29813086365E+04  0.29813086365E+04  0.25500000920E-02 0. -1.
    10030    2    1    2    0    0  0.00000000000E+00  0.00000000000E+00 -0.17303644524E+04  0.42322528207E+04  0.38623571559E+04 0.  0.
        5    1    3    3  502    0  0.11723501503E+04  0.40126121110E+03 -0.24882579713E+04  0.27797239533E+04  0.46999998093E+01 0. -1.
       -5    1    3    3    0  502 -0.11723501503E+04 -0.40126121110E+03  0.75789351898E+03  0.14525288674E+04  0.46999998093E+01 0.  1.
</event>
<event>
 5   0  0.5872444E-07  0.3751680E+04  0.7818609E-02  0.8056605E-01
       -2   -1    0    0    0  501  0.00000000000E+00  0.00000000000E+00  0.12593974530E+04  0.12593974530E+04  0.25500000920E-02 0. -1.
        2   -1    0    0  501    0  0.00000000000E+00  0.00000000000E+00 -0.27940146376E+04  0.27940146376E+04  0.25500000920E-02 0.  1.
    10030    2    1    2    0    0  0.00000000000E+00  0.00000000000E+00 -0.15346171846E+04  0.40534120906E+04  0.37516795803E+04 0.  0.
        3    1    3    3  502    0 -0.11508292848E+04 -0.86150952159E+03  0.53466891536E+03  0.15337788490E+04  0.10100000352E+00 0. -1.
       -3    1    3    3    0  502  0.11508292848E+04  0.86150952159E+03 -0.20692861000E+04  0.25196332416E+04  0.10100000352E+00 0.  1.
</event>
<event>
 5   0  0.1860500E-07  0.2410500E+04  0.7818609E-02  0.8435583E-01
       -1   -1    0    0    0  501  0.00000000000E+00  0.00000000000E+00  0.64935493564E+03  0.64935493566E+03  0.50400001928E-02 0.  1.
        1   -1    0    0  501    0  0.00000000000E+00  0.00000000000E+00 -0.22370308623E+04  0.22370308623E+04  0.50400001928E-02 0. -1.
    10030    2    1    2    0    0  0.00000000000E+00  0.00000000000E+00 -0.15876759267E+04  0.28863857980E+04  0.24104995596E+04 0.  0.
        4    1    3    3  502    0  0.47090664074E+03  0.97203726951E+03 -0.15345110382E+03  0.10909437986E+04  0.12699999809E+01 0.  1.
       -4    1    3    3    0  502 -0.47090664074E+03 -0.97203726951E+03 -0.14342248229E+04  0.17954419993E+04  0.12699999809E+01 0. -1.
</event>
<event>
 5   0  0.2666813E-07  0.4003500E+04  0.7818609E-02  0.8003841E-01
        1   -1    0    0  501    0  0.00000000000E+00  0.00000000000E+00  0.20176634421E+04  0.20176634422E+04  0.50400001928E-02 0.  1.
       -1   -1    0    0    0  501  0.00000000000E+00  0.00000000000E+00 -0.19859621920E+04  0.19859621920E+04  0.50400001928E-02 0. -1.
    10030    2    1    2    0    0  0.00000000000E+00  0.00000000000E+00  0.31701250131E+02  0.40036256342E+04  0.40035001248E+04 0.  0.
        1    1    3    3  502    0  0.11698624004E+04  0.69883155496E+03  0.14822047926E+04  0.20134236080E+04  0.50400001928E-02 0.  1.
       -1    1    3    3    0  502 -0.11698624004E+04 -0.69883155496E+03 -0.14505035425E+04  0.19902020261E+04  0.50400001928E-02 0. -1.
</event>
<event>
 5   0  0.3959190E-07  0.3845858E+04  0.7818609E-02  0.8036385E-01
        2   -1    0    0  501    0  0.00000000000E+00  0.00000000000E+00  0.27699102351E+04  0.27699102351E+04  0.25500000920E-02 0.  1.
       -2   -1    0    0    0  501  0.00000000000E+00  0.00000000000E+00 -0.13349369292E+04  0.13349369292E+04  0.25500000920E-02 0. -1.
    10030    2    1    2    0    0  0.00000000000E+00  0.00000000000E+00  0.14349733059E+04  0.41048471642E+04  0.38458577526E+04 0.  0.
        2    1    3    3  502    0  0.90834123959E+03  0.19646112695E+03  0.25142950056E+04  0.26805522112E+04  0.25500000920E-02 0.  1.
       -2    1    3    3    0  502 -0.90834123959E+03 -0.19646112695E+03 -0.10793216997E+04  0.14242949530E+04  0.25500000920E-02 0. -1.
</event>
<event>
 5   0  0.3959190E-07  0.3941068E+04  0.7818609E-02  0.8016542E-01
       -2   -1    0    0    0  501  0.00000000000E+00  0.00000000000E+00  0.19359868456E+04  0.19359868457E+04  0.25500000920E-02 0.  1.
        2   -1    0    0  501    0  0.00000000000E+00  0.00000000000E+00 -0.20056971404E+04  0.20056971404E+04  0.25500000920E-02 0. -1.
    10030    2    1    2    0    0  0.00000000000E+00  0.00000000000E+00 -0.69710294707E+02  0.39416839860E+04  0.39410675103E+04 0.  0.
        2    1    3    3  502    0 -0.18211327617E+04 -0.49874270248E+03  0.52891242112E+03  0.19608715328E+04  0.25500000920E-02 0. -1.
       -2    1    3    3    0  502  0.18211327617E+04  0.49874270248E+03 -0.59862271583E+03  0.19808124532E+04  0.25500000920E-02 0.  1.
</event>
<event>
 5   0  0.1860500E-07  0.3897427E+04  0.7818609E-02  0.8025564E-01
       -1   -1    0    0    0  501  0.00000000000E+00  0.00000000000E+00  0.16902953378E+04  0.16902953378E+04  0.50400001928E-02 0. -1.
        1   -1    0    0  501    0  0.00000000000E+00  0.00000000000E+00 -0.22466398158E+04  0.22466398158E+04  0.50400001928E-02 0.  1.
    10030    2    1    2    0    0  0.00000000000E+00  0.00000000000E+00 -0.55634447797E+03  0.39369351536E+04  0.38974272572E+04 0.  0.
        5    1    3    3  502    0  0.37714482217E+02 -0.57022318851E+03  0.16037445154E+04  0.17025261900E+04  0.46999998093E+01 0. -1.
       -5    1    3    3    0  502 -0.37714482217E+02  0.57022318851E+03 -0.21600889934E+04  0.22344089635E+04  0.46999998093E+01 0.  1.
</event>
<event>
 5   0  0.6095665E-07  0.2878677E+04  0.7818609E-02  0.8279250E-01
        2   -1    0    0  501    0  0.00000000000E+00  0.00000000000E+00  0.19786602248E+04  0.19786602248E+04  0.25500000920E-02 0. -1.
       -2   -1    0    0    0  501  0.00000000000E+00  0.00000000000E+00 -0.10470193867E+04  0.10470193867E+04  0.25500000920E-02 0.  1.
    10030    2    1    2    0    0  0.00000000000E+00  0.00000000000E+00  0.93164083811E+03  0.30256796114E+04  0.28786772066E+04 0.  0.
        4    1    3    3  502    0 -0.22340779309E+03 -0.19667810204E+03  0.19459589077E+04  0.19685911208E+04  0.12699999809E+01 0. -1.
       -4    1    3    3    0  502  0.22340779309E+03  0.19667810204E+03 -0.10143180696E+04  0.10570884906E+04  0.12699999809E+01 0.  1.
</event>
<event>
 5   0  0.1860500E-07  0.2638335E+04  0.7818609E-02  0.8355295E-01
       -1   -1    0    0    0  501  0.00000000000E+00  0.00000000000E+00  0.17317391044E+04  0.17317391044E+04  0.50400001928E-02 0.  1.
        1   -1    0    0  501    0  0.00000000000E+00  0.00000000000E+00 -0.10048874822E+04  0.10048874822E+04  0.50400001928E-02 0. -1.
    10030    2    1    2    0    0  0.00000000000E+00  0.00000000000E+00  0.72685162217E+03  0.27366265866E+04  0.26383350420E+04 0.  0.
        5    1    3    3  502    0  0.11466976092E+04 -0.29241638553E+03  0.96802910851E+03  0.15288967246E+04  0.46999998093E+01 0. -1.
       -5    1    3    3    0  502 -0.11466976092E+04  0.29241638553E+03 -0.24117748634E+03  0.12077298620E+04  0.46999998093E+01 0.  1.
</event>
<event>
 5   0  0.1943459E-07  0.3804227E+04  0.7818609E-02  0.8045248E-01
        1   -1    0    0  501    0  0.00000000000E+00  0.00000000000E+00  0.19869563269E+04  0.19869563269E+04  0.50400001928E-02 0.  1.
       -1   -1    0    0    0  501  0.00000000000E+00  0.00000000000E+00 -0.18208934198E+04  0.18208934198E+04  0.50400001928E-02 0. -1.
    10030    2    1    2    0    0  0.00000000000E+00  0.00000000000E+00  0.16606290710E+03  0.38078497467E+04  0.38042269654E+04 0.  0.
        2    1    3    3  502    0  0.64190457010E+03  0.16411145666E+04  0.79977006132E+03  0.19351823296E+04  0.25500000920E-02 0.  1.
       -2    1    3    3    0  502 -0.64190457010E+03 -0.16411145666E+04 -0.63370715422E+03  0.18726674171E+04  0.25500000920E-02 0. -1.
</event>
<event>
 5   0  0.1860500E-07  0.3897313E+04  0.7818609E-02  0.8025588E-01
        1   -1    0    0  501    0  0.00000000000E+00  0.00000000000E+00  0.16745121843E+04  0.16745121843E+04  0.50400001928E-02 0. -1.
       -1   -1    0    0    0  501  0.00000000000E+00  0.00000000000E+00 -0.22676822994E+04  0.22676822994E+04  0.50400001928E-02 0.  1.
    10030    2    1    2    0    0  0.00000000000E+00  0.00000000000E+00 -0.59317011510E+03  0.39421944838E+04  0.38973127360E+04 0.  0.
        4    1    3    3  502    0 -0.15857851545E+04  0.43547889139E+02  0.84810485455E+03  0.17988592030E+04  0.12699999809E+01 0. -1.
       -4    1    3    3    0  502  0.15857851545E+04 -0.43547889139E+02 -0.14412749697E+04  0.21433352808E+04  0.12699999809E+01 0.  1.
</event>
<event>
 5   0  0.2666813E-07  0.3697736E+04  0.7818609E-02  0.8068464E-01
        1   -1    0    0  501    0  0.00000000000E+00  0.00000000000E+00  0.24475189048E+04  0.24475189048E+04  0.50400001928E-02 0.  1.
       -1   -1    0    0    0  501  0.00000000000E+00  0.00000000000E+00 -0.13966439924E+04  0.13966439924E+04  0.50400001928E-02 0. -1.
    10030    2    1    2    0    0  0.00000000000E+00  0.00000000000E+00  0.10508749124E+04  0.38441628972E+04  0.36977358341E+04 0.  0.
        1    1    3    3  502    0  0.24344403563E+03 -0.16299081872E+04 -0.34587243424E+03  0.16838923475E+04  0.50400001928E-02 0. -1.
       -1    1    3    3    0  502 -0.24344403563E+03  0.16299081872E+04  0.13967473466E+04  0.21602705496E+04  0.50400001928E-02 0.  1.
</event>
<event>
 5   0  0.2666813E-07  0.3730044E+04  0.7818609E-02  0.8061336E-01
        1   -1    0    0  501    0  0.00000000000E+00  0.00000000000E+00  0.16153561683E+04  0.16153561683E+04  0.50400001928E-02 0. -1.
       -1   -1    0    0    0  501  0.00000000000E+00  0.00000000000E+00 -0.21532762002E+04  0.21532762002E+04  0.50400001928E-02 0.  1.
    10030    2    1    2    0    0  0.00000000000E+00  0.00000000000E+00 -0.53792003196E+03  0.37686323685E+04  0.37300444995E+04 0.  0.
        1    1    3    3  502    0  0.16561156173E+04  0.73553494359E+02  0.59438505050E+03  0.17610856432E+04  0.50400001928E-02 0. -1.
       -1    1    3    3    0  502 -0.16561156173E+04 -0.73553494359E+02 -0.11323050825E+04  0.20075467253E+04  0.50400001928E-02 0.  1.
</event>
<event>
 5   0  0.5735179E-07  0.3938485E+04  0.7818609E-02  0.8017072E-01
       -2   -1    0    0    0  501  0.00000000000E+00  0.00000000000E+00  0.15689539313E+04  0.15689539313E+04  0.25500000920E-02 0. -1.
        2   -1    0    0  501    0  0.00000000000E+00  0.00000000000E+00 -0.24716571977E+04  0.24716571977E+04  0.25500000920E-02 0.  1.
    10030    2    1    2    0    0  0.00000000000E+00  0.00000000000E+00 -0.90270326643E+03  0.40406111290E+04  0.39384851286E+04 0.  0.
        5    1    3    3  502    0 -0.19438218782E+04 -0.45664858563E+02 -0.13122618312E+03  0.19487871035E+04  0.46999998093E+01 0.  1.
       -5    1    3    3    0  502  0.19438218782E+04  0.45664858563E+02 -0.77147708331E+03  0.20918240255E+04  0.46999998093E+01 0. -1.
</event>
<event>
 5   0  0.1860500E-07  0.3733245E+04  0.7818609E-02  0.8060634E-01
       -1   -1    0    0    0  501  0.00000000000E+00  0.00000000000E+00  0.24106142366E+04  0.24106142366E+04  0.50400001928E-02 0.  1.
        1   -1    0    0  501    0  0.00000000000E+00  0.00000000000E+00 -0.14453905288E+04  0.14453905288E+04  0.50400001928E-02 0. -1.
    10030    2    1    2    0    0  0.00000000000E+00  0.00000000000E+00  0.96522370779E+03  0.38560047655E+04  0.37332446940E+04 0.  0.
        5    1    3    3  502    0  0.17653380633E+04 -0.42489248824E+03  0.92963040821E+03  0.20398987451E+04  0.46999998093E+01 0.  1.
       -5    1    3    3    0  502 -0.17653380633E+04  0.42489248824E+03  0.35593299582E+02  0.18161060204E+04  0.46999998093E+01 0. -1.
</event>
<event>
 5   0  0.5805753E-07  0.3915809E+04  0.7818609E-02  0.8021749E-01
       -2   -1    0    0    0  501  0.00000000000E+00  0.00000000000E+00  0.20925730562E+04  0.20925730562E+04  0.25500000920E-02 0. -1.
        2   -1    0    0  501    0  0.00000000000E+00  0.00000000000E+00 -0.18319024522E+04  0.18319024522E+04  0.25500000920E-02 0.  1.
    10030    2    1    2    0    0  0.00000000000E+00  0.00000000000E+00  0.26067060399E+03  0.39244755084E+04  0.39158088375E+04 0.  0.
        1    1    3    3  502    0 -0.13356461373E+04  0.76754586596E+03 -0.10807731507E+04  0.18817937888E+04  0.50400001928E-02 0.  1.
       -1    1    3    3    0  502  0.13356461373E+04 -0.76754586596E+03  0.13414437547E+04  0.20426817195E+04  0.50400001928E-02 0. -1.
</event>
<event>
 5   0  0.1876027E-07  0.2925217E+04  0.7818609E-02  0.8265414E-01
       -1   -1    0    0    0  501  0.00000000000E+00  0.00000000000E+00  0.10361356296E+04  0.10361356297E+04  0.50400001928E-02 0. -1.
        1   -1    0    0  501    0  0.00000000000E+00  0.00000000000E+00 -0.20646173189E+04  0.20646173189E+04  0.50400001928E-02 0.  1.
    10030    2    1    2    0    0  0.00000000000E+00  0.00000000000E+00 -0.10284816892E+04  0.31007529485E+04  0.29252169599E+04 0.  0.
        3    1    3    3  502    0  0.19715744001E+03  0.12634908326E+04 -0.12667295229E+04  0.17999677316E+04  0.10100000352E+00 0.  1.
       -3    1    3    3    0  502 -0.19715744001E+03 -0.12634908326E+04  0.23824783369E+03  0.13007852170E+04  0.10100000352E+00 0. -1.
</event>
<event>
 5   0  0.5735179E-07  0.3965768E+04  0.7818609E-02  0.8011488E-01
        2   -1    0    0  501    0  0.00000000000E+00  0.00000000000E+00  0.18044978895E+04  0.18044978895E+04  0.25500000920E-02 0. -1.
       -2   -1    0    0    0  501  0.00000000000E+00  0.00000000000E+00 -0.21789046660E+04  0.21789046660E+04  0.25500000920E-02 0.  1.
    10030    2    1    2    0    0  0.00000000000E+00  0.00000000000E+00 -0.37440677648E+03  0.39834025556E+04  0.39657679566E+04 0.  0.
        5    1    3    3  502    0 -0.97072997761E+03 -0.10704534432E+04  0.11766338584E+04  0.18635118970E+04  0.46999998093E+01 0. -1.
       -5    1    3    3    0  502  0.97072997761E+03  0.10704534432E+04 -0.15510406349E+04  0.21198906586E+04  0.46999998093E+01 0.  1.
</event>
<event>
 5   0  0.5872444E-07  0.3726897E+04  0.7818609E-02  0.8062027E-01
       -2   -1    0    0    0  501  0.00000000000E+00  0.00000000000E+00  0.13464611534E+04  0.13464611534E+04  0.25500000920E-02 0.  1.
        2   -1    0    0  501    0  0.00000000000E+00  0.00000000000E+00 -0.25789378031E+04  0.25789378031E+04  0.25500000920E-02 0. -1.
    10030    2    1    2    0    0  0.00000000000E+00  0.00000000000E+00 -0.12324766496E+04  0.39253989565E+04  0.37268966011E+04 0.  0.
        3    1    3    3  502    0 -0.17929461021E+04 -0.31955687399E+03 -0.20067705129E+03  0.18322236790E+04  0.10100000352E+00 0.  1.
       -3    1    3    3    0  502  0.17929461021E+04  0.31955687399E+03 -0.10317995984E+04  0.20931752775E+04  0.10100000352E+00 0. -1.
</event>
<event>
 5   0  0.5805753E-07  0.3938814E+04  0.7818609E-02  0.8017005E-01
        2   -1    0    0  501    0  0.00000000000E+00  0.00000000000E+00  0.19779184858E+04  0.19779184858E+04  0.25500000920E-02 0.  1.
       -2   -1    0    0    0  501  0.00000000000E+00  0.00000000000E+00 -0.19609322981E+04  0.19609322981E+04  0.25500000920E-02 0. -1.
    10030    2    1    2    0    0  0.00000000000E+00  0.00000000000E+00  0.16986187729E+02  0.39388507839E+04  0.39388141575E+04 0.  0.
        1    1    3    3  502    0 -0.99330978488E+03  0.15811375651E+04 -0.61753502203E+03  0.19667256626E+04  0.50400001928E-02 0. -1.
       -1    1    3    3    0  502  0.99330978488E+03 -0.15811375651E+04  0.63452120976E+03  0.19721251213E+04  0.50400001928E-02 0.  1.
</event>
<event>
 5   0  0.2666813E-07  0.3922214E+04  0.7818609E-02  0.8020425E-01
       -1   -1    0    0    0  501  0.00000000000E+00  0.00000000000E+00  0.27592020157E+04  0.27592020157E+04  0.50400001928E-02 0. -1.
        1   -1    0    0  501    0  0.00000000000E+00  0.00000000000E+00 -0.13938599691E+04  0.13938599691E+04  0.50400001928E-02 0.  1.
    10030    2    1    2    0    0  0.00000000000E+00  0.00000000000E+00  0.13653420466E+04  0.41530619848E+04  0.39222142911E+04 0.  0.
        1    1    3    3  502    0  0.14745507479E+03 -0.18325075275E+04  0.14055795626E+04  0.23141911641E+04  0.50400001928E-02 0. -1.
       -1    1    3    3    0  502 -0.14745507479E+03  0.18325075275E+04 -0.40237515994E+02  0.18388708207E+04  0.50400001928E-02 0.  1.
</event>
<event>
 5   0  0.3959190E-07  0.3900234E+04  0.7818609E-02  0.8024981E-01
        2   -1    0    0  501    0  0.00000000000E+00  0.00000000000E+00  0.14601368483E+04  0.14601368483E+04  0.25500000920E-02 0.  1.
       -2   -1    0    0    0  501  0.00000000000E+00  0.00000000000E+00 -0.26045202386E+04  0.26045202386E+04  0.25500000920E-02 0. -1.
    10030    2    1    2    0    0  0.00000000000E+00  0.00000000000E+00 -0.11443833904E+04  0.40646570869E+04  0.39002338251E+04 0.  0.
        2    1    3    3  502    0  0.81806119233E+03 -0.16057268195E+04 -0.13488424035E+04  0.22509905737E+04  0.25500000920E-02 0. -1.
       -2    1    3    3    0  502 -0.81806119233E+03  0.16057268195E+04  0.20445901309E+03  0.18136665133E+04  0.25500000920E-02 0.  1.
</event>
<event>
 5   0  0.5805753E-07  0.3842931E+04  0.7818609E-02  0.8037004E-01
        2   -1    0    0  501    0  0.00000000000E+00  0.00000000000E+00  0.23156706047E+04  0.23156706047E+04  0.25500000920E-02 0. -1.
       -2   -1    0    0    0  501  0.00000000000E+00  0.00000000000E+00 -0.15943674805E+04  0.15943674805E+04  0.25500000920E-02 0.  1.
    10030    2    1    2    0    0  0.00000000000E+00  0.00000000000E+00  0.72130312418E+03  0.39100380851E+04  0.38429311248E+04 0.  0.
        1    1    3    3  502    0 -0.81332943622E+03  0.12222205435E+04  0.16219365483E+04  0.21876942189E+04  0.50400001928E-02 0. -1.
       -1    1    3    3    0  502  0.81332943622E+03 -0.12222205435E+04 -0.90063342409E+03  0.17223438662E+04  0.50400001928E-02 0.  1.
</event>
<event>
 5   0  0.5872444E-07  0.3890977E+04  0.7818609E-02  0.8026909E-01
        2   -1    0    0  501    0  0.00000000000E+00  0.00000000000E+00  0.12531762462E+04  0.12531762462E+04  0.25500000920E-02 0.  1.
       -2   -1    0    0    0  501  0.00000000000E+00  0.00000000000E+00 -0.30202653076E+04  0.30202653076E+04  0.25500000920E-02 0. -1.
    10030    2    1    2    0    0  0.00000000000E+00  0.00000000000E+00 -0.17670890614E+04  0.42734415537E+04  0.38909766078E+04 0.  0.
        3    1    3    3  502    0 -0.27637392843E+02 -0.19340458212E+04 -0.65414097723E+03  0.20418612813E+04  0.10100000352E+00 0. -1.
       -3    1    3    3    0  502  0.27637392843E+02  0.19340458212E+04 -0.11129480842E+04  0.22315802724E+04  0.10100000352E+00 0.  1.
</event>
<event>
 5   0  0.1860500E-07  0.3833283E+04  0.7818609E-02  0.8039050E-01
        1   -1    0    0  501    0  0.00000000000E+00  0.00000000000E+00  0.19829999127E+04  0.19829999127E+04  0.50400001928E-02 0.  1.
       -1   -1    0    0    0  501  0.00000000000E+00  0.00000000000E+00 -0.18525034900E+04  0.18525034900E+04  0.50400001928E-02 0. -1.
    10030    2    1    2    0    0  0.00000000000E+00  0.00000000000E+00  0.13049642269E+03  0.38355034028E+04  0.38332828015E+04 0.  0.
        5    1    3    3  502    0 -0.37398628346E+03  0.74391227109E+03  0.17925799153E+04  0.19765211990E+04  0.46999998093E+01 0.  1.
       -5    1    3    3    0  502  0.37398628346E+03 -0.74391227109E+03 -0.16620834927E+04  0.18589822037E+04  0.46999998093E+01 0. -1.
</event>
<event>
 5   0  0.5735179E-07  0.3921225E+04  0.7818609E-02  0.8020629E-01
        2   -1    0    0  501    0  0.00000000000E+00  0.00000000000E+00  0.24835616651E+04  0.24835616651E+04  0.25500000920E-02 0. -1.
       -2   -1    0    0    0  501  0.00000000000E+00  0.00000000000E+00 -0.15477775030E+04  0.15477775030E+04  0.25500000920E-02 0.  1.
    10030    2    1    2    0    0  0.00000000000E+00  0.00000000000E+00  0.93578416216E+03  0.40313391681E+04  0.39212247437E+04 0.  0.
        5    1    3    3  502    0  0.15986130578E+03  0.12731988835E+04  0.19918779957E+04  0.23694284277E+04  0.46999998093E+01 0. -1.
       -5    1    3    3    0  502 -0.15986130578E+03 -0.12731988835E+04 -0.10560938336E+04  0.16619107405E+04  0.46999998093E+01 0.  1.
</event>
<event>
 5   0  0.2666813E-07  0.3633897E+04  0.7818609E-02  0.8082771E-01
        1   -1    0    0  501    0  0.00000000000E+00  0.00000000000E+00  0.17026547125E+04  0.17026547125E+04  0.50400001928E-02 0.  1.
       -1   -1    0    0    0  501  0.00000000000E+00  0.00000000000E+00 -0.19389147454E+04  0.19389147454E+04  0.50400001928E-02 0. -1.
    10030    2    1    2    0    0  0.00000000000E+00  0.00000000000E+00 -0.23626003294E+03  0.36415694579E+04  0.36338972624E+04 0.  0.
        1    1    3    3  502    0  0.59850669832E+03  0.16973026500E+04  0.13190784422E+03  0.18045626154E+04  0.50400001928E-02 0.  1.
       -1    1    3    3    0  502 -0.59850669832E+03 -0.16973026500E+04 -0.36816787716E+03  0.18370068425E+04  0.50400001928E-02 0. -1.
</event>
<event>
 5   0  0.3959190E-07  0.2404714E+04  0.7818609E-02  0.8437741E-01
        2   -1    0    0  501    0  0.00000000000E+00  0.00000000000E+00  0.11880858323E+04  0.11880858323E+04  0.25500000920E-02 0. -1.
       -2   -1    0    0    0  501  0.00000000000E+00  0.00000000000E+00 -0.12167991478E+04  0.12167991478E+04  0.25500000920E-02 0.  1.
    10030    2    1    2    0    0  0.00000000000E+00  0.00000000000E+00 -0.28713315578E+02  0.24048849801E+04  0.24047135615E+04 0.  0.
        2    1    3    3  502    0  0.97038574251E+02  0.51953522271E+03  0.10656872227E+04  0.11895472202E+04  0.25500000920E-02 0. -1.
       -2    1    3    3    0  502 -0.97038574251E+02 -0.51953522271E+03 -0.10944005382E+04  0.12153377599E+04  0.25500000920E-02 0.  1.
</event>
<event>
 5   0  0.6095665E-07  0.3608225E+04  0.7818609E-02  0.8088610E-01
       -2   -1    0    0    0  501  0.00000000000E+00  0.00000000000E+00  0.15459723747E+04  0.15459723747E+04  0.25500000920E-02 0. -1.
        2   -1    0    0  501    0  0.00000000000E+00  0.00000000000E+00 -0.21053557269E+04  0.21053557269E+04  0.25500000920E-02 0.  1.
    10030    2    1    2    0    0  0.00000000000E+00  0.00000000000E+00 -0.55938335217E+03  0.36513281016E+04  0.36082249335E+04 0.  0.
        4    1    3    3  502    0 -0.51336172921E+03 -0.15616622618E+04 -0.10318682768E+04  0.19408974828E+04  0.12699999809E+01 0.  1.
       -4    1    3    3    0  502  0.51336172921E+03  0.15616622618E+04  0.47248492465E+03  0.17104306189E+04  0.12699999809E+01 0. -1.
</event>
<event>
 5   0  0.1943459E-07  0.3203942E+04  0.7818609E-02  0.8187777E-01
       -1   -1    0    0    0  501  0.00000000000E+00  0.00000000000E+00  0.11189015802E+04  0.11189015802E+04  0.50400001928E-02 0. -1.
        1   -1    0    0  501    0  0.00000000000E+00  0.00000000000E+00 -0.22935991452E+04  0.22935991453E+04  0.50400001928E-02 0.  1.
    10030    2    1    2    0    0  0.00000000000E+00  0.00000000000E+00 -0.11746975651E+04  0.34125007254E+04  0.32039423889E+04 0.  0.
        2    1    3    3  502    0  0.32758410420E+03  0.26893928667E+03 -0.22327977792E+04  0.22726692693E+04  0.25500000920E-02 0.  1.
       -2    1    3    3    0  502 -0.32758410420E+03 -0.26893928667E+03  0.10581002141E+04  0.11398314561E+04  0.25500000920E-02 0. -1.
</event>
<event>
 5   0  0.1860500E-07  0.3036995E+04  0.7818609E-02  0.8233245E-01
        1   -1    0    0  501    0  0.00000000000E+00  0.00000000000E+00  0.16558506341E+04  0.16558506341E+04  0.50400001928E-02 0.  1.
       -1   -1    0    0    0  501  0.00000000000E+00  0.00000000000E+00 -0.13925375369E+04  0.13925375369E+04  0.50400001928E-02 0. -1.
    10030    2    1    2    0    0  0.00000000000E+00  0.00000000000E+00  0.26331309717E+03  0.30483881710E+04  0.30369946746E+04 0.  0.
        5    1    3    3  502    0 -0.12778656279E+04  0.19405699903E+03 -0.66833621763E+03  0.14550924616E+04  0.46999998093E+01 0. -1.
       -5    1    3    3    0  502  0.12778656279E+04 -0.19405699903E+03  0.93164931480E+03  0.15932957094E+04  0.46999998093E+01 0.  1.
</event>
<event>
 5   0  0.5735179E-07  0.3853567E+04  0.7818609E-02  0.8034756E-01
       -2   -1    0    0    0  501  0.00000000000E+00  0.00000000000E+00  0.20746978778E+04  0.20746978778E+04  0.25500000920E-02 0. -1.
        2   -1    0    0  501    0  0.00000000000E+00  0.00000000000E+00 -0.17894146877E+04  0.17894146877E+04  0.25500000920E-02 0.  1.
    10030    2    1    2    0    0  0.00000000000E+00  0.00000000000E+00  0.28528319010E+03  0.38641125655E+04  0.38535671034E+04 0.  0.
        5    1    3    3  502    0 -0.14781120208E+04 -0.97209404652E+02 -0.10928860699E+04  0.18408386312E+04  0.46999998093E+01 0.  1.
       -5    1    3    3    0  502  0.14781120208E+04  0.97209404652E+02  0.13781692600E+04  0.20232739344E+04  0.46999998093E+01 0. -1.
</event>
<event>
 5   0  0.1860500E-07  0.3862369E+04  0.7818609E-02  0.8032902E-01
       -3   -1    0    0    0  501  0.00000000000E+00  0.00000000000E+00  0.17319033489E+04  0.17319033519E+04  0.10100000352E+00 0. -1.
        3   -1    0    0  501    0  0.00000000000E+00  0.00000000000E+00 -0.21533953840E+04  0.21533953864E+04  0.10100000352E+00 0.  1.
    10030    2    1    2    0    0  0.00000000000E+00  0.00000000000E+00 -0.42149203506E+03  0.38852987383E+04  0.38623685414E+04 0.  0.
        5    1    3    3  502    0 -0.37844911062E+03  0.10488086305E+04 -0.17968845787E+04  0.21147197336E+04  0.46999998093E+01 0.  1.
       -5    1    3    3    0  502  0.37844911062E+03 -0.10488086305E+04  0.13753925436E+04  0.17705790046E+04  0.46999998093E+01 0. -1.
</event>
<event>
 5   0  0.3959190E-07  0.2543030E+04  0.7818609E-02  0.8387814E-01
       -2   -1    0    0    0  501  0.00000000000E+00  0.00000000000E+00  0.65409794619E+03  0.65409794619E+03  0.25500000920E-02 0. -1.
        2   -1    0    0  501    0  0.00000000000E+00  0.00000000000E+00 -0.24717245458E+04  0.24717245458E+04  0.25500000920E-02 0.  1.
    10030    2    1    2    0    0  0.00000000000E+00  0.00000000000E+00 -0.18176265996E+04  0.31258224920E+04  0.25430296490E+04 0.  0.
        2    1    3    3  502    0 -0.12101074608E+04 -0.39036049290E+03 -0.90521539131E+03  0.15608191073E+04  0.25500000920E-02 0. -1.
       -2    1    3    3    0  502  0.12101074608E+04  0.39036049290E+03 -0.91241120830E+03  0.15650033847E+04  0.25500000920E-02 0.  1.
</event>
<event>
 5   0  0.5872444E-07  0.3803861E+04  0.7818609E-02  0.8045327E-01
       -2   -1    0    0    0  501  0.00000000000E+00  0.00000000000E+00  0.13461666379E+04  0.13461666379E+04  0.25500000920E-02 0. -1.
        2   -1    0    0  501    0  0.00000000000E+00  0.00000000000E+00 -0.26871407151E+04  0.26871407151E+04  0.25500000920E-02 0.  1.
    10030    2    1    2    0    0  0.00000000000E+00  0.00000000000E+00 -0.13409740772E+04  0.40333073530E+04  0.38038607662E+04 0.  0.
        3    1    3    3  502    0  0.62760501252E+03 -0.22566724206E+02 -0.25740311354E+04  0.26495346016E+04  0.10100000352E+00 0.  1.
       -3    1    3    3    0  502 -0.62760501252E+03  0.22566724206E+02  0.12330570582E+04  0.13837727515E+04  0.10100000352E+00 0. -1.
</event>
<event>
 5   0  0.3959190E-07  0.3389001E+04  0.7818609E-02  0.8140611E-01
        2   -1    0    0  501    0  0.00000000000E+00  0.00000000000E+00  0.21299800499E+04  0.21299800499E+04  0.25500000920E-02 0. -1.
       -2   -1    0    0    0  501  0.00000000000E+00  0.00000000000E+00 -0.13480561816E+04  0.13480561816E+04  0.25500000920E-02 0.  1.
    10030    2    1    2    0    0  0.00000000000E+00  0.00000000000E+00  0.78192386826E+03  0.34780362315E+04  0.33890014889E+04 0.  0.
        2    1    3    3  502    0 -0.72074758027E+03  0.51012050388E+03  0.18752051102E+04  0.20727021513E+04  0.25500000920E-02 0. -1.
       -2    1    3    3    0  502  0.72074758027E+03 -0.51012050388E+03 -0.10932812419E+04  0.14053340802E+04  0.25500000920E-02 0.  1.
</event>
<event>
 5   0  0.1876027E-07  0.3882521E+04  0.7818609E-02  0.8028674E-01
        1   -1    0    0  501    0  0.00000000000E+00  0.00000000000E+00  0.17403475194E+04  0.17403475194E+04  0.50400001928E-02 0.  1.
       -1   -1    0    0    0  501  0.00000000000E+00  0.00000000000E+00 -0.21653672377E+04  0.21653672377E+04  0.50400001928E-02 0. -1.
    10030    2    1    2    0    0  0.00000000000E+00  0.00000000000E+00 -0.42501971830E+03  0.39057147571E+04  0.38825205734E+04 0.  0.
        3    1    3    3  502    0 -0.18876639884E+03 -0.11170326816E+04 -0.17983463445E+04  0.21254280393E+04  0.10100000352E+00 0. -1.
       -3    1    3    3    0  502  0.18876639884E+03  0.11170326816E+04  0.13733266262E+04  0.17802867178E+04  0.10100000352E+00 0.  1.
</event>
<event>
 5   0  0.1860500E-07  0.3627672E+04  0.7818609E-02  0.8084182E-01
        1   -1    0    0  501    0  0.00000000000E+00  0.00000000000E+00  0.20588820481E+04  0.20588820481E+04  0.50400001928E-02 0. -1.
       -1   -1    0    0    0  501  0.00000000000E+00  0.00000000000E+00 -0.15979549777E+04  0.15979549777E+04  0.50400001928E-02 0.  1.
    10030    2    1    2    0    0  0.00000000000E+00  0.00000000000E+00  0.46092707042E+03  0.36568370258E+04  0.36276718800E+04 0.  0.
        5    1    3    3  502    0  0.70319803749E+03  0.28556193852E+03 -0.14301867262E+04  0.16191013750E+04  0.46999998093E+01 0.  1.
       -5    1    3    3    0  502 -0.70319803749E+03 -0.28556193852E+03  0.18911137966E+04  0.20377356508E+04  0.46999998093E+01 0. -1.
</event>
<event>
 5   0  0.5872444E-07  0.3902030E+04  0.7818609E-02  0.8024607E-01
        2   -1    0    0  501    0  0.00000000000E+00  0.00000000000E+00  0.19867787138E+04  0.19867787138E+04  0.25500000920E-02 0. -1.
       -2   -1    0    0    0  501  0.00000000000E+00  0.00000000000E+00 -0.19158948309E+04  0.19158948309E+04  0.25500000920E-02 0.  1.
    10030    2    1    2    0    0  0.00000000000E+00  0.00000000000E+00  0.70883882846E+02  0.39026735447E+04  0.39020297631E+04 0.  0.
        3    1    3    3  502    0 -0.79733076580E+03  0.76617805762E+03  0.16430944258E+04  0.19805364092E+04  0.10100000352E+00 0. -1.
       -3    1    3    3    0  502  0.79733076580E+03 -0.76617805762E+03 -0.15722105429E+04  0.19221371355E+04  0.10100000352E+00 0.  1.
</event>
<event>
 5   0  0.1860500E-07  0.3858929E+04  0.7818609E-02  0.8033626E-01
       -1   -1    0    0    0  501  0.00000000000E+00  0.00000000000E+00  0.11699135719E+04  0.11699135720E+04  0.50400001928E-02 0. -1.
        1   -1    0    0  501    0  0.00000000000E+00  0.00000000000E+00 -0.31821434512E+04  0.31821434512E+04  0.50400001928E-02 0.  1.
    10030    2    1    2    0    0  0.00000000000E+00  0.00000000000E+00 -0.20122298793E+04  0.43520570232E+04  0.38589287692E+04 0.  0.
        5    1    3    3  502    0 -0.11888074377E+04  0.31325046665E+03  0.67100299273E+03  0.14005913340E+04  0.46999998093E+01 0. -1.
       -5    1    3    3    0  502  0.11888074377E+04 -0.31325046665E+03 -0.26832328720E+04  0.29514656891E+04  0.46999998093E+01 0.  1.
</event>
<event>
 5   0  0.1943459E-07  0.3888045E+04  0.7818609E-02  0.8027520E-01
        1   -1    0    0  501    0  0.00000000000E+00  0.00000000000E+00  0.15766814084E+04  0.15766814085E+04  0.50400001928E-02 0.  1.
       -1   -1    0    0    0  501  0.00000000000E+00  0.00000000000E+00 -0.23969476965E+04  0.23969476965E+04  0.50400001928E-02 0. -1.
    10030    2    1    2    0    0  0.00000000000E+00  0.00000000000E+00 -0.82026628808E+03  0.39736291050E+04  0.38880446860E+04 0.  0.
        2    1    3    3  502    0 -0.15507060038E+04 -0.11318328797E+04 -0.72262178051E+03  0.20513207978E+04  0.25500000920E-02 0. -1.
       -2    1    3    3    0  502  0.15507060038E+04  0.11318328797E+04 -0.97644507562E+02  0.19223083072E+04  0.25500000920E-02 0.  1.
</event>
<event>
 5   0  0.5735179E-07  0.2444900E+04  0.7818609E-02  0.8422882E-01
       -2   -1    0    0    0  501  0.00000000000E+00  0.00000000000E+00  0.11190629288E+04  0.11190629288E+04  0.25500000920E-02 0. -1.
        2   -1    0    0  501    0  0.00000000000E+00  0.00000000000E+00 -0.13353884717E+04  0.13353884717E+04  0.25500000920E-02 0.  1.
    10030    2    1    2    0    0  0.00000000000E+00  0.00000000000E+00 -0.21632554288E+03  0.24544514006E+04  0.24448997806E+04 0.  0.
        5    1    3    3  502    0 -0.10938283977E+04  0.12770451824E+03 -0.64088893046E+03  0.12741780561E+04  0.46999998093E+01 0.  1.
       -5    1    3    3    0  502  0.10938283977E+04 -0.12770451824E+03  0.42456338758E+03  0.11802733444E+04  0.46999998093E+01 0. -1.
</event>
<event>
 5   0  0.2666813E-07  0.3921808E+04  0.7818609E-02  0.8020509E-01
       -1   -1    0    0    0  501  0.00000000000E+00  0.00000000000E+00  0.25910382972E+04  0.25910382972E+04  0.50400001928E-02 0.  1.
        1   -1    0    0  501    0  0.00000000000E+00  0.00000000000E+00 -0.14840171990E+04  0.14840171990E+04  0.50400001928E-02 0. -1.
    10030    2    1    2    0    0  0.00000000000E+00  0.00000000000E+00  0.11070210981E+04  0.40750554962E+04  0.39218084585E+04 0.  0.
        1    1    3    3  502    0 -0.11818088880E+04  0.12282768833E+02 -0.10723430670E+04  0.15958517373E+04  0.50400001928E-02 0. -1.
       -1    1    3    3    0  502  0.11818088880E+04 -0.12282768833E+02  0.21793641651E+04  0.24792037589E+04  0.50400001928E-02 0.  1.
</event>
<event>
 5   0  0.5872444E-07  0.3772629E+04  0.7818609E-02  0.8052054E-01
       -2   -1    0    0    0  501  0.00000000000E+00  0.00000000000E+00  0.14534063107E+04  0.14534063107E+04  0.25500000920E-02 0. -1.
        2   -1    0    0  501    0  0.00000000000E+00  0.00000000000E+00 -0.24481678111E+04  0.24481678111E+04  0.25500000920E-02 0.  1.
    10030    2    1    2    0    0  0.00000000000E+00  0.00000000000E+00 -0.99476150039E+03  0.39015741217E+04  0.37726290813E+04 0.  0.
        3    1    3    3  502    0 -0.79854134098E+03  0.16202846304E+04 -0.10592665161E+04  0.20940477834E+04  0.10100000352E+00 0.  1.
       -3    1    3    3    0  502  0.79854134098E+03 -0.16202846304E+04  0.64505015744E+02  0.18075263384E+04  0.10100000352E+00 0. -1.
</event>
<event>
 5   0  0.6095665E-07  0.3324110E+04  0.7818609E-02  0.8156788E-01
        2   -1    0    0  501    0  0.00000000000E+00  0.00000000000E+00  0.17434130414E+04  0.17434130414E+04  0.25500000920E-02 0. -1.
       -2   -1    0    0    0  501  0.00000000000E+00  0.00000000000E+00 -0.15844932322E+04  0.15844932323E+04  0.25500000920E-02 0.  1.
    10030    2    1    2    0    0  0.00000000000E+00  0.00000000000E+00  0.15891980919E+03  0.33279062737E+04  0.33241096042E+04 0.  0.
        4    1    3    3  502    0  0.76385882987E+03  0.91827969335E+03 -0.10775878786E+04  0.16086998341E+04  0.12699999809E+01 0.  1.
       -4    1    3    3    0  502 -0.76385882987E+03 -0.91827969335E+03  0.12365076878E+04  0.17192064396E+04  0.12699999809E+01 0. -1.
</event>
<event>
 5   0  0.5872444E-07  0.3959344E+04  0.7818609E-02  0.8012799E-01
       -2   -1    0    0    0  501  0.00000000000E+00  0.00000000000E+00  0.18389529544E+04  0.18389529544E+04  0.25500000920E-02 0.  1.
        2   -1    0    0  501    0  0.00000000000E+00  0.00000000000E+00 -0.21311594559E+04  0.21311594559E+04  0.25500000920E-02 0. -1.
    10030    2    1    2    0    0  0.00000000000E+00  0.00000000000E+00 -0.29220650145E+03  0.39701124103E+04  0.39593443789E+04 0.  0.
        3    1    3    3  502    0  0.11224561747E+04  0.15503225707E+04 -0.65314044664E+03  0.20223749382E+04  0.10100000352E+00 0. -1.
       -3    1    3    3    0  502 -0.11224561747E+04 -0.15503225707E+04  0.36093394519E+03  0.19477374721E+04  0.10100000352E+00 0.  1.
</event>
<event>
 5   0  0.5735179E-07  0.3639070E+04  0.7818609E-02  0.8081600E-01
        2   -1    0    0  501    0  0.00000000000E+00  0.00000000000E+00  0.26446872858E+04  0.26446872858E+04  0.25500000920E-02 0.  1.
       -2   -1    0    0    0  501  0.00000000000E+00  0.00000000000E+00 -0.12518335182E+04  0.12518335182E+04  0.25500000920E-02 0. -1.
    10030    2    1    2    0    0  0.00000000000E+00  0.00000000000E+00  0.13928537675E+04  0.38965208040E+04  0.36390703151E+04 0.  0.
        5    1    3    3  502    0  0.21041148364E+03  0.67901878685E+03  0.24898378235E+04  0.25893346602E+04  0.46999998093E+01 0.  1.
       -5    1    3    3    0  502 -0.21041148364E+03 -0.67901878685E+03 -0.10969840560E+04  0.13071861438E+04  0.46999998093E+01 0. -1.
</event>
<event>
 5   0  0.6095665E-07  0.3824839E+04  0.7818609E-02  0.8040845E-01
        2   -1    0    0  501    0  0.00000000000E+00  0.00000000000E+00  0.26001797000E+04  0.26001797000E+04  0.25500000920E-02 0.  1.
       -2   -1    0    0    0  501  0.00000000000E+00  0.00000000000E+00 -0.14065754103E+04  0.14065754103E+04  0.25500000920E-02 0. -1.
    10030    2    1    2    0    0  0.00000000000E+00  0.00000000000E+00  0.11936042897E+04  0.40067551103E+04  0.38248392533E+04 0.  0.
        4    1    3    3  502    0  0.12723017968E+04 -0.13364547467E+04  0.11231787724E+04  0.21601840939E+04  0.12699999809E+01 0. -1.
       -4    1    3    3    0  502 -0.12723017968E+04  0.13364547467E+04  0.70425517293E+02  0.18465710163E+04  0.12699999809E+01 0.  1.
</event>
<event>
 5   0  0.1860500E-07  0.4002391E+04  0.7818609E-02  0.8004064E-01
        1   -1    0    0  501    0  0.00000000000E+00  0.00000000000E+00  0.23366653082E+04  0.23366653082E+04  0.50400001928E-02 0. -1.
       -1   -1    0    0    0  501  0.00000000000E+00  0.00000000000E+00 -0.17138880253E+04  0.17138880253E+04  0.50400001928E-02 0.  1.
    10030    2    1    2    0    0  0.00000000000E+00  0.00000000000E+00  0.62277728288E+03  0.40505533335E+04  0.40023906310E+04 0.  0.
        5    1    3    3  502    0 -0.16856458718E+04  0.84876391279E+03 -0.36217147028E+03  0.19217160167E+04  0.46999998093E+01 0. -1.
       -5    1    3    3    0  502  0.16856458718E+04 -0.84876391279E+03  0.98494875316E+03  0.21288373168E+04  0.46999998093E+01 0.  1.
</event>
<event>
 5   0  0.5735179E-07  0.3737631E+04  0.7818609E-02  0.8059673E-01
        2   -1    0    0  501    0  0.00000000000E+00  0.00000000000E+00  0.23370718686E+04  0.23370718686E+04  0.25500000920E-02 0.  1.
       -2   -1    0    0    0  501  0.00000000000E+00  0.00000000000E+00 -0.14943792973E+04  0.14943792973E+04  0.25500000920E-02 0. -1.
    10030    2    1    2    0    0  0.00000000000E+00  0.00000000000E+00  0.84269257135E+03  0.38314511659E+04  0.37376312374E+04 0.  0.
        5    1    3    3  502    0  0.47059039061E+03  0.12386804736E+04 -0.92955894001E+03  0.16186063587E+04  0.46999998093E+01 0. -1.
       -5    1    3    3    0  502 -0.47059039061E+03 -0.12386804736E+04  0.17722515114E+04  0.22128448072E+04  0.46999998093E+01 0.  1.
</event>
<event>
 5   0  0.1860500E-07  0.3916888E+04  0.7818609E-02  0.8021526E-01
       -3   -1    0    0    0  501  0.00000000000E+00  0.00000000000E+00  0.20302621845E+04  0.20302621870E+04  0.10100000352E+00 0.  1.
        3   -1    0    0  501    0  0.00000000000E+00  0.00000000000E+00 -0.18891666821E+04  0.18891666848E+04  0.10100000352E+00 0. -1.
    10030    2    1    2    0    0  0.00000000000E+00  0.00000000000E+00  0.14109550239E+03  0.39194288719E+04  0.39168884003E+04 0.  0.
        1    1    3    3  502    0 -0.40396060269E+03  0.15525321129E+04 -0.10535523737E+04  0.19192479606E+04  0.50400001928E-02 0. -1.
       -1    1    3    3    0  502  0.40396060269E+03 -0.15525321129E+04  0.11946478761E+04  0.20001809113E+04  0.50400001928E-02 0.  1.
</event>
<event>
 5   0  0.5735179E-07  0.3524341E+04  0.7818609E-02  0.8108046E-01
       -2   -1    0    0    0  501  0.00000000000E+00  0.00000000000E+00  0.13184400706E+04  0.13184400706E+04  0.25500000920E-02 0. -1.
        2   -1    0    0  501    0  0.00000000000E+00  0.00000000000E+00 -0.23552418379E+04  0.23552418379E+04  0.25500000920E-02 0.  1.
    10030    2    1    2    0    0  0.00000000000E+00  0.00000000000E+00 -0.10368017673E+04  0.36736819085E+04  0.35243411952E+04 0.  0.
        5    1    3    3  502    0  0.82222590015E+03  0.69582000737E+03 -0.19721305492E+04  0.22471185787E+04  0.46999998093E+01 0.  1.
       -5    1    3    3    0  502 -0.82222590015E+03 -0.69582000737E+03  0.93532878194E+03  0.14265633298E+04  0.46999998093E+01 0. -1.
</event>
<event>
 5   0  0.1876027E-07  0.3920270E+04  0.7818609E-02  0.8020827E-01
       -1   -1    0    0    0  501  0.00000000000E+00  0.00000000000E+00  0.16243875354E+04  0.16243875355E+04  0.50400001928E-02 0. -1.
        1   -1    0    0  501    0  0.00000000000E+00  0.00000000000E+00 -0.23652783303E+04  0.23652783303E+04  0.50400001928E-02 0.  1.
    10030    2    1    2    0    0  0.00000000000E+00  0.00000000000E+00 -0.74089079490E+03  0.39896658658E+04  0.39202697038E+04 0.  0.
        3    1    3    3  502    0 -0.23191745710E+03 -0.44711795374E+03 -0.22982931111E+04  0.23528390099E+04  0.10100000352E+00 0.  1.
       -3    1    3    3    0  502  0.23191745710E+03  0.44711795374E+03  0.15574023162E+04  0.16368268559E+04  0.10100000352E+00 0. -1.
</event>
<event>
 5   0  0.1860500E-07  0.3564905E+04  0.7818609E-02  0.8098578E-01
        1   -1    0    0  501    0  0.00000000000E+00  0.00000000000E+00  0.21086975115E+04  0.21086975115E+04  0.50400001928E-02 0.  1.
       -1   -1    0    0    0  501  0.00000000000E+00  0.00000000000E+00 -0.15066823418E+04  0.15066823418E+04  0.50400001928E-02 0. -1.
    10030    2    1    2    0    0  0.00000000000E+00  0.00000000000E+00  0.60201516971E+03  0.36153798534E+04  0.35649052189E+04 0.  0.
        5    1    3    3  502    0 -0.13330113026E+03 -0.25709001973E+03  0.20846734828E+04  0.21046971491E+04  0.46999998093E+01 0.  1.
       -5    1    3    3    0  502  0.13330113026E+03  0.25709001973E+03 -0.14826583131E+04  0.15106827043E+04  0.46999998093E+01 0. -1.
</event>
<event>
 5   0  0.5735179E-07  0.3905043E+04  0.7818609E-02  0.8023981E-01
        2   -1    0    0  501    0  0.00000000000E+00  0.00000000000E+00  0.17424898949E+04  0.17424898949E+04  0.25500000920E-02 0.  1.
       -2   -1    0    0    0  501  0.00000000000E+00  0.00000000000E+00 -0.21878693812E+04  0.21878693812E+04  0.25500000920E-02 0. -1.
    10030    2    1    2    0    0  0.00000000000E+00  0.00000000000E+00 -0.44537948636E+03  0.39303592761E+04  0.39050430410E+04 0.  0.
        5    1    3    3  502    0 -0.88530075737E+03 -0.37218534684E+03  0.14883427836E+04  0.17712892747E+04  0.46999998093E+01 0.  1.
       -5    1    3    3    0  502  0.88530075737E+03  0.37218534684E+03 -0.19337222699E+04  0.21590700013E+04  0.46999998093E+01 0. -1.
</event>
<event>
 5   0  0.2666813E-07  0.3938629E+04  0.7818609E-02  0.8017043E-01
        1   -1    0    0  501    0  0.00000000000E+00  0.00000000000E+00  0.31038260593E+04  0.31038260593E+04  0.50400001928E-02 0. -1.
       -1   -1    0    0    0  501  0.00000000000E+00  0.00000000000E+00 -0.12494900045E+04  0.12494900045E+04  0.50400001928E-02 0.  1.
    10030    2    1    2    0    0  0.00000000000E+00  0.00000000000E+00  0.18543360548E+04  0.43533160638E+04  0.39386290187E+04 0.  0.
        1    1    3    3  502    0 -0.61763288318E+03  0.79211030845E+03  0.27994117563E+04  0.29741579145E+04  0.50400001928E-02 0. -1.
       -1    1    3    3    0  502  0.61763288318E+03 -0.79211030845E+03 -0.94507570150E+03  0.13791581493E+04  0.50400001928E-02 0.  1.
</event>
<event>
 5   0  0.1860500E-07  0.3960723E+04  0.7818609E-02  0.8012517E-01
        1   -1    0    0  501    0  0.00000000000E+00  0.00000000000E+00  0.21491267049E+04  0.21491267049E+04  0.50400001928E-02 0. -1.
       -1   -1    0    0    0  501  0.00000000000E+00  0.00000000000E+00 -0.18248485274E+04  0.18248485275E+04  0.50400001928E-02 0.  1.
    10030    2    1    2    0    0  0.00000000000E+00  0.00000000000E+00  0.32427817745E+03  0.39739752324E+04  0.39607225112E+04 0.  0.
        5    1    3    3  502    0 -0.34624409051E+02 -0.25567835547E+03 -0.18079068598E+04  0.18262309752E+04  0.46999998093E+01 0.  1.
       -5    1    3    3    0  502  0.34624409051E+02  0.25567835547E+03  0.21321850372E+04  0.21477442572E+04  0.46999998093E+01 0. -1.
</event>
<event>
 5   0  0.1860500E-07  0.2473597E+04  0.7818609E-02  0.8412453E-01
       -1   -1    0    0    0  501  0.00000000000E+00  0.00000000000E+00  0.13659114057E+04  0.13659114057E+04  0.50400001928E-02 0.  1.
        1   -1    0    0  501    0  0.00000000000E+00  0.00000000000E+00 -0.11198896312E+04  0.11198896312E+04  0.50400001928E-02 0. -1.
    10030    2    1    2    0    0  0.00000000000E+00  0.00000000000E+00  0.24602177442E+03  0.24858010369E+04  0.24735965883E+04 0.  0.
        4    1    3    3  502    0 -0.32423416961E+03  0.11917886988E+04  0.18798519257E+03  0.12493310789E+04  0.12699999809E+01 0. -1.
       -4    1    3    3    0  502  0.32423416961E+03 -0.11917886988E+04  0.58036581851E+02  0.12364699580E+04  0.12699999809E+01 0.  1.
</event>
<event>
 5   0  0.1943459E-07  0.3918233E+04  0.7818609E-02  0.8021248E-01
        1   -1    0    0  501    0  0.00000000000E+00  0.00000000000E+00  0.18075496093E+04  0.18075496093E+04  0.50400001928E-02 0. -1.
       -1   -1    0    0    0  501  0.00000000000E+00  0.00000000000E+00 -0.21233927179E+04  0.21233927179E+04  0.50400001928E-02 0.  1.
    10030    2    1    2    0    0  0.00000000000E+00  0.00000000000E+00 -0.31584310858E+03  0.39309423273E+04  0.39182331109E+04 0.  0.
        2    1    3    3  502    0 -0.16366380865E+03 -0.46759790083E+03  0.17436694880E+04  0.18126822453E+04  0.25500000920E-02 0. -1.
       -2    1    3    3    0  502  0.16366380865E+03  0.46759790083E+03 -0.20595125966E+04  0.21182600819E+04  0.25500000920E-02 0.  1.
</event>
<event>
 5   0  0.3959190E-07  0.3853767E+04  0.7818609E-02  0.8034714E-01
        2   -1    0    0  501    0  0.00000000000E+00  0.00000000000E+00  0.18953701811E+04  0.18953701811E+04  0.25500000920E-02 0. -1.
       -2   -1    0    0    0  501  0.00000000000E+00  0.00000000000E+00 -0.19589210739E+04  0.19589210739E+04  0.25500000920E-02 0.  1.
    10030    2    1    2    0    0  0.00000000000E+00  0.00000000000E+00 -0.63550892806E+02  0.38542912549E+04  0.38537672947E+04 0.  0.
        2    1    3    3  502    0  0.59781095754E+03  0.17243727020E+04 -0.64995448720E+03  0.19373383782E+04  0.25500000920E-02 0.  1.
       -2    1    3    3    0  502 -0.59781095754E+03 -0.17243727020E+04  0.58640359439E+03  0.19169528768E+04  0.25500000920E-02 0. -1.
</event>
<event>
 5   0  0.5872444E-07  0.3897317E+04  0.7818609E-02  0.8025587E-01
        2   -1    0    0  501    0  0.00000000000E+00  0.00000000000E+00  0.28875865693E+04  0.28875865693E+04  0.25500000920E-02 0. -1.
       -2   -1    0    0    0  501  0.00000000000E+00  0.00000000000E+00 -0.13150323162E+04  0.13150323162E+04  0.25500000920E-02 0.  1.
    10030    2    1    2    0    0  0.00000000000E+00  0.00000000000E+00  0.15725542531E+04  0.42026188856E+04  0.38973168486E+04 0.  0.
        3    1    3    3  502    0 -0.52296922173E+03  0.18738656430E+04  0.66619677281E+03  0.20563772526E+04  0.10100000352E+00 0. -1.
       -3    1    3    3    0  502  0.52296922173E+03 -0.18738656430E+04  0.90635748027E+03  0.21462416329E+04  0.10100000352E+00 0.  1.
</event>
<event>
 5   0  0.3959190E-07  0.3837792E+04  0.7818609E-02  0.8038093E-01
        2   -1    0    0  501    0  0.00000000000E+00  0.00000000000E+00  0.21745558396E+04  0.21745558396E+04  0.25500000920E-02 0. -1.
       -2   -1    0    0    0  501  0.00000000000E+00  0.00000000000E+00 -0.16932938530E+04  0.16932938530E+04  0.25500000920E-02 0.  1.
    10030    2    1    2    0    0  0.00000000000E+00  0.00000000000E+00  0.48126198665E+03  0.38678496926E+04  0.38377920924E+04 0.  0.
        2    1    3    3  502    0 -0.44365258733E+02  0.19177399742E+04  0.19057154951E+03  0.19276961380E+04  0.25500000920E-02 0.  1.
       -2    1    3    3    0  502  0.44365258733E+02 -0.19177399742E+04  0.29069043714E+03  0.19401535546E+04  0.25500000920E-02 0. -1.
</event>
<event>
 5   0  0.1860500E-07  0.3902538E+04  0.7818609E-02  0.8024502E-01
       -1   -1    0    0    0  501  0.00000000000E+00  0.00000000000E+00  0.17154248959E+04  0.17154248959E+04  0.50400001928E-02 0.  1.
        1   -1    0    0  501    0  0.00000000000E+00  0.00000000000E+00 -0.22195376657E+04  0.22195376657E+04  0.50400001928E-02 0. -1.
    10030    2    1    2    0    0  0.00000000000E+00  0.00000000000E+00 -0.50411276974E+03  0.39349625616E+04  0.39025377226E+04 0.  0.
        5    1    3    3  502    0  0.12828380173E+04  0.11084656390E+04  0.72191895587E+03  0.18427041326E+04  0.46999998093E+01 0.  1.
       -5    1    3    3    0  502 -0.12828380173E+04 -0.11084656390E+04 -0.12260317256E+04  0.20922584290E+04  0.46999998093E+01 0. -1.
</event>
<event>
 5   0  0.6095665E-07  0.4054592E+04  0.7818609E-02  0.7993623E-01
       -2   -1    0    0    0  501  0.00000000000E+00  0.00000000000E+00  0.15727734276E+04  0.15727734276E+04  0.25500000920E-02 0.  1.
        2   -1    0    0  501    0  0.00000000000E+00  0.00000000000E+00 -0.26131731040E+04  0.26131731040E+04  0.25500000920E-02 0. -1.
    10030    2    1    2    0    0  0.00000000000E+00  0.00000000000E+00 -0.10403996764E+04  0.41859465315E+04  0.40545920730E+04 0.  0.
        4    1    3    3  502    0  0.38396259581E+03  0.15299069151E+04  0.79459066983E+03  0.17661875295E+04  0.12699999809E+01 0.  1.
       -4    1    3    3    0  502 -0.38396259581E+03 -0.15299069151E+04 -0.18349903463E+04  0.24197590020E+04  0.12699999809E+01 0. -1.
</event>
<event>
 5   0  0.5872444E-07  0.3894037E+04  0.7818609E-02  0.8026271E-01
        2   -1    0    0  501    0  0.00000000000E+00  0.00000000000E+00  0.30644800824E+04  0.30644800824E+04  0.25500000920E-02 0.  1.
       -2   -1    0    0    0  501  0.00000000000E+00  0.00000000000E+00 -0.12370386709E+04  0.12370386709E+04  0.25500000920E-02 0. -1.
    10030    2    1    2    0    0  0.00000000000E+00  0.00000000000E+00  0.18274414115E+04  0.43015187533E+04  0.38940366553E+04 0.  0.
        3    1    3    3  502    0  0.80041696817E+03 -0.11331361795E+04 -0.59532597253E+03  0.15096615343E+04  0.10100000352E+00 0. -1.
       -3    1    3    3    0  502 -0.80041696817E+03  0.11331361795E+04  0.24227673840E+04  0.27918572190E+04  0.10100000352E+00 0.  1.
</event>
<event>
 5   0  0.1860500E-07  0.3148846E+04  0.7818609E-02  0.8202459E-01
        1   -1    0    0  501    0  0.00000000000E+00  0.00000000000E+00  0.16156339477E+04  0.16156339477E+04  0.50400001928E-02 0.  1.
       -1   -1    0    0    0  501  0.00000000000E+00  0.00000000000E+00 -0.15342636876E+04  0.15342636876E+04  0.50400001928E-02 0. -1.
    10030    2    1    2    0    0  0.00000000000E+00  0.00000000000E+00  0.81370260156E+02  0.31498976353E+04  0.31488464544E+04 0.  0.
        4    1    3    3  502    0 -0.31495969954E+03 -0.94233504605E+03 -0.11810382393E+04  0.15433884433E+04  0.12699999809E+01 0.  1.
       -4    1    3    3    0  502  0.31495969954E+03  0.94233504605E+03  0.12624084995E+04  0.16065091920E+04  0.12699999809E+01 0. -1.
</event>
<event>
 5   0  0.1943459E-07  0.3104054E+04  0.7818609E-02  0.8214626E-01
        1   -1    0    0  501    0  0.00000000000E+00  0.00000000000E+00  0.25027977820E+04  0.25027977820E+04  0.50400001928E-02 0. -1.
       -1   -1    0    0    0  501  0.00000000000E+00  0.00000000000E+00 -0.96243776935E+03  0.96243776936E+03  0.50400001928E-02 0.  1.
    10030    2    1    2    0    0  0.00000000000E+00  0.00000000000E+00  0.15403600126E+04  0.34652355513E+04  0.31040535526E+04 0.  0.
        2    1    3    3  502    0  0.78644469610E+03  0.13119620511E+04  0.10635240792E+04  0.18630145332E+04  0.25500000920E-02 0. -1.
       -2    1    3    3    0  502 -0.78644469610E+03 -0.13119620511E+04  0.47683593339E+03  0.16022210182E+04  0.25500000920E-02 0.  1.
</event>
<event>
 5   0  0.5735179E-07  0.3885756E+04  0.7818609E-02  0.8027998E-01
       -2   -1    0    0    0  501  0.00000000000E+00  0.00000000000E+00  0.18244024264E+04  0.18244024264E+04  0.25500000920E-02 0.  1.
        2   -1    0    0  501    0  0.00000000000E+00  0.00000000000E+00 -0.20690475850E+04  0.20690475850E+04  0.25500000920E-02 0. -1.
    10030    2    1    2    0    0  0.00000000000E+00  0.00000000000E+00 -0.24464515859E+03  0.38934500115E+04  0.38857562634E+04 0.  0.
        5    1    3    3  502    0  0.67824509448E+03 -0.16650610206E+04 -0.86019681577E+03  0.19930893764E+04  0.46999998093E+01 0. -1.
       -5    1    3    3    0  502 -0.67824509448E+03  0.16650610206E+04  0.61555165719E+03  0.19003606351E+04  0.46999998093E+01 0.  1.
</event>
<event>
 5   0  0.1876027E-07  0.4004537E+04  0.7818609E-02  0.8003632E-01
        1   -1    0    0  501    0  0.00000000000E+00  0.00000000000E+00  0.19186694418E+04  0.19186694418E+04  0.50400001928E-02 0. -1.
       -1   -1    0    0    0  501  0.00000000000E+00  0.00000000000E+00 -0.20895096809E+04  0.20895096809E+04  0.50400001928E-02 0.  1.
    10030    2    1    2    0    0  0.00000000000E+00  0.00000000000E+00 -0.17084023916E+03  0.40081791227E+04  0.40045366140E+04 0.  0.
        3    1    3    3  502    0 -0.14063984427E+04 -0.20538193306E+03  0.13261605379E+04  0.19439238927E+04  0.10100000352E+00 0. -1.
       -3    1    3    3    0  502  0.14063984427E+04  0.20538193306E+03 -0.14970007771E+04  0.20642552301E+04  0.10100000352E+00 0.  1.
</event>
<event>
 5   0  0.1943459E-07  0.2474418E+04  0.7818609E-02  0.8412156E-01
        1   -1    0    0  501    0  0.00000000000E+00  0.00000000000E+00  0.13021202393E+04  0.13021202393E+04  0.50400001928E-02 0.  1.
       -1   -1    0    0    0  501  0.00000000000E+00  0.00000000000E+00 -0.11755331416E+04  0.11755331416E+04  0.50400001928E-02 0. -1.
    10030    2    1    2    0    0  0.00000000000E+00  0.00000000000E+00  0.12658709768E+03  0.24776533810E+04  0.24744175037E+04 0.  0.
        2    1    3    3  502    0 -0.58895463209E+03 -0.54119752898E+03 -0.88182807000E+03  0.11905389826E+04  0.25500000920E-02 0. -1.
       -2    1    3    3    0  502  0.58895463209E+03  0.54119752898E+03  0.10084151677E+04  0.12871143984E+04  0.25500000920E-02 0.  1.
</event>
<event>
 5   0  0.3959190E-07  0.3910036E+04  0.7818609E-02  0.8022945E-01
        2   -1    0    0  501    0  0.00000000000E+00  0.00000000000E+00  0.22281581929E+04  0.22281581929E+04  0.25500000920E-02 0.  1.
       -2   -1    0    0    0  501  0.00000000000E+00  0.00000000000E+00 -0.17153612890E+04  0.17153612890E+04  0.25500000920E-02 0. -1.
    10030    2    1    2    0    0  0.00000000000E+00  0.00000000000E+00  0.51279690389E+03  0.39435194818E+04  0.39100364754E+04 0.  0.
        2    1    3    3  502    0  0.16599727276E+04 -0.90225496949E+03  0.76321816667E+03  0.20376642158E+04  0.25500000920E-02 0.  1.
       -2    1    3    3    0  502 -0.16599727276E+04  0.90225496949E+03 -0.25042126278E+03  0.19058552660E+04  0.25500000920E-02 0. -1.
</event>
<event>
 5   0  0.3959190E-07  0.3811292E+04  0.7818609E-02  0.8043736E-01
        2   -1    0    0  501    0  0.00000000000E+00  0.00000000000E+00  0.22534288905E+04  0.22534288906E+04  0.25500000920E-02 0. -1.
       -2   -1    0    0    0  501  0.00000000000E+00  0.00000000000E+00 -0.16115378625E+04  0.16115378625E+04  0.25500000920E-02 0.  1.
    10030    2    1    2    0    0  0.00000000000E+00  0.00000000000E+00  0.64189102806E+03  0.38649667530E+04  0.38112916328E+04 0.  0.
        2    1    3    3  502    0  0.67781664941E+03 -0.53089098883E+03  0.20449481655E+04  0.22188045547E+04  0.25500000920E-02 0. -1.
       -2    1    3    3    0  502 -0.67781664941E+03  0.53089098883E+03 -0.14030571375E+04  0.16461621983E+04  0.25500000920E-02 0.  1.
</event>
<event>
 5   0  0.5872444E-07  0.3270478E+04  0.7818609E-02  0.8170448E-01
       -2   -1    0    0    0  501  0.00000000000E+00  0.00000000000E+00  0.20362835197E+04  0.20362835197E+04  0.25500000920E-02 0. -1.
        2   -1    0    0  501    0  0.00000000000E+00  0.00000000000E+00 -0.13131801826E+04  0.13131801826E+04  0.25500000920E-02 0.  1.
    10030    2    1    2    0    0  0.00000000000E+00  0.00000000000E+00  0.72310333707E+03  0.33494637023E+04  0.32704783529E+04 0.  0.
        3    1    3    3  502    0  0.13186690986E+04 -0.42497554011E+03  0.12511579991E+04  0.18667856733E+04  0.10100000352E+00 0. -1.
       -3    1    3    3    0  502 -0.13186690986E+04  0.42497554011E+03 -0.52805466199E+03  0.14826780290E+04  0.10100000352E+00 0.  1.
</event>
<event>
 5   0  0.1860500E-07  0.2998265E+04  0.7818609E-02  0.8244227E-01
       -1   -1    0    0    0  501  0.00000000000E+00  0.00000000000E+00  0.13992587922E+04  0.13992587922E+04  0.50400001928E-02 0. -1.
        1   -1    0    0  501    0  0.00000000000E+00  0.00000000000E+00 -0.16061346226E+04  0.16061346226E+04  0.50400001928E-02 0.  1.
    10030    2    1    2    0    0  0.00000000000E+00  0.00000000000E+00 -0.20687583045E+03  0.30053934148E+04  0.29982648263E+04 0.  0.
        4    1    3    3  502    0  0.13796690051E+04 -0.29221323745E+03  0.40622080018E+03  0.14676144219E+04  0.12699999809E+01 0. -1.
       -4    1    3    3    0  502 -0.13796690051E+04  0.29221323745E+03 -0.61309663063E+03  0.15377789930E+04  0.12699999809E+01 0.  1.
</event>
<event>
 5   0  0.1943459E-07  0.2611721E+04  0.7818609E-02  0.8364231E-01
        1   -1    0    0  501    0  0.00000000000E+00  0.00000000000E+00  0.13016714917E+04  0.13016714917E+04  0.50400001928E-02 0.  1.
       -1   -1    0    0    0  501  0.00000000000E+00  0.00000000000E+00 -0.13100630351E+04  0.13100630351E+04  0.50400001928E-02 0. -1.
    10030    2    1    2    0    0  0.00000000000E+00  0.00000000000E+00 -0.83915434532E+01  0.26117345268E+04  0.26117210457E+04 0.  0.
        2    1    3    3  502    0 -0.61474352604E+03 -0.34743640006E+03  0.10942861385E+04  0.13023378240E+04  0.25500000920E-02 0.  1.
       -2    1    3    3    0  502  0.61474352604E+03  0.34743640006E+03 -0.11026776820E+04  0.13093967028E+04  0.25500000920E-02 0. -1.
</event>
<event>
 5   0  0.1943459E-07  0.3875456E+04  0.7818609E-02  0.8030153E-01
        1   -1    0    0  501    0  0.00000000000E+00  0.00000000000E+00  0.11857891060E+04  0.11857891060E+04  0.50400001928E-02 0.  1.
       -1   -1    0    0    0  501  0.00000000000E+00  0.00000000000E+00 -0.31664909798E+04  0.31664909798E+04  0.50400001928E-02 0. -1.
    10030    2    1    2    0    0  0.00000000000E+00  0.00000000000E+00 -0.19807018739E+04  0.43522800858E+04  0.38754563644E+04 0.  0.
        2    1    3    3  502    0 -0.16327014292E+04  0.99702358781E+03 -0.13365314986E+04  0.23336851626E+04  0.25500000920E-02 0.  1.
       -2    1    3    3    0  502  0.16327014292E+04 -0.99702358781E+03 -0.64417037528E+03  0.20185949232E+04  0.25500000920E-02 0. -1.
</event>
<event>
 5   0  0.5805753E-07  0.3828576E+04  0.7818609E-02  0.8040050E-01
       -2   -1    0    0    0  501  0.00000000000E+00  0.00000000000E+00  0.16273819625E+04  0.16273819625E+04  0.25500000920E-02 0.  1.
        2   -1    0    0  501    0  0.00000000000E+00  0.00000000000E+00 -0.22517754768E+04  0.22517754768E+04  0.25500000920E-02 0. -1.
    10030    2    1    2    0    0  0.00000000000E+00  0.00000000000E+00 -0.62439351433E+03  0.38791574392E+04  0.38285761293E+04 0.  0.
        1    1    3    3  502    0  0.12760936025E+04  0.12274154417E+04  0.42510888084E+03  0.18209011806E+04  0.50400001928E-02 0.  1.
       -1    1    3    3    0  502 -0.12760936025E+04 -0.12274154417E+04 -0.10495023952E+04  0.20582562587E+04  0.50400001928E-02 0. -1.
</event>
<event>
 5   0  0.3959190E-07  0.3270347E+04  0.7818609E-02  0.8170482E-01
       -2   -1    0    0    0  501  0.00000000000E+00  0.00000000000E+00  0.14471463661E+04  0.14471463661E+04  0.25500000920E-02 0.  1.
        2   -1    0    0  501    0  0.00000000000E+00  0.00000000000E+00 -0.18476313253E+04  0.18476313253E+04  0.25500000920E-02 0. -1.
    10030    2    1    2    0    0  0.00000000000E+00  0.00000000000E+00 -0.40048495920E+03  0.32947776914E+04  0.32703473567E+04 0.  0.
        2    1    3    3  502    0 -0.95363253852E+03  0.91689625681E+03  0.76801935553E+03  0.15296952294E+04  0.25500000920E-02 0.  1.
       -2    1    3    3    0  502  0.95363253852E+03 -0.91689625681E+03 -0.11685043147E+04  0.17650824621E+04  0.25500000920E-02 0. -1.
</event>
<event>
 5   0  0.3959190E-07  0.3465540E+04  0.7818609E-02  0.8122005E-01
       -2   -1    0    0    0  501  0.00000000000E+00  0.00000000000E+00  0.22532541528E+04  0.22532541528E+04  0.25500000920E-02 0.  1.
        2   -1    0    0  501    0  0.00000000000E+00  0.00000000000E+00 -0.13325139310E+04  0.13325139310E+04  0.25500000920E-02 0. -1.
    10030    2    1    2    0    0  0.00000000000E+00  0.00000000000E+00  0.92074022176E+03  0.35857680838E+04  0.34655403901E+04 0.  0.
        2    1    3    3  502    0  0.63105350683E+03  0.15487841093E+04  0.92945425014E+03  0.19133337264E+04  0.25500000920E-02 0.  1.
       -2    1    3    3    0  502 -0.63105350683E+03 -0.15487841093E+04 -0.87140283804E+01  0.16724343574E+04  0.25500000920E-02 0. -1.
</event>
<event>
 5   0  0.1943459E-07  0.2693795E+04  0.7818609E-02  0.8337021E-01
       -1   -1    0    0    0  501  0.00000000000E+00  0.00000000000E+00  0.93730924223E+03  0.93730924224E+03  0.50400001928E-02 0. -1.
        1   -1    0    0  501    0  0.00000000000E+00  0.00000000000E+00 -0.19354687363E+04  0.19354687364E+04  0.50400001928E-02 0.  1.
    10030    2    1    2    0    0  0.00000000000E+00  0.00000000000E+00 -0.99815949412E+03  0.28727779786E+04  0.26937948954E+04 0.  0.
        2    1    3    3  502    0 -0.11567195754E+03  0.10752431344E+04 -0.13552977406E+04  0.17338857418E+04  0.25500000920E-02 0.  1.
       -2    1    3    3    0  502  0.11567195754E+03 -0.10752431344E+04  0.35713824652E+03  0.11388922368E+04  0.25500000920E-02 0. -1.
</event>
<event>
 5   0  0.1860500E-07  0.3918268E+04  0.7818609E-02  0.8021241E-01
       -3   -1    0    0    0  501  0.00000000000E+00  0.00000000000E+00  0.19638274195E+04  0.19638274221E+04  0.10100000352E+00 0.  1.
        3   -1    0    0  501    0  0.00000000000E+00  0.00000000000E+00 -0.19544515816E+04  0.19544515842E+04  0.10100000352E+00 0. -1.
    10030    2    1    2    0    0  0.00000000000E+00  0.00000000000E+00  0.93758379086E+01  0.39182790063E+04  0.39182677889E+04 0.  0.
        2    1    3    3  502    0  0.10827179724E+04  0.10829246038E+03  0.16338641982E+04  0.19630378710E+04  0.25500000920E-02 0.  1.
       -2    1    3    3    0  502 -0.10827179724E+04 -0.10829246038E+03 -0.16244883603E+04  0.19552411354E+04  0.25500000920E-02 0. -1.
</event>
<event>
 5   0  0.6095665E-07  0.3646269E+04  0.7818609E-02  0.8079975E-01
       -2   -1    0    0    0  501  0.00000000000E+00  0.00000000000E+00  0.26319135943E+04  0.26319135943E+04  0.25500000920E-02 0. -1.
        2   -1    0    0  501    0  0.00000000000E+00  0.00000000000E+00 -0.12628909217E+04  0.12628909217E+04  0.25500000920E-02 0.  1.
    10030    2    1    2    0    0  0.00000000000E+00  0.00000000000E+00  0.13690226727E+04  0.38948045160E+04  0.36462692084E+04 0.  0.
        4    1    3    3  502    0  0.16693634963E+04  0.31768148229E+03 -0.20897693409E+02  0.16994511860E+04  0.12699999809E+01 0.  1.
       -4    1    3    3    0  502 -0.16693634963E+04 -0.31768148229E+03  0.13899203661E+04  0.21953533301E+04  0.12699999809E+01 0. -1.
</event>
<event>
 5   0  0.5872444E-07  0.3087169E+04  0.7818609E-02  0.8219268E-01
        2   -1    0    0  501    0  0.00000000000E+00  0.00000000000E+00  0.16691218938E+04  0.16691218938E+04  0.25500000920E-02 0. -1.
       -2   -1    0    0    0  501  0.00000000000E+00  0.00000000000E+00 -0.14274886203E+04  0.14274886203E+04  0.25500000920E-02 0.  1.
    10030    2    1    2    0    0  0.00000000000E+00  0.00000000000E+00  0.24163327348E+03  0.30966105141E+04  0.30871686117E+04 0.  0.
        3    1    3    3  502    0  0.12509235248E+04 -0.80143143233E+03  0.54108554473E+03  0.15810994853E+04  0.10100000352E+00 0.  1.
       -3    1    3    3    0  502 -0.12509235248E+04  0.80143143233E+03 -0.29945227126E+03  0.15155110288E+04  0.10100000352E+00 0. -1.
</event>
<event>
 5   0  0.5735179E-07  0.3167576E+04  0.7818609E-02  0.8197433E-01
        2   -1    0    0  501    0  0.00000000000E+00  0.00000000000E+00  0.22116957351E+04  0.22116957351E+04  0.25500000920E-02 0.  1.
       -2   -1    0    0    0  501  0.00000000000E+00  0.00000000000E+00 -0.11341455961E+04  0.11341455961E+04  0.25500000920E-02 0. -1.
    10030    2    1    2    0    0  0.00000000000E+00  0.00000000000E+00  0.10775501390E+04  0.33458413312E+04  0.31675763466E+04 0.  0.
        5    1    3    3  502    0  0.40660502045E+03  0.14841695216E+04  0.14316252402E+03  0.15455110513E+04  0.46999998093E+01 0.  1.
       -5    1    3    3    0  502 -0.40660502045E+03 -0.14841695216E+04  0.93438761502E+03  0.18003302799E+04  0.46999998093E+01 0. -1.
</event>
<event>
 5   0  0.5872444E-07  0.4082372E+04  0.7818609E-02  0.7988133E-01
        2   -1    0    0  501    0  0.00000000000E+00  0.00000000000E+00  0.16384881668E+04  0.16384881668E+04  0.25500000920E-02 0. -1.
       -2   -1    0    0    0  501  0.00000000000E+00  0.00000000000E+00 -0.25428569266E+04  0.25428569266E+04  0.25500000920E-02 0.  1.
    10030    2    1    2    0    0  0.00000000000E+00  0.00000000000E+00 -0.90436875982E+03  0.41813450934E+04  0.40823723418E+04 0.  0.
        3    1    3    3  502    0  0.94372033377E+03 -0.10500195975E+04 -0.19621338529E+04  0.24172543288E+04  0.10100000352E+00 0.  1.
       -3    1    3    3    0  502 -0.94372033377E+03  0.10500195975E+04  0.10577650930E+04  0.17640907646E+04  0.10100000352E+00 0. -1.
</event>
<event>
 5   0  0.3959190E-07  0.2751430E+04  0.7818609E-02  0.8318508E-01
       -2   -1    0    0    0  501  0.00000000000E+00  0.00000000000E+00  0.13213087429E+04  0.13213087429E+04  0.25500000920E-02 0. -1.
        2   -1    0    0  501    0  0.00000000000E+00  0.00000000000E+00 -0.14323618396E+04  0.14323618396E+04  0.25500000920E-02 0.  1.
    10030    2    1    2    0    0  0.00000000000E+00  0.00000000000E+00 -0.11105309669E+03  0.27536705825E+04  0.27514303347E+04 0.  0.
        2    1    3    3  502    0 -0.40536648876E+03  0.13126333003E+04  0.17086302198E+02  0.13739068793E+04  0.25500000920E-02 0. -1.
       -2    1    3    3    0  502  0.40536648876E+03 -0.13126333003E+04 -0.12813939889E+03  0.13797637032E+04  0.25500000920E-02 0.  1.
</event>
<event>
 5   0  0.5872444E-07  0.3809539E+04  0.7818609E-02  0.8044111E-01
        2   -1    0    0  501    0  0.00000000000E+00  0.00000000000E+00  0.12604250961E+04  0.12604250961E+04  0.25500000920E-02 0. -1.
       -2   -1    0    0    0  501  0.00000000000E+00  0.00000000000E+00 -0.28785102231E+04  0.28785102231E+04  0.25500000920E-02 0.  1.
    10030    2    1    2    0    0  0.00000000000E+00  0.00000000000E+00 -0.16180851270E+04  0.41389353193E+04  0.38095388302E+04 0.  0.
        3    1    3    3  502    0  0.14387044381E+04  0.35802987720E+03  0.49022327647E+03  0.15615296105E+04  0.10100000352E+00 0. -1.
       -3    1    3    3    0  502 -0.14387044381E+04 -0.35802987720E+03 -0.21083084035E+04  0.25774057088E+04  0.10100000352E+00 0.  1.
</event>
<event>
 5   0  0.1860500E-07  0.3361586E+04  0.7818609E-02  0.8147399E-01
        1   -1    0    0  501    0  0.00000000000E+00  0.00000000000E+00  0.12221899193E+04  0.12221899193E+04  0.50400001928E-02 0.  1.
       -1   -1    0    0    0  501  0.00000000000E+00  0.00000000000E+00 -0.23114775042E+04  0.23114775042E+04  0.50400001928E-02 0. -1.
    10030    2    1    2    0    0  0.00000000000E+00  0.00000000000E+00 -0.10892875849E+04  0.35336674234E+04  0.33615856403E+04 0.  0.
        5    1    3    3  502    0 -0.52108051499E+03  0.13015582991E+04  0.42988620759E+03  0.14664252966E+04  0.46999998093E+01 0.  1.
       -5    1    3    3    0  502  0.52108051499E+03 -0.13015582991E+04 -0.15191737925E+04  0.20672421268E+04  0.46999998093E+01 0. -1.
</event>
<event>
 5   0  0.1860500E-07  0.3856743E+04  0.7818609E-02  0.8034087E-01
       -1   -1    0    0    0  501  0.00000000000E+00  0.00000000000E+00  0.16465080825E+04  0.16465080825E+04  0.50400001928E-02 0.  1.
        1   -1    0    0  501    0  0.00000000000E+00  0.00000000000E+00 -0.22584864038E+04  0.22584864038E+04  0.50400001928E-02 0. -1.
    10030    2    1    2    0    0  0.00000000000E+00  0.00000000000E+00 -0.61197832133E+03  0.39049944863E+04  0.38567427283E+04 0.  0.
        5    1    3    3  502    0  0.17568879085E+04  0.65411143413E+03  0.15141165195E+03  0.18808148419E+04  0.46999998093E+01 0. -1.
       -5    1    3    3    0  502 -0.17568879085E+04 -0.65411143413E+03 -0.76338997328E+03  0.20241796444E+04  0.46999998093E+01 0.  1.
</event>
<event>
 5   0  0.5805753E-07  0.3865854E+04  0.7818609E-02  0.8032169E-01
       -2   -1    0    0    0  501  0.00000000000E+00  0.00000000000E+00  0.20095958697E+04  0.20095958697E+04  0.25500000920E-02 0. -1.
        2   -1    0    0  501    0  0.00000000000E+00  0.00000000000E+00 -0.18591831473E+04  0.18591831473E+04  0.25500000920E-02 0.  1.
    10030    2    1    2    0    0  0.00000000000E+00  0.00000000000E+00  0.15041272232E+03  0.38687790170E+04  0.38658539930E+04 0.  0.
        1    1    3    3  502    0  0.18759607955E+04 -0.41553777505E+03  0.28585606392E+03  0.19425792746E+04  0.50400001928E-02 0.  1.
       -1    1    3    3    0  502 -0.18759607955E+04  0.41553777505E+03 -0.13544334160E+03  0.19261997424E+04  0.50400001928E-02 0. -1.
</event>
<event>
 5   0  0.1943459E-07  0.3934237E+04  0.7818609E-02  0.8017946E-01
        1   -1    0    0  501    0  0.00000000000E+00  0.00000000000E+00  0.22615779845E+04  0.22615779845E+04  0.50400001928E-02 0. -1.
       -1   -1    0    0    0  501  0.00000000000E+00  0.00000000000E+00 -0.17109975304E+04  0.17109975304E+04  0.50400001928E-02 0.  1.
    10030    2    1    2    0    0  0.00000000000E+00  0.00000000000E+00  0.55058045415E+03  0.39725755149E+04  0.39342365696E+04 0.  0.
        2    1    3    3  502    0  0.10950027262E+04  0.14784218890E+04 -0.42776502191E+03  0.18888475762E+04  0.25500000920E-02 0. -1.
       -2    1    3    3    0  502 -0.10950027262E+04 -0.14784218890E+04  0.97834547607E+03  0.20837279387E+04  0.25500000920E-02 0.  1.
</event>
<event>
 5   0  0.3959190E-07  0.3900638E+04  0.7818609E-02  0.8024897E-01
       -2   -1    0    0    0  501  0.00000000000E+00  0.00000000000E+00  0.23641135034E+04  0.23641135034E+04  0.25500000920E-02 0.  1.
        2   -1    0    0  501    0  0.00000000000E+00  0.00000000000E+00 -0.16089512083E+04  0.16089512083E+04  0.25500000920E-02 0. -1.
    10030    2    1    2    0    0  0.00000000000E+00  0.00000000000E+00  0.75516229512E+03  0.39730647117E+04  0.39006375262E+04 0.  0.
        2    1    3    3  502    0  0.56484866661E+03 -0.14191874058E+04 -0.85761744682E+03  0.17517575728E+04  0.25500000920E-02 0. -1.
       -2    1    3    3    0  502 -0.56484866661E+03  0.14191874058E+04  0.16127797419E+04  0.22213071388E+04  0.25500000920E-02 0.  1.
</event>
<event>
 5   0  0.2666813E-07  0.4033659E+04  0.7818609E-02  0.7997791E-01
        1   -1    0    0  501    0  0.00000000000E+00  0.00000000000E+00  0.18007181102E+04  0.18007181102E+04  0.50400001928E-02 0.  1.
       -1   -1    0    0    0  501  0.00000000000E+00  0.00000000000E+00 -0.22588768438E+04  0.22588768438E+04  0.50400001928E-02 0. -1.
    10030    2    1    2    0    0  0.00000000000E+00  0.00000000000E+00 -0.45815873357E+03  0.40595949540E+04  0.40336586080E+04 0.  0.
        1    1    3    3  502    0 -0.40063687420E+02 -0.10026472310E+04 -0.19898124015E+04  0.22285107049E+04  0.50400001928E-02 0. -1.
       -1    1    3    3    0  502  0.40063687420E+02  0.10026472310E+04  0.15316536679E+04  0.18310842491E+04  0.50400001928E-02 0.  1.
</event>
<event>
 5   0  0.6095665E-07  0.3649457E+04  0.7818609E-02  0.8079256E-01
        2   -1    0    0  501    0  0.00000000000E+00  0.00000000000E+00  0.17699935977E+04  0.17699935977E+04  0.25500000920E-02 0.  1.
       -2   -1    0    0    0  501  0.00000000000E+00  0.00000000000E+00 -0.18811562318E+04  0.18811562318E+04  0.25500000920E-02 0. -1.
    10030    2    1    2    0    0  0.00000000000E+00  0.00000000000E+00 -0.11116263416E+03  0.36511498295E+04  0.36494572125E+04 0.  0.
        4    1    3    3  502    0  0.31114062997E+03  0.17682822673E+04  0.27014948495E+03  0.18156577391E+04  0.12699999809E+01 0. -1.
       -4    1    3    3    0  502 -0.31114062997E+03 -0.17682822673E+04 -0.38131211911E+03  0.18354920903E+04  0.12699999809E+01 0.  1.
</event>
<event>
 5   0  0.1860500E-07  0.4033974E+04  0.7818609E-02  0.7997728E-01
        1   -1    0    0  501    0  0.00000000000E+00  0.00000000000E+00  0.28856728876E+04  0.28856728876E+04  0.50400001928E-02 0.  1.
       -1   -1    0    0    0  501  0.00000000000E+00  0.00000000000E+00 -0.14098048216E+04  0.14098048216E+04  0.50400001928E-02 0. -1.
    10030    2    1    2    0    0  0.00000000000E+00  0.00000000000E+00  0.14758680660E+04  0.42954777091E+04  0.40339735004E+04 0.  0.
        4    1    3    3  502    0  0.50208137191E+03  0.60094750200E+02  0.28170822684E+04  0.28621060782E+04  0.12699999809E+01 0.  1.
       -4    1    3    3    0  502 -0.50208137191E+03 -0.60094750200E+02 -0.13412142024E+04  0.14333716310E+04  0.12699999809E+01 0. -1.
</event>
<event>
 5   0  0.5735179E-07  0.3971218E+04  0.7818609E-02  0.8010378E-01
        2   -1    0    0  501    0  0.00000000000E+00  0.00000000000E+00  0.17283295510E+04  0.17283295510E+04  0.25500000920E-02 0.  1.
       -2   -1    0    0    0  501  0.00000000000E+00  0.00000000000E+00 -0.22811868246E+04  0.22811868246E+04  0.25500000920E-02 0. -1.
    10030    2    1    2    0    0  0.00000000000E+00  0.00000000000E+00 -0.55285727354E+03  0.40095163756E+04  0.39712177479E+04 0.  0.
        5    1    3    3  502    0  0.12730719344E+04  0.10080943937E+04 -0.14301006347E+04  0.21638337210E+04  0.46999998093E+01 0. -1.
       -5    1    3    3    0  502 -0.12730719344E+04 -0.10080943937E+04  0.87724336115E+03  0.18456826546E+04  0.46999998093E+01 0.  1.
</event>
<event>
 5   0  0.1943459E-07  0.2550327E+04  0.7818609E-02  0.8385272E-01
       -1   -1    0    0    0  501  0.00000000000E+00  0.00000000000E+00  0.83929916831E+03  0.83929916833E+03  0.50400001928E-02 0. -1.
        1   -1    0    0  501    0  0.00000000000E+00  0.00000000000E+00 -0.19373808952E+04  0.19373808952E+04  0.50400001928E-02 0.  1.
    10030    2    1    2    0    0  0.00000000000E+00  0.00000000000E+00 -0.10980817269E+04  0.27766800635E+04  0.25503271744E+04 0.  0.
        2    1    3    3  502    0  0.43478922123E+03 -0.75240300212E+03 -0.15650828449E+04  0.17901497859E+04  0.25500000920E-02 0.  1.
       -2    1    3    3    0  502 -0.43478922123E+03  0.75240300212E+03  0.46700111801E+03  0.98653027765E+03  0.25500000920E-02 0. -1.
</event>
<event>
 5   0  0.1860500E-07  0.3893343E+04  0.7818609E-02  0.8026415E-01
       -1   -1    0    0    0  501  0.00000000000E+00  0.00000000000E+00  0.21599303457E+04  0.21599303457E+04  0.50400001928E-02 0.  1.
        1   -1    0    0  501    0  0.00000000000E+00  0.00000000000E+00 -0.17544687785E+04  0.17544687785E+04  0.50400001928E-02 0. -1.
    10030    2    1    2    0    0  0.00000000000E+00  0.00000000000E+00  0.40546156721E+03  0.39143991241E+04  0.38933432189E+04 0.  0.
        5    1    3    3  502    0  0.30974520643E+02 -0.83948420841E+03 -0.15628458831E+04  0.17743174748E+04  0.46999998093E+01 0. -1.
       -5    1    3    3    0  502 -0.30974520643E+02  0.83948420841E+03  0.19683074503E+04  0.21400816494E+04  0.46999998093E+01 0.  1.
</event>
<event>
 5   0  0.6095665E-07  0.2496383E+04  0.7818609E-02  0.8404275E-01
       -2   -1    0    0    0  501  0.00000000000E+00  0.00000000000E+00  0.15479207538E+04  0.15479207538E+04  0.25500000920E-02 0.  1.
        2   -1    0    0  501    0  0.00000000000E+00  0.00000000000E+00 -0.10064994594E+04  0.10064994594E+04  0.25500000920E-02 0. -1.
    10030    2    1    2    0    0  0.00000000000E+00  0.00000000000E+00  0.54142129438E+03  0.25544202132E+04  0.24963825043E+04 0.  0.
        4    1    3    3  502    0  0.11856137612E+04  0.18349688387E+03  0.62314325427E+03  0.13519098437E+04  0.12699999809E+01 0.  1.
       -4    1    3    3    0  502 -0.11856137612E+04 -0.18349688387E+03 -0.81721959885E+02  0.12025103696E+04  0.12699999809E+01 0. -1.
</event>
<event>
 5   0  0.1876027E-07  0.2632424E+04  0.7818609E-02  0.8357270E-01
       -1   -1    0    0    0  501  0.00000000000E+00  0.00000000000E+00  0.17648533651E+04  0.17648533651E+04  0.50400001928E-02 0. -1.
        1   -1    0    0  501    0  0.00000000000E+00  0.00000000000E+00 -0.98161898674E+03  0.98161898676E+03  0.50400001928E-02 0.  1.
    10030    2    1    2    0    0  0.00000000000E+00  0.00000000000E+00  0.78323437833E+03  0.27464723518E+04  0.26324236528E+04 0.  0.
        3    1    3    3  502    0  0.58424009070E+03  0.82024367408E+03 -0.49261342273E+03  0.11210727732E+04  0.10100000352E+00 0.  1.
       -3    1    3    3    0  502 -0.58424009070E+03 -0.82024367408E+03  0.12758478011E+04  0.16253995786E+04  0.10100000352E+00 0. -1.
</event>
<event>
 5   0  0.5805753E-07  0.3904981E+04  0.7818609E-02  0.8023994E-01
        2   -1    0    0  501    0  0.00000000000E+00  0.00000000000E+00  0.23992994886E+04  0.23992994886E+04  0.25500000920E-02 0. -1.
       -2   -1    0    0    0  501  0.00000000000E+00  0.00000000000E+00 -0.15888884676E+04  0.15888884676E+04  0.25500000920E-02 0.  1.
    10030    2    1    2    0    0  0.00000000000E+00  0.00000000000E+00  0.81041102102E+03  0.39881879561E+04  0.39049810692E+04 0.  0.
        1    1    3    3  502    0  0.14950924883E+03 -0.42077579554E+03  0.23464466503E+04  0.23885596430E+04  0.50400001928E-02 0. -1.
       -1    1    3    3    0  502 -0.14950924883E+03  0.42077579554E+03 -0.15360356293E+04  0.15996283131E+04  0.50400001928E-02 0.  1.
</event>
<event>
 5   0  0.1876027E-07  0.3932530E+04  0.7818609E-02  0.8018297E-01
        1   -1    0    0  501    0  0.00000000000E+00  0.00000000000E+00  0.11424569844E+04  0.11424569844E+04  0.50400001928E-02 0.  1.
       -1   -1    0    0    0  501  0.00000000000E+00  0.00000000000E+00 -0.33841086647E+04  0.33841086647E+04  0.50400001928E-02 0. -1.
    10030    2    1    2    0    0  0.00000000000E+00  0.00000000000E+00 -0.22416516803E+04  0.45265656492E+04  0.39325302694E+04 0.  0.
        3    1    3    3  502    0 -0.14806861928E+04 -0.10341404804E+03 -0.26052306084E+04  0.29983916689E+04  0.10100000352E+00 0. -1.
       -3    1    3    3    0  502  0.14806861928E+04  0.10341404804E+03  0.36357892801E+03  0.15281739803E+04  0.10100000352E+00 0.  1.
</event>
<event>
 5   0  0.1860500E-07  0.2676080E+04  0.7818609E-02  0.8342808E-01
        1   -1    0    0  501    0  0.00000000000E+00  0.00000000000E+00  0.11762313704E+04  0.11762313704E+04  0.50400001928E-02 0.  1.
       -1   -1    0    0    0  501  0.00000000000E+00  0.00000000000E+00 -0.15221083233E+04  0.15221083233E+04  0.50400001928E-02 0. -1.
    10030    2    1    2    0    0  0.00000000000E+00  0.00000000000E+00 -0.34587695288E+03  0.26983396937E+04  0.26760803867E+04 0.  0.
        5    1    3    3  502    0 -0.15118456769E+03 -0.11416561849E+04 -0.85984932314E+03  0.14372190392E+04  0.46999998093E+01 0. -1.
       -5    1    3    3    0  502  0.15118456769E+03  0.11416561849E+04  0.51397237025E+03  0.12611206546E+04  0.46999998093E+01 0.  1.
</event>
<event>
 5   0  0.3959190E-07  0.4092126E+04  0.7818609E-02  0.7986215E-01
       -2   -1    0    0    0  501  0.00000000000E+00  0.00000000000E+00  0.17077366520E+04  0.17077366520E+04  0.25500000920E-02 0. -1.
        2   -1    0    0  501    0  0.00000000000E+00  0.00000000000E+00 -0.24514162421E+04  0.24514162421E+04  0.25500000920E-02 0.  1.
    10030    2    1    2    0    0  0.00000000000E+00  0.00000000000E+00 -0.74367959018E+03  0.41591528941E+04  0.40921257879E+04 0.  0.
        2    1    3    3  502    0  0.10298353011E+04  0.14843059752E+04  0.60443937874E+03  0.19050123196E+04  0.25500000920E-02 0. -1.
       -2    1    3    3    0  502 -0.10298353011E+04 -0.14843059752E+04 -0.13481189689E+04  0.22541405745E+04  0.25500000920E-02 0.  1.
</event>
<event>
 5   0  0.3959190E-07  0.3925063E+04  0.7818609E-02  0.8019837E-01
        2   -1    0    0  501    0  0.00000000000E+00  0.00000000000E+00  0.24148534861E+04  0.24148534861E+04  0.25500000920E-02 0.  1.
       -2   -1    0    0    0  501  0.00000000000E+00  0.00000000000E+00 -0.15949328787E+04  0.15949328787E+04  0.25500000920E-02 0. -1.
    10030    2    1    2    0    0  0.00000000000E+00  0.00000000000E+00  0.81992060743E+03  0.40097863647E+04  0.39250626604E+04 0.  0.
        2    1    3    3  502    0 -0.11686470482E+04  0.13287883854E+04 -0.45695263795E+03  0.18276269340E+04  0.25500000920E-02 0. -1.
       -2    1    3    3    0  502  0.11686470482E+04 -0.13287883854E+04  0.12768732454E+04  0.21821594308E+04  0.25500000920E-02 0.  1.
</event>
<event>
 5   0  0.1860500E-07  0.3861530E+04  0.7818609E-02  0.8033078E-01
        1   -1    0    0  501    0  0.00000000000E+00  0.00000000000E+00  0.22456951733E+04  0.22456951734E+04  0.50400001928E-02 0. -1.
       -1   -1    0    0    0  501  0.00000000000E+00  0.00000000000E+00 -0.16599999548E+04  0.16599999548E+04  0.50400001928E-02 0.  1.
    10030    2    1    2    0    0  0.00000000000E+00  0.00000000000E+00  0.58569521855E+03  0.39056951282E+04  0.38615302077E+04 0.  0.
        4    1    3    3  502    0 -0.98875195013E+03  0.86804987479E+03  0.17220592275E+04  0.21671711054E+04  0.12699999809E+01 0. -1.
       -4    1    3    3    0  502  0.98875195013E+03 -0.86804987479E+03 -0.11363640090E+04  0.17385240228E+04  0.12699999809E+01 0.  1.
</event>
<event>
 5   0  0.5872444E-07  0.3575134E+04  0.7818609E-02  0.8096211E-01
       -2   -1    0    0    0  501  0.00000000000E+00  0.00000000000E+00  0.30441131424E+04  0.30441131424E+04  0.25500000920E-02 0. -1.
        2   -1    0    0  501    0  0.00000000000E+00  0.00000000000E+00 -0.10496970028E+04  0.10496970028E+04  0.25500000920E-02 0.  1.
    10030    2    1    2    0    0  0.00000000000E+00  0.00000000000E+00  0.19944161396E+04  0.40938101452E+04  0.35751343705E+04 0.  0.
        3    1    3    3  502    0  0.98104288628E+03 -0.11797661953E+04 -0.52962691440E+02  0.15352844939E+04  0.10100000352E+00 0. -1.
       -3    1    3    3    0  502 -0.98104288628E+03  0.11797661953E+04  0.20473788310E+04  0.25585256513E+04  0.10100000352E+00 0.  1.
</event>
<event>
 5   0  0.1860500E-07  0.3785829E+04  0.7818609E-02  0.8049203E-01
       -1   -1    0    0    0  501  0.00000000000E+00  0.00000000000E+00  0.18371488387E+04  0.18371488387E+04  0.50400001928E-02 0.  1.
        1   -1    0    0  501    0  0.00000000000E+00  0.00000000000E+00 -0.19503733285E+04  0.19503733285E+04  0.50400001928E-02 0. -1.
    10030    2    1    2    0    0  0.00000000000E+00  0.00000000000E+00 -0.11322448979E+03  0.37875221673E+04  0.37858294180E+04 0.  0.
        4    1    3    3  502    0 -0.12339478613E+04 -0.61873976096E+03 -0.13524358660E+04  0.19324985383E+04  0.12699999809E+01 0. -1.
       -4    1    3    3    0  502  0.12339478613E+04  0.61873976096E+03  0.12392113762E+04  0.18550236289E+04  0.12699999809E+01 0.  1.
</event>
<event>
 5   0  0.3959190E-07  0.3888092E+04  0.7818609E-02  0.8027510E-01
        2   -1    0    0  501    0  0.00000000000E+00  0.00000000000E+00  0.28419539178E+04  0.28419539178E+04  0.25500000920E-02 0. -1.
       -2   -1    0    0    0  501  0.00000000000E+00  0.00000000000E+00 -0.13298297469E+04  0.13298297469E+04  0.25500000920E-02 0.  1.
    10030    2    1    2    0    0  0.00000000000E+00  0.00000000000E+00  0.15121241709E+04  0.41717836646E+04  0.38880920046E+04 0.  0.
        2    1    3    3  502    0 -0.98602256455E+03 -0.36374486746E+03 -0.99873935963E+03  0.14498383134E+04  0.25500000920E-02 0.  1.
       -2    1    3    3    0  502  0.98602256455E+03  0.36374486746E+03  0.25108635305E+04  0.27219453513E+04  0.25500000920E-02 0. -1.
</event>
<event>
 5   0  0.1943459E-07  0.3908297E+04  0.7818609E-02  0.8023306E-01
       -1   -1    0    0    0  501  0.00000000000E+00  0.00000000000E+00  0.20050373269E+04  0.20050373269E+04  0.50400001928E-02 0.  1.
        1   -1    0    0  501    0  0.00000000000E+00  0.00000000000E+00 -0.19045517163E+04  0.19045517163E+04  0.50400001928E-02 0. -1.
    10030    2    1    2    0    0  0.00000000000E+00  0.00000000000E+00  0.10048561059E+03  0.39095890433E+04  0.39082974719E+04 0.  0.
        2    1    3    3  502    0  0.84655219873E+03 -0.70771714602E+03  0.16635941630E+04  0.19962614366E+04  0.25500000920E-02 0.  1.
       -2    1    3    3    0  502 -0.84655219873E+03  0.70771714602E+03 -0.15631085524E+04  0.19133276067E+04  0.25500000920E-02 0. -1.
</event>
<event>
 5   0  0.1943459E-07  0.3544866E+04  0.7818609E-02  0.8103239E-01
       -1   -1    0    0    0  501  0.00000000000E+00  0.00000000000E+00  0.12295664153E+04  0.12295664153E+04  0.50400001928E-02 0.  1.
        1   -1    0    0  501    0  0.00000000000E+00  0.00000000000E+00 -0.25549810811E+04  0.25549810811E+04  0.50400001928E-02 0. -1.
    10030    2    1    2    0    0  0.00000000000E+00  0.00000000000E+00 -0.13254146658E+04  0.37845474964E+04  0.35448661069E+04 0.  0.
        2    1    3    3  502    0  0.15585701203E+04  0.17605959024E+03  0.21856305017E+03  0.15836374604E+04  0.25500000920E-02 0.  1.
       -2    1    3    3    0  502 -0.15585701203E+04 -0.17605959024E+03 -0.15439777160E+04  0.22009100360E+04  0.25500000920E-02 0. -1.
</event>
<event>
 5   0  0.3959190E-07  0.3904644E+04  0.7818609E-02  0.8024064E-01
       -2   -1    0    0    0  501  0.00000000000E+00  0.00000000000E+00  0.14099745846E+04  0.14099745846E+04  0.25500000920E-02 0.  1.
        2   -1    0    0  501    0  0.00000000000E+00  0.00000000000E+00 -0.27032842888E+04  0.27032842888E+04  0.25500000920E-02 0. -1.
    10030    2    1    2    0    0  0.00000000000E+00  0.00000000000E+00 -0.12933097043E+04  0.41132588734E+04  0.39046444868E+04 0.  0.
        2    1    3    3  502    0 -0.14710660150E+04  0.12788398119E+04 -0.53079865214E+03  0.20202013994E+04  0.25500000920E-02 0.  1.
       -2    1    3    3    0  502  0.14710660150E+04 -0.12788398119E+04 -0.76251105212E+03  0.20930574740E+04  0.25500000920E-02 0. -1.
</event>
<event>
 5   0  0.1860500E-07  0.2399172E+04  0.7818609E-02  0.8439814E-01
        1   -1    0    0  501    0  0.00000000000E+00  0.00000000000E+00  0.10404163447E+04  0.10404163447E+04  0.50400001928E-02 0.  1.
       -1   -1    0    0    0  501  0.00000000000E+00  0.00000000000E+00 -0.13831066488E+04  0.13831066489E+04  0.50400001928E-02 0. -1.
    10030    2    1    2    0    0  0.00000000000E+00  0.00000000000E+00 -0.34269030416E+03  0.24235229935E+04  0.23991721605E+04 0.  0.
        5    1    3    3  502    0  0.18624967485E+02 -0.57961167247E+03  0.88940248703E+03  0.10617699629E+04  0.46999998093E+01 0.  1.
       -5    1    3    3    0  502 -0.18624967485E+02  0.57961167247E+03 -0.12320927912E+04  0.13617530306E+04  0.46999998093E+01 0. -1.
</event>
<event>
 5   0  0.1860500E-07  0.2542353E+04  0.7818609E-02  0.8388050E-01
        1   -1    0    0  501    0  0.00000000000E+00  0.00000000000E+00  0.23449388296E+04  0.23449388296E+04  0.50400001928E-02 0. -1.
       -1   -1    0    0    0  501  0.00000000000E+00  0.00000000000E+00 -0.68909691108E+03  0.68909691110E+03  0.50400001928E-02 0.  1.
    10030    2    1    2    0    0  0.00000000000E+00  0.00000000000E+00  0.16558419185E+04  0.30340357407E+04  0.25423533226E+04 0.  0.
        4    1    3    3  502    0  0.32775675229E+03 -0.12153766515E+04  0.10391339393E+04  0.16322885316E+04  0.12699999809E+01 0. -1.
       -4    1    3    3    0  502 -0.32775675229E+03  0.12153766515E+04  0.61670797924E+03  0.14017472091E+04  0.12699999809E+01 0.  1.
</event>
<event>
 5   0  0.1860500E-07  0.3985594E+04  0.7818609E-02  0.8007459E-01
       -1   -1    0    0    0  501  0.00000000000E+00  0.00000000000E+00  0.14272177162E+04  0.14272177162E+04  0.50400001928E-02 0.  1.
        1   -1    0    0  501    0  0.00000000000E+00  0.00000000000E+00 -0.27825040439E+04  0.27825040439E+04  0.50400001928E-02 0. -1.
    10030    2    1    2    0    0  0.00000000000E+00  0.00000000000E+00 -0.13552863278E+04  0.42097217601E+04  0.39855935903E+04 0.  0.
        5    1    3    3  502    0 -0.16673945160E+04  0.23337834154E+03 -0.18036838712E+04  0.24673807002E+04  0.46999998093E+01 0. -1.
       -5    1    3    3    0  502  0.16673945160E+04 -0.23337834154E+03  0.44839754347E+03  0.17423410599E+04  0.46999998093E+01 0.  1.
</event>
<event>
 5   0  0.3959190E-07  0.2884660E+04  0.7818609E-02  0.8277456E-01
        2   -1    0    0  501    0  0.00000000000E+00  0.00000000000E+00  0.20419593591E+04  0.20419593591E+04  0.25500000920E-02 0.  1.
       -2   -1    0    0    0  501  0.00000000000E+00  0.00000000000E+00 -0.10187840460E+04  0.10187840460E+04  0.25500000920E-02 0. -1.
    10030    2    1    2    0    0  0.00000000000E+00  0.00000000000E+00  0.10231753131E+04  0.30607434051E+04  0.28846598536E+04 0.  0.
        2    1    3    3  502    0  0.16342555556E+03  0.37819600742E+03  0.19781968819E+04  0.20206442131E+04  0.25500000920E-02 0.  1.
       -2    1    3    3    0  502 -0.16342555556E+03 -0.37819600742E+03 -0.95502156887E+03  0.10400991920E+04  0.25500000920E-02 0. -1.
</event>
<event>
 5   0  0.3959190E-07  0.3476341E+04  0.7818609E-02  0.8119420E-01
        2   -1    0    0  501    0  0.00000000000E+00  0.00000000000E+00  0.26482935188E+04  0.26482935188E+04  0.25500000920E-02 0. -1.
       -2   -1    0    0    0  501  0.00000000000E+00  0.00000000000E+00 -0.11408239296E+04  0.11408239296E+04  0.25500000920E-02 0.  1.
    10030    2    1    2    0    0  0.00000000000E+00  0.00000000000E+00  0.15074695891E+04  0.37891174484E+04  0.34763409608E+04 0.  0.
        2    1    3    3  502    0 -0.36079168745E+03 -0.14886017732E+04  0.16493256326E+04  0.22508622622E+04  0.25500000920E-02 0. -1.
       -2    1    3    3    0  502  0.36079168745E+03  0.14886017732E+04 -0.14185604344E+03  0.15382551863E+04  0.25500000920E-02 0.  1.
</event>
<event>
 5   0  0.1860500E-07  0.3911683E+04  0.7818609E-02  0.8022604E-01
        1   -1    0    0  501    0  0.00000000000E+00  0.00000000000E+00  0.23299470011E+04  0.23299470011E+04  0.50400001928E-02 0.  1.
       -1   -1    0    0    0  501  0.00000000000E+00  0.00000000000E+00 -0.16418036591E+04  0.16418036591E+04  0.50400001928E-02 0. -1.
    10030    2    1    2    0    0  0.00000000000E+00  0.00000000000E+00  0.68814334203E+03  0.39717506602E+04  0.39116827642E+04 0.  0.
        4    1    3    3  502    0  0.90068636222E+03  0.10896343883E+04 -0.10282656207E+04  0.17481049233E+04  0.12699999809E+01 0. -1.
       -4    1    3    3    0  502 -0.90068636222E+03 -0.10896343883E+04  0.17164089627E+04  0.22236457369E+04  0.12699999809E+01 0.  1.
</event>
<event>
 5   0  0.5872444E-07  0.3894560E+04  0.7818609E-02  0.8026162E-01
       -2   -1    0    0    0  501  0.00000000000E+00  0.00000000000E+00  0.15792092146E+04  0.15792092146E+04  0.25500000920E-02 0. -1.
        2   -1    0    0  501    0  0.00000000000E+00  0.00000000000E+00 -0.24011378648E+04  0.24011378648E+04  0.25500000920E-02 0.  1.
    10030    2    1    2    0    0  0.00000000000E+00  0.00000000000E+00 -0.82192865021E+03  0.39803470794E+04  0.38945598168E+04 0.  0.
        3    1    3    3  502    0 -0.15638544062E+03 -0.17393876708E+04  0.46938829576E+03  0.18083836036E+04  0.10100000352E+00 0. -1.
       -3    1    3    3    0  502  0.15638544062E+03  0.17393876708E+04 -0.12913169460E+04  0.21719634759E+04  0.10100000352E+00 0.  1.
</event>
<event>
 5   0  0.5805753E-07  0.3878350E+04  0.7818609E-02  0.8029547E-01
       -2   -1    0    0    0  501  0.00000000000E+00  0.00000000000E+00  0.23580334560E+04  0.23580334560E+04  0.25500000920E-02 0. -1.
        2   -1    0    0  501    0  0.00000000000E+00  0.00000000000E+00 -0.15947183038E+04  0.15947183038E+04  0.25500000920E-02 0.  1.
    10030    2    1    2    0    0  0.00000000000E+00  0.00000000000E+00  0.76331515220E+03  0.39527517599E+04  0.38783497075E+04 0.  0.
        1    1    3    3  502    0 -0.99051934817E+03  0.61132298101E+03  0.19623966800E+04  0.22816321123E+04  0.50400001928E-02 0. -1.
       -1    1    3    3    0  502  0.99051934817E+03 -0.61132298101E+03 -0.11990815278E+04  0.16711196476E+04  0.50400001928E-02 0.  1.
</event>
<event>
 5   0  0.6095665E-07  0.3904422E+04  0.7818609E-02  0.8024110E-01
        2   -1    0    0  501    0  0.00000000000E+00  0.00000000000E+00  0.19543251357E+04  0.19543251357E+04  0.25500000920E-02 0. -1.
       -2   -1    0    0    0  501  0.00000000000E+00  0.00000000000E+00 -0.19500994228E+04  0.19500994228E+04  0.25500000920E-02 0.  1.
    10030    2    1    2    0    0  0.00000000000E+00  0.00000000000E+00  0.42257129327E+01  0.39044245585E+04  0.39044222717E+04 0.  0.
        4    1    3    3  502    0 -0.93279054598E+03  0.16282444192E+04  0.54048907643E+03  0.19527949575E+04  0.12699999809E+01 0. -1.
       -4    1    3    3    0  502  0.93279054598E+03 -0.16282444192E+04 -0.53626336350E+03  0.19516296010E+04  0.12699999809E+01 0.  1.
</event>
<event>
 5   0  0.1943459E-07  0.3688759E+04  0.7818609E-02  0.8070458E-01
       -1   -1    0    0    0  501  0.00000000000E+00  0.00000000000E+00  0.18961701071E+04  0.18961701071E+04  0.50400001928E-02 0. -1.
        1   -1    0    0  501    0  0.00000000000E+00  0.00000000000E+00 -0.17940036283E+04  0.17940036283E+04  0.50400001928E-02 0.  1.
    10030    2    1    2    0    0  0.00000000000E+00  0.00000000000E+00  0.10216647882E+03  0.36901737354E+04  0.36887591691E+04 0.  0.
        2    1    3    3  502    0 -0.81286946825E+02  0.16609634876E+04  0.84909132815E+03  0.18671805907E+04  0.25500000920E-02 0.  1.
       -2    1    3    3    0  502  0.81286946825E+02 -0.16609634876E+04 -0.74692484933E+03  0.18229931446E+04  0.25500000920E-02 0. -1.
</event>
<event>
 5   0  0.1860500E-07  0.2650669E+04  0.7818609E-02  0.8351191E-01
       -1   -1    0    0    0  501  0.00000000000E+00  0.00000000000E+00  0.11458884487E+04  0.11458884487E+04  0.50400001928E-02 0.  1.
        1   -1    0    0  501    0  0.00000000000E+00  0.00000000000E+00 -0.15328815497E+04  0.15328815497E+04  0.50400001928E-02 0. -1.
    10030    2    1    2    0    0  0.00000000000E+00  0.00000000000E+00 -0.38699310105E+03  0.26787699984E+04  0.26506687919E+04 0.  0.
        4    1    3    3  502    0  0.10508841488E+04  0.20314946525E+03 -0.98337230870E+03  0.14534957550E+04  0.12699999809E+01 0. -1.
       -4    1    3    3    0  502 -0.10508841488E+04 -0.20314946525E+03  0.59637920765E+03  0.12252742434E+04  0.12699999809E+01 0.  1.
</event>
<event>
 5   0  0.5872444E-07  0.2568420E+04  0.7818609E-02  0.8379008E-01
        2   -1    0    0  501    0  0.00000000000E+00  0.00000000000E+00  0.18584533087E+04  0.18584533087E+04  0.25500000920E-02 0. -1.
       -2   -1    0    0    0  501  0.00000000000E+00  0.00000000000E+00 -0.88740218056E+03  0.88740218056E+03  0.25500000920E-02 0.  1.
    10030    2    1    2    0    0  0.00000000000E+00  0.00000000000E+00  0.97105112813E+03  0.27458554893E+04  0.25684201515E+04 0.  0.
        3    1    3    3  502    0  0.15456671488E+03 -0.15717923905E+03 -0.86702317331E+03  0.89460906310E+03  0.10100000352E+00 0.  1.
       -3    1    3    3    0  502 -0.15456671488E+03  0.15717923905E+03  0.18380743014E+04  0.18512464262E+04  0.10100000352E+00 0. -1.
</event>
<event>
 5   0  0.1860500E-07  0.2643457E+04  0.7818609E-02  0.8353588E-01
        1   -1    0    0  501    0  0.00000000000E+00  0.00000000000E+00  0.25991051795E+04  0.25991051795E+04  0.50400001928E-02 0. -1.
       -1   -1    0    0    0  501  0.00000000000E+00  0.00000000000E+00 -0.67214137049E+03  0.67214137051E+03  0.50400001928E-02 0.  1.
    10030    2    1    2    0    0  0.00000000000E+00  0.00000000000E+00  0.19269638090E+04  0.32712465500E+04  0.26434569165E+04 0.  0.
        4    1    3    3  502    0  0.55344283215E+03 -0.54900242263E+03 -0.35736603569E+03  0.85756324833E+03  0.12699999809E+01 0.  1.
       -4    1    3    3    0  502 -0.55344283215E+03  0.54900242263E+03  0.22843298447E+04  0.24136833016E+04  0.12699999809E+01 0. -1.
</event>
<event>
 5   0  0.5805753E-07  0.4079990E+04  0.7818609E-02  0.7988602E-01
       -2   -1    0    0    0  501  0.00000000000E+00  0.00000000000E+00  0.18042421983E+04  0.18042421983E+04  0.25500000920E-02 0.  1.
        2   -1    0    0  501    0  0.00000000000E+00  0.00000000000E+00 -0.23065524244E+04  0.23065524245E+04  0.25500000920E-02 0. -1.
    10030    2    1    2    0    0  0.00000000000E+00  0.00000000000E+00 -0.50231022619E+03  0.41107946227E+04  0.40799898121E+04 0.  0.
        1    1    3    3  502    0  0.14203134652E+04  0.14361752644E+04  0.36816570663E+02  0.20202091945E+04  0.50400001928E-02 0.  1.
       -1    1    3    3    0  502 -0.14203134652E+04 -0.14361752644E+04 -0.53912679685E+03  0.20905854282E+04  0.50400001928E-02 0. -1.
</event>
<event>
 5   0  0.5872444E-07  0.3954873E+04  0.7818609E-02  0.8013713E-01
       -2   -1    0    0    0  501  0.00000000000E+00  0.00000000000E+00  0.22857622898E+04  0.22857622898E+04  0.25500000920E-02 0.  1.
        2   -1    0    0  501    0  0.00000000000E+00  0.00000000000E+00 -0.17107004340E+04  0.17107004340E+04  0.25500000920E-02 0. -1.
    10030    2    1    2    0    0  0.00000000000E+00  0.00000000000E+00  0.57506185590E+03  0.39964627238E+04  0.39548727116E+04 0.  0.
        3    1    3    3  502    0  0.20539198107E+03 -0.25017758707E+03  0.22588093547E+04  0.22818839589E+04  0.10100000352E+00 0.  1.
       -3    1    3    3    0  502 -0.20539198107E+03  0.25017758707E+03 -0.16837474988E+04  0.17145787649E+04  0.10100000352E+00 0. -1.
</event>
<event>
 5   0  0.1860500E-07  0.3885913E+04  0.7818609E-02  0.8027965E-01
       -1   -1    0    0    0  501  0.00000000000E+00  0.00000000000E+00  0.27372239708E+04  0.27372239708E+04  0.50400001928E-02 0. -1.
        1   -1    0    0  501    0  0.00000000000E+00  0.00000000000E+00 -0.13791637987E+04  0.13791637987E+04  0.50400001928E-02 0.  1.
    10030    2    1    2    0    0  0.00000000000E+00  0.00000000000E+00  0.13580601721E+04  0.41163877696E+04  0.38859131280E+04 0.  0.
        4    1    3    3  502    0  0.98988987857E+03  0.12650855392E+04 -0.47884752678E+03  0.16761921011E+04  0.12699999809E+01 0.  1.
       -4    1    3    3    0  502 -0.98988987857E+03 -0.12650855392E+04  0.18369076989E+04  0.24401956684E+04  0.12699999809E+01 0. -1.
</event>
<event>
 5   0  0.1876027E-07  0.3659247E+04  0.7818609E-02  0.8077054E-01
       -1   -1    0    0    0  501  0.00000000000E+00  0.00000000000E+00  0.14856641220E+04  0.14856641220E+04  0.50400001928E-02 0. -1.
        1   -1    0    0  501    0  0.00000000000E+00  0.00000000000E+00 -0.22532160442E+04  0.22532160442E+04  0.50400001928E-02 0.  1.
    10030    2    1    2    0    0  0.00000000000E+00  0.00000000000E+00 -0.76755192228E+03  0.37388801662E+04  0.36592470460E+04 0.  0.
        3    1    3    3  502    0  0.49456120172E+02  0.18286136602E+04 -0.34767434584E+03  0.18620288094E+04  0.10100000352E+00 0.  1.
       -3    1    3    3    0  502 -0.49456120172E+02 -0.18286136602E+04 -0.41987757644E+03  0.18768513568E+04  0.10100000352E+00 0. -1.
</event>
<event>
 5   0  0.1943459E-07  0.3834170E+04  0.7818609E-02  0.8038862E-01
        1   -1    0    0  501    0  0.00000000000E+00  0.00000000000E+00  0.21945918107E+04  0.21945918107E+04  0.50400001928E-02 0.  1.
       -1   -1    0    0    0  501  0.00000000000E+00  0.00000000000E+00 -0.16746687580E+04  0.16746687580E+04  0.50400001928E-02 0. -1.
    10030    2    1    2    0    0  0.00000000000E+00  0.00000000000E+00  0.51992305269E+03  0.38692605688E+04  0.38341697104E+04 0.  0.
        2    1    3    3  502    0 -0.11421685281E+04  0.13555634143E+04  0.99678995532E+03  0.20336399218E+04  0.25500000920E-02 0.  1.
       -2    1    3    3    0  502  0.11421685281E+04 -0.13555634143E+04 -0.47686690263E+03  0.18356206469E+04  0.25500000920E-02 0. -1.
</event>
<event>
 5   0  0.5735179E-07  0.3909367E+04  0.7818609E-02  0.8023084E-01
       -2   -1    0    0    0  501  0.00000000000E+00  0.00000000000E+00  0.25668428375E+04  0.25668428375E+04  0.25500000920E-02 0.  1.
        2   -1    0    0  501    0  0.00000000000E+00  0.00000000000E+00 -0.14885166598E+04  0.14885166598E+04  0.25500000920E-02 0. -1.
    10030    2    1    2    0    0  0.00000000000E+00  0.00000000000E+00  0.10783261777E+04  0.40553594972E+04  0.39093673793E+04 0.  0.
        5    1    3    3  502    0 -0.84690560789E+03 -0.92499420727E+03 -0.10161278543E+04  0.16141255522E+04  0.46999998093E+01 0. -1.
       -5    1    3    3    0  502  0.84690560789E+03  0.92499420727E+03  0.20944540320E+04  0.24412339450E+04  0.46999998093E+01 0.  1.
</event>
<event>
 5   0  0.1860500E-07  0.3889550E+04  0.7818609E-02  0.8027206E-01
       -1   -1    0    0    0  501  0.00000000000E+00  0.00000000000E+00  0.14606354547E+04  0.14606354547E+04  0.50400001928E-02 0. -1.
        1   -1    0    0  501    0  0.00000000000E+00  0.00000000000E+00 -0.25893865837E+04  0.25893865837E+04  0.50400001928E-02 0.  1.
    10030    2    1    2    0    0  0.00000000000E+00  0.00000000000E+00 -0.11287511290E+04  0.40500220384E+04  0.38895500255E+04 0.  0.
        4    1    3    3  502    0 -0.57378999301E+03  0.93243241123E+03 -0.22380108966E+04  0.24914573132E+04  0.12699999809E+01 0.  1.
       -4    1    3    3    0  502  0.57378999301E+03 -0.93243241123E+03  0.11092597676E+04  0.15585647252E+04  0.12699999809E+01 0. -1.
</event>
<event>
 5   0  0.1943459E-07  0.3813887E+04  0.7818609E-02  0.8043181E-01
       -1   -1    0    0    0  501  0.00000000000E+00  0.00000000000E+00  0.14630068137E+04  0.14630068137E+04  0.50400001928E-02 0. -1.
        1   -1    0    0  501    0  0.00000000000E+00  0.00000000000E+00 -0.24855887850E+04  0.24855887850E+04  0.50400001928E-02 0.  1.
    10030    2    1    2    0    0  0.00000000000E+00  0.00000000000E+00 -0.10225819714E+04  0.39485955987E+04  0.38138869037E+04 0.  0.
        2    1    3    3  502    0 -0.54126273149E+03 -0.18284732438E+04 -0.49846049481E+03  0.19709750411E+04  0.25500000920E-02 0.  1.
       -2    1    3    3    0  502  0.54126273149E+03  0.18284732438E+04 -0.52412147657E+03  0.19776205576E+04  0.25500000920E-02 0. -1.
</event>
<event>
 5   0  0.1860500E-07  0.2613863E+04  0.7818609E-02  0.8363507E-01
        1   -1    0    0  501    0  0.00000000000E+00  0.00000000000E+00  0.15348975003E+04  0.15348975003E+04  0.50400001928E-02 0.  1.
       -1   -1    0    0    0  501  0.00000000000E+00  0.00000000000E+00 -0.11128235264E+04  0.11128235264E+04  0.50400001928E-02 0. -1.
    10030    2    1    2    0    0  0.00000000000E+00  0.00000000000E+00  0.42207397393E+03  0.26477210267E+04  0.26138630790E+04 0.  0.
        5    1    3    3  502    0 -0.61557593768E+02  0.12572053023E+04  0.56729344053E+03  0.13806514575E+04  0.46999998093E+01 0.  1.
       -5    1    3    3    0  502  0.61557593768E+02 -0.12572053023E+04 -0.14521946659E+03  0.12670695691E+04  0.46999998093E+01 0. -1.
</event>
<event>
 5   0  0.3959190E-07  0.4018030E+04  0.7818609E-02  0.8000919E-01
       -2   -1    0    0    0  501  0.00000000000E+00  0.00000000000E+00  0.15781999132E+04  0.15781999132E+04  0.25500000920E-02 0.  1.
        2   -1    0    0  501    0  0.00000000000E+00  0.00000000000E+00 -0.25574329574E+04  0.25574329574E+04  0.25500000920E-02 0. -1.
    10030    2    1    2    0    0  0.00000000000E+00  0.00000000000E+00 -0.97923304425E+03  0.41356328706E+04  0.40180296024E+04 0.  0.
        2    1    3    3  502    0 -0.31592284430E+03  0.11505169111E+04  0.11740603153E+04  0.16738918813E+04  0.25500000920E-02 0.  1.
       -2    1    3    3    0  502  0.31592284430E+03 -0.11505169111E+04 -0.21532933596E+04  0.24617409893E+04  0.25500000920E-02 0. -1.
</event>
<event>
 5   0  0.6095665E-07  0.3959473E+04  0.7818609E-02  0.8012772E-01
        2   -1    0    0  501    0  0.00000000000E+00  0.00000000000E+00  0.12001921765E+04  0.12001921765E+04  0.25500000920E-02 0.  1.
       -2   -1    0    0    0  501  0.00000000000E+00  0.00000000000E+00 -0.32656076455E+04  0.32656076455E+04  0.25500000920E-02 0. -1.
    10030    2    1    2    0    0  0.00000000000E+00  0.00000000000E+00 -0.20654154689E+04  0.44657998220E+04  0.39594730699E+04 0.  0.
        4    1    3    3  502    0  0.14117486000E+04  0.97236632177E+03 -0.21497190413E+04  0.27495134011E+04  0.12699999809E+01 0. -1.
       -4    1    3    3    0  502 -0.14117486000E+04 -0.97236632177E+03  0.84303572411E+02  0.17162864209E+04  0.12699999809E+01 0.  1.
</event>
<event>
 5   0  0.5805753E-07  0.3871688E+04  0.7818609E-02  0.8030943E-01
        2   -1    0    0  501    0  0.00000000000E+00  0.00000000000E+00  0.18441673693E+04  0.18441673693E+04  0.25500000920E-02 0. -1.
       -2   -1    0    0    0  501  0.00000000000E+00  0.00000000000E+00 -0.20320780606E+04  0.20320780606E+04  0.25500000920E-02 0.  1.
    10030    2    1    2    0    0  0.00000000000E+00  0.00000000000E+00 -0.18791069125E+03  0.38762454299E+04  0.38716880304E+04 0.  0.
        1    1    3    3  502    0  0.25838301987E+03  0.27758465502E+02  0.18266248431E+04  0.18450177871E+04  0.50400001928E-02 0. -1.
       -1    1    3    3    0  502 -0.25838301987E+03 -0.27758465502E+02 -0.20145355344E+04  0.20312276427E+04  0.50400001928E-02 0.  1.
</event>
<event>
 5   0  0.1860500E-07  0.3857579E+04  0.7818609E-02  0.8033910E-01
       -1   -1    0    0    0  501  0.00000000000E+00  0.00000000000E+00  0.14054572861E+04  0.14054572861E+04  0.50400001928E-02 0.  1.
        1   -1    0    0  501    0  0.00000000000E+00  0.00000000000E+00 -0.26469883655E+04  0.26469883655E+04  0.50400001928E-02 0. -1.
    10030    2    1    2    0    0  0.00000000000E+00  0.00000000000E+00 -0.12415310794E+04  0.40524456517E+04  0.38575790774E+04 0.  0.
        4    1    3    3  502    0  0.16612880722E+04 -0.80819277255E+03 -0.38535664866E+02  0.18478474577E+04  0.12699999809E+01 0.  1.
       -4    1    3    3    0  502 -0.16612880722E+04  0.80819277255E+03 -0.12029954146E+04  0.22045981940E+04  0.12699999809E+01 0. -1.
</event>
<event>
 5   0  0.1876027E-07  0.3488004E+04  0.7818609E-02  0.8116639E-01
       -1   -1    0    0    0  501  0.00000000000E+00  0.00000000000E+00  0.11452497210E+04  0.11452497210E+04  0.50400001928E-02 0.  1.
        1   -1    0    0  501    0  0.00000000000E+00  0.00000000000E+00 -0.26557901560E+04  0.26557901560E+04  0.50400001928E-02 0. -1.
    10030    2    1    2    0    0  0.00000000000E+00  0.00000000000E+00 -0.15105404350E+04  0.38010398770E+04  0.34880039766E+04 0.  0.
        3    1    3    3  502    0  0.13934373231E+04 -0.10458719052E+04 -0.83987349733E+03  0.19341414419E+04  0.10100000352E+00 0. -1.
       -3    1    3    3    0  502 -0.13934373231E+04  0.10458719052E+04 -0.67066693767E+03  0.18668984351E+04  0.10100000352E+00 0.  1.
</event>
<event>
 5   0  0.1860500E-07  0.4114782E+04  0.7818609E-02  0.7981783E-01
        1   -1    0    0  501    0  0.00000000000E+00  0.00000000000E+00  0.15107989264E+04  0.15107989264E+04  0.50400001928E-02 0. -1.
       -1   -1    0    0    0  501  0.00000000000E+00  0.00000000000E+00 -0.28017342934E+04  0.28017342934E+04  0.50400001928E-02 0.  1.
    10030    2    1    2    0    0  0.00000000000E+00  0.00000000000E+00 -0.12909353670E+04  0.43125332199E+04  0.41147817258E+04 0.  0.
        5    1    3    3  502    0 -0.26680982746E+03 -0.17150158138E+04 -0.18032612139E+04  0.25028463439E+04  0.46999998093E+01 0.  1.
       -5    1    3    3    0  502  0.26680982746E+03  0.17150158138E+04  0.51232584688E+03  0.18096868760E+04  0.46999998093E+01 0. -1.
</event>
<event>
 5   0  0.1860500E-07  0.3996109E+04  0.7818609E-02  0.8005332E-01
       -1   -1    0    0    0  501  0.00000000000E+00  0.00000000000E+00  0.18126513154E+04  0.18126513154E+04  0.50400001928E-02 0. -1.
        1   -1    0    0  501    0  0.00000000000E+00  0.00000000000E+00 -0.22024213180E+04  0.22024213180E+04  0.50400001928E-02 0.  1.
    10030    2    1    2    0    0  0.00000000000E+00  0.00000000000E+00 -0.38977000260E+03  0.40150726335E+04  0.39961090572E+04 0.  0.
        5    1    3    3  502    0 -0.13882964411E+04 -0.13879435442E+04 -0.56873340133E+03  0.20438282858E+04  0.46999998093E+01 0.  1.
       -5    1    3    3    0  502  0.13882964411E+04  0.13879435442E+04  0.17896339873E+03  0.19712443477E+04  0.46999998093E+01 0. -1.
</event>
<event>
 5   0  0.3959190E-07  0.3756806E+04  0.7818609E-02  0.8055488E-01
        2   -1    0    0  501    0  0.00000000000E+00  0.00000000000E+00  0.29480175176E+04  0.29480175176E+04  0.25500000920E-02 0. -1.
       -2   -1    0    0    0  501  0.00000000000E+00  0.00000000000E+00 -0.11968712918E+04  0.11968712918E+04  0.25500000920E-02 0.  1.
    10030    2    1    2    0    0  0.00000000000E+00  0.00000000000E+00  0.17511462258E+04  0.41448888094E+04  0.37568058425E+04 0.  0.
        2    1    3    3  502    0  0.20741997945E+03 -0.18601774113E+04  0.10504193431E+04  0.21463140138E+04  0.25500000920E-02 0. -1.
       -2    1    3    3    0  502 -0.20741997945E+03  0.18601774113E+04  0.70072688263E+03  0.19985747956E+04  0.25500000920E-02 0.  1.
</event>
<event>
 5   0  0.3959190E-07  0.3994572E+04  0.7818609E-02  0.8005642E-01
       -2   -1    0    0    0  501  0.00000000000E+00  0.00000000000E+00  0.20415923485E+04  0.20415923485E+04  0.25500000920E-02 0. -1.
        2   -1    0    0  501    0  0.00000000000E+00  0.00000000000E+00 -0.19539414448E+04  0.19539414448E+04  0.25500000920E-02 0.  1.
    10030    2    1    2    0    0  0.00000000000E+00  0.00000000000E+00  0.87650903724E+02  0.39955337933E+04  0.39945722690E+04 0.  0.
        2    1    3    3  502    0  0.13975240871E+04  0.63932364603E+03 -0.12321553972E+04  0.19697754241E+04  0.25500000920E-02 0.  1.
       -2    1    3    3    0  502 -0.13975240871E+04 -0.63932364603E+03  0.13198063009E+04  0.20257583692E+04  0.25500000920E-02 0. -1.
</event>
<event>
 5   0  0.1876027E-07  0.3634453E+04  0.7818609E-02  0.8082645E-01
        1   -1    0    0  501    0  0.00000000000E+00  0.00000000000E+00  0.20169022244E+04  0.20169022244E+04  0.50400001928E-02 0.  1.
       -1   -1    0    0    0  501  0.00000000000E+00  0.00000000000E+00 -0.16373187714E+04  0.16373187714E+04  0.50400001928E-02 0. -1.
    10030    2    1    2    0    0  0.00000000000E+00  0.00000000000E+00  0.37958345297E+03  0.36542209958E+04  0.36344528458E+04 0.  0.
        3    1    3    3  502    0 -0.57107771460E+03 -0.45365954078E+03  0.18632891947E+04  0.20009456185E+04  0.10100000352E+00 0.  1.
       -3    1    3    3    0  502  0.57107771460E+03  0.45365954078E+03 -0.14837057417E+04  0.16532753773E+04  0.10100000352E+00 0. -1.
</event>
<event>
 5   0  0.1860500E-07  0.4074977E+04  0.7818609E-02  0.7989590E-01
       -1   -1    0    0    0  501  0.00000000000E+00  0.00000000000E+00  0.17550386697E+04  0.17550386697E+04  0.50400001928E-02 0.  1.
        1   -1    0    0  501    0  0.00000000000E+00  0.00000000000E+00 -0.23653949219E+04  0.23653949219E+04  0.50400001928E-02 0. -1.
    10030    2    1    2    0    0  0.00000000000E+00  0.00000000000E+00 -0.61035625224E+03  0.41204335916E+04  0.40749770832E+04 0.  0.
        4    1    3    3  502    0 -0.10108249954E+04 -0.12158484931E+04  0.99418686558E+03  0.18677429872E+04  0.12699999809E+01 0.  1.
       -4    1    3    3    0  502  0.10108249954E+04  0.12158484931E+04 -0.16045431178E+04  0.22526906044E+04  0.12699999809E+01 0. -1.
</event>
<event>
 5   0  0.5805753E-07  0.3913074E+04  0.7818609E-02  0.8022316E-01
       -2   -1    0    0    0  501  0.00000000000E+00  0.00000000000E+00  0.15228207276E+04  0.15228207276E+04  0.25500000920E-02 0. -1.
        2   -1    0    0  501    0  0.00000000000E+00  0.00000000000E+00 -0.25137805630E+04  0.25137805630E+04  0.25500000920E-02 0.  1.
    10030    2    1    2    0    0  0.00000000000E+00  0.00000000000E+00 -0.99095983534E+03  0.40366012906E+04  0.39130740581E+04 0.  0.
        1    1    3    3  502    0 -0.13195605091E+04  0.14096566906E+04 -0.16981602508E+03  0.19383522397E+04  0.50400001928E-02 0.  1.
       -1    1    3    3    0  502  0.13195605091E+04 -0.14096566906E+04 -0.82114381025E+03  0.20982490510E+04  0.50400001928E-02 0. -1.
</event>
<event>
 5   0  0.5735179E-07  0.3402660E+04  0.7818609E-02  0.8137254E-01
       -2   -1    0    0    0  501  0.00000000000E+00  0.00000000000E+00  0.11019026386E+04  0.11019026387E+04  0.25500000920E-02 0.  1.
        2   -1    0    0  501    0  0.00000000000E+00  0.00000000000E+00 -0.26268417466E+04  0.26268417466E+04  0.25500000920E-02 0. -1.
    10030    2    1    2    0    0  0.00000000000E+00  0.00000000000E+00 -0.15249391080E+04  0.37287443853E+04  0.34026600488E+04 0.  0.
        5    1    3    3  502    0  0.61581121170E+03 -0.48927039190E+03  0.89070971703E+03  0.11882738972E+04  0.46999998093E+01 0.  1.
       -5    1    3    3    0  502 -0.61581121170E+03  0.48927039190E+03 -0.24156488250E+04  0.25404704881E+04  0.46999998093E+01 0. -1.
</event>
<event>
 5   0  0.1943459E-07  0.3889211E+04  0.7818609E-02  0.8027277E-01
        1   -1    0    0  501    0  0.00000000000E+00  0.00000000000E+00  0.11397940135E+04  0.11397940135E+04  0.50400001928E-02 0. -1.
       -1   -1    0    0    0  501  0.00000000000E+00  0.00000000000E+00 -0.33176965101E+04  0.33176965101E+04  0.50400001928E-02 0.  1.
    10030    2    1    2    0    0  0.00000000000E+00  0.00000000000E+00 -0.21779024966E+04  0.44574905236E+04  0.38892110361E+04 0.  0.
        2    1    3    3  502    0 -0.11143886938E+04  0.15897459791E+04 -0.12162485791E+04  0.22909419559E+04  0.25500000920E-02 0.  1.
       -2    1    3    3    0  502  0.11143886938E+04 -0.15897459791E+04 -0.96165391753E+03  0.21665485677E+04  0.25500000920E-02 0. -1.
</event>
<event>
 5   0  0.1943459E-07  0.3207675E+04  0.7818609E-02  0.8186793E-01
        1   -1    0    0  501    0  0.00000000000E+00  0.00000000000E+00  0.17038979485E+04  0.17038979485E+04  0.50400001928E-02 0.  1.
       -1   -1    0    0    0  501  0.00000000000E+00  0.00000000000E+00 -0.15096532725E+04  0.15096532725E+04  0.50400001928E-02 0. -1.
    10030    2    1    2    0    0  0.00000000000E+00  0.00000000000E+00  0.19424467593E+03  0.32135512210E+04  0.32076752416E+04 0.  0.
        2    1    3    3  502    0  0.68401094638E+03  0.12301702413E+04  0.86736446393E+03  0.16533332727E+04  0.25500000920E-02 0.  1.
       -2    1    3    3    0  502 -0.68401094638E+03 -0.12301702413E+04 -0.67311978800E+03  0.15602179483E+04  0.25500000920E-02 0. -1.
</event>
<event>
 5   0  0.1876027E-07  0.3481367E+04  0.7818609E-02  0.8118220E-01
        1   -1    0    0  501    0  0.00000000000E+00  0.00000000000E+00  0.19151514857E+04  0.19151514857E+04  0.50400001928E-02 0. -1.
       -1   -1    0    0    0  501  0.00000000000E+00  0.00000000000E+00 -0.15821095186E+04  0.15821095186E+04  0.50400001928E-02 0.  1.
    10030    2    1    2    0    0  0.00000000000E+00  0.00000000000E+00  0.33304196714E+03  0.34972610043E+04  0.34813671999E+04 0.  0.
        3    1    3    3  502    0  0.17210265994E+04 -0.21535636023E+03  0.18646818230E+02  0.17345485383E+04  0.10100000352E+00 0. -1.
       -3    1    3    3    0  502 -0.17210265994E+04  0.21535636023E+03  0.31439514891E+03  0.17627124660E+04  0.10100000352E+00 0.  1.
</event>
<event>
 5   0  0.5872444E-07  0.3819866E+04  0.7818609E-02  0.8041905E-01
       -2   -1    0    0    0  501  0.00000000000E+00  0.00000000000E+00  0.26748142096E+04  0.26748142096E+04  0.25500000920E-02 0.  1.
        2   -1    0    0  501    0  0.00000000000E+00  0.00000000000E+00 -0.13637744828E+04  0.13637744829E+04  0.25500000920E-02 0. -1.
    10030    2    1    2    0    0  0.00000000000E+00  0.00000000000E+00  0.13110397267E+04  0.40385886924E+04  0.38198656340E+04 0.  0.
        3    1    3    3  502    0  0.65219970479E+03  0.36156855459E+03  0.25145375345E+04  0.26227838831E+04  0.10100000352E+00 0.  1.
       -3    1    3    3    0  502 -0.65219970479E+03 -0.36156855459E+03 -0.12034978078E+04  0.14158048093E+04  0.10100000352E+00 0. -1.
</event>
<event>
 5   0  0.1860500E-07  0.3509279E+04  0.7818609E-02  0.8111595E-01
       -1   -1    0    0    0  501  0.00000000000E+00  0.00000000000E+00  0.20719097142E+04  0.20719097142E+04  0.50400001928E-02 0.  1.
        1   -1    0    0  501    0  0.00000000000E+00  0.00000000000E+00 -0.14859522780E+04  0.14859522780E+04  0.50400001928E-02 0. -1.
    10030    2    1    2    0    0  0.00000000000E+00  0.00000000000E+00  0.58595743627E+03  0.35578619922E+04  0.35092785353E+04 0.  0.
        5    1    3    3  502    0 -0.21994483251E+03 -0.33232086820E+03 -0.14394566063E+04  0.14936098219E+04  0.46999998093E+01 0. -1.
       -5    1    3    3    0  502  0.21994483251E+03  0.33232086820E+03  0.20254140425E+04  0.20642521703E+04  0.46999998093E+01 0.  1.
</event>
<event>
 5   0  0.1943459E-07  0.3933499E+04  0.7818609E-02  0.8018098E-01
        1   -1    0    0  501    0  0.00000000000E+00  0.00000000000E+00  0.18290697278E+04  0.18290697278E+04  0.50400001928E-02 0.  1.
       -1   -1    0    0    0  501  0.00000000000E+00  0.00000000000E+00 -0.21147923643E+04  0.21147923643E+04  0.50400001928E-02 0. -1.
    10030    2    1    2    0    0  0.00000000000E+00  0.00000000000E+00 -0.28572263648E+03  0.39438620921E+04  0.39334985416E+04 0.  0.
        2    1    3    3  502    0 -0.18041884648E+04 -0.65729849081E+03  0.28365972833E+03  0.19410306963E+04  0.25500000920E-02 0. -1.
       -2    1    3    3    0  502  0.18041884648E+04  0.65729849081E+03 -0.56938236480E+03  0.20028313958E+04  0.25500000920E-02 0.  1.
</event>
<event>
 5   0  0.5805753E-07  0.3931656E+04  0.7818609E-02  0.8018477E-01
       -2   -1    0    0    0  501  0.00000000000E+00  0.00000000000E+00  0.22135874056E+04  0.22135874056E+04  0.25500000920E-02 0.  1.
        2   -1    0    0  501    0  0.00000000000E+00  0.00000000000E+00 -0.17457999152E+04  0.17457999152E+04  0.25500000920E-02 0. -1.
    10030    2    1    2    0    0  0.00000000000E+00  0.00000000000E+00  0.46778749037E+03  0.39593873208E+04  0.39316564982E+04 0.  0.
        1    1    3    3  502    0 -0.19643198386E+04  0.50302849548E+02  0.17519109463E+03  0.19727581516E+04  0.50400001928E-02 0. -1.
       -1    1    3    3    0  502  0.19643198386E+04 -0.50302849548E+02  0.29259639573E+03  0.19866291692E+04  0.50400001928E-02 0.  1.
</event>
<event>
 5   0  0.5872444E-07  0.3943289E+04  0.7818609E-02  0.8016086E-01
       -2   -1    0    0    0  501  0.00000000000E+00  0.00000000000E+00  0.12574445417E+04  0.12574445417E+04  0.25500000920E-02 0.  1.
        2   -1    0    0  501    0  0.00000000000E+00  0.00000000000E+00 -0.30914945559E+04  0.30914945559E+04  0.25500000920E-02 0. -1.
    10030    2    1    2    0    0  0.00000000000E+00  0.00000000000E+00 -0.18340500142E+04  0.43489390976E+04  0.39432894669E+04 0.  0.
        3    1    3    3  502    0 -0.15085998631E+04 -0.42728594084E+03  0.40132605877E+03  0.16184898634E+04  0.10100000352E+00 0.  1.
       -3    1    3    3    0  502  0.15085998631E+04  0.42728594084E+03 -0.22353760730E+04  0.27304492342E+04  0.10100000352E+00 0. -1.
</event>
<event>
 5   0  0.5735179E-07  0.3927053E+04  0.7818609E-02  0.8019426E-01
       -2   -1    0    0    0  501  0.00000000000E+00  0.00000000000E+00  0.26183442741E+04  0.26183442741E+04  0.25500000920E-02 0. -1.
        2   -1    0    0  501    0  0.00000000000E+00  0.00000000000E+00 -0.14724713570E+04  0.14724713570E+04  0.25500000920E-02 0.  1.
    10030    2    1    2    0    0  0.00000000000E+00  0.00000000000E+00  0.11458729171E+04  0.40908156311E+04  0.39270533209E+04 0.  0.
        5    1    3    3  502    0  0.14325009357E+04 -0.15609279807E+03 -0.81647213189E+03  0.16562224261E+04  0.46999998093E+01 0.  1.
       -5    1    3    3    0  502 -0.14325009357E+04  0.15609279807E+03  0.19623450490E+04  0.24345932050E+04  0.46999998093E+01 0. -1.
</event>
<event>
 5   0  0.5735179E-07  0.3923874E+04  0.7818609E-02  0.8020082E-01
        2   -1    0    0  501    0  0.00000000000E+00  0.00000000000E+00  0.16365280271E+04  0.16365280271E+04  0.25500000920E-02 0.  1.
       -2   -1    0    0    0  501  0.00000000000E+00  0.00000000000E+00 -0.23520506097E+04  0.23520506097E+04  0.25500000920E-02 0. -1.
    10030    2    1    2    0    0  0.00000000000E+00  0.00000000000E+00 -0.71552258253E+03  0.39885786368E+04  0.39238739755E+04 0.  0.
        5    1    3    3  502    0 -0.13872775370E+04  0.13485308669E+02  0.10523612567E+04  0.17413233826E+04  0.46999998093E+01 0.  1.
       -5    1    3    3    0  502  0.13872775370E+04 -0.13485308669E+02 -0.17678838392E+04  0.22472552542E+04  0.46999998093E+01 0. -1.
</event>
<event>
 5   0  0.3959190E-07  0.2742369E+04  0.7818609E-02  0.8321387E-01
        2   -1    0    0  501    0  0.00000000000E+00  0.00000000000E+00  0.23638418226E+04  0.23638418226E+04  0.25500000920E-02 0. -1.
       -2   -1    0    0    0  501  0.00000000000E+00  0.00000000000E+00 -0.79537752401E+03  0.79537752402E+03  0.25500000920E-02 0.  1.
    10030    2    1    2    0    0  0.00000000000E+00  0.00000000000E+00  0.15684642986E+04  0.31592193467E+04  0.27423687980E+04 0.  0.
        2    1    3    3  502    0  0.13155867864E+04 -0.32176529013E+03  0.10308932556E+04  0.17020700335E+04  0.25500000920E-02 0. -1.
       -2    1    3    3    0  502 -0.13155867864E+04  0.32176529013E+03  0.53757104304E+03  0.14571493132E+04  0.25500000920E-02 0.  1.
</event>
<event>
 5   0  0.3959190E-07  0.3838907E+04  0.7818609E-02  0.8037857E-01
       -2   -1    0    0    0  501  0.00000000000E+00  0.00000000000E+00  0.24212891236E+04  0.24212891236E+04  0.25500000920E-02 0.  1.
        2   -1    0    0  501    0  0.00000000000E+00  0.00000000000E+00 -0.15216284773E+04  0.15216284773E+04  0.25500000920E-02 0. -1.
    10030    2    1    2    0    0  0.00000000000E+00  0.00000000000E+00  0.89966064625E+03  0.39429176009E+04  0.38389073874E+04 0.  0.
        2    1    3    3  502    0  0.51597714656E+03 -0.17543469647E+04  0.10490202697E+04  0.21081767513E+04  0.25500000920E-02 0.  1.
       -2    1    3    3    0  502 -0.51597714656E+03  0.17543469647E+04 -0.14935962348E+03  0.18347408497E+04  0.25500000920E-02 0. -1.
</event>
<event>
 5   0  0.5872444E-07  0.2802693E+04  0.7818609E-02  0.8302433E-01
       -2   -1    0    0    0  501  0.00000000000E+00  0.00000000000E+00  0.14120643152E+04  0.14120643152E+04  0.25500000920E-02 0.  1.
        2   -1    0    0  501    0  0.00000000000E+00  0.00000000000E+00 -0.13907099581E+04  0.13907099581E+04  0.25500000920E-02 0. -1.
    10030    2    1    2    0    0  0.00000000000E+00  0.00000000000E+00  0.21354357136E+02  0.28027742733E+04  0.28026929226E+04 0.  0.
        3    1    3    3  502    0  0.18107763598E+03  0.13586778875E+04 -0.28083974235E+03  0.13991660671E+04  0.10100000352E+00 0.  1.
       -3    1    3    3    0  502 -0.18107763598E+03 -0.13586778875E+04  0.30219409948E+03  0.14036082061E+04  0.10100000352E+00 0. -1.
</event>
<event>
 5   0  0.5872444E-07  0.3960427E+04  0.7818609E-02  0.8012577E-01
        2   -1    0    0  501    0  0.00000000000E+00  0.00000000000E+00  0.23334260457E+04  0.23334260457E+04  0.25500000920E-02 0.  1.
       -2   -1    0    0    0  501  0.00000000000E+00  0.00000000000E+00 -0.16804673824E+04  0.16804673824E+04  0.25500000920E-02 0. -1.
    10030    2    1    2    0    0  0.00000000000E+00  0.00000000000E+00  0.65295866332E+03  0.40138934282E+04  0.39604274310E+04 0.  0.
        3    1    3    3  502    0  0.14752582591E+04 -0.12857881764E+04  0.19724852719E+02  0.19570455400E+04  0.10100000352E+00 0. -1.
       -3    1    3    3    0  502 -0.14752582591E+04  0.12857881764E+04  0.63323381060E+03  0.20568478881E+04  0.10100000352E+00 0.  1.
</event>
<event>
 5   0  0.6095665E-07  0.3895199E+04  0.7818609E-02  0.8026028E-01
        2   -1    0    0  501    0  0.00000000000E+00  0.00000000000E+00  0.22564326272E+04  0.22564326272E+04  0.25500000920E-02 0.  1.
       -2   -1    0    0    0  501  0.00000000000E+00  0.00000000000E+00 -0.16810359133E+04  0.16810359133E+04  0.25500000920E-02 0. -1.
    10030    2    1    2    0    0  0.00000000000E+00  0.00000000000E+00  0.57539671385E+03  0.39374685405E+04  0.38951992413E+04 0.  0.
        4    1    3    3  502    0  0.62219911606E+03 -0.18211197191E+04  0.59016756302E+03  0.20129352043E+04  0.12699999809E+01 0.  1.
       -4    1    3    3    0  502 -0.62219911606E+03  0.18211197191E+04 -0.14770849178E+02  0.19245333362E+04  0.12699999809E+01 0. -1.
</event>
<event>
 5   0  0.1860500E-07  0.3084999E+04  0.7818609E-02  0.8219867E-01
       -3   -1    0    0    0  501  0.00000000000E+00  0.00000000000E+00  0.14228250585E+04  0.14228250621E+04  0.10100000352E+00 0. -1.
        3   -1    0    0  501    0  0.00000000000E+00  0.00000000000E+00 -0.16722400656E+04  0.16722400687E+04  0.10100000352E+00 0.  1.
    10030    2    1    2    0    0  0.00000000000E+00  0.00000000000E+00 -0.24941500713E+03  0.30950651307E+04  0.30849992411E+04 0.  0.
        1    1    3    3  502    0  0.31368044198E+03  0.14914591587E+04  0.11367931389E+03  0.15283222266E+04  0.50400001928E-02 0. -1.
       -1    1    3    3    0  502 -0.31368044198E+03 -0.14914591587E+04 -0.36309432102E+03  0.15667429042E+04  0.50400001928E-02 0.  1.
</event>
<event>
 5   0  0.5805753E-07  0.3234651E+04  0.7818609E-02  0.8179725E-01
        2   -1    0    0  501    0  0.00000000000E+00  0.00000000000E+00  0.17967264927E+04  0.17967264927E+04  0.25500000920E-02 0. -1.
       -2   -1    0    0    0  501  0.00000000000E+00  0.00000000000E+00 -0.14558377662E+04  0.14558377662E+04  0.25500000920E-02 0.  1.
    10030    2    1    2    0    0  0.00000000000E+00  0.00000000000E+00  0.34088872649E+03  0.32525642588E+04  0.32346513157E+04 0.  0.
        1    1    3    3  502    0  0.15796782653E+04  0.23119789220E+03 -0.89650773638E+02  0.15990225604E+04  0.50400001928E-02 0.  1.
       -1    1    3    3    0  502 -0.15796782653E+04 -0.23119789220E+03  0.43053950013E+03  0.16535416985E+04  0.50400001928E-02 0. -1.
</event>
<event>
 5   0  0.5735179E-07  0.3837284E+04  0.7818609E-02  0.8038201E-01
        2   -1    0    0  501    0  0.00000000000E+00  0.00000000000E+00  0.19573317503E+04  0.19573317503E+04  0.25500000920E-02 0.  1.
       -2   -1    0    0    0  501  0.00000000000E+00  0.00000000000E+00 -0.18807168098E+04  0.18807168098E+04  0.25500000920E-02 0. -1.
    10030    2    1    2    0    0  0.00000000000E+00  0.00000000000E+00  0.76614940485E+02  0.38380485600E+04  0.38372837920E+04 0.  0.
        5    1    3    3  502    0 -0.12154023465E+04  0.12069125589E+04 -0.82634376491E+03  0.19017641537E+04  0.46999998093E+01 0. -1.
       -5    1    3    3    0  502  0.12154023465E+04 -0.12069125589E+04  0.90295870540E+03  0.19362844063E+04  0.46999998093E+01 0.  1.
</event>
<event>
 5   0  0.5872444E-07  0.3773582E+04  0.7818609E-02  0.8051848E-01
        2   -1    0    0  501    0  0.00000000000E+00  0.00000000000E+00  0.18007263376E+04  0.18007263376E+04  0.25500000920E-02 0. -1.
       -2   -1    0    0    0  501  0.00000000000E+00  0.00000000000E+00 -0.19769691772E+04  0.19769691772E+04  0.25500000920E-02 0.  1.
    10030    2    1    2    0    0  0.00000000000E+00  0.00000000000E+00 -0.17624283955E+03  0.37776955148E+04  0.37735820998E+04 0.  0.
        3    1    3    3  502    0  0.72740680999E+03  0.13190387712E+04 -0.12255802362E+04  0.19419142290E+04  0.10100000352E+00 0.  1.
       -3    1    3    3    0  502 -0.72740680999E+03 -0.13190387712E+04  0.10493373966E+04  0.18357812858E+04  0.10100000352E+00 0. -1.
</event>
<event>
 5   0  0.1860500E-07  0.3805560E+04  0.7818609E-02  0.8044963E-01
       -1   -1    0    0    0  501  0.00000000000E+00  0.00000000000E+00  0.24920995512E+04  0.24920995512E+04  0.50400001928E-02 0. -1.
        1   -1    0    0  501    0  0.00000000000E+00  0.00000000000E+00 -0.14528199291E+04  0.14528199291E+04  0.50400001928E-02 0.  1.
    10030    2    1    2    0    0  0.00000000000E+00  0.00000000000E+00  0.10392796222E+04  0.39449194803E+04  0.38055600866E+04 0.  0.
        4    1    3    3  502    0  0.11782143776E+04 -0.13021001207E+04  0.12792187410E+04  0.21725689964E+04  0.12699999809E+01 0. -1.
       -4    1    3    3    0  502 -0.11782143776E+04  0.13021001207E+04 -0.23993911884E+03  0.17723504839E+04  0.12699999809E+01 0.  1.
</event>
<event>
 5   0  0.2666813E-07  0.4008896E+04  0.7818609E-02  0.8002754E-01
        1   -1    0    0  501    0  0.00000000000E+00  0.00000000000E+00  0.18707664609E+04  0.18707664609E+04  0.50400001928E-02 0.  1.
       -1   -1    0    0    0  501  0.00000000000E+00  0.00000000000E+00 -0.21476819843E+04  0.21476819843E+04  0.50400001928E-02 0. -1.
    10030    2    1    2    0    0  0.00000000000E+00  0.00000000000E+00 -0.27691552343E+03  0.40184484452E+04  0.40088958205E+04 0.  0.
        1    1    3    3  502    0 -0.71874794050E+03 -0.17206571071E+04  0.59851654432E+03  0.19584385454E+04  0.50400001928E-02 0.  1.
       -1    1    3    3    0  502  0.71874794050E+03  0.17206571071E+04 -0.87543206775E+03  0.20600098998E+04  0.50400001928E-02 0. -1.
</event>
<event>
 5   0  0.1860500E-07  0.2884805E+04  0.7818609E-02  0.8277413E-01
        1   -1    0    0  501    0  0.00000000000E+00  0.00000000000E+00  0.15851058115E+04  0.15851058115E+04  0.50400001928E-02 0.  1.
       -1   -1    0    0    0  501  0.00000000000E+00  0.00000000000E+00 -0.13125460037E+04  0.13125460037E+04  0.50400001928E-02 0. -1.
    10030    2    1    2    0    0  0.00000000000E+00  0.00000000000E+00  0.27255980786E+03  0.28976518152E+04  0.28848045330E+04 0.  0.
        5    1    3    3  502    0  0.10974341661E+04  0.88122253230E+03  0.45325986187E+03  0.14786417730E+04  0.46999998093E+01 0.  1.
       -5    1    3    3    0  502 -0.10974341661E+04 -0.88122253230E+03 -0.18070005401E+03  0.14190100422E+04  0.46999998093E+01 0. -1.
</event>
<event>
 5   0  0.6095665E-07  0.3907093E+04  0.7818609E-02  0.8023556E-01
        2   -1    0    0  501    0  0.00000000000E+00  0.00000000000E+00  0.23811886614E+04  0.23811886614E+04  0.25500000920E-02 0.  1.
       -2   -1    0    0    0  501  0.00000000000E+00  0.00000000000E+00 -0.16027052454E+04  0.16027052454E+04  0.25500000920E-02 0. -1.
    10030    2    1    2    0    0  0.00000000000E+00  0.00000000000E+00  0.77848341595E+03  0.39838939068E+04  0.39070928107E+04 0.  0.
        4    1    3    3  502    0 -0.53947644631E+03  0.27621515614E+03 -0.15044156863E+04  0.16219117789E+04  0.12699999809E+01 0. -1.
       -4    1    3    3    0  502  0.53947644631E+03 -0.27621515614E+03  0.22828991022E+04  0.23619821279E+04  0.12699999809E+01 0.  1.
</event>
<event>
 5   0  0.1943459E-07  0.2539255E+04  0.7818609E-02  0.8389133E-01
       -1   -1    0    0    0  501  0.00000000000E+00  0.00000000000E+00  0.99641735842E+03  0.99641735843E+03  0.50400001928E-02 0.  1.
        1   -1    0    0  501    0  0.00000000000E+00  0.00000000000E+00 -0.16177501771E+04  0.16177501771E+04  0.50400001928E-02 0. -1.
    10030    2    1    2    0    0  0.00000000000E+00  0.00000000000E+00 -0.62133281870E+03  0.26141675356E+04  0.25392552909E+04 0.  0.
        2    1    3    3  502    0  0.66339124059E+03  0.53424307953E+03 -0.12799578045E+04  0.15374640118E+04  0.25500000920E-02 0. -1.
       -2    1    3    3    0  502 -0.66339124059E+03 -0.53424307953E+03  0.65862498584E+03  0.10767035238E+04  0.25500000920E-02 0.  1.
</event>
<event>
 5   0  0.3959190E-07  0.3975838E+04  0.7818609E-02  0.8009439E-01
       -2   -1    0    0    0  501  0.00000000000E+00  0.00000000000E+00  0.21227054209E+04  0.21227054209E+04  0.25500000920E-02 0.  1.
        2   -1    0    0  501    0  0.00000000000E+00  0.00000000000E+00 -0.18616913401E+04  0.18616913401E+04  0.25500000920E-02 0. -1.
    10030    2    1    2    0    0  0.00000000000E+00  0.00000000000E+00  0.26101408080E+03  0.39843967609E+04  0.39758381755E+04 0.  0.
        2    1    3    3  502    0 -0.19521232070E+04  0.69618830592E+00  0.50686412934E+03  0.20168531790E+04  0.25500000920E-02 0. -1.
       -2    1    3    3    0  502  0.19521232070E+04 -0.69618830592E+00 -0.24585004854E+03  0.19675435819E+04  0.25500000920E-02 0.  1.
</event>
<event>
 5   0  0.5805753E-07  0.3890352E+04  0.7818609E-02  0.8027039E-01
       -2   -1    0    0    0  501  0.00000000000E+00  0.00000000000E+00  0.17732207841E+04  0.17732207841E+04  0.25500000920E-02 0. -1.
        2   -1    0    0  501    0  0.00000000000E+00  0.00000000000E+00 -0.21338058910E+04  0.21338058911E+04  0.25500000920E-02 0.  1.
    10030    2    1    2    0    0  0.00000000000E+00  0.00000000000E+00 -0.36058510699E+03  0.39070266751E+04  0.38903516320E+04 0.  0.
        1    1    3    3  502    0 -0.18184742604E+04 -0.55154399310E+03 -0.59759680861E+03  0.19920269470E+04  0.50400001928E-02 0.  1.
       -1    1    3    3    0  502  0.18184742604E+04  0.55154399310E+03  0.23701170162E+03  0.19149997281E+04  0.50400001928E-02 0. -1.
</event>
<event>
 5   0  0.5735179E-07  0.3395014E+04  0.7818609E-02  0.8139131E-01
       -2   -1    0    0    0  501  0.00000000000E+00  0.00000000000E+00  0.15674948401E+04  0.15674948401E+04  0.25500000920E-02 0. -1.
        2   -1    0    0  501    0  0.00000000000E+00  0.00000000000E+00 -0.18383022149E+04  0.18383022149E+04  0.25500000920E-02 0.  1.
    10030    2    1    2    0    0  0.00000000000E+00  0.00000000000E+00 -0.27080737482E+03  0.34057970550E+04  0.33950135413E+04 0.  0.
        5    1    3    3  502    0 -0.12408370160E+04  0.43034039582E+03 -0.12142906463E+04  0.17886847738E+04  0.46999998093E+01 0.  1.
       -5    1    3    3    0  502  0.12408370160E+04 -0.43034039582E+03  0.94348327147E+03  0.16171122812E+04  0.46999998093E+01 0. -1.
</event>
<event>
 5   0  0.5735179E-07  0.3863895E+04  0.7818609E-02  0.8032581E-01
        2   -1    0    0  501    0  0.00000000000E+00  0.00000000000E+00  0.30192378775E+04  0.30192378775E+04  0.25500000920E-02 0. -1.
       -2   -1    0    0    0  501  0.00000000000E+00  0.00000000000E+00 -0.12362127120E+04  0.12362127120E+04  0.25500000920E-02 0.  1.
    10030    2    1    2    0    0  0.00000000000E+00  0.00000000000E+00  0.17830251655E+04  0.42554505895E+04  0.38638945352E+04 0.  0.
        5    1    3    3  502    0 -0.10069118279E+04 -0.16184251710E+04  0.54458842384E+03  0.19823647759E+04  0.46999998093E+01 0.  1.
       -5    1    3    3    0  502  0.10069118279E+04  0.16184251710E+04  0.12384367416E+04  0.22730858136E+04  0.46999998093E+01 0. -1.
</event>
<event>
 5   0  0.1860500E-07  0.2539023E+04  0.7818609E-02  0.8389214E-01
        1   -1    0    0  501    0  0.00000000000E+00  0.00000000000E+00  0.22581610816E+04  0.22581610816E+04  0.50400001928E-02 0.  1.
       -1   -1    0    0    0  501  0.00000000000E+00  0.00000000000E+00 -0.71370425954E+03  0.71370425956E+03  0.50400001928E-02 0. -1.
    10030    2    1    2    0    0  0.00000000000E+00  0.00000000000E+00  0.15444568221E+04  0.29718653412E+04  0.25390227905E+04 0.  0.
        4    1    3    3  502    0  0.39836687345E+03 -0.12050042592E+04  0.80784896666E+03  0.15044444145E+04  0.12699999809E+01 0. -1.
       -4    1    3    3    0  502 -0.39836687345E+03  0.12050042592E+04  0.73660785541E+03  0.14674209267E+04  0.12699999809E+01 0.  1.
</event>
<event>
 5   0  0.6095665E-07  0.3878475E+04  0.7818609E-02  0.8029521E-01
        2   -1    0    0  501    0  0.00000000000E+00  0.00000000000E+00  0.24404854348E+04  0.24404854348E+04  0.25500000920E-02 0. -1.
       -2   -1    0    0    0  501  0.00000000000E+00  0.00000000000E+00 -0.15409405297E+04  0.15409405297E+04  0.25500000920E-02 0.  1.
    10030    2    1    2    0    0  0.00000000000E+00  0.00000000000E+00  0.89954490513E+03  0.39814259645E+04  0.38784754317E+04 0.  0.
        4    1    3    3  502    0  0.75469618948E+03 -0.16187237091E+04  0.12253457057E+04  0.21659424037E+04  0.12699999809E+01 0. -1.
       -4    1    3    3    0  502 -0.75469618948E+03  0.16187237091E+04 -0.32580080053E+03  0.18154835608E+04  0.12699999809E+01 0.  1.
</event>
<event>
 5   0  0.5805753E-07  0.3809865E+04  0.7818609E-02  0.8044041E-01
        2   -1    0    0  501    0  0.00000000000E+00  0.00000000000E+00  0.22743536182E+04  0.22743536182E+04  0.25500000920E-02 0. -1.
       -2   -1    0    0    0  501  0.00000000000E+00  0.00000000000E+00 -0.15955164505E+04  0.15955164505E+04  0.25500000920E-02 0.  1.
    10030    2    1    2    0    0  0.00000000000E+00  0.00000000000E+00  0.67883716771E+03  0.38698700686E+04  0.38098654107E+04 0.  0.
        1    1    3    3  502    0 -0.11889398580E+04 -0.46892140714E+03  0.17742180773E+04  0.21866218370E+04  0.50400001928E-02 0. -1.
       -1    1    3    3    0  502  0.11889398580E+04  0.46892140714E+03 -0.10953809096E+04  0.16832482316E+04  0.50400001928E-02 0.  1.
</event>
<event>
 5   0  0.4002248E-07  0.2402355E+04  0.7818609E-02  0.8438622E-01
        1   -1    0    0  501    0  0.00000000000E+00  0.00000000000E+00  0.13158478120E+04  0.13158478120E+04  0.50400001928E-02 0. -1.
       -1   -1    0    0    0  501  0.00000000000E+00  0.00000000000E+00 -0.10965005720E+04  0.10965005720E+04  0.50400001928E-02 0.  1.
    10030    2    1    2    0    0  0.00000000000E+00  0.00000000000E+00  0.21934724003E+03  0.24123483840E+04  0.24023554096E+04 0.  0.
        1    1    3    3  502    0  0.56267010881E+03  0.17418352802E+03 -0.94152871219E+03  0.11105916750E+04  0.50400001928E-02 0.  1.
       -1    1    3    3    0  502 -0.56267010881E+03 -0.17418352802E+03  0.11608759522E+04  0.13017567089E+04  0.50400001928E-02 0. -1.
</event>
<event>
 5   0  0.2666813E-07  0.2525856E+04  0.7818609E-02  0.8393832E-01
        1   -1    0    0  501    0  0.00000000000E+00  0.00000000000E+00  0.10236219255E+04  0.10236219255E+04  0.50400001928E-02 0. -1.
       -1   -1    0    0    0  501  0.00000000000E+00  0.00000000000E+00 -0.15581804932E+04  0.15581804932E+04  0.50400001928E-02 0.  1.
    10030    2    1    2    0    0  0.00000000000E+00  0.00000000000E+00 -0.53455856772E+03  0.25818024187E+04  0.25258564621E+04 0.  0.
        1    1    3    3  502    0 -0.46674910765E+03 -0.89833253808E+03  0.50451562108E+03  0.11311021574E+04  0.50400001928E-02 0. -1.
       -1    1    3    3    0  502  0.46674910765E+03  0.89833253808E+03 -0.10390741888E+04  0.14507002614E+04  0.50400001928E-02 0.  1.
</event>
<event>
 5   0  0.1943459E-07  0.3886591E+04  0.7818609E-02  0.8027824E-01
       -1   -1    0    0    0  501  0.00000000000E+00  0.00000000000E+00  0.32611910427E+04  0.32611910427E+04  0.50400001928E-02 0. -1.
        1   -1    0    0  501    0  0.00000000000E+00  0.00000000000E+00 -0.11579807918E+04  0.11579807918E+04  0.50400001928E-02 0.  1.
    10030    2    1    2    0    0  0.00000000000E+00  0.00000000000E+00  0.21032102509E+04  0.44191718346E+04  0.38865905809E+04 0.  0.
        2    1    3    3  502    0  0.44067837658E+03  0.29894780603E+03  0.31766141552E+04  0.32209384833E+04  0.25500000920E-02 0. -1.
       -2    1    3    3    0  502 -0.44067837658E+03 -0.29894780603E+03 -0.10734039043E+04  0.11982333513E+04  0.25500000920E-02 0.  1.
</event>
<event>
 5   0  0.2352958E-07  0.2400109E+04  0.7818609E-02  0.8439463E-01
        1   -1    0    0  501    0  0.00000000000E+00  0.00000000000E+00  0.10006362777E+04  0.10006362777E+04  0.50400001928E-02 0. -1.
       -1   -1    0    0    0  501  0.00000000000E+00  0.00000000000E+00 -0.14392145694E+04  0.14392145694E+04  0.50400001928E-02 0.  1.
    10030    2    1    2    0    0  0.00000000000E+00  0.00000000000E+00 -0.43857829170E+03  0.24398508472E+04  0.24001085889E+04 0.  0.
        2    1    3    3  502    0 -0.11887376507E+03 -0.56517845066E+03  0.85006696137E+03  0.10277020443E+04  0.25500000920E-02 0. -1.
       -2    1    3    3    0  502  0.11887376507E+03  0.56517845066E+03 -0.12886452531E+04  0.14121488028E+04  0.25500000920E-02 0.  1.
</event>
<event>
 5   0  0.5872444E-07  0.3476476E+04  0.7818609E-02  0.8119388E-01
       -2   -1    0    0    0  501  0.00000000000E+00  0.00000000000E+00  0.11113341396E+04  0.11113341396E+04  0.25500000920E-02 0.  1.
        2   -1    0    0  501    0  0.00000000000E+00  0.00000000000E+00 -0.27187784994E+04  0.27187784994E+04  0.25500000920E-02 0. -1.
    10030    2    1    2    0    0  0.00000000000E+00  0.00000000000E+00 -0.16074443598E+04  0.38301126391E+04  0.34764760114E+04 0.  0.
        3    1    3    3  502    0  0.10397894239E+04 -0.93381345206E+03  0.33500392855E+03  0.14371490012E+04  0.10100000352E+00 0.  1.
       -3    1    3    3    0  502 -0.10397894239E+04  0.93381345206E+03 -0.19424482883E+04  0.23929636379E+04  0.10100000352E+00 0. -1.
</event>
<event>
 5   0  0.1860500E-07  0.2626440E+04  0.7818609E-02  0.8359275E-01
        1   -1    0    0  501    0  0.00000000000E+00  0.00000000000E+00  0.19823437469E+04  0.19823437469E+04  0.50400001928E-02 0. -1.
       -1   -1    0    0    0  501  0.00000000000E+00  0.00000000000E+00 -0.86995345349E+03  0.86995345350E+03  0.50400001928E-02 0.  1.
    10030    2    1    2    0    0  0.00000000000E+00  0.00000000000E+00  0.11123902934E+04  0.28522972004E+04  0.26264400154E+04 0.  0.
        5    1    3    3  502    0  0.10340479912E+04  0.13004356087E+03  0.14238749400E+04  0.17645420116E+04  0.46999998093E+01 0. -1.
       -5    1    3    3    0  502 -0.10340479912E+04 -0.13004356087E+03 -0.31148464664E+03  0.10877551888E+04  0.46999998093E+01 0.  1.
</event>
<event>
 5   0  0.1876027E-07  0.3918482E+04  0.7818609E-02  0.8021196E-01
        1   -1    0    0  501    0  0.00000000000E+00  0.00000000000E+00  0.20370001300E+04  0.20370001300E+04  0.50400001928E-02 0.  1.
       -1   -1    0    0    0  501  0.00000000000E+00  0.00000000000E+00 -0.18844500327E+04  0.18844500327E+04  0.50400001928E-02 0. -1.
    10030    2    1    2    0    0  0.00000000000E+00  0.00000000000E+00  0.15255009726E+03  0.39214501628E+04  0.39184818293E+04 0.  0.
        3    1    3    3  502    0  0.19575955300E+04 -0.18762917614E+02 -0.18394789384E+01  0.19576863130E+04  0.10100000352E+00 0. -1.
       -3    1    3    3    0  502 -0.19575955300E+04  0.18762917614E+02  0.15438957619E+03  0.19637638498E+04  0.10100000352E+00 0.  1.
</event>
<event>
 5   0  0.1860500E-07  0.3215362E+04  0.7818609E-02  0.8184772E-01
        1   -1    0    0  501    0  0.00000000000E+00  0.00000000000E+00  0.20053544481E+04  0.20053544481E+04  0.50400001928E-02 0.  1.
       -1   -1    0    0    0  501  0.00000000000E+00  0.00000000000E+00 -0.12888688306E+04  0.12888688306E+04  0.50400001928E-02 0. -1.
    10030    2    1    2    0    0  0.00000000000E+00  0.00000000000E+00  0.71648561744E+03  0.32942232787E+04  0.32153624010E+04 0.  0.
        5    1    3    3  502    0 -0.10572590043E+04  0.82324132236E+03 -0.55185368070E+03  0.14491678481E+04  0.46999998093E+01 0.  1.
       -5    1    3    3    0  502  0.10572590043E+04 -0.82324132236E+03  0.12683392981E+04  0.18450554306E+04  0.46999998093E+01 0. -1.
</event>
<event>
 5   0  0.1860500E-07  0.3847343E+04  0.7818609E-02  0.8036071E-01
        1   -1    0    0  501    0  0.00000000000E+00  0.00000000000E+00  0.18740940698E+04  0.18740940698E+04  0.50400001928E-02 0. -1.
       -1   -1    0    0    0  501  0.00000000000E+00  0.00000000000E+00 -0.19745605430E+04  0.19745605430E+04  0.50400001928E-02 0.  1.
    10030    2    1    2    0    0  0.00000000000E+00  0.00000000000E+00 -0.10046647316E+03  0.38486546128E+04  0.38473430853E+04 0.  0.
        4    1    3    3  502    0 -0.60760769392E+03 -0.81701872365E+03 -0.16829059942E+04  0.19669471022E+04  0.12699999809E+01 0.  1.
       -4    1    3    3    0  502  0.60760769392E+03  0.81701872365E+03  0.15824395211E+04  0.18817075106E+04  0.12699999809E+01 0. -1.
</event>
<event>
 5   0  0.3959190E-07  0.3645734E+04  0.7818609E-02  0.8080095E-01
        2   -1    0    0  501    0  0.00000000000E+00  0.00000000000E+00  0.18295880436E+04  0.18295880436E+04  0.25500000920E-02 0. -1.
       -2   -1    0    0    0  501  0.00000000000E+00  0.00000000000E+00 -0.18161711204E+04  0.18161711204E+04  0.25500000920E-02 0.  1.
    10030    2    1    2    0    0  0.00000000000E+00  0.00000000000E+00  0.13416923176E+02  0.36457591639E+04  0.36457344757E+04 0.  0.
        2    1    3    3  502    0 -0.14419559638E+04 -0.91178660444E+03 -0.63536531677E+03  0.18205166572E+04  0.25500000920E-02 0.  1.
       -2    1    3    3    0  502  0.14419559638E+04  0.91178660444E+03  0.64878223994E+03  0.18252425067E+04  0.25500000920E-02 0. -1.
</event>
<event>
 5   0  0.5805753E-07  0.3088840E+04  0.7818609E-02  0.8218807E-01
        2   -1    0    0  501    0  0.00000000000E+00  0.00000000000E+00  0.20201445281E+04  0.20201445281E+04  0.25500000920E-02 0. -1.
       -2   -1    0    0    0  501  0.00000000000E+00  0.00000000000E+00 -0.11807240700E+04  0.11807240700E+04  0.25500000920E-02 0.  1.
    10030    2    1    2    0    0  0.00000000000E+00  0.00000000000E+00  0.83942045811E+03  0.32008685980E+04  0.30888400859E+04 0.  0.
        1    1    3    3  502    0 -0.10514060932E+04  0.36633608380E+03 -0.68942485856E+03  0.13095661628E+04  0.50400001928E-02 0.  1.
       -1    1    3    3    0  502  0.10514060932E+04 -0.36633608380E+03  0.15288453167E+04  0.18913024352E+04  0.50400001928E-02 0. -1.
</event>
<event>
 5   0  0.1860500E-07  0.3911969E+04  0.7818609E-02  0.8022544E-01
       -1   -1    0    0    0  501  0.00000000000E+00  0.00000000000E+00  0.18711537927E+04  0.18711537927E+04  0.50400001928E-02 0. -1.
        1   -1    0    0  501    0  0.00000000000E+00  0.00000000000E+00 -0.20446611780E+04  0.20446611781E+04  0.50400001928E-02 0.  1.
    10030    2    1    2    0    0  0.00000000000E+00  0.00000000000E+00 -0.17350738539E+03  0.39158149707E+04  0.39119690786E+04 0.  0.
        5    1    3    3  502    0  0.15481330551E+04  0.11851861899E+04 -0.24334011145E+03  0.19648457346E+04  0.46999998093E+01 0. -1.
       -5    1    3    3    0  502 -0.15481330551E+04 -0.11851861899E+04  0.69832726061E+02  0.19509692362E+04  0.46999998093E+01 0.  1.
</event>
<event>
 5   0  0.1943459E-07  0.3957626E+04  0.7818609E-02  0.8013150E-01
        1   -1    0    0  501    0  0.00000000000E+00  0.00000000000E+00  0.31315378136E+04  0.31315378136E+04  0.50400001928E-02 0.  1.
       -1   -1    0    0    0  501  0.00000000000E+00  0.00000000000E+00 -0.12504085422E+04  0.12504085422E+04  0.50400001928E-02 0. -1.
    10030    2    1    2    0    0  0.00000000000E+00  0.00000000000E+00  0.18811292714E+04  0.43819463557E+04  0.39576263756E+04 0.  0.
        2    1    3    3  502    0  0.80820218489E+03  0.15734275294E+04  0.19227072628E+04  0.26125979753E+04  0.25500000920E-02 0.  1.
       -2    1    3    3    0  502 -0.80820218489E+03 -0.15734275294E+04 -0.41577991430E+02  0.17693483804E+04  0.25500000920E-02 0. -1.
</event>
<event>
 5   0  0.1876027E-07  0.4317908E+04  0.7818609E-02  0.7943315E-01
       -1   -1    0    0    0  501  0.00000000000E+00  0.00000000000E+00  0.24764591584E+04  0.24764591584E+04  0.50400001928E-02 0.  1.
        1   -1    0    0  501    0  0.00000000000E+00  0.00000000000E+00 -0.18821558264E+04  0.18821558265E+04  0.50400001928E-02 0. -1.
    10030    2    1    2    0    0  0.00000000000E+00  0.00000000000E+00  0.59430333191E+03  0.43586149848E+04  0.43179078424E+04 0.  0.
        3    1    3    3  502    0 -0.34798113008E+03  0.67791237944E+03 -0.17418984020E+04  0.19012801251E+04  0.10100000352E+00 0. -1.
       -3    1    3    3    0  502  0.34798113008E+03 -0.67791237944E+03  0.23362017339E+04  0.24573348597E+04  0.10100000352E+00 0.  1.
</event>
<event>
 5   0  0.3959190E-07  0.3838795E+04  0.7818609E-02  0.8037880E-01
       -2   -1    0    0    0  501  0.00000000000E+00  0.00000000000E+00  0.17412812192E+04  0.17412812192E+04  0.25500000920E-02 0.  1.
        2   -1    0    0  501    0  0.00000000000E+00  0.00000000000E+00 -0.21157332621E+04  0.21157332621E+04  0.25500000920E-02 0. -1.
    10030    2    1    2    0    0  0.00000000000E+00  0.00000000000E+00 -0.37445204288E+03  0.38570144813E+04  0.38387949120E+04 0.  0.
        2    1    3    3  502    0  0.50045132863E+03  0.41843220704E+03 -0.20009388449E+04  0.21045886309E+04  0.25500000920E-02 0. -1.
       -2    1    3    3    0  502 -0.50045132863E+03 -0.41843220704E+03  0.16264868020E+04  0.17524258504E+04  0.25500000920E-02 0.  1.
</event>
<event>
 5   0  0.5805753E-07  0.3878639E+04  0.7818609E-02  0.8029487E-01
        2   -1    0    0  501    0  0.00000000000E+00  0.00000000000E+00  0.19469475207E+04  0.19469475207E+04  0.25500000920E-02 0.  1.
       -2   -1    0    0    0  501  0.00000000000E+00  0.00000000000E+00 -0.19317216348E+04  0.19317216348E+04  0.25500000920E-02 0. -1.
    10030    2    1    2    0    0  0.00000000000E+00  0.00000000000E+00  0.15225885834E+02  0.38786691555E+04  0.38786392704E+04 0.  0.
        1    1    3    3  502    0 -0.41711742956E+03 -0.86131870405E+03  0.16943694846E+04  0.19459560145E+04  0.50400001928E-02 0.  1.
       -1    1    3    3    0  502  0.41711742956E+03  0.86131870405E+03 -0.16791435988E+04  0.19327131410E+04  0.50400001928E-02 0. -1.
</event>
<event>
 5   0  0.1860500E-07  0.2414919E+04  0.7818609E-02  0.8433939E-01
       -1   -1    0    0    0  501  0.00000000000E+00  0.00000000000E+00  0.20426436762E+04  0.20426436762E+04  0.50400001928E-02 0.  1.
        1   -1    0    0  501    0  0.00000000000E+00  0.00000000000E+00 -0.71376050115E+03  0.71376050117E+03  0.50400001928E-02 0. -1.
    10030    2    1    2    0    0  0.00000000000E+00  0.00000000000E+00  0.13288831751E+04  0.27564041774E+04  0.24149189419E+04 0.  0.
        4    1    3    3  502    0 -0.90106045264E+03  0.80372232263E+03  0.67447363058E+03  0.13830386121E+04  0.12699999809E+01 0. -1.
       -4    1    3    3    0  502  0.90106045264E+03 -0.80372232263E+03  0.65440954448E+03  0.13733655653E+04  0.12699999809E+01 0.  1.
</event>
<event>
 5   0  0.3959190E-07  0.3999207E+04  0.7818609E-02  0.8004707E-01
        2   -1    0    0  501    0  0.00000000000E+00  0.00000000000E+00  0.26080568227E+04  0.26080568227E+04  0.25500000920E-02 0.  1.
       -2   -1    0    0    0  501  0.00000000000E+00  0.00000000000E+00 -0.15331007984E+04  0.15331007984E+04  0.25500000920E-02 0. -1.
    10030    2    1    2    0    0  0.00000000000E+00  0.00000000000E+00  0.10749560243E+04  0.41411576211E+04  0.39992069200E+04 0.  0.
        2    1    3    3  502    0 -0.73593860101E+03  0.16873618548E+04  0.13459721942E+04  0.22804466232E+04  0.25500000920E-02 0. -1.
       -2    1    3    3    0  502  0.73593860101E+03 -0.16873618548E+04 -0.27101616989E+03  0.18607109980E+04  0.25500000920E-02 0.  1.
</event>
<event>
 5   0  0.1943459E-07  0.4108865E+04  0.7818609E-02  0.7982938E-01
       -1   -1    0    0    0  501  0.00000000000E+00  0.00000000000E+00  0.18477491112E+04  0.18477491112E+04  0.50400001928E-02 0.  1.
        1   -1    0    0  501    0  0.00000000000E+00  0.00000000000E+00 -0.22842346794E+04  0.22842346794E+04  0.50400001928E-02 0. -1.
    10030    2    1    2    0    0  0.00000000000E+00  0.00000000000E+00 -0.43648556824E+03  0.41319837906E+04  0.41088648547E+04 0.  0.
        2    1    3    3  502    0  0.16078081689E+04  0.89043795576E+03  0.70494529448E+03  0.19684701494E+04  0.25500000920E-02 0.  1.
       -2    1    3    3    0  502 -0.16078081689E+04 -0.89043795576E+03 -0.11414308627E+04  0.21635136411E+04  0.25500000920E-02 0. -1.
</event>
<event>
 5   0  0.1876027E-07  0.3881901E+04  0.7818609E-02  0.8028804E-01
       -1   -1    0    0    0  501  0.00000000000E+00  0.00000000000E+00  0.19236677521E+04  0.19236677522E+04  0.50400001928E-02 0.  1.
        1   -1    0    0  501    0  0.00000000000E+00  0.00000000000E+00 -0.19583880568E+04  0.19583880568E+04  0.50400001928E-02 0. -1.
    10030    2    1    2    0    0  0.00000000000E+00  0.00000000000E+00 -0.34720304653E+02  0.38820558090E+04  0.38819005402E+04 0.  0.
        3    1    3    3  502    0 -0.11200923387E+04  0.12959316050E+04  0.89549746321E+03  0.19328634947E+04  0.10100000352E+00 0.  1.
       -3    1    3    3    0  502  0.11200923387E+04 -0.12959316050E+04 -0.93021776786E+03  0.19491923143E+04  0.10100000352E+00 0. -1.
</event>
<event>
 5   0  0.5735179E-07  0.3873926E+04  0.7818609E-02  0.8030474E-01
       -2   -1    0    0    0  501  0.00000000000E+00  0.00000000000E+00  0.15462338073E+04  0.15462338073E+04  0.25500000920E-02 0. -1.
        2   -1    0    0  501    0  0.00000000000E+00  0.00000000000E+00 -0.24264290471E+04  0.24264290471E+04  0.25500000920E-02 0.  1.
    10030    2    1    2    0    0  0.00000000000E+00  0.00000000000E+00 -0.88019523987E+03  0.39726628544E+04  0.38739264957E+04 0.  0.
        5    1    3    3  502    0  0.24409815484E+03 -0.86420303407E+02  0.15283980974E+04  0.15501855413E+04  0.46999998093E+01 0. -1.
       -5    1    3    3    0  502 -0.24409815484E+03  0.86420303407E+02 -0.24085933373E+04  0.24224773131E+04  0.46999998093E+01 0.  1.
</event>
<event>
 5   0  0.3959190E-07  0.3840030E+04  0.7818609E-02  0.8037619E-01
        2   -1    0    0  501    0  0.00000000000E+00  0.00000000000E+00  0.21275362612E+04  0.21275362612E+04  0.25500000920E-02 0.  1.
       -2   -1    0    0    0  501  0.00000000000E+00  0.00000000000E+00 -0.17327351807E+04  0.17327351807E+04  0.25500000920E-02 0. -1.
    10030    2    1    2    0    0  0.00000000000E+00  0.00000000000E+00  0.39480108052E+03  0.38602714419E+04  0.38400296499E+04 0.  0.
        2    1    3    3  502    0 -0.57750020877E+03  0.14502070778E+04  0.13212604792E+04  0.20450761144E+04  0.25500000920E-02 0.  1.
       -2    1    3    3    0  502  0.57750020877E+03 -0.14502070778E+04 -0.92645939871E+03  0.18151953275E+04  0.25500000920E-02 0. -1.
</event>
<event>
 5   0  0.1860500E-07  0.2465967E+04  0.7818609E-02  0.8415211E-01
       -3   -1    0    0    0  501  0.00000000000E+00  0.00000000000E+00  0.11613634703E+04  0.11613634747E+04  0.10100000352E+00 0. -1.
        3   -1    0    0  501    0  0.00000000000E+00  0.00000000000E+00 -0.13090201374E+04  0.13090201413E+04  0.10100000352E+00 0.  1.
    10030    2    1    2    0    0  0.00000000000E+00  0.00000000000E+00 -0.14765666709E+03  0.24703836161E+04  0.24659668934E+04 0.  0.
        4    1    3    3  502    0 -0.44167088388E+02 -0.11491758478E+04  0.37159225031E+03  0.12085686883E+04  0.12699999809E+01 0. -1.
       -4    1    3    3    0  502  0.44167088388E+02  0.11491758478E+04 -0.51924891740E+03  0.12618149278E+04  0.12699999809E+01 0.  1.
</event>
<event>
 5   0  0.1860500E-07  0.3800386E+04  0.7818609E-02  0.8046072E-01
       -1   -1    0    0    0  501  0.00000000000E+00  0.00000000000E+00  0.19315426431E+04  0.19315426431E+04  0.50400001928E-02 0.  1.
        1   -1    0    0  501    0  0.00000000000E+00  0.00000000000E+00 -0.18693524155E+04  0.18693524155E+04  0.50400001928E-02 0. -1.
    10030    2    1    2    0    0  0.00000000000E+00  0.00000000000E+00  0.62190227580E+02  0.38008950586E+04  0.38003862464E+04 0.  0.
        5    1    3    3  502    0  0.79102597105E+03 -0.15308801802E+02  0.17589708751E+04  0.19287190246E+04  0.46999998093E+01 0.  1.
       -5    1    3    3    0  502 -0.79102597105E+03  0.15308801802E+02 -0.16967806475E+04  0.18721760340E+04  0.46999998093E+01 0. -1.
</event>
<event>
 5   0  0.5735179E-07  0.3960527E+04  0.7818609E-02  0.8012557E-01
       -2   -1    0    0    0  501  0.00000000000E+00  0.00000000000E+00  0.15157464270E+04  0.15157464270E+04  0.25500000920E-02 0.  1.
        2   -1    0    0  501    0  0.00000000000E+00  0.00000000000E+00 -0.25871363414E+04  0.25871363414E+04  0.25500000920E-02 0. -1.
    10030    2    1    2    0    0  0.00000000000E+00  0.00000000000E+00 -0.10713899144E+04  0.41028827685E+04  0.39605265639E+04 0.  0.
        5    1    3    3  502    0  0.18581922997E+04  0.59529311357E+03 -0.88572755571E+03  0.21428457496E+04  0.46999998093E+01 0. -1.
       -5    1    3    3    0  502 -0.18581922997E+04 -0.59529311357E+03 -0.18566235870E+03  0.19600370188E+04  0.46999998093E+01 0.  1.
</event>
<event>
 5   0  0.2666813E-07  0.3920347E+04  0.7818609E-02  0.8020811E-01
       -1   -1    0    0    0  501  0.00000000000E+00  0.00000000000E+00  0.17632845801E+04  0.17632845801E+04  0.50400001928E-02 0.  1.
        1   -1    0    0  501    0  0.00000000000E+00  0.00000000000E+00 -0.21790475169E+04  0.21790475169E+04  0.50400001928E-02 0. -1.
    10030    2    1    2    0    0  0.00000000000E+00  0.00000000000E+00 -0.41576293680E+03  0.39423320971E+04  0.39203473754E+04 0.  0.
        1    1    3    3  502    0  0.18841647549E+04 -0.39921641223E+03  0.15862130222E+03  0.19325142393E+04  0.50400001928E-02 0.  1.
       -1    1    3    3    0  502 -0.18841647549E+04  0.39921641223E+03 -0.57438423902E+03  0.20098178578E+04  0.50400001928E-02 0. -1.
</event>
<event>
 5   0  0.3959190E-07  0.3894478E+04  0.7818609E-02  0.8026179E-01
       -2   -1    0    0    0  501  0.00000000000E+00  0.00000000000E+00  0.12249291081E+04  0.12249291081E+04  0.25500000920E-02 0.  1.
        2   -1    0    0  501    0  0.00000000000E+00  0.00000000000E+00 -0.30954771373E+04  0.30954771373E+04  0.25500000920E-02 0. -1.
    10030    2    1    2    0    0  0.00000000000E+00  0.00000000000E+00 -0.18705480292E+04  0.43204062454E+04  0.38944781673E+04 0.  0.
        2    1    3    3  502    0  0.26822869356E+02  0.12040550225E+04  0.76219265414E+03  0.14252738703E+04  0.25500000920E-02 0. -1.
       -2    1    3    3    0  502 -0.26822869356E+02 -0.12040550225E+04 -0.26327406833E+04  0.28951323750E+04  0.25500000920E-02 0.  1.
</event>
<event>
 5   0  0.2666813E-07  0.3981840E+04  0.7818609E-02  0.8008220E-01
        1   -1    0    0  501    0  0.00000000000E+00  0.00000000000E+00  0.21245822576E+04  0.21245822576E+04  0.50400001928E-02 0.  1.
       -1   -1    0    0    0  501  0.00000000000E+00  0.00000000000E+00 -0.18656667064E+04  0.18656667064E+04  0.50400001928E-02 0. -1.
    10030    2    1    2    0    0  0.00000000000E+00  0.00000000000E+00  0.25891555119E+03  0.39902489640E+04  0.39818399682E+04 0.  0.
        1    1    3    3  502    0  0.58764169031E+03  0.18982307499E+04  0.60732387365E+01  0.19871184213E+04  0.50400001928E-02 0.  1.
       -1    1    3    3    0  502 -0.58764169031E+03 -0.18982307499E+04  0.25284231245E+03  0.20031305427E+04  0.50400001928E-02 0. -1.
</event>
<event>
 5   0  0.5735179E-07  0.2829588E+04  0.7818609E-02  0.8294141E-01
        2   -1    0    0  501    0  0.00000000000E+00  0.00000000000E+00  0.12458104226E+04  0.12458104226E+04  0.25500000920E-02 0.  1.
       -2   -1    0    0    0  501  0.00000000000E+00  0.00000000000E+00 -0.16066982803E+04  0.16066982803E+04  0.25500000920E-02 0. -1.
    10030    2    1    2    0    0  0.00000000000E+00  0.00000000000E+00 -0.36088785766E+03  0.28525087029E+04  0.28295875767E+04 0.  0.
        5    1    3    3  502    0 -0.51298296655E+03 -0.64453795259E+03  0.97910774800E+03  0.12795525657E+04  0.46999998093E+01 0.  1.
       -5    1    3    3    0  502  0.51298296655E+03  0.64453795259E+03 -0.13399956057E+04  0.15729561372E+04  0.46999998093E+01 0. -1.
</event>
<event>
 5   0  0.1876027E-07  0.2816218E+04  0.7818609E-02  0.8298251E-01
       -1   -1    0    0    0  501  0.00000000000E+00  0.00000000000E+00  0.70837900630E+03  0.70837900632E+03  0.50400001928E-02 0.  1.
        1   -1    0    0  501    0  0.00000000000E+00  0.00000000000E+00 -0.27990256584E+04  0.27990256584E+04  0.50400001928E-02 0. -1.
    10030    2    1    2    0    0  0.00000000000E+00  0.00000000000E+00 -0.20906466521E+04  0.35074046647E+04  0.28162180416E+04 0.  0.
        3    1    3    3  502    0 -0.78752110335E+03 -0.10954697120E+04 -0.15474152025E+04  0.20529825127E+04  0.10100000352E+00 0. -1.
       -3    1    3    3    0  502  0.78752110335E+03  0.10954697120E+04 -0.54323144954E+03  0.14544221520E+04  0.10100000352E+00 0.  1.
</event>
<event>
 5   0  0.1860500E-07  0.3941878E+04  0.7818609E-02  0.8016375E-01
        3   -1    0    0  501    0  0.00000000000E+00  0.00000000000E+00  0.26590234913E+04  0.26590234932E+04  0.10100000352E+00 0.  1.
       -3   -1    0    0    0  501  0.00000000000E+00  0.00000000000E+00 -0.14609124766E+04  0.14609124801E+04  0.10100000352E+00 0. -1.
    10030    2    1    2    0    0  0.00000000000E+00  0.00000000000E+00  0.11981110147E+04  0.41199359733E+04  0.39418780321E+04 0.  0.
        2    1    3    3  502    0 -0.14038551972E+04  0.12540562814E+04 -0.11394086297E+02  0.18824442613E+04  0.25500000920E-02 0.  1.
       -2    1    3    3    0  502  0.14038551972E+04 -0.12540562814E+04  0.12095051010E+04  0.22374917120E+04  0.25500000920E-02 0. -1.
</event>
<event>
 5   0  0.1860500E-07  0.3925370E+04  0.7818609E-02  0.8019773E-01
       -1   -1    0    0    0  501  0.00000000000E+00  0.00000000000E+00  0.17454208804E+04  0.17454208804E+04  0.50400001928E-02 0.  1.
        1   -1    0    0  501    0  0.00000000000E+00  0.00000000000E+00 -0.22069933840E+04  0.22069933840E+04  0.50400001928E-02 0. -1.
    10030    2    1    2    0    0  0.00000000000E+00  0.00000000000E+00 -0.46157250351E+03  0.39524142644E+04  0.39253699624E+04 0.  0.
        5    1    3    3  502    0 -0.10141423760E+04  0.95585027061E+03 -0.16223265552E+04  0.21387145767E+04  0.46999998093E+01 0. -1.
       -5    1    3    3    0  502  0.10141423760E+04 -0.95585027061E+03  0.11607540517E+04  0.18136996877E+04  0.46999998093E+01 0.  1.
</event>
<event>
 5   0  0.3959190E-07  0.3875182E+04  0.7818609E-02  0.8030211E-01
       -2   -1    0    0    0  501  0.00000000000E+00  0.00000000000E+00  0.25966850052E+04  0.25966850052E+04  0.25500000920E-02 0.  1.
        2   -1    0    0  501    0  0.00000000000E+00  0.00000000000E+00 -0.14457892793E+04  0.14457892793E+04  0.25500000920E-02 0. -1.
    10030    2    1    2    0    0  0.00000000000E+00  0.00000000000E+00  0.11508957259E+04  0.40424742845E+04  0.38751822369E+04 0.  0.
        2    1    3    3  502    0 -0.12351205743E+04  0.12949468925E+04 -0.19948715570E+03  0.18006125104E+04  0.25500000920E-02 0. -1.
       -2    1    3    3    0  502  0.12351205743E+04 -0.12949468925E+04  0.13503828816E+04  0.22418617741E+04  0.25500000920E-02 0.  1.
</event>
<event>
 5   0  0.1860500E-07  0.3823668E+04  0.7818609E-02  0.8041095E-01
       -3   -1    0    0    0  501  0.00000000000E+00  0.00000000000E+00  0.13641208498E+04  0.13641208536E+04  0.10100000352E+00 0.  1.
        3   -1    0    0  501    0  0.00000000000E+00  0.00000000000E+00 -0.26794612509E+04  0.26794612528E+04  0.10100000352E+00 0. -1.
    10030    2    1    2    0    0  0.00000000000E+00  0.00000000000E+00 -0.13153404011E+04  0.40435821064E+04  0.38236678570E+04 0.  0.
        4    1    3    3  502    0 -0.42427748536E+02 -0.43792957286E+03  0.13098528899E+04  0.13817737263E+04  0.12699999809E+01 0.  1.
       -4    1    3    3    0  502  0.42427748536E+02  0.43792957286E+03 -0.26251932910E+04  0.26618083801E+04  0.12699999809E+01 0. -1.
</event>
<event>
 5   0  0.2666813E-07  0.2691885E+04  0.7818609E-02  0.8337643E-01
       -1   -1    0    0    0  501  0.00000000000E+00  0.00000000000E+00  0.10185304215E+04  0.10185304216E+04  0.50400001928E-02 0.  1.
        1   -1    0    0  501    0  0.00000000000E+00  0.00000000000E+00 -0.17786026936E+04  0.17786026936E+04  0.50400001928E-02 0. -1.
    10030    2    1    2    0    0  0.00000000000E+00  0.00000000000E+00 -0.76007227209E+03  0.27971331152E+04  0.26918848053E+04 0.  0.
        1    1    3    3  502    0  0.60312354922E+02 -0.64076031672E+03  0.84827729131E+03  0.10647937484E+04  0.50400001928E-02 0.  1.
       -1    1    3    3    0  502 -0.60312354922E+02  0.64076031672E+03 -0.16083495634E+04  0.17323393668E+04  0.50400001928E-02 0. -1.
</event>
<event>
 5   0  0.3959190E-07  0.3533249E+04  0.7818609E-02  0.8105955E-01
       -2   -1    0    0    0  501  0.00000000000E+00  0.00000000000E+00  0.18175258721E+04  0.18175258721E+04  0.25500000920E-02 0. -1.
        2   -1    0    0  501    0  0.00000000000E+00  0.00000000000E+00 -0.17171482592E+04  0.17171482592E+04  0.25500000920E-02 0.  1.
    10030    2    1    2    0    0  0.00000000000E+00  0.00000000000E+00  0.10037761289E+03  0.35346741313E+04  0.35332485830E+04 0.  0.
        2    1    3    3  502    0 -0.95431583084E+03 -0.13348564787E+04 -0.60459865857E+03  0.17487424229E+04  0.25500000920E-02 0.  1.
       -2    1    3    3    0  502  0.95431583084E+03  0.13348564787E+04  0.70497627146E+03  0.17859317084E+04  0.25500000920E-02 0. -1.
</event>
<event>
 5   0  0.5735179E-07  0.3854835E+04  0.7818609E-02  0.8034489E-01
        2   -1    0    0  501    0  0.00000000000E+00  0.00000000000E+00  0.24244016151E+04  0.24244016151E+04  0.25500000920E-02 0.  1.
       -2   -1    0    0    0  501  0.00000000000E+00  0.00000000000E+00 -0.15323113771E+04  0.15323113771E+04  0.25500000920E-02 0. -1.
    10030    2    1    2    0    0  0.00000000000E+00  0.00000000000E+00  0.89209023801E+03  0.39567129922E+04  0.38548349783E+04 0.  0.
        5    1    3    3  502    0 -0.10277663968E+03  0.60640578099E+03  0.23209639146E+04  0.24010802969E+04  0.46999998093E+01 0.  1.
       -5    1    3    3    0  502  0.10277663968E+03 -0.60640578099E+03 -0.14288736766E+04  0.15556326953E+04  0.46999998093E+01 0. -1.
</event>
<event>
 5   0  0.1943459E-07  0.3921990E+04  0.7818609E-02  0.8020471E-01
        1   -1    0    0  501    0  0.00000000000E+00  0.00000000000E+00  0.28199267278E+04  0.28199267278E+04  0.50400001928E-02 0.  1.
       -1   -1    0    0    0  501  0.00000000000E+00  0.00000000000E+00 -0.13636885418E+04  0.13636885419E+04  0.50400001928E-02 0. -1.
    10030    2    1    2    0    0  0.00000000000E+00  0.00000000000E+00  0.14562381859E+04  0.41836152696E+04  0.39219901925E+04 0.  0.
        2    1    3    3  502    0  0.12524281637E+04 -0.14933341625E+04  0.49716148023E+03  0.20114156118E+04  0.25500000920E-02 0. -1.
       -2    1    3    3    0  502 -0.12524281637E+04  0.14933341625E+04  0.95907670570E+03  0.21721996578E+04  0.25500000920E-02 0.  1.
</event>
<event>
 5   0  0.1943459E-07  0.3664695E+04  0.7818609E-02  0.8075831E-01
        1   -1    0    0  501    0  0.00000000000E+00  0.00000000000E+00  0.25261798914E+04  0.25261798914E+04  0.50400001928E-02 0.  1.
       -1   -1    0    0    0  501  0.00000000000E+00  0.00000000000E+00 -0.13290809342E+04  0.13290809342E+04  0.50400001928E-02 0. -1.
    10030    2    1    2    0    0  0.00000000000E+00  0.00000000000E+00  0.11970989572E+04  0.38552608256E+04  0.36646950924E+04 0.  0.
        2    1    3    3  502    0  0.18242109294E+04  0.12703747018E+03  0.72129361614E+03  0.19657437560E+04  0.25500000920E-02 0.  1.
       -2    1    3    3    0  502 -0.18242109294E+04 -0.12703747018E+03  0.47580534106E+03  0.18895170696E+04  0.25500000920E-02 0. -1.
</event>
<event>
 5   0  0.1860500E-07  0.3269170E+04  0.7818609E-02  0.8170785E-01
        1   -1    0    0  501    0  0.00000000000E+00  0.00000000000E+00  0.19111501521E+04  0.19111501521E+04  0.50400001928E-02 0. -1.
       -1   -1    0    0    0  501  0.00000000000E+00  0.00000000000E+00 -0.13980420115E+04  0.13980420115E+04  0.50400001928E-02 0.  1.
    10030    2    1    2    0    0  0.00000000000E+00  0.00000000000E+00  0.51310814063E+03  0.33091921636E+04  0.32691700494E+04 0.  0.
        4    1    3    3  502    0  0.11677610592E+03  0.12432509495E+04 -0.81113700505E+03  0.14890448067E+04  0.12699999809E+01 0.  1.
       -4    1    3    3    0  502 -0.11677610592E+03 -0.12432509495E+04  0.13242451457E+04  0.18201473570E+04  0.12699999809E+01 0. -1.
</event>
<event>
 5   0  0.1860500E-07  0.3920551E+04  0.7818609E-02  0.8020768E-01
        1   -1    0    0  501    0  0.00000000000E+00  0.00000000000E+00  0.14166707366E+04  0.14166707366E+04  0.50400001928E-02 0. -1.
       -1   -1    0    0    0  501  0.00000000000E+00  0.00000000000E+00 -0.27124726876E+04  0.27124726876E+04  0.50400001928E-02 0.  1.
    10030    2    1    2    0    0  0.00000000000E+00  0.00000000000E+00 -0.12958019510E+04  0.41291434242E+04  0.39205513288E+04 0.  0.
        5    1    3    3  502    0  0.96582427932E+03  0.16977360025E+04 -0.47313714250E+03  0.20097275731E+04  0.46999998093E+01 0. -1.
       -5    1    3    3    0  502 -0.96582427932E+03 -0.16977360025E+04 -0.82266480854E+03  0.21194158511E+04  0.46999998093E+01 0.  1.
</event>
<event>
 5   0  0.1876027E-07  0.3740042E+04  0.7818609E-02  0.8059145E-01
       -1   -1    0    0    0  501  0.00000000000E+00  0.00000000000E+00  0.10936090898E+04  0.10936090898E+04  0.50400001928E-02 0. -1.
        1   -1    0    0  501    0  0.00000000000E+00  0.00000000000E+00 -0.31976501664E+04  0.31976501664E+04  0.50400001928E-02 0.  1.
    10030    2    1    2    0    0  0.00000000000E+00  0.00000000000E+00 -0.21040410766E+04  0.42912592562E+04  0.37400423997E+04 0.  0.
        3    1    3    3  502    0  0.11139676520E+04 -0.28564049091E+03 -0.27439584589E+04  0.29752012460E+04  0.10100000352E+00 0.  1.
       -3    1    3    3    0  502 -0.11139676520E+04  0.28564049091E+03  0.63991738231E+03  0.13160580102E+04  0.10100000352E+00 0. -1.
</event>
<event>
 5   0  0.5872444E-07  0.3902626E+04  0.7818609E-02  0.8024483E-01
       -2   -1    0    0    0  501  0.00000000000E+00  0.00000000000E+00  0.25778714255E+04  0.25778714255E+04  0.25500000920E-02 0.  1.
        2   -1    0    0  501    0  0.00000000000E+00  0.00000000000E+00 -0.14770414427E+04  0.14770414427E+04  0.25500000920E-02 0. -1.
    10030    2    1    2    0    0  0.00000000000E+00  0.00000000000E+00  0.11008299828E+04  0.40549128682E+04  0.39026262590E+04 0.  0.
        3    1    3    3  502    0  0.12405288803E+04  0.15056326697E+04  0.50656285842E+03  0.20155514328E+04  0.10100000352E+00 0. -1.
       -3    1    3    3    0  502 -0.12405288803E+04 -0.15056326697E+04  0.59426712442E+03  0.20393614354E+04  0.10100000352E+00 0.  1.
</event>
<event>
 5   0  0.1860500E-07  0.3908772E+04  0.7818609E-02  0.8023207E-01
       -1   -1    0    0    0  501  0.00000000000E+00  0.00000000000E+00  0.16248647880E+04  0.16248647880E+04  0.50400001928E-02 0.  1.
        1   -1    0    0  501    0  0.00000000000E+00  0.00000000000E+00 -0.23507342210E+04  0.23507342210E+04  0.50400001928E-02 0. -1.
    10030    2    1    2    0    0  0.00000000000E+00  0.00000000000E+00 -0.72586943300E+03  0.39755990090E+04  0.39087723196E+04 0.  0.
        5    1    3    3  502    0  0.62012290151E+03 -0.41827374821E+03 -0.21993779819E+04  0.23230994250E+04  0.46999998093E+01 0. -1.
       -5    1    3    3    0  502 -0.62012290151E+03  0.41827374821E+03  0.14735085489E+04  0.16524995840E+04  0.46999998093E+01 0.  1.
</event>
<event>
 5   0  0.6095665E-07  0.3818519E+04  0.7818609E-02  0.8042192E-01
       -2   -1    0    0    0  501  0.00000000000E+00  0.00000000000E+00  0.27453310419E+04  0.27453310419E+04  0.25500000920E-02 0.  1.
        2   -1    0    0  501    0  0.00000000000E+00  0.00000000000E+00 -0.13278075105E+04  0.13278075105E+04  0.25500000920E-02 0. -1.
    10030    2    1    2    0    0  0.00000000000E+00  0.00000000000E+00  0.14175235313E+04  0.40731385524E+04  0.38185186533E+04 0.  0.
        4    1    3    3  502    0  0.17312550278E+04  0.70482490896E+03  0.29392400316E+03  0.18921984716E+04  0.12699999809E+01 0. -1.
       -4    1    3    3    0  502 -0.17312550278E+04 -0.70482490896E+03  0.11235995282E+04  0.21809400808E+04  0.12699999809E+01 0.  1.
</event>
<event>
 5   0  0.1876027E-07  0.2651199E+04  0.7818609E-02  0.8351015E-01
        1   -1    0    0  501    0  0.00000000000E+00  0.00000000000E+00  0.16128301588E+04  0.16128301588E+04  0.50400001928E-02 0.  1.
       -1   -1    0    0    0  501  0.00000000000E+00  0.00000000000E+00 -0.10895219242E+04  0.10895219242E+04  0.50400001928E-02 0. -1.
    10030    2    1    2    0    0  0.00000000000E+00  0.00000000000E+00  0.52330823458E+03  0.27023520829E+04  0.26511988367E+04 0.  0.
        3    1    3    3  502    0 -0.12927593077E+04  0.29322728500E+03  0.25938873188E+03  0.13507373515E+04  0.10100000352E+00 0. -1.
       -3    1    3    3    0  502  0.12927593077E+04 -0.29322728500E+03  0.26391950271E+03  0.13516147315E+04  0.10100000352E+00 0.  1.
</event>
<event>
 5   0  0.1943459E-07  0.3256240E+04  0.7818609E-02  0.8174120E-01
        1   -1    0    0  501    0  0.00000000000E+00  0.00000000000E+00  0.18334062189E+04  0.18334062189E+04  0.50400001928E-02 0.  1.
       -1   -1    0    0    0  501  0.00000000000E+00  0.00000000000E+00 -0.14458200384E+04  0.14458200384E+04  0.50400001928E-02 0. -1.
    10030    2    1    2    0    0  0.00000000000E+00  0.00000000000E+00  0.38758618052E+03  0.32792262574E+04  0.32562404395E+04 0.  0.
        2    1    3    3  502    0  0.31705165156E+03 -0.12794858948E+04 -0.76855153873E+03  0.15258693825E+04  0.25500000920E-02 0. -1.
       -2    1    3    3    0  502 -0.31705165156E+03  0.12794858948E+04  0.11561377192E+04  0.17533568749E+04  0.25500000920E-02 0.  1.
</event>
<event>
 5   0  0.6095665E-07  0.4000599E+04  0.7818609E-02  0.8004426E-01
        2   -1    0    0  501    0  0.00000000000E+00  0.00000000000E+00  0.22710486613E+04  0.22710486613E+04  0.25500000920E-02 0. -1.
       -2   -1    0    0    0  501  0.00000000000E+00  0.00000000000E+00 -0.17618281179E+04  0.17618281179E+04  0.25500000920E-02 0.  1.
    10030    2    1    2    0    0  0.00000000000E+00  0.00000000000E+00  0.50922054336E+03  0.40328767792E+04  0.40005986495E+04 0.  0.
        4    1    3    3  502    0  0.16875196671E+04 -0.64874229413E+03  0.11174405515E+04  0.21253856567E+04  0.12699999809E+01 0. -1.
       -4    1    3    3    0  502 -0.16875196671E+04  0.64874229413E+03 -0.60822000814E+03  0.19074911224E+04  0.12699999809E+01 0.  1.
</event>
<event>
 5   0  0.5872444E-07  0.2653131E+04  0.7818609E-02  0.8350375E-01
       -2   -1    0    0    0  501  0.00000000000E+00  0.00000000000E+00  0.11326126493E+04  0.11326126493E+04  0.25500000920E-02 0.  1.
        2   -1    0    0  501    0  0.00000000000E+00  0.00000000000E+00 -0.15537310333E+04  0.15537310333E+04  0.25500000920E-02 0. -1.
    10030    2    1    2    0    0  0.00000000000E+00  0.00000000000E+00 -0.42111838401E+03  0.26863436827E+04  0.26531305449E+04 0.  0.
        3    1    3    3  502    0 -0.66509394170E+03  0.33119564357E+03 -0.13232865448E+04  0.15176059421E+04  0.10100000352E+00 0. -1.
       -3    1    3    3    0  502  0.66509394170E+03 -0.33119564357E+03  0.90216816082E+03  0.11687377406E+04  0.10100000352E+00 0.  1.
</event>
<event>
 5   0  0.5805753E-07  0.3806435E+04  0.7818609E-02  0.8044775E-01
        2   -1    0    0  501    0  0.00000000000E+00  0.00000000000E+00  0.27226447524E+04  0.27226447524E+04  0.25500000920E-02 0.  1.
       -2   -1    0    0    0  501  0.00000000000E+00  0.00000000000E+00 -0.13304113442E+04  0.13304113442E+04  0.25500000920E-02 0. -1.
    10030    2    1    2    0    0  0.00000000000E+00  0.00000000000E+00  0.13922334082E+04  0.40530560967E+04  0.38064353219E+04 0.  0.
        1    1    3    3  502    0  0.10506989772E+04  0.13204074663E+04 -0.24113680124E+03  0.17045794715E+04  0.50400001928E-02 0. -1.
       -1    1    3    3    0  502 -0.10506989772E+04 -0.13204074663E+04  0.16333702094E+04  0.23484766252E+04  0.50400001928E-02 0.  1.
</event>
<event>
 5   0  0.5805753E-07  0.3901059E+04  0.7818609E-02  0.8024809E-01
       -2   -1    0    0    0  501  0.00000000000E+00  0.00000000000E+00  0.30088403115E+04  0.30088403115E+04  0.25500000920E-02 0.  1.
        2   -1    0    0  501    0  0.00000000000E+00  0.00000000000E+00 -0.12644624461E+04  0.12644624461E+04  0.25500000920E-02 0. -1.
    10030    2    1    2    0    0  0.00000000000E+00  0.00000000000E+00  0.17443778654E+04  0.42733027575E+04  0.39010591280E+04 0.  0.
        1    1    3    3  502    0 -0.16209743383E+04 -0.92282438051E+03  0.14970620835E+04  0.23917268917E+04  0.50400001928E-02 0.  1.
       -1    1    3    3    0  502  0.16209743383E+04  0.92282438051E+03  0.24731578197E+03  0.18815758658E+04  0.50400001928E-02 0. -1.
</event>
<event>
 5   0  0.3959190E-07  0.2938044E+04  0.7818609E-02  0.8261647E-01
        2   -1    0    0  501    0  0.00000000000E+00  0.00000000000E+00  0.21433544387E+04  0.21433544387E+04  0.25500000920E-02 0.  1.
       -2   -1    0    0    0  501  0.00000000000E+00  0.00000000000E+00 -0.10068452223E+04  0.10068452223E+04  0.25500000920E-02 0. -1.
    10030    2    1    2    0    0  0.00000000000E+00  0.00000000000E+00  0.11365092164E+04  0.31501996610E+04  0.29380443675E+04 0.  0.
        2    1    3    3  502    0  0.50680496059E+02 -0.14005400961E+04  0.96062048575E+02  0.14047451693E+04  0.25500000920E-02 0.  1.
       -2    1    3    3    0  502 -0.50680496059E+02  0.14005400961E+04  0.10404471678E+04  0.17454544917E+04  0.25500000920E-02 0. -1.
</event>
<event>
 5   0  0.6095665E-07  0.3898408E+04  0.7818609E-02  0.8025360E-01
        2   -1    0    0  501    0  0.00000000000E+00  0.00000000000E+00  0.13396262382E+04  0.13396262382E+04  0.25500000920E-02 0. -1.
       -2   -1    0    0    0  501  0.00000000000E+00  0.00000000000E+00 -0.28361609663E+04  0.28361609663E+04  0.25500000920E-02 0.  1.
    10030    2    1    2    0    0  0.00000000000E+00  0.00000000000E+00 -0.14965347281E+04  0.41757872046E+04  0.38984076987E+04 0.  0.
        4    1    3    3  502    0 -0.17539330265E+04 -0.82799735979E+03 -0.95578725644E+03  0.21622653819E+04  0.12699999809E+01 0.  1.
       -4    1    3    3    0  502  0.17539330265E+04  0.82799735979E+03 -0.54074747167E+03  0.20135218227E+04  0.12699999809E+01 0. -1.
</event>
<event>
 5   0  0.1860500E-07  0.3976855E+04  0.7818609E-02  0.8009232E-01
        1   -1    0    0  501    0  0.00000000000E+00  0.00000000000E+00  0.13916658538E+04  0.13916658538E+04  0.50400001928E-02 0. -1.
       -1   -1    0    0    0  501  0.00000000000E+00  0.00000000000E+00 -0.28410868481E+04  0.28410868481E+04  0.50400001928E-02 0.  1.
    10030    2    1    2    0    0  0.00000000000E+00  0.00000000000E+00 -0.14494209942E+04  0.42327527019E+04  0.39768548147E+04 0.  0.
        5    1    3    3  502    0 -0.27742381779E+03  0.14034139610E+04  0.74520089072E+03  0.16130347727E+04  0.46999998093E+01 0. -1.
       -5    1    3    3    0  502  0.27742381779E+03 -0.14034139610E+04 -0.21946218850E+04  0.26197179292E+04  0.46999998093E+01 0.  1.
</event>
<event>
 5   0  0.1860500E-07  0.3835580E+04  0.7818609E-02  0.8038562E-01
       -1   -1    0    0    0  501  0.00000000000E+00  0.00000000000E+00  0.15090554199E+04  0.15090554200E+04  0.50400001928E-02 0.  1.
        1   -1    0    0  501    0  0.00000000000E+00  0.00000000000E+00 -0.24372324861E+04  0.24372324861E+04  0.50400001928E-02 0. -1.
    10030    2    1    2    0    0  0.00000000000E+00  0.00000000000E+00 -0.92817706615E+03  0.39462879061E+04  0.38355802131E+04 0.  0.
        5    1    3    3  502    0 -0.82522951562E+03  0.15850727135E+04  0.25201628052E+03  0.18047142589E+04  0.46999998093E+01 0.  1.
       -5    1    3    3    0  502  0.82522951562E+03 -0.15850727135E+04 -0.11801933467E+04  0.21415736472E+04  0.46999998093E+01 0. -1.
</event>
<event>
 5   0  0.3959190E-07  0.2733329E+04  0.7818609E-02  0.8324271E-01
       -2   -1    0    0    0  501  0.00000000000E+00  0.00000000000E+00  0.15622086610E+04  0.15622086610E+04  0.25500000920E-02 0.  1.
        2   -1    0    0  501    0  0.00000000000E+00  0.00000000000E+00 -0.11955973184E+04  0.11955973184E+04  0.25500000920E-02 0. -1.
    10030    2    1    2    0    0  0.00000000000E+00  0.00000000000E+00  0.36661134262E+03  0.27578059794E+04  0.27333294612E+04 0.  0.
        2    1    3    3  502    0  0.56041144397E+03 -0.11862625072E+04 -0.20286546687E+03  0.13275669927E+04  0.25500000920E-02 0.  1.
       -2    1    3    3    0  502 -0.56041144397E+03  0.11862625072E+04  0.56947680948E+03  0.14302389867E+04  0.25500000920E-02 0. -1.
</event>
<event>
 5   0  0.1876027E-07  0.3902116E+04  0.7818609E-02  0.8024589E-01
       -1   -1    0    0    0  501  0.00000000000E+00  0.00000000000E+00  0.20197767727E+04  0.20197767727E+04  0.50400001928E-02 0. -1.
        1   -1    0    0  501    0  0.00000000000E+00  0.00000000000E+00 -0.18846769309E+04  0.18846769309E+04  0.50400001928E-02 0.  1.
    10030    2    1    2    0    0  0.00000000000E+00  0.00000000000E+00  0.13509984181E+03  0.39044537037E+04  0.39021156770E+04 0.  0.
        3    1    3    3  502    0  0.59026877907E+02 -0.19500839924E+04  0.85306803988E+02  0.19528412661E+04  0.10100000352E+00 0.  1.
       -3    1    3    3    0  502 -0.59026877907E+02  0.19500839924E+04  0.49793037817E+02  0.19516124376E+04  0.10100000352E+00 0. -1.
</event>
<event>
 5   0  0.1860500E-07  0.3864576E+04  0.7818609E-02  0.8032437E-01
        1   -1    0    0  501    0  0.00000000000E+00  0.00000000000E+00  0.21246431703E+04  0.21246431703E+04  0.50400001928E-02 0.  1.
       -1   -1    0    0    0  501  0.00000000000E+00  0.00000000000E+00 -0.17573479907E+04  0.17573479907E+04  0.50400001928E-02 0. -1.
    10030    2    1    2    0    0  0.00000000000E+00  0.00000000000E+00  0.36729517963E+03  0.38819911609E+04  0.38645762542E+04 0.  0.
        5    1    3    3  502    0  0.71795925199E+03 -0.12248917688E+04  0.15002369312E+04  0.20655648797E+04  0.46999998093E+01 0.  1.
       -5    1    3    3    0  502 -0.71795925199E+03  0.12248917688E+04 -0.11329417516E+04  0.18164262812E+04  0.46999998093E+01 0. -1.
</event>
<event>
 5   0  0.5735179E-07  0.3908741E+04  0.7818609E-02  0.8023214E-01
       -2   -1    0    0    0  501  0.00000000000E+00  0.00000000000E+00  0.23070574412E+04  0.23070574412E+04  0.25500000920E-02 0.  1.
        2   -1    0    0  501    0  0.00000000000E+00  0.00000000000E+00 -0.16555999609E+04  0.16555999609E+04  0.25500000920E-02 0. -1.
    10030    2    1    2    0    0  0.00000000000E+00  0.00000000000E+00  0.65145748027E+03  0.39626574020E+04  0.39087410809E+04 0.  0.
        5    1    3    3  502    0  0.12301176765E+04  0.12091137503E+04 -0.60585704006E+03  0.18281767973E+04  0.46999998093E+01 0. -1.
       -5    1    3    3    0  502 -0.12301176765E+04 -0.12091137503E+04  0.12573145203E+04  0.21344806048E+04  0.46999998093E+01 0.  1.
</event>
<event>
 5   0  0.5805753E-07  0.3311656E+04  0.7818609E-02  0.8159936E-01
       -2   -1    0    0    0  501  0.00000000000E+00  0.00000000000E+00  0.15567506222E+04  0.15567506222E+04  0.25500000920E-02 0.  1.
        2   -1    0    0  501    0  0.00000000000E+00  0.00000000000E+00 -0.17612114751E+04  0.17612114751E+04  0.25500000920E-02 0. -1.
    10030    2    1    2    0    0  0.00000000000E+00  0.00000000000E+00 -0.20446085290E+03  0.33179620973E+04  0.33116564192E+04 0.  0.
        1    1    3    3  502    0 -0.67647317973E+03  0.53985454898E+03 -0.15165514516E+04  0.17461349324E+04  0.50400001928E-02 0. -1.
       -1    1    3    3    0  502  0.67647317973E+03 -0.53985454898E+03  0.13120905987E+04  0.15718271649E+04  0.50400001928E-02 0.  1.
</event>
<event>
 5   0  0.1860500E-07  0.3632710E+04  0.7818609E-02  0.8083040E-01
       -1   -1    0    0    0  501  0.00000000000E+00  0.00000000000E+00  0.15386324911E+04  0.15386324911E+04  0.50400001928E-02 0.  1.
        1   -1    0    0  501    0  0.00000000000E+00  0.00000000000E+00 -0.21442066093E+04  0.21442066093E+04  0.50400001928E-02 0. -1.
    10030    2    1    2    0    0  0.00000000000E+00  0.00000000000E+00 -0.60557411814E+03  0.36828391004E+04  0.36327102591E+04 0.  0.
        5    1    3    3  502    0  0.13741104049E+04 -0.97676239957E+03 -0.98804315065E+03  0.19540971183E+04  0.46999998093E+01 0. -1.
       -5    1    3    3    0  502 -0.13741104049E+04  0.97676239957E+03  0.38246903251E+03  0.17287419822E+04  0.46999998093E+01 0.  1.
</event>
<event>
 5   0  0.3959190E-07  0.3894433E+04  0.7818609E-02  0.8026188E-01
       -2   -1    0    0    0  501  0.00000000000E+00  0.00000000000E+00  0.13943736068E+04  0.13943736068E+04  0.25500000920E-02 0. -1.
        2   -1    0    0  501    0  0.00000000000E+00  0.00000000000E+00 -0.27192511999E+04  0.27192511999E+04  0.25500000920E-02 0.  1.
    10030    2    1    2    0    0  0.00000000000E+00  0.00000000000E+00 -0.13248775931E+04  0.41136248068E+04  0.38944330029E+04 0.  0.
        2    1    3    3  502    0 -0.98807769134E+03 -0.14524840029E+04 -0.15497449927E+04  0.23425876388E+04  0.25500000920E-02 0. -1.
       -2    1    3    3    0  502  0.98807769134E+03  0.14524840029E+04  0.22486739966E+03  0.17710371680E+04  0.25500000920E-02 0.  1.
</event>
<event>
 5   0  0.2666813E-07  0.3968241E+04  0.7818609E-02  0.8010984E-01
        1   -1    0    0  501    0  0.00000000000E+00  0.00000000000E+00  0.12535548710E+04  0.12535548710E+04  0.50400001928E-02 0.  1.
       -1   -1    0    0    0  501  0.00000000000E+00  0.00000000000E+00 -0.31404558670E+04  0.31404558670E+04  0.50400001928E-02 0. -1.
    10030    2    1    2    0    0  0.00000000000E+00  0.00000000000E+00 -0.18869009961E+04  0.43940107380E+04  0.39682407937E+04 0.  0.
        1    1    3    3  502    0 -0.12526065438E+04  0.37974711358E+03  0.70768201597E+03  0.14879666863E+04  0.50400001928E-02 0.  1.
       -1    1    3    3    0  502  0.12526065438E+04 -0.37974711358E+03 -0.25945830120E+04  0.29060440517E+04  0.50400001928E-02 0. -1.
</event>
<event>
 5   0  0.1860500E-07  0.3803333E+04  0.7818609E-02  0.8045440E-01
       -3   -1    0    0    0  501  0.00000000000E+00  0.00000000000E+00  0.25275750631E+04  0.25275750652E+04  0.10100000352E+00 0.  1.
        3   -1    0    0  501    0  0.00000000000E+00  0.00000000000E+00 -0.14307531763E+04  0.14307531798E+04  0.10100000352E+00 0. -1.
    10030    2    1    2    0    0  0.00000000000E+00  0.00000000000E+00  0.10968218869E+04  0.39583282450E+04  0.38033333069E+04 0.  0.
        5    1    3    3  502    0 -0.13464400190E+04  0.95418532216E+03 -0.43505525357E+03  0.17066533091E+04  0.46999998093E+01 0. -1.
       -5    1    3    3    0  502  0.13464400190E+04 -0.95418532216E+03  0.15318771405E+04  0.22516749359E+04  0.46999998093E+01 0.  1.
</event>
<event>
 5   0  0.5805753E-07  0.3203226E+04  0.7818609E-02  0.8187966E-01
        2   -1    0    0  501    0  0.00000000000E+00  0.00000000000E+00  0.22513713955E+04  0.22513713955E+04  0.25500000920E-02 0.  1.
       -2   -1    0    0    0  501  0.00000000000E+00  0.00000000000E+00 -0.11393783067E+04  0.11393783067E+04  0.25500000920E-02 0. -1.
    10030    2    1    2    0    0  0.00000000000E+00  0.00000000000E+00  0.11119930888E+04  0.33907497022E+04  0.32032257044E+04 0.  0.
        1    1    3    3  502    0 -0.64026401531E+03  0.27573961952E+02  0.21097351364E+04  0.22049219212E+04  0.50400001928E-02 0.  1.
       -1    1    3    3    0  502  0.64026401531E+03 -0.27573961952E+02 -0.99774204760E+03  0.11858277810E+04  0.50400001928E-02 0. -1.
</event>
<event>
 5   0  0.5735179E-07  0.3875376E+04  0.7818609E-02  0.8030170E-01
       -2   -1    0    0    0  501  0.00000000000E+00  0.00000000000E+00  0.20794629623E+04  0.20794629623E+04  0.25500000920E-02 0.  1.
        2   -1    0    0  501    0  0.00000000000E+00  0.00000000000E+00 -0.18055790506E+04  0.18055790506E+04  0.25500000920E-02 0. -1.
    10030    2    1    2    0    0  0.00000000000E+00  0.00000000000E+00  0.27388391168E+03  0.38850420129E+04  0.38753759876E+04 0.  0.
        5    1    3    3  502    0 -0.35865552644E+03 -0.58323090826E+03 -0.16802625256E+04  0.18144134931E+04  0.46999998093E+01 0. -1.
       -5    1    3    3    0  502  0.35865552644E+03  0.58323090826E+03  0.19541464373E+04  0.20706285199E+04  0.46999998093E+01 0.  1.
</event>
<event>
 5   0  0.1876027E-07  0.3922372E+04  0.7818609E-02  0.8020392E-01
        1   -1    0    0  501    0  0.00000000000E+00  0.00000000000E+00  0.17996564324E+04  0.17996564324E+04  0.50400001928E-02 0. -1.
       -1   -1    0    0    0  501  0.00000000000E+00  0.00000000000E+00 -0.21372141824E+04  0.21372141824E+04  0.50400001928E-02 0.  1.
    10030    2    1    2    0    0  0.00000000000E+00  0.00000000000E+00 -0.33755775003E+03  0.39368706148E+04  0.39223723693E+04 0.  0.
        3    1    3    3  502    0  0.13871108270E+04 -0.11463607743E+04  0.61386728158E+03  0.19013291458E+04  0.10100000352E+00 0. -1.
       -3    1    3    3    0  502 -0.13871108270E+04  0.11463607743E+04 -0.95142503161E+03  0.20355414690E+04  0.10100000352E+00 0.  1.
</event>
<event>
 5   0  0.1860500E-07  0.3972070E+04  0.7818609E-02  0.8010205E-01
        1   -1    0    0  501    0  0.00000000000E+00  0.00000000000E+00  0.19497406906E+04  0.19497406906E+04  0.50400001928E-02 0. -1.
       -1   -1    0    0    0  501  0.00000000000E+00  0.00000000000E+00 -0.20230047940E+04  0.20230047940E+04  0.50400001928E-02 0.  1.
    10030    2    1    2    0    0  0.00000000000E+00  0.00000000000E+00 -0.73264103401E+02  0.39727454847E+04  0.39720698706E+04 0.  0.
        5    1    3    3  502    0  0.88521301302E+03 -0.16109634728E+04  0.71549804141E+03  0.19725021994E+04  0.46999998093E+01 0. -1.
       -5    1    3    3    0  502 -0.88521301302E+03  0.16109634728E+04 -0.78876214481E+03  0.20002432853E+04  0.46999998093E+01 0.  1.
</event>
<event>
 5   0  0.1943459E-07  0.3974792E+04  0.7818609E-02  0.8009651E-01
        1   -1    0    0  501    0  0.00000000000E+00  0.00000000000E+00  0.23544858393E+04  0.23544858393E+04  0.50400001928E-02 0. -1.
       -1   -1    0    0    0  501  0.00000000000E+00  0.00000000000E+00 -0.16775397978E+04  0.16775397978E+04  0.50400001928E-02 0.  1.
    10030    2    1    2    0    0  0.00000000000E+00  0.00000000000E+00  0.67694604145E+03  0.40320256371E+04  0.39747924217E+04 0.  0.
        2    1    3    3  502    0 -0.53772137006E+03 -0.15395372620E+04 -0.81385234678E+03  0.18225462669E+04  0.25500000920E-02 0.  1.
       -2    1    3    3    0  502  0.53772137006E+03  0.15395372620E+04  0.14907983882E+04  0.22094793702E+04  0.25500000920E-02 0. -1.
</event>
<event>
 5   0  0.3959190E-07  0.3654806E+04  0.7818609E-02  0.8078052E-01
        2   -1    0    0  501    0  0.00000000000E+00  0.00000000000E+00  0.21772707078E+04  0.21772707079E+04  0.25500000920E-02 0.  1.
       -2   -1    0    0    0  501  0.00000000000E+00  0.00000000000E+00 -0.15337558065E+04  0.15337558065E+04  0.25500000920E-02 0. -1.
    10030    2    1    2    0    0  0.00000000000E+00  0.00000000000E+00  0.64351490138E+03  0.37110265143E+04  0.36548059267E+04 0.  0.
        2    1    3    3  502    0  0.12449604703E+04 -0.99633063674E+03  0.12281252666E+04  0.20126830304E+04  0.25500000920E-02 0.  1.
       -2    1    3    3    0  502 -0.12449604703E+04  0.99633063674E+03 -0.58461036517E+03  0.16983434839E+04  0.25500000920E-02 0. -1.
</event>
<event>
 5   0  0.1860500E-07  0.3353295E+04  0.7818609E-02  0.8149465E-01
        1   -1    0    0  501    0  0.00000000000E+00  0.00000000000E+00  0.20238063624E+04  0.20238063624E+04  0.50400001928E-02 0. -1.
       -1   -1    0    0    0  501  0.00000000000E+00  0.00000000000E+00 -0.13890393376E+04  0.13890393376E+04  0.50400001928E-02 0.  1.
    10030    2    1    2    0    0  0.00000000000E+00  0.00000000000E+00  0.63476702483E+03  0.34128457000E+04  0.33532948865E+04 0.  0.
        4    1    3    3  502    0 -0.89041394749E+03  0.88800613379E+02 -0.11256903938E+04  0.14380205223E+04  0.12699999809E+01 0.  1.
       -4    1    3    3    0  502  0.89041394749E+03 -0.88800613379E+02  0.17604574186E+04  0.19748251777E+04  0.12699999809E+01 0. -1.
</event>
<event>
 5   0  0.1860500E-07  0.3867502E+04  0.7818609E-02  0.8031822E-01
       -1   -1    0    0    0  501  0.00000000000E+00  0.00000000000E+00  0.15719111673E+04  0.15719111674E+04  0.50400001928E-02 0.  1.
        1   -1    0    0  501    0  0.00000000000E+00  0.00000000000E+00 -0.23788827376E+04  0.23788827376E+04  0.50400001928E-02 0. -1.
    10030    2    1    2    0    0  0.00000000000E+00  0.00000000000E+00 -0.80697157027E+03  0.39507939050E+04  0.38675016955E+04 0.  0.
        5    1    3    3  502    0 -0.26922690965E+03 -0.14413870345E+04  0.88433524062E+03  0.17123523644E+04  0.46999998093E+01 0.  1.
       -5    1    3    3    0  502  0.26922690965E+03  0.14413870345E+04 -0.16913068109E+04  0.22384415406E+04  0.46999998093E+01 0. -1.
</event>
<event>
 5   0  0.5735179E-07  0.3911288E+04  0.7818609E-02  0.8022686E-01
       -2   -1    0    0    0  501  0.00000000000E+00  0.00000000000E+00  0.17484603970E+04  0.17484603970E+04  0.25500000920E-02 0. -1.
        2   -1    0    0  501    0  0.00000000000E+00  0.00000000000E+00 -0.21873774568E+04  0.21873774568E+04  0.25500000920E-02 0.  1.
    10030    2    1    2    0    0  0.00000000000E+00  0.00000000000E+00 -0.43891705985E+03  0.39358378538E+04  0.39112876941E+04 0.  0.
        5    1    3    3  502    0  0.69553071426E+03  0.17870033573E+04  0.16684794545E+03  0.19248387725E+04  0.46999998093E+01 0.  1.
       -5    1    3    3    0  502 -0.69553071426E+03 -0.17870033573E+04 -0.60576500530E+03  0.20109990813E+04  0.46999998093E+01 0. -1.
</event>
<event>
 5   0  0.6095665E-07  0.3899833E+04  0.7818609E-02  0.8025064E-01
        2   -1    0    0  501    0  0.00000000000E+00  0.00000000000E+00  0.18032820222E+04  0.18032820222E+04  0.25500000920E-02 0.  1.
       -2   -1    0    0    0  501  0.00000000000E+00  0.00000000000E+00 -0.21084748359E+04  0.21084748359E+04  0.25500000920E-02 0. -1.
    10030    2    1    2    0    0  0.00000000000E+00  0.00000000000E+00 -0.30519281370E+03  0.39117568581E+04  0.38998332097E+04 0.  0.
        4    1    3    3  502    0  0.14068885620E+04  0.11808117285E+04 -0.80921332932E+03  0.20071072690E+04  0.12699999809E+01 0. -1.
       -4    1    3    3    0  502 -0.14068885620E+04 -0.11808117285E+04  0.50402051562E+03  0.19046495891E+04  0.12699999809E+01 0.  1.
</event>
<event>
 5   0  0.5872444E-07  0.3944708E+04  0.7818609E-02  0.8015794E-01
        2   -1    0    0  501    0  0.00000000000E+00  0.00000000000E+00  0.25735480632E+04  0.25735480632E+04  0.25500000920E-02 0.  1.
       -2   -1    0    0    0  501  0.00000000000E+00  0.00000000000E+00 -0.15116023020E+04  0.15116023020E+04  0.25500000920E-02 0. -1.
    10030    2    1    2    0    0  0.00000000000E+00  0.00000000000E+00  0.10619457612E+04  0.40851503652E+04  0.39447084438E+04 0.  0.
        3    1    3    3  502    0  0.10258992188E+03  0.14999731076E+03 -0.15029140749E+04  0.15138608298E+04  0.10100000352E+00 0. -1.
       -3    1    3    3    0  502 -0.10258992188E+03 -0.14999731076E+03  0.25648598361E+04  0.25712895353E+04  0.10100000352E+00 0.  1.
</event>
<event>
 5   0  0.5872444E-07  0.3471059E+04  0.7818609E-02  0.8120683E-01
        2   -1    0    0  501    0  0.00000000000E+00  0.00000000000E+00  0.21021097953E+04  0.21021097953E+04  0.25500000920E-02 0.  1.
       -2   -1    0    0    0  501  0.00000000000E+00  0.00000000000E+00 -0.14328760095E+04  0.14328760095E+04  0.25500000920E-02 0. -1.
    10030    2    1    2    0    0  0.00000000000E+00  0.00000000000E+00  0.66923378582E+03  0.35349858048E+04  0.34710590286E+04 0.  0.
        3    1    3    3  502    0  0.62145364101E+03 -0.11175476130E+03  0.19809815584E+04  0.20791781308E+04  0.10100000352E+00 0.  1.
       -3    1    3    3    0  502 -0.62145364101E+03  0.11175476130E+03 -0.13117477726E+04  0.14558076740E+04  0.10100000352E+00 0. -1.
</event>
<event>
 5   0  0.1860500E-07  0.3901074E+04  0.7818609E-02  0.8024806E-01
       -1   -1    0    0    0  501  0.00000000000E+00  0.00000000000E+00  0.14431129261E+04  0.14431129261E+04  0.50400001928E-02 0.  1.
        1   -1    0    0  501    0  0.00000000000E+00  0.00000000000E+00 -0.26363798220E+04  0.26363798221E+04  0.50400001928E-02 0. -1.
    10030    2    1    2    0    0  0.00000000000E+00  0.00000000000E+00 -0.11932668960E+04  0.40794927482E+04  0.39010735955E+04 0.  0.
        4    1    3    3  502    0  0.16526406815E+04 -0.87441585177E+03 -0.15550566409E+02  0.18697774566E+04  0.12699999809E+01 0.  1.
       -4    1    3    3    0  502 -0.16526406815E+04  0.87441585177E+03 -0.11777163295E+04  0.22097152916E+04  0.12699999809E+01 0. -1.
</event>
<event>
 5   0  0.6095665E-07  0.3978090E+04  0.7818609E-02  0.8008981E-01
       -2   -1    0    0    0  501  0.00000000000E+00  0.00000000000E+00  0.26040097226E+04  0.26040097226E+04  0.25500000920E-02 0. -1.
        2   -1    0    0  501    0  0.00000000000E+00  0.00000000000E+00 -0.15193110854E+04  0.15193110854E+04  0.25500000920E-02 0.  1.
    10030    2    1    2    0    0  0.00000000000E+00  0.00000000000E+00  0.10846986372E+04  0.41233208081E+04  0.39780904154E+04 0.  0.
        4    1    3    3  502    0 -0.14441149736E+04  0.10271419535E+04  0.14785460951E+04  0.23079403844E+04  0.12699999809E+01 0. -1.
       -4    1    3    3    0  502  0.14441149736E+04 -0.10271419535E+04 -0.39384745794E+03  0.18153804237E+04  0.12699999809E+01 0.  1.
</event>
<event>
 5   0  0.1943459E-07  0.3738125E+04  0.7818609E-02  0.8059565E-01
        1   -1    0    0  501    0  0.00000000000E+00  0.00000000000E+00  0.12143786281E+04  0.12143786281E+04  0.50400001928E-02 0.  1.
       -1   -1    0    0    0  501  0.00000000000E+00  0.00000000000E+00 -0.28766932320E+04  0.28766932320E+04  0.50400001928E-02 0. -1.
    10030    2    1    2    0    0  0.00000000000E+00  0.00000000000E+00 -0.16623146040E+04  0.40910718601E+04  0.37381250811E+04 0.  0.
        2    1    3    3  502    0  0.10606238950E+04 -0.56720286702E+03  0.73456940175E+03  0.14093382649E+04  0.25500000920E-02 0.  1.
       -2    1    3    3    0  502 -0.10606238950E+04  0.56720286702E+03 -0.23968840057E+04  0.26817335952E+04  0.25500000920E-02 0. -1.
</event>
<event>
 5   0  0.2666813E-07  0.3553846E+04  0.7818609E-02  0.8101146E-01
       -1   -1    0    0    0  501  0.00000000000E+00  0.00000000000E+00  0.12870959009E+04  0.12870959009E+04  0.50400001928E-02 0. -1.
        1   -1    0    0  501    0  0.00000000000E+00  0.00000000000E+00 -0.24531619290E+04  0.24531619290E+04  0.50400001928E-02 0.  1.
    10030    2    1    2    0    0  0.00000000000E+00  0.00000000000E+00 -0.11660660281E+04  0.37402578299E+04  0.35538456146E+04 0.  0.
        1    1    3    3  502    0 -0.12203827469E+04  0.10050967156E+04  0.27062382646E+03  0.16039921173E+04  0.50400001928E-02 0. -1.
       -1    1    3    3    0  502  0.12203827469E+04 -0.10050967156E+04 -0.14366898546E+04  0.21362657127E+04  0.50400001928E-02 0.  1.
</event>
<event>
 5   0  0.1860500E-07  0.2482698E+04  0.7818609E-02  0.8409176E-01
        1   -1    0    0  501    0  0.00000000000E+00  0.00000000000E+00  0.26143396575E+04  0.26143396575E+04  0.50400001928E-02 0. -1.
       -1   -1    0    0    0  501  0.00000000000E+00  0.00000000000E+00 -0.58942106268E+03  0.58942106270E+03  0.50400001928E-02 0.  1.
    10030    2    1    2    0    0  0.00000000000E+00  0.00000000000E+00  0.20249185949E+04  0.32037607203E+04  0.24826976128E+04 0.  0.
        5    1    3    3  502    0 -0.44458046354E+02 -0.10796503444E+04  0.22402191059E+03  0.11035530302E+04  0.46999998093E+01 0.  1.
       -5    1    3    3    0  502  0.44458046354E+02  0.10796503444E+04  0.18008966843E+04  0.21002076901E+04  0.46999998093E+01 0. -1.
</event>
<event>
 5   0  0.3959190E-07  0.3895342E+04  0.7818609E-02  0.8025999E-01
        2   -1    0    0  501    0  0.00000000000E+00  0.00000000000E+00  0.22441749653E+04  0.22441749653E+04  0.25500000920E-02 0.  1.
       -2   -1    0    0    0  501  0.00000000000E+00  0.00000000000E+00 -0.16903413072E+04  0.16903413072E+04  0.25500000920E-02 0. -1.
    10030    2    1    2    0    0  0.00000000000E+00  0.00000000000E+00  0.55383365803E+03  0.39345162725E+04  0.38953416510E+04 0.  0.
        2    1    3    3  502    0 -0.10546227662E+04  0.14192512343E+04 -0.54794677397E+03  0.18511479984E+04  0.25500000920E-02 0. -1.
       -2    1    3    3    0  502  0.10546227662E+04 -0.14192512343E+04  0.11017804320E+04  0.20833682741E+04  0.25500000920E-02 0.  1.
</event>
<event>
 5   0  0.6095665E-07  0.3843429E+04  0.7818609E-02  0.8036899E-01
        2   -1    0    0  501    0  0.00000000000E+00  0.00000000000E+00  0.18010982888E+04  0.18010982888E+04  0.25500000920E-02 0. -1.
       -2   -1    0    0    0  501  0.00000000000E+00  0.00000000000E+00 -0.20504081205E+04  0.20504081205E+04  0.25500000920E-02 0.  1.
    10030    2    1    2    0    0  0.00000000000E+00  0.00000000000E+00 -0.24930983169E+03  0.38515064092E+04  0.38434289675E+04 0.  0.
        4    1    3    3  502    0  0.16141974229E+03 -0.11569950256E+04 -0.16537356166E+04  0.20247313217E+04  0.12699999809E+01 0.  1.
       -4    1    3    3    0  502 -0.16141974229E+03  0.11569950256E+04  0.14044257849E+04  0.18267750876E+04  0.12699999809E+01 0. -1.
</event>
<event>
 5   0  0.5872444E-07  0.3854609E+04  0.7818609E-02  0.8034536E-01
        2   -1    0    0  501    0  0.00000000000E+00  0.00000000000E+00  0.23309669715E+04  0.23309669716E+04  0.25500000920E-02 0.  1.
       -2   -1    0    0    0  501  0.00000000000E+00  0.00000000000E+00 -0.15935458867E+04  0.15935458867E+04  0.25500000920E-02 0. -1.
    10030    2    1    2    0    0  0.00000000000E+00  0.00000000000E+00  0.73742108487E+03  0.39245128582E+04  0.38546091005E+04 0.  0.
        3    1    3    3  502    0 -0.72719663375E+03 -0.13627549051E+03 -0.14432029477E+04  0.16217955210E+04  0.10100000352E+00 0. -1.
       -3    1    3    3    0  502  0.72719663375E+03  0.13627549051E+03  0.21806240326E+04  0.23027173372E+04  0.10100000352E+00 0.  1.
</event>
<event>
 5   0  0.1860500E-07  0.3366100E+04  0.7818609E-02  0.8146277E-01
        3   -1    0    0  501    0  0.00000000000E+00  0.00000000000E+00  0.21392079254E+04  0.21392079277E+04  0.10100000352E+00 0.  1.
       -3   -1    0    0    0  501  0.00000000000E+00  0.00000000000E+00 -0.13241615414E+04  0.13241615452E+04  0.10100000352E+00 0. -1.
    10030    2    1    2    0    0  0.00000000000E+00  0.00000000000E+00  0.81504638399E+03  0.34633694730E+04  0.33660997457E+04 0.  0.
        1    1    3    3  502    0  0.73792665286E+03  0.14025366060E+04  0.99047494360E+03  0.18688727324E+04  0.50400001928E-02 0.  1.
       -1    1    3    3    0  502 -0.73792665286E+03 -0.14025366060E+04 -0.17542855961E+03  0.15944967405E+04  0.50400001928E-02 0. -1.
</event>
<event>
 5   0  0.5735179E-07  0.3921371E+04  0.7818609E-02  0.8020599E-01
       -2   -1    0    0    0  501  0.00000000000E+00  0.00000000000E+00  0.25814237812E+04  0.25814237812E+04  0.25500000920E-02 0. -1.
        2   -1    0    0  501    0  0.00000000000E+00  0.00000000000E+00 -0.14892120767E+04  0.14892120767E+04  0.25500000920E-02 0.  1.
    10030    2    1    2    0    0  0.00000000000E+00  0.00000000000E+00  0.10922117045E+04  0.40706358579E+04  0.39213709185E+04 0.  0.
        5    1    3    3  502    0  0.76289703584E+03  0.11404960632E+04 -0.90774865291E+03  0.16452272987E+04  0.46999998093E+01 0.  1.
       -5    1    3    3    0  502 -0.76289703584E+03 -0.11404960632E+04  0.19999603575E+04  0.24254085592E+04  0.46999998093E+01 0. -1.
</event>
<event>
 5   0  0.3959190E-07  0.3871686E+04  0.7818609E-02  0.8030944E-01
        2   -1    0    0  501    0  0.00000000000E+00  0.00000000000E+00  0.16779824455E+04  0.16779824455E+04  0.25500000920E-02 0.  1.
       -2   -1    0    0    0  501  0.00000000000E+00  0.00000000000E+00 -0.22333294017E+04  0.22333294017E+04  0.25500000920E-02 0. -1.
    10030    2    1    2    0    0  0.00000000000E+00  0.00000000000E+00 -0.55534695628E+03  0.39113118472E+04  0.38716856954E+04 0.  0.
        2    1    3    3  502    0 -0.13250668383E+04 -0.12411524512E+04  0.40093519587E+03  0.18593037849E+04  0.25500000920E-02 0.  1.
       -2    1    3    3    0  502  0.13250668383E+04  0.12411524512E+04 -0.95628215215E+03  0.20520080623E+04  0.25500000920E-02 0. -1.
</event>
<event>
 5   0  0.5805753E-07  0.3850091E+04  0.7818609E-02  0.8035490E-01
        2   -1    0    0  501    0  0.00000000000E+00  0.00000000000E+00  0.12124224587E+04  0.12124224587E+04  0.25500000920E-02 0.  1.
       -2   -1    0    0    0  501  0.00000000000E+00  0.00000000000E+00 -0.30565260218E+04  0.30565260218E+04  0.25500000920E-02 0. -1.
    10030    2    1    2    0    0  0.00000000000E+00  0.00000000000E+00 -0.18441035631E+04  0.42689484805E+04  0.38500913206E+04 0.  0.
        1    1    3    3  502    0 -0.59540500361E+03  0.15166174848E+04  0.21475157062E+03  0.16433970764E+04  0.50400001928E-02 0.  1.
       -1    1    3    3    0  502  0.59540500361E+03 -0.15166174848E+04 -0.20588551338E+04  0.26255514041E+04  0.50400001928E-02 0. -1.
</event>
<event>
 5   0  0.1860500E-07  0.3714285E+04  0.7818609E-02  0.8064803E-01
       -1   -1    0    0    0  501  0.00000000000E+00  0.00000000000E+00  0.15267323403E+04  0.15267323404E+04  0.50400001928E-02 0.  1.
        1   -1    0    0  501    0  0.00000000000E+00  0.00000000000E+00 -0.22590587964E+04  0.22590587964E+04  0.50400001928E-02 0. -1.
    10030    2    1    2    0    0  0.00000000000E+00  0.00000000000E+00 -0.73232645602E+03  0.37857911367E+04  0.37142849235E+04 0.  0.
        4    1    3    3  502    0 -0.10878782919E+04  0.78689457872E+03  0.94161820078E+03  0.16399172860E+04  0.12699999809E+01 0.  1.
       -4    1    3    3    0  502  0.10878782919E+04 -0.78689457872E+03 -0.16739446568E+04  0.21458738507E+04  0.12699999809E+01 0. -1.
</event>
<event>
 5   0  0.1860500E-07  0.2978845E+04  0.7818609E-02  0.8249798E-01
        1   -1    0    0  501    0  0.00000000000E+00  0.00000000000E+00  0.10160932963E+04  0.10160932964E+04  0.50400001928E-02 0. -1.
       -1   -1    0    0    0  501  0.00000000000E+00  0.00000000000E+00 -0.21832441868E+04  0.21832441868E+04  0.50400001928E-02 0.  1.
    10030    2    1    2    0    0  0.00000000000E+00  0.00000000000E+00 -0.11671508905E+04  0.31993374832E+04  0.29788452679E+04 0.  0.
        5    1    3    3  502    0 -0.58268892091E+03 -0.23056443673E+03 -0.20347625478E+04  0.21290765730E+04  0.46999998093E+01 0.  1.
       -5    1    3    3    0  502  0.58268892091E+03  0.23056443673E+03  0.86761165726E+03  0.10702609102E+04  0.46999998093E+01 0. -1.
</event>
<event>
 5   0  0.5872444E-07  0.2844515E+04  0.7818609E-02  0.8289580E-01
        2   -1    0    0  501    0  0.00000000000E+00  0.00000000000E+00  0.16101100692E+04  0.16101100692E+04  0.25500000920E-02 0.  1.
       -2   -1    0    0    0  501  0.00000000000E+00  0.00000000000E+00 -0.12563217067E+04  0.12563217068E+04  0.25500000920E-02 0. -1.
    10030    2    1    2    0    0  0.00000000000E+00  0.00000000000E+00  0.35378836241E+03  0.28664317759E+04  0.28445148832E+04 0.  0.
        3    1    3    3  502    0  0.48785975940E+03  0.97830479180E+03  0.10937001557E+04  0.15463723521E+04  0.10100000352E+00 0.  1.
       -3    1    3    3    0  502 -0.48785975940E+03 -0.97830479180E+03 -0.73991179326E+03  0.13200594239E+04  0.10100000352E+00 0. -1.
</event>
<event>
 5   0  0.5735179E-07  0.3910762E+04  0.7818609E-02  0.8022795E-01
       -2   -1    0    0    0  501  0.00000000000E+00  0.00000000000E+00  0.20112674647E+04  0.20112674647E+04  0.25500000920E-02 0.  1.
        2   -1    0    0  501    0  0.00000000000E+00  0.00000000000E+00 -0.19010475599E+04  0.19010475599E+04  0.25500000920E-02 0. -1.
    10030    2    1    2    0    0  0.00000000000E+00  0.00000000000E+00  0.11021990480E+03  0.39123150245E+04  0.39107621282E+04 0.  0.
        5    1    3    3  502    0  0.81370296139E+03 -0.17681554990E+04 -0.13206495087E+03  0.19508843173E+04  0.46999998093E+01 0. -1.
       -5    1    3    3    0  502 -0.81370296139E+03  0.17681554990E+04  0.24228485566E+03  0.19614307073E+04  0.46999998093E+01 0.  1.
</event>
<event>
 5   0  0.5735179E-07  0.3894973E+04  0.7818609E-02  0.8026075E-01
       -2   -1    0    0    0  501  0.00000000000E+00  0.00000000000E+00  0.15953105762E+04  0.15953105762E+04  0.25500000920E-02 0.  1.
        2   -1    0    0  501    0  0.00000000000E+00  0.00000000000E+00 -0.23774079587E+04  0.23774079587E+04  0.25500000920E-02 0. -1.
    10030    2    1    2    0    0  0.00000000000E+00  0.00000000000E+00 -0.78209738249E+03  0.39727185349E+04  0.38949732016E+04 0.  0.
        5    1    3    3  502    0  0.14943443315E+03 -0.12907205560E+04  0.10885591344E+04  0.16950732381E+04  0.46999998093E+01 0.  1.
       -5    1    3    3    0  502 -0.14943443315E+03  0.12907205560E+04 -0.18706565169E+04  0.22776452967E+04  0.46999998093E+01 0. -1.
</event>
<event>
 5   0  0.6095665E-07  0.3969157E+04  0.7818609E-02  0.8010798E-01
        2   -1    0    0  501    0  0.00000000000E+00  0.00000000000E+00  0.23198551388E+04  0.23198551388E+04  0.25500000920E-02 0.  1.
       -2   -1    0    0    0  501  0.00000000000E+00  0.00000000000E+00 -0.16977574357E+04  0.16977574357E+04  0.25500000920E-02 0. -1.
    10030    2    1    2    0    0  0.00000000000E+00  0.00000000000E+00  0.62209770312E+03  0.40176125745E+04  0.39691567425E+04 0.  0.
        4    1    3    3  502    0 -0.96708697913E+03 -0.12980035270E+04  0.14733173468E+04  0.21887749995E+04  0.12699999809E+01 0.  1.
       -4    1    3    3    0  502  0.96708697913E+03  0.12980035270E+04 -0.85121964366E+03  0.18288375750E+04  0.12699999809E+01 0. -1.
</event>
<event>
 5   0  0.6095665E-07  0.3833409E+04  0.7818609E-02  0.8039023E-01
       -2   -1    0    0    0  501  0.00000000000E+00  0.00000000000E+00  0.14859040616E+04  0.14859040616E+04  0.25500000920E-02 0. -1.
        2   -1    0    0  501    0  0.00000000000E+00  0.00000000000E+00 -0.24724047837E+04  0.24724047837E+04  0.25500000920E-02 0.  1.
    10030    2    1    2    0    0  0.00000000000E+00  0.00000000000E+00 -0.98650072216E+03  0.39583088453E+04  0.38334090885E+04 0.  0.
        4    1    3    3  502    0 -0.15504493719E+04 -0.94688954762E+03  0.13760700884E+03  0.18219303971E+04  0.12699999809E+01 0. -1.
       -4    1    3    3    0  502  0.15504493719E+04  0.94688954762E+03 -0.11241077310E+04  0.21363784482E+04  0.12699999809E+01 0.  1.
</event>
<event>
 5   0  0.1860500E-07  0.3886133E+04  0.7818609E-02  0.8027920E-01
       -1   -1    0    0    0  501  0.00000000000E+00  0.00000000000E+00  0.22050978080E+04  0.22050978080E+04  0.50400001928E-02 0.  1.
        1   -1    0    0  501    0  0.00000000000E+00  0.00000000000E+00 -0.17121719282E+04  0.17121719282E+04  0.50400001928E-02 0. -1.
    10030    2    1    2    0    0  0.00000000000E+00  0.00000000000E+00  0.49292587982E+03  0.39172697362E+04  0.38861325587E+04 0.  0.
        5    1    3    3  502    0  0.16202151957E+04  0.56501346825E+03 -0.67251435473E+03  0.18429962417E+04  0.46999998093E+01 0. -1.
       -5    1    3    3    0  502 -0.16202151957E+04 -0.56501346825E+03  0.11654402345E+04  0.20742734945E+04  0.46999998093E+01 0.  1.
</event>
<event>
 5   0  0.5805753E-07  0.3899697E+04  0.7818609E-02  0.8025092E-01
       -2   -1    0    0    0  501  0.00000000000E+00  0.00000000000E+00  0.16571414318E+04  0.16571414318E+04  0.25500000920E-02 0. -1.
        2   -1    0    0  501    0  0.00000000000E+00  0.00000000000E+00 -0.22942573732E+04  0.22942573732E+04  0.25500000920E-02 0.  1.
    10030    2    1    2    0    0  0.00000000000E+00  0.00000000000E+00 -0.63711594133E+03  0.39513988050E+04  0.38996968848E+04 0.  0.
        1    1    3    3  502    0 -0.90058417538E+03 -0.13613488747E+04  0.76215955773E+03  0.18014465874E+04  0.50400001928E-02 0. -1.
       -1    1    3    3    0  502  0.90058417538E+03  0.13613488747E+04 -0.13992754991E+04  0.21499522176E+04  0.50400001928E-02 0.  1.
</event>
<event>
 5   0  0.3959190E-07  0.2543327E+04  0.7818609E-02  0.8387711E-01
       -2   -1    0    0    0  501  0.00000000000E+00  0.00000000000E+00  0.64632662430E+03  0.64632662430E+03  0.25500000920E-02 0. -1.
        2   -1    0    0  501    0  0.00000000000E+00  0.00000000000E+00 -0.25020298393E+04  0.25020298393E+04  0.25500000920E-02 0.  1.
    10030    2    1    2    0    0  0.00000000000E+00  0.00000000000E+00 -0.18557032150E+04  0.31483564636E+04  0.25433273481E+04 0.  0.
        2    1    3    3  502    0 -0.65029839880E+03 -0.44894161517E+03  0.30550561160E+03  0.84721323174E+03  0.25500000920E-02 0. -1.
       -2    1    3    3    0  502  0.65029839880E+03  0.44894161517E+03 -0.21612088266E+04  0.23011432319E+04  0.25500000920E-02 0.  1.
</event>
<event>
 5   0  0.1876027E-07  0.3792771E+04  0.7818609E-02  0.8047708E-01
        1   -1    0    0  501    0  0.00000000000E+00  0.00000000000E+00  0.21756474273E+04  0.21756474273E+04  0.50400001928E-02 0.  1.
       -1   -1    0    0    0  501  0.00000000000E+00  0.00000000000E+00 -0.16529692147E+04  0.16529692147E+04  0.50400001928E-02 0. -1.
    10030    2    1    2    0    0  0.00000000000E+00  0.00000000000E+00  0.52267821262E+03  0.38286166420E+04  0.37927711343E+04 0.  0.
        3    1    3    3  502    0  0.50904463590E+03 -0.85434031348E+03 -0.13686209058E+04  0.16917881093E+04  0.10100000352E+00 0. -1.
       -3    1    3    3    0  502 -0.50904463590E+03  0.85434031348E+03  0.18912991185E+04  0.21368285327E+04  0.10100000352E+00 0.  1.
</event>
<event>
 5   0  0.5735179E-07  0.3716607E+04  0.7818609E-02  0.8064291E-01
        2   -1    0    0  501    0  0.00000000000E+00  0.00000000000E+00  0.26552916034E+04  0.26552916034E+04  0.25500000920E-02 0. -1.
       -2   -1    0    0    0  501  0.00000000000E+00  0.00000000000E+00 -0.13005323419E+04  0.13005323419E+04  0.25500000920E-02 0.  1.
    10030    2    1    2    0    0  0.00000000000E+00  0.00000000000E+00  0.13547592615E+04  0.39558239453E+04  0.37166073817E+04 0.  0.
        5    1    3    3  502    0 -0.16810466663E+04 -0.46689649089E+02 -0.16419042106E+03  0.16896977251E+04  0.46999998093E+01 0.  1.
       -5    1    3    3    0  502  0.16810466663E+04  0.46689649089E+02  0.15189496826E+04  0.22661262202E+04  0.46999998093E+01 0. -1.
</event>
<event>
 5   0  0.3959190E-07  0.3741122E+04  0.7818609E-02  0.8058909E-01
        2   -1    0    0  501    0  0.00000000000E+00  0.00000000000E+00  0.22933206007E+04  0.22933206007E+04  0.25500000920E-02 0. -1.
       -2   -1    0    0    0  501  0.00000000000E+00  0.00000000000E+00 -0.15257343141E+04  0.15257343141E+04  0.25500000920E-02 0.  1.
    10030    2    1    2    0    0  0.00000000000E+00  0.00000000000E+00  0.76758628658E+03  0.38190549148E+04  0.37411217215E+04 0.  0.
        2    1    3    3  502    0  0.28210990611E+02 -0.17822448092E+04 -0.19530317646E+03  0.17931357313E+04  0.25500000920E-02 0.  1.
       -2    1    3    3    0  502 -0.28210990611E+02  0.17822448092E+04  0.96288946303E+03  0.20259191835E+04  0.25500000920E-02 0. -1.
</event>
<event>
 5   0  0.2666813E-07  0.3762543E+04  0.7818609E-02  0.8054241E-01
       -1   -1    0    0    0  501  0.00000000000E+00  0.00000000000E+00  0.30380641177E+04  0.30380641177E+04  0.50400001928E-02 0. -1.
        1   -1    0    0  501    0  0.00000000000E+00  0.00000000000E+00 -0.11649464938E+04  0.11649464938E+04  0.50400001928E-02 0.  1.
    10030    2    1    2    0    0  0.00000000000E+00  0.00000000000E+00  0.18731176239E+04  0.42030106115E+04  0.37625428326E+04 0.  0.
        1    1    3    3  502    0 -0.10314588696E+04 -0.12515799893E+04 -0.12836494278E+03  0.16269103933E+04  0.50400001928E-02 0.  1.
       -1    1    3    3    0  502  0.10314588696E+04  0.12515799893E+04  0.20014825667E+04  0.25761002182E+04  0.50400001928E-02 0. -1.
</event>
<event>
 5   0  0.5872444E-07  0.3603509E+04  0.7818609E-02  0.8089688E-01
       -2   -1    0    0    0  501  0.00000000000E+00  0.00000000000E+00  0.17932748110E+04  0.17932748110E+04  0.25500000920E-02 0. -1.
        2   -1    0    0  501    0  0.00000000000E+00  0.00000000000E+00 -0.18102741577E+04  0.18102741577E+04  0.25500000920E-02 0.  1.
    10030    2    1    2    0    0  0.00000000000E+00  0.00000000000E+00 -0.16999346666E+02  0.36035489687E+04  0.36035088722E+04 0.  0.
        3    1    3    3  502    0 -0.11253768700E+04  0.81867842398E+03 -0.11528950250E+04  0.18071730438E+04  0.10100000352E+00 0. -1.
       -3    1    3    3    0  502  0.11253768700E+04 -0.81867842398E+03  0.11358956784E+04  0.17963759249E+04  0.10100000352E+00 0.  1.
</event>
<event>
 5   0  0.5735179E-07  0.2817567E+04  0.7818609E-02  0.8297835E-01
       -2   -1    0    0    0  501  0.00000000000E+00  0.00000000000E+00  0.17561321340E+04  0.17561321340E+04  0.25500000920E-02 0.  1.
        2   -1    0    0  501    0  0.00000000000E+00  0.00000000000E+00 -0.11301375475E+04  0.11301375475E+04  0.25500000920E-02 0. -1.
    10030    2    1    2    0    0  0.00000000000E+00  0.00000000000E+00  0.62599458655E+03  0.28862696815E+04  0.28175669383E+04 0.  0.
        5    1    3    3  502    0 -0.10522406072E+04 -0.31885499956E+03  0.12152519785E+04  0.16388222196E+04  0.46999998093E+01 0.  1.
       -5    1    3    3    0  502  0.10522406072E+04  0.31885499956E+03 -0.58925739190E+03  0.12474474619E+04  0.46999998093E+01 0. -1.
</event>
<event>
 5   0  0.5805753E-07  0.3564254E+04  0.7818609E-02  0.8098729E-01
        2   -1    0    0  501    0  0.00000000000E+00  0.00000000000E+00  0.26510628513E+04  0.26510628513E+04  0.25500000920E-02 0. -1.
       -2   -1    0    0    0  501  0.00000000000E+00  0.00000000000E+00 -0.11980011907E+04  0.11980011907E+04  0.25500000920E-02 0.  1.
    10030    2    1    2    0    0  0.00000000000E+00  0.00000000000E+00  0.14530616606E+04  0.38490640419E+04  0.35642538924E+04 0.  0.
        1    1    3    3  502    0 -0.61646516106E+03  0.34245136003E+03  0.24939780510E+04  0.25917617073E+04  0.50400001928E-02 0. -1.
       -1    1    3    3    0  502  0.61646516106E+03 -0.34245136003E+03 -0.10409163904E+04  0.12573023346E+04  0.50400001928E-02 0.  1.
</event>
<event>
 5   0  0.5735179E-07  0.2757510E+04  0.7818609E-02  0.8316582E-01
       -2   -1    0    0    0  501  0.00000000000E+00  0.00000000000E+00  0.74270144272E+03  0.74270144273E+03  0.25500000920E-02 0. -1.
        2   -1    0    0  501    0  0.00000000000E+00  0.00000000000E+00 -0.25595285179E+04  0.25595285179E+04  0.25500000920E-02 0.  1.
    10030    2    1    2    0    0  0.00000000000E+00  0.00000000000E+00 -0.18168270752E+04  0.33022299606E+04  0.27575101254E+04 0.  0.
        5    1    3    3  502    0 -0.17030343649E+03 -0.11579815327E+04 -0.35753267170E+02  0.11709931155E+04  0.46999998093E+01 0. -1.
       -5    1    3    3    0  502  0.17030343649E+03  0.11579815327E+04 -0.17810738080E+04  0.21312368451E+04  0.46999998093E+01 0.  1.
</event>
<event>
 5   0  0.1860500E-07  0.3974578E+04  0.7818609E-02  0.8009695E-01
       -1   -1    0    0    0  501  0.00000000000E+00  0.00000000000E+00  0.25340759133E+04  0.25340759133E+04  0.50400001928E-02 0.  1.
        1   -1    0    0  501    0  0.00000000000E+00  0.00000000000E+00 -0.15584844501E+04  0.15584844501E+04  0.50400001928E-02 0. -1.
    10030    2    1    2    0    0  0.00000000000E+00  0.00000000000E+00  0.97559146329E+03  0.40925603634E+04  0.39745781694E+04 0.  0.
        5    1    3    3  502    0  0.16193602989E+04  0.95986012622E+03 -0.16800606990E+03  0.18899490388E+04  0.46999998093E+01 0. -1.
       -5    1    3    3    0  502 -0.16193602989E+04 -0.95986012622E+03  0.11435975332E+04  0.22026113247E+04  0.46999998093E+01 0.  1.
</event>
<event>
 5   0  0.3959190E-07  0.3935123E+04  0.7818609E-02  0.8017764E-01
        2   -1    0    0  501    0  0.00000000000E+00  0.00000000000E+00  0.15672429182E+04  0.15672429182E+04  0.25500000920E-02 0.  1.
       -2   -1    0    0    0  501  0.00000000000E+00  0.00000000000E+00 -0.24701334877E+04  0.24701334877E+04  0.25500000920E-02 0. -1.
    10030    2    1    2    0    0  0.00000000000E+00  0.00000000000E+00 -0.90289056945E+03  0.40373764059E+04  0.39351234876E+04 0.  0.
        2    1    3    3  502    0 -0.85407220528E+03 -0.94471523165E+03 -0.19902078617E+04  0.23628062836E+04  0.25500000920E-02 0. -1.
       -2    1    3    3    0  502  0.85407220528E+03  0.94471523165E+03  0.10873172923E+04  0.16745701224E+04  0.25500000920E-02 0.  1.
</event>
<event>
 5   0  0.5805753E-07  0.4564402E+04  0.7818609E-02  0.7899458E-01
        2   -1    0    0  501    0  0.00000000000E+00  0.00000000000E+00  0.25080003787E+04  0.25080003787E+04  0.25500000920E-02 0. -1.
       -2   -1    0    0    0  501  0.00000000000E+00  0.00000000000E+00 -0.20767303550E+04  0.20767303550E+04  0.25500000920E-02 0.  1.
    10030    2    1    2    0    0  0.00000000000E+00  0.00000000000E+00  0.43127002376E+03  0.45847307337E+04  0.45644016111E+04 0.  0.
        1    1    3    3  502    0 -0.20657454219E+04 -0.85020685013E+02  0.11863282348E+04  0.23836751762E+04  0.50400001928E-02 0. -1.
       -1    1    3    3    0  502  0.20657454219E+04  0.85020685013E+02 -0.75505821108E+03  0.22010555575E+04  0.50400001928E-02 0.  1.
</event>
<event>
 5   0  0.1943459E-07  0.3929131E+04  0.7818609E-02  0.8018998E-01
        1   -1    0    0  501    0  0.00000000000E+00  0.00000000000E+00  0.15772950824E+04  0.15772950825E+04  0.50400001928E-02 0. -1.
       -1   -1    0    0    0  501  0.00000000000E+00  0.00000000000E+00 -0.24469219386E+04  0.24469219386E+04  0.50400001928E-02 0.  1.
    10030    2    1    2    0    0  0.00000000000E+00  0.00000000000E+00 -0.86962685614E+03  0.40242170211E+04  0.39291311716E+04 0.  0.
        2    1    3    3  502    0  0.58344707992E+03 -0.16859049449E+04  0.40779402387E+03  0.18300223890E+04  0.25500000920E-02 0. -1.
       -2    1    3    3    0  502 -0.58344707992E+03  0.16859049449E+04 -0.12774208800E+04  0.21941946320E+04  0.25500000920E-02 0.  1.
</event>
<event>
 5   0  0.1876027E-07  0.3931204E+04  0.7818609E-02  0.8018571E-01
       -1   -1    0    0    0  501  0.00000000000E+00  0.00000000000E+00  0.19030655390E+04  0.19030655390E+04  0.50400001928E-02 0.  1.
        1   -1    0    0  501    0  0.00000000000E+00  0.00000000000E+00 -0.20301933461E+04  0.20301933461E+04  0.50400001928E-02 0. -1.
    10030    2    1    2    0    0  0.00000000000E+00  0.00000000000E+00 -0.12712780710E+03  0.39332588851E+04  0.39312038840E+04 0.  0.
        3    1    3    3  502    0  0.79516722839E+03 -0.13397583977E+04 -0.12626675549E+04  0.20053859602E+04  0.10100000352E+00 0. -1.
       -3    1    3    3    0  502 -0.79516722839E+03  0.13397583977E+04  0.11355397478E+04  0.19278729248E+04  0.10100000352E+00 0.  1.
</event>
<event>
 5   0  0.3959190E-07  0.3851414E+04  0.7818609E-02  0.8035211E-01
       -2   -1    0    0    0  501  0.00000000000E+00  0.00000000000E+00  0.18957187982E+04  0.18957187982E+04  0.25500000920E-02 0. -1.
        2   -1    0    0  501    0  0.00000000000E+00  0.00000000000E+00 -0.19561699625E+04  0.19561699625E+04  0.25500000920E-02 0.  1.
    10030    2    1    2    0    0  0.00000000000E+00  0.00000000000E+00 -0.60451164396E+02  0.38518887607E+04  0.38514143742E+04 0.  0.
        2    1    3    3  502    0  0.14971981473E+04  0.16038626053E+03 -0.12307992512E+04  0.19447860658E+04  0.25500000920E-02 0.  1.
       -2    1    3    3    0  502 -0.14971981473E+04 -0.16038626053E+03  0.11703480868E+04  0.19071026949E+04  0.25500000920E-02 0. -1.
</event>
<event>
 5   0  0.2666813E-07  0.3898230E+04  0.7818609E-02  0.8025397E-01
        1   -1    0    0  501    0  0.00000000000E+00  0.00000000000E+00  0.25153411813E+04  0.25153411813E+04  0.50400001928E-02 0.  1.
       -1   -1    0    0    0  501  0.00000000000E+00  0.00000000000E+00 -0.15103514310E+04  0.15103514310E+04  0.50400001928E-02 0. -1.
    10030    2    1    2    0    0  0.00000000000E+00  0.00000000000E+00  0.10049897502E+04  0.40256926123E+04  0.38982299330E+04 0.  0.
        1    1    3    3  502    0 -0.89137980029E+03 -0.72328998194E+03  0.21292288702E+04  0.24189505841E+04  0.50400001928E-02 0.  1.
       -1    1    3    3    0  502  0.89137980029E+03  0.72328998194E+03 -0.11242391200E+04  0.16067420282E+04  0.50400001928E-02 0. -1.
</event>
<event>
 5   0  0.1860500E-07  0.3890217E+04  0.7818609E-02  0.8027067E-01
       -1   -1    0    0    0  501  0.00000000000E+00  0.00000000000E+00  0.29623451463E+04  0.29623451463E+04  0.50400001928E-02 0.  1.
        1   -1    0    0  501    0  0.00000000000E+00  0.00000000000E+00 -0.12771795200E+04  0.12771795200E+04  0.50400001928E-02 0. -1.
    10030    2    1    2    0    0  0.00000000000E+00  0.00000000000E+00  0.16851656263E+04  0.42395246663E+04  0.38902167302E+04 0.  0.
        4    1    3    3  502    0  0.63156516889E+03 -0.48280245983E+03 -0.10920569368E+04  0.13507637632E+04  0.12699999809E+01 0. -1.
       -4    1    3    3    0  502 -0.63156516889E+03  0.48280245983E+03  0.27772225631E+04  0.28887609032E+04  0.12699999809E+01 0.  1.
</event>
<event>
 5   0  0.1943459E-07  0.2597251E+04  0.7818609E-02  0.8369136E-01
       -1   -1    0    0    0  501  0.00000000000E+00  0.00000000000E+00  0.23193420243E+04  0.23193420243E+04  0.50400001928E-02 0.  1.
        1   -1    0    0  501    0  0.00000000000E+00  0.00000000000E+00 -0.72711484910E+03  0.72711484912E+03  0.50400001928E-02 0. -1.
    10030    2    1    2    0    0  0.00000000000E+00  0.00000000000E+00  0.15922271752E+04  0.30464568734E+04  0.25972508743E+04 0.  0.
        2    1    3    3  502    0 -0.59758627399E+03 -0.10650474763E+04  0.13140663295E+04  0.17939358406E+04  0.25500000920E-02 0.  1.
       -2    1    3    3    0  502  0.59758627399E+03  0.10650474763E+04  0.27816084563E+03  0.12525210328E+04  0.25500000920E-02 0. -1.
</event>
<event>
 5   0  0.6095665E-07  0.3269798E+04  0.7818609E-02  0.8170623E-01
       -2   -1    0    0    0  501  0.00000000000E+00  0.00000000000E+00  0.11243656326E+04  0.11243656326E+04  0.25500000920E-02 0. -1.
        2   -1    0    0  501    0  0.00000000000E+00  0.00000000000E+00 -0.23772472786E+04  0.23772472786E+04  0.25500000920E-02 0.  1.
    10030    2    1    2    0    0  0.00000000000E+00  0.00000000000E+00 -0.12528816460E+04  0.35016129112E+04  0.32697982447E+04 0.  0.
        4    1    3    3  502    0 -0.93657956334E+03  0.72592003860E+01 -0.20614648702E+04  0.22642599229E+04  0.12699999809E+01 0.  1.
       -4    1    3    3    0  502  0.93657956334E+03 -0.72592003860E+01  0.80858322416E+03  0.12373529883E+04  0.12699999809E+01 0. -1.
</event>
<event>
 5   0  0.5735179E-07  0.4006830E+04  0.7818609E-02  0.8003170E-01
        2   -1    0    0  501    0  0.00000000000E+00  0.00000000000E+00  0.16267261256E+04  0.16267261256E+04  0.25500000920E-02 0.  1.
       -2   -1    0    0    0  501  0.00000000000E+00  0.00000000000E+00 -0.24673311914E+04  0.24673311914E+04  0.25500000920E-02 0. -1.
    10030    2    1    2    0    0  0.00000000000E+00  0.00000000000E+00 -0.84060506587E+03  0.40940573170E+04  0.40068302233E+04 0.  0.
        5    1    3    3  502    0 -0.11518035430E+04  0.11938494098E+04 -0.15680196284E+04  0.22826816379E+04  0.46999998093E+01 0. -1.
       -5    1    3    3    0  502  0.11518035430E+04 -0.11938494098E+04  0.72741456249E+03  0.18113756791E+04  0.46999998093E+01 0.  1.
</event>
<event>
 5   0  0.6095665E-07  0.3871631E+04  0.7818609E-02  0.8030955E-01
        2   -1    0    0  501    0  0.00000000000E+00  0.00000000000E+00  0.25934072947E+04  0.25934072947E+04  0.25500000920E-02 0. -1.
       -2   -1    0    0    0  501  0.00000000000E+00  0.00000000000E+00 -0.14449647356E+04  0.14449647356E+04  0.25500000920E-02 0.  1.
    10030    2    1    2    0    0  0.00000000000E+00  0.00000000000E+00  0.11484425591E+04  0.40383720303E+04  0.38716312252E+04 0.  0.
        4    1    3    3  502    0  0.12740256145E+04 -0.38361035020E+03  0.20408653007E+04  0.24362739903E+04  0.12699999809E+01 0. -1.
       -4    1    3    3    0  502 -0.12740256145E+04  0.38361035020E+03 -0.89242274162E+03  0.16020980400E+04  0.12699999809E+01 0.  1.
</event>
<event>
 5   0  0.6095665E-07  0.3889717E+04  0.7818609E-02  0.8027171E-01
       -2   -1    0    0    0  501  0.00000000000E+00  0.00000000000E+00  0.28556066438E+04  0.28556066438E+04  0.25500000920E-02 0. -1.
        2   -1    0    0  501    0  0.00000000000E+00  0.00000000000E+00 -0.13245785999E+04  0.13245785999E+04  0.25500000920E-02 0.  1.
    10030    2    1    2    0    0  0.00000000000E+00  0.00000000000E+00  0.15310280439E+04  0.41801852437E+04  0.38897174448E+04 0.  0.
        4    1    3    3  502    0  0.33605221439E+03  0.13779644583E+04  0.21955827828E+04  0.26138673471E+04  0.12699999809E+01 0. -1.
       -4    1    3    3    0  502 -0.33605221439E+03 -0.13779644583E+04 -0.66455473894E+03  0.15663178966E+04  0.12699999809E+01 0.  1.
</event>
<event>
 5   0  0.5735179E-07  0.3974637E+04  0.7818609E-02  0.8009683E-01
       -2   -1    0    0    0  501  0.00000000000E+00  0.00000000000E+00  0.14051395473E+04  0.14051395473E+04  0.25500000920E-02 0. -1.
        2   -1    0    0  501    0  0.00000000000E+00  0.00000000000E+00 -0.28107065858E+04  0.28107065858E+04  0.25500000920E-02 0.  1.
    10030    2    1    2    0    0  0.00000000000E+00  0.00000000000E+00 -0.14055670385E+04  0.42158461332E+04  0.39746370802E+04 0.  0.
        5    1    3    3  502    0  0.14561157224E+02  0.47001247278E+03  0.13452736008E+04  0.14250989098E+04  0.46999998093E+01 0. -1.
       -5    1    3    3    0  502 -0.14561157224E+02 -0.47001247278E+03 -0.27508406393E+04  0.27907472234E+04  0.46999998093E+01 0.  1.
</event>
<event>
 5   0  0.5805753E-07  0.3892585E+04  0.7818609E-02  0.8026573E-01
        2   -1    0    0  501    0  0.00000000000E+00  0.00000000000E+00  0.19347549950E+04  0.19347549950E+04  0.25500000920E-02 0.  1.
       -2   -1    0    0    0  501  0.00000000000E+00  0.00000000000E+00 -0.19578991366E+04  0.19578991366E+04  0.25500000920E-02 0. -1.
    10030    2    1    2    0    0  0.00000000000E+00  0.00000000000E+00 -0.23144141606E+02  0.38926541317E+04  0.38925853282E+04 0.  0.
        1    1    3    3  502    0 -0.14854517687E+04  0.58703155849E+03 -0.11237437537E+04  0.19529395873E+04  0.50400001928E-02 0. -1.
       -1    1    3    3    0  502  0.14854517687E+04 -0.58703155849E+03  0.11005996121E+04  0.19397145444E+04  0.50400001928E-02 0.  1.
</event>
<event>
 5   0  0.6095665E-07  0.3922199E+04  0.7818609E-02  0.8020428E-01
        2   -1    0    0  501    0  0.00000000000E+00  0.00000000000E+00  0.18795634627E+04  0.18795634627E+04  0.25500000920E-02 0. -1.
       -2   -1    0    0    0  501  0.00000000000E+00  0.00000000000E+00 -0.20461725300E+04  0.20461725300E+04  0.25500000920E-02 0.  1.
    10030    2    1    2    0    0  0.00000000000E+00  0.00000000000E+00 -0.16660906731E+03  0.39257359927E+04  0.39221989372E+04 0.  0.
        4    1    3    3  502    0 -0.14536710570E+04  0.80351898682E+03  0.96028006211E+03  0.19185780450E+04  0.12699999809E+01 0.  1.
       -4    1    3    3    0  502  0.14536710570E+04 -0.80351898682E+03 -0.11268891294E+04  0.20071579477E+04  0.12699999809E+01 0. -1.
</event>
<event>
 5   0  0.2624719E-07  0.2484341E+04  0.7818609E-02  0.8408585E-01
        1   -1    0    0  501    0  0.00000000000E+00  0.00000000000E+00  0.15225791196E+04  0.15225791196E+04  0.50400001928E-02 0. -1.
       -1   -1    0    0    0  501  0.00000000000E+00  0.00000000000E+00 -0.10134038870E+04  0.10134038870E+04  0.50400001928E-02 0.  1.
    10030    2    1    2    0    0  0.00000000000E+00  0.00000000000E+00  0.50917523261E+03  0.25359830067E+04  0.24843410379E+04 0.  0.
        3    1    3    3  502    0 -0.22780417774E+03  0.59213526813E+03  0.13447138853E+04  0.14868672983E+04  0.10100000352E+00 0. -1.
       -3    1    3    3    0  502  0.22780417774E+03 -0.59213526813E+03 -0.83553865272E+03  0.10491157084E+04  0.10100000352E+00 0.  1.
</event>
<event>
 5   0  0.1943459E-07  0.3847349E+04  0.7818609E-02  0.8036070E-01
       -1   -1    0    0    0  501  0.00000000000E+00  0.00000000000E+00  0.23940991257E+04  0.23940991257E+04  0.50400001928E-02 0. -1.
        1   -1    0    0  501    0  0.00000000000E+00  0.00000000000E+00 -0.15456851943E+04  0.15456851943E+04  0.50400001928E-02 0.  1.
    10030    2    1    2    0    0  0.00000000000E+00  0.00000000000E+00  0.84841393142E+03  0.39397843200E+04  0.38473489949E+04 0.  0.
        2    1    3    3  502    0  0.15143879196E+04  0.11588836745E+04  0.16486058957E+03  0.19140431437E+04  0.25500000920E-02 0.  1.
       -2    1    3    3    0  502 -0.15143879196E+04 -0.11588836745E+04  0.68355334185E+03  0.20257411763E+04  0.25500000920E-02 0. -1.
</event>
<event>
 5   0  0.1860500E-07  0.3917642E+04  0.7818609E-02  0.8021370E-01
        1   -1    0    0  501    0  0.00000000000E+00  0.00000000000E+00  0.11310687972E+04  0.11310687972E+04  0.50400001928E-02 0.  1.
       -1   -1    0    0    0  501  0.00000000000E+00  0.00000000000E+00 -0.33923494260E+04  0.33923494260E+04  0.50400001928E-02 0. -1.
    10030    2    1    2    0    0  0.00000000000E+00  0.00000000000E+00 -0.22612806289E+04  0.45234182232E+04  0.39176424467E+04 0.  0.
        5    1    3    3  502    0 -0.11021248544E+04 -0.10486030214E+04  0.29414913294E+03  0.15494493517E+04  0.46999998093E+01 0.  1.
       -5    1    3    3    0  502  0.11021248544E+04  0.10486030214E+04 -0.25554297618E+04  0.29739688715E+04  0.46999998093E+01 0. -1.
</event>
<event>
 5   0  0.6095665E-07  0.3836843E+04  0.7818609E-02  0.8038294E-01
        2   -1    0    0  501    0  0.00000000000E+00  0.00000000000E+00  0.22108727190E+04  0.22108727190E+04  0.25500000920E-02 0. -1.
       -2   -1    0    0    0  501  0.00000000000E+00  0.00000000000E+00 -0.16646549687E+04  0.16646549687E+04  0.25500000920E-02 0.  1.
    10030    2    1    2    0    0  0.00000000000E+00  0.00000000000E+00  0.54621775033E+03  0.38755276877E+04  0.38368425857E+04 0.  0.
        4    1    3    3  502    0 -0.12675959811E+04  0.14361502540E+04  0.16711506370E+03  0.19228250520E+04  0.12699999809E+01 0.  1.
       -4    1    3    3    0  502  0.12675959811E+04 -0.14361502540E+04  0.37910268663E+03  0.19527026356E+04  0.12699999809E+01 0. -1.
</event>
<event>
 5   0  0.1860500E-07  0.2573875E+04  0.7818609E-02  0.8377130E-01
       -1   -1    0    0    0  501  0.00000000000E+00  0.00000000000E+00  0.11617734679E+04  0.11617734679E+04  0.50400001928E-02 0. -1.
        1   -1    0    0  501    0  0.00000000000E+00  0.00000000000E+00 -0.14255864559E+04  0.14255864559E+04  0.50400001928E-02 0.  1.
    10030    2    1    2    0    0  0.00000000000E+00  0.00000000000E+00 -0.26381298807E+03  0.25873599238E+04  0.25738753044E+04 0.  0.
        4    1    3    3  502    0  0.61153932286E+03  0.73194118831E+03  0.73661576181E+03  0.12051234957E+04  0.12699999809E+01 0. -1.
       -4    1    3    3    0  502 -0.61153932286E+03 -0.73194118831E+03 -0.10004287499E+04  0.13822364281E+04  0.12699999809E+01 0.  1.
</event>
<event>
 5   0  0.1860500E-07  0.3918182E+04  0.7818609E-02  0.8021258E-01
        1   -1    0    0  501    0  0.00000000000E+00  0.00000000000E+00  0.22257762055E+04  0.22257762055E+04  0.50400001928E-02 0. -1.
       -1   -1    0    0    0  501  0.00000000000E+00  0.00000000000E+00 -0.17243589420E+04  0.17243589421E+04  0.50400001928E-02 0.  1.
    10030    2    1    2    0    0  0.00000000000E+00  0.00000000000E+00  0.50141726345E+03  0.39501351476E+04  0.39181817737E+04 0.  0.
        5    1    3    3  502    0 -0.59118219378E+03 -0.75018742572E+03 -0.14737193052E+04  0.17561743195E+04  0.46999998093E+01 0.  1.
       -5    1    3    3    0  502  0.59118219378E+03  0.75018742572E+03  0.19751365687E+04  0.21939608280E+04  0.46999998093E+01 0. -1.
</event>
<event>
 5   0  0.1860500E-07  0.2609595E+04  0.7818609E-02  0.8364949E-01
       -1   -1    0    0    0  501  0.00000000000E+00  0.00000000000E+00  0.10427631051E+04  0.10427631051E+04  0.50400001928E-02 0.  1.
        1   -1    0    0  501    0  0.00000000000E+00  0.00000000000E+00 -0.16326778630E+04  0.16326778630E+04  0.50400001928E-02 0. -1.
    10030    2    1    2    0    0  0.00000000000E+00  0.00000000000E+00 -0.58991475793E+03  0.26754409681E+04  0.26095947869E+04 0.  0.
        4    1    3    3  502    0  0.47372813726E+02  0.54558389519E+03  0.91923487439E+03  0.10700001576E+04  0.12699999809E+01 0.  1.
       -4    1    3    3    0  502 -0.47372813726E+02 -0.54558389519E+03 -0.15091496323E+04  0.16054408104E+04  0.12699999809E+01 0. -1.
</event>
<event>
 5   0  0.1943459E-07  0.3915756E+04  0.7818609E-02  0.8021760E-01
       -1   -1    0    0    0  501  0.00000000000E+00  0.00000000000E+00  0.24262964805E+04  0.24262964805E+04  0.50400001928E-02 0.  1.
        1   -1    0    0  501    0  0.00000000000E+00  0.00000000000E+00 -0.15798917159E+04  0.15798917159E+04  0.50400001928E-02 0. -1.
    10030    2    1    2    0    0  0.00000000000E+00  0.00000000000E+00  0.84640476461E+03  0.40061881964E+04  0.39157557176E+04 0.  0.
        2    1    3    3  502    0 -0.69820488038E+03  0.32475691822E+03 -0.14184611277E+04  0.16139978568E+04  0.25500000920E-02 0. -1.
       -2    1    3    3    0  502  0.69820488038E+03 -0.32475691822E+03  0.22648658923E+04  0.23921903396E+04  0.25500000920E-02 0.  1.
</event>
<event>
 5   0  0.5872444E-07  0.3948530E+04  0.7818609E-02  0.8015011E-01
        2   -1    0    0  501    0  0.00000000000E+00  0.00000000000E+00  0.23739956666E+04  0.23739956666E+04  0.25500000920E-02 0. -1.
       -2   -1    0    0    0  501  0.00000000000E+00  0.00000000000E+00 -0.16418406755E+04  0.16418406755E+04  0.25500000920E-02 0.  1.
    10030    2    1    2    0    0  0.00000000000E+00  0.00000000000E+00  0.73215499106E+03  0.40158363421E+04  0.39485301816E+04 0.  0.
        3    1    3    3  502    0  0.84992732866E+03  0.17718550051E+04  0.55871579926E+03  0.20430393970E+04  0.10100000352E+00 0. -1.
       -3    1    3    3    0  502 -0.84992732866E+03 -0.17718550051E+04  0.17343919180E+03  0.19727969451E+04  0.10100000352E+00 0.  1.
</event>
<event>
 5   0  0.6095665E-07  0.2916726E+04  0.7818609E-02  0.8267918E-01
        2   -1    0    0  501    0  0.00000000000E+00  0.00000000000E+00  0.15640792073E+04  0.15640792073E+04  0.25500000920E-02 0. -1.
       -2   -1    0    0    0  501  0.00000000000E+00  0.00000000000E+00 -0.13597925430E+04  0.13597925430E+04  0.25500000920E-02 0.  1.
    10030    2    1    2    0    0  0.00000000000E+00  0.00000000000E+00  0.20428666422E+03  0.29238717503E+04  0.29167264135E+04 0.  0.
        4    1    3    3  502    0  0.40830728106E+02 -0.14540776002E+04 -0.20960889043E+01  0.14546528185E+04  0.12699999809E+01 0.  1.
       -4    1    3    3    0  502 -0.40830728106E+02  0.14540776002E+04  0.20638275313E+03  0.14692189318E+04  0.12699999809E+01 0. -1.
</event>
<event>
 5   0  0.1876027E-07  0.3374048E+04  0.7818609E-02  0.8144305E-01
       -1   -1    0    0    0  501  0.00000000000E+00  0.00000000000E+00  0.15084039261E+04  0.15084039261E+04  0.50400001928E-02 0. -1.
        1   -1    0    0  501    0  0.00000000000E+00  0.00000000000E+00 -0.18867956245E+04  0.18867956245E+04  0.50400001928E-02 0.  1.
    10030    2    1    2    0    0  0.00000000000E+00  0.00000000000E+00 -0.37839169841E+03  0.33951995506E+04  0.33740479710E+04 0.  0.
        3    1    3    3  502    0  0.10886619883E+04  0.15587527753E+01 -0.14860194325E+04  0.18421295064E+04  0.10100000352E+00 0.  1.
       -3    1    3    3    0  502 -0.10886619883E+04 -0.15587527753E+01  0.11076277341E+04  0.15530700442E+04  0.10100000352E+00 0. -1.
</event>
<event>
 5   0  0.5735179E-07  0.3869368E+04  0.7818609E-02  0.8031430E-01
        2   -1    0    0  501    0  0.00000000000E+00  0.00000000000E+00  0.23763532162E+04  0.23763532162E+04  0.25500000920E-02 0.  1.
       -2   -1    0    0    0  501  0.00000000000E+00  0.00000000000E+00 -0.15751031499E+04  0.15751031499E+04  0.25500000920E-02 0. -1.
    10030    2    1    2    0    0  0.00000000000E+00  0.00000000000E+00  0.80125006621E+03  0.39514563661E+04  0.38693676156E+04 0.  0.
        5    1    3    3  502    0  0.13002402765E+03  0.14759268823E+04 -0.86983908703E+03  0.17181119105E+04  0.46999998093E+01 0. -1.
       -5    1    3    3    0  502 -0.13002402765E+03 -0.14759268823E+04  0.16710891532E+04  0.22333444557E+04  0.46999998093E+01 0.  1.
</event>
<event>
 5   0  0.3959190E-07  0.4103145E+04  0.7818609E-02  0.7984056E-01
       -2   -1    0    0    0  501  0.00000000000E+00  0.00000000000E+00  0.20270963239E+04  0.20270963239E+04  0.25500000920E-02 0.  1.
        2   -1    0    0  501    0  0.00000000000E+00  0.00000000000E+00 -0.20763442432E+04  0.20763442432E+04  0.25500000920E-02 0. -1.
    10030    2    1    2    0    0  0.00000000000E+00  0.00000000000E+00 -0.49247919276E+02  0.41034405671E+04  0.41031450291E+04 0.  0.
        2    1    3    3  502    0  0.11980923555E+04  0.94535921750E+02  0.16382006598E+04  0.20317637004E+04  0.25500000920E-02 0.  1.
       -2    1    3    3    0  502 -0.11980923555E+04 -0.94535921750E+02 -0.16874485790E+04  0.20716768666E+04  0.25500000920E-02 0. -1.
</event>
<event>
 5   0  0.1860500E-07  0.3808392E+04  0.7818609E-02  0.8044356E-01
       -1   -1    0    0    0  501  0.00000000000E+00  0.00000000000E+00  0.13590621470E+04  0.13590621470E+04  0.50400001928E-02 0.  1.
        1   -1    0    0  501    0  0.00000000000E+00  0.00000000000E+00 -0.26679887689E+04  0.26679887689E+04  0.50400001928E-02 0. -1.
    10030    2    1    2    0    0  0.00000000000E+00  0.00000000000E+00 -0.13089266220E+04  0.40270509159E+04  0.38083920725E+04 0.  0.
        4    1    3    3  502    0  0.16785852272E+04 -0.18425471019E+02 -0.16049453417E+04  0.23224639987E+04  0.12699999809E+01 0. -1.
       -4    1    3    3    0  502 -0.16785852272E+04  0.18425471019E+02  0.29601871971E+03  0.17045869172E+04  0.12699999809E+01 0.  1.
</event>
<event>
 5   0  0.6095665E-07  0.3248998E+04  0.7818609E-02  0.8175995E-01
       -2   -1    0    0    0  501  0.00000000000E+00  0.00000000000E+00  0.12133437682E+04  0.12133437682E+04  0.25500000920E-02 0. -1.
        2   -1    0    0  501    0  0.00000000000E+00  0.00000000000E+00 -0.21749790995E+04  0.21749790995E+04  0.25500000920E-02 0.  1.
    10030    2    1    2    0    0  0.00000000000E+00  0.00000000000E+00 -0.96163533125E+03  0.33883228677E+04  0.32489982064E+04 0.  0.
        4    1    3    3  502    0 -0.15627578255E+03 -0.31060820417E+03 -0.21357165739E+04  0.21638360552E+04  0.12699999809E+01 0.  1.
       -4    1    3    3    0  502  0.15627578255E+03  0.31060820417E+03  0.11740812427E+04  0.12244868125E+04  0.12699999809E+01 0. -1.
</event>
<event>
 5   0  0.1860500E-07  0.3983185E+04  0.7818609E-02  0.8007947E-01
       -1   -1    0    0    0  501  0.00000000000E+00  0.00000000000E+00  0.22714477533E+04  0.22714477533E+04  0.50400001928E-02 0. -1.
        1   -1    0    0  501    0  0.00000000000E+00  0.00000000000E+00 -0.17462165971E+04  0.17462165971E+04  0.50400001928E-02 0.  1.
    10030    2    1    2    0    0  0.00000000000E+00  0.00000000000E+00  0.52523115623E+03  0.40176643504E+04  0.39831845381E+04 0.  0.
        4    1    3    3  502    0 -0.44913443389E+03  0.86940742825E+03 -0.14870026156E+04  0.17801037632E+04  0.12699999809E+01 0.  1.
       -4    1    3    3    0  502  0.44913443389E+03 -0.86940742825E+03  0.20122337718E+04  0.22375605872E+04  0.12699999809E+01 0. -1.
</event>
<event>
 5   0  0.2827169E-07  0.2385997E+04  0.7818609E-02  0.8444765E-01
        1   -1    0    0  501    0  0.00000000000E+00  0.00000000000E+00  0.15829808958E+04  0.15829808958E+04  0.50400001928E-02 0. -1.
       -1   -1    0    0    0  501  0.00000000000E+00  0.00000000000E+00 -0.89909232665E+03  0.89909232666E+03  0.50400001928E-02 0.  1.
    10030    2    1    2    0    0  0.00000000000E+00  0.00000000000E+00  0.68388856915E+03  0.24820732225E+04  0.23859974658E+04 0.  0.
        1    1    3    3  502    0 -0.10255804829E+04 -0.39232528385E+03 -0.14321656089E+03  0.11073596700E+04  0.50400001928E-02 0.  1.
       -1    1    3    3    0  502  0.10255804829E+04  0.39232528385E+03  0.82710513004E+03  0.13747135525E+04  0.50400001928E-02 0. -1.
</event>
<event>
 5   0  0.5872444E-07  0.4049653E+04  0.7818609E-02  0.7994604E-01
       -2   -1    0    0    0  501  0.00000000000E+00  0.00000000000E+00  0.21358056291E+04  0.21358056291E+04  0.25500000920E-02 0.  1.
        2   -1    0    0  501    0  0.00000000000E+00  0.00000000000E+00 -0.19196139870E+04  0.19196139870E+04  0.25500000920E-02 0. -1.
    10030    2    1    2    0    0  0.00000000000E+00  0.00000000000E+00  0.21619164206E+03  0.40554196161E+04  0.40496530020E+04 0.  0.
        3    1    3    3  502    0 -0.11459209153E+04  0.63790652015E+03  0.16529729823E+04  0.21100661514E+04  0.10100000352E+00 0.  1.
       -3    1    3    3    0  502  0.11459209153E+04 -0.63790652015E+03 -0.14367813403E+04  0.19453534647E+04  0.10100000352E+00 0. -1.
</event>
<event>
 5   0  0.1860500E-07  0.2405745E+04  0.7818609E-02  0.8437356E-01
        1   -1    0    0  501    0  0.00000000000E+00  0.00000000000E+00  0.19487419473E+04  0.19487419474E+04  0.50400001928E-02 0.  1.
       -1   -1    0    0    0  501  0.00000000000E+00  0.00000000000E+00 -0.74248035688E+03  0.74248035689E+03  0.50400001928E-02 0. -1.
    10030    2    1    2    0    0  0.00000000000E+00  0.00000000000E+00  0.12062615905E+04  0.26912223042E+04  0.24057453037E+04 0.  0.
        5    1    3    3  502    0  0.97329598062E+03  0.69536261208E+03  0.74483650790E+03  0.14091265882E+04  0.46999998093E+01 0. -1.
       -5    1    3    3    0  502 -0.97329598062E+03 -0.69536261208E+03  0.46142508257E+03  0.12820957160E+04  0.46999998093E+01 0.  1.
</event>
<event>
 5   0  0.5805753E-07  0.3858280E+04  0.7818609E-02  0.8033763E-01
       -2   -1    0    0    0  501  0.00000000000E+00  0.00000000000E+00  0.14465589800E+04  0.14465589800E+04  0.25500000920E-02 0.  1.
        2   -1    0    0  501    0  0.00000000000E+00  0.00000000000E+00 -0.25727123869E+04  0.25727123869E+04  0.25500000920E-02 0. -1.
    10030    2    1    2    0    0  0.00000000000E+00  0.00000000000E+00 -0.11261534069E+04  0.40192713670E+04  0.38582795162E+04 0.  0.
        1    1    3    3  502    0 -0.17722849201E+04  0.14365579553E+03  0.21644466794E+03  0.17912228002E+04  0.50400001928E-02 0.  1.
       -1    1    3    3    0  502  0.17722849201E+04 -0.14365579553E+03 -0.13425980748E+04  0.22280485668E+04  0.50400001928E-02 0. -1.
</event>
<event>
 5   0  0.3959190E-07  0.3898175E+04  0.7818609E-02  0.8025409E-01
       -2   -1    0    0    0  501  0.00000000000E+00  0.00000000000E+00  0.31108146801E+04  0.31108146801E+04  0.25500000920E-02 0.  1.
        2   -1    0    0  501    0  0.00000000000E+00  0.00000000000E+00 -0.12212050672E+04  0.12212050672E+04  0.25500000920E-02 0. -1.
    10030    2    1    2    0    0  0.00000000000E+00  0.00000000000E+00  0.18896096130E+04  0.43320197473E+04  0.38981752913E+04 0.  0.
        2    1    3    3  502    0 -0.16329769288E+04 -0.32223015026E+03 -0.18221233375E+03  0.16744095241E+04  0.25500000920E-02 0. -1.
       -2    1    3    3    0  502  0.16329769288E+04  0.32223015026E+03  0.20718219467E+04  0.26576102232E+04  0.25500000920E-02 0.  1.
</event>
<event>
 5   0  0.5805753E-07  0.4069039E+04  0.7818609E-02  0.7990762E-01
       -2   -1    0    0    0  501  0.00000000000E+00  0.00000000000E+00  0.25377409558E+04  0.25377409558E+04  0.25500000920E-02 0.  1.
        2   -1    0    0  501    0  0.00000000000E+00  0.00000000000E+00 -0.16310842575E+04  0.16310842575E+04  0.25500000920E-02 0. -1.
    10030    2    1    2    0    0  0.00000000000E+00  0.00000000000E+00  0.90665669826E+03  0.41688252134E+04  0.40690388658E+04 0.  0.
        1    1    3    3  502    0 -0.10016101973E+04  0.13895029336E+04 -0.67146945372E+03  0.18397860249E+04  0.50400001928E-02 0. -1.
       -1    1    3    3    0  502  0.10016101973E+04 -0.13895029336E+04  0.15781261520E+04  0.23290391885E+04  0.50400001928E-02 0.  1.
</event>
<event>
 5   0  0.5805753E-07  0.2697009E+04  0.7818609E-02  0.8335976E-01
        2   -1    0    0  501    0  0.00000000000E+00  0.00000000000E+00  0.16665220516E+04  0.16665220516E+04  0.25500000920E-02 0.  1.
       -2   -1    0    0    0  501  0.00000000000E+00  0.00000000000E+00 -0.10911730420E+04  0.10911730420E+04  0.25500000920E-02 0. -1.
    10030    2    1    2    0    0  0.00000000000E+00  0.00000000000E+00  0.57534900952E+03  0.27576950936E+04  0.26970086664E+04 0.  0.
        1    1    3    3  502    0 -0.70282561583E+03 -0.68816612386E+03  0.12308883738E+04  0.15756340467E+04  0.50400001928E-02 0.  1.
       -1    1    3    3    0  502  0.70282561583E+03  0.68816612386E+03 -0.65553936432E+03  0.11820610469E+04  0.50400001928E-02 0. -1.
</event>
<event>
 5   0  0.5735179E-07  0.2919557E+04  0.7818609E-02  0.8267082E-01
       -2   -1    0    0    0  501  0.00000000000E+00  0.00000000000E+00  0.89665788302E+03  0.89665788302E+03  0.25500000920E-02 0. -1.
        2   -1    0    0  501    0  0.00000000000E+00  0.00000000000E+00 -0.23765516118E+04  0.23765516118E+04  0.25500000920E-02 0.  1.
    10030    2    1    2    0    0  0.00000000000E+00  0.00000000000E+00 -0.14798937288E+04  0.32732094949E+04  0.29195573207E+04 0.  0.
        5    1    3    3  502    0 -0.10292389572E+04 -0.99951829397E+03 -0.43794376054E+03  0.15000621582E+04  0.46999998093E+01 0. -1.
       -5    1    3    3    0  502  0.10292389572E+04  0.99951829397E+03 -0.10419499683E+04  0.17731473367E+04  0.46999998093E+01 0.  1.
</event>
<event>
 5   0  0.1860500E-07  0.3777749E+04  0.7818609E-02  0.8050947E-01
        1   -1    0    0  501    0  0.00000000000E+00  0.00000000000E+00  0.18528628364E+04  0.18528628364E+04  0.50400001928E-02 0.  1.
       -1   -1    0    0    0  501  0.00000000000E+00  0.00000000000E+00 -0.19255858407E+04  0.19255858407E+04  0.50400001928E-02 0. -1.
    10030    2    1    2    0    0  0.00000000000E+00  0.00000000000E+00 -0.72723004302E+02  0.37784486771E+04  0.37777487701E+04 0.  0.
        4    1    3    3  502    0 -0.82847852525E+03 -0.73287539902E+03 -0.15677760695E+04  0.19186991516E+04  0.12699999809E+01 0.  1.
       -4    1    3    3    0  502  0.82847852525E+03  0.73287539902E+03  0.14950530652E+04  0.18597495256E+04  0.12699999809E+01 0. -1.
</event>
<event>
 5   0  0.5735179E-07  0.3451065E+04  0.7818609E-02  0.8125486E-01
        2   -1    0    0  501    0  0.00000000000E+00  0.00000000000E+00  0.18940641383E+04  0.18940641383E+04  0.25500000920E-02 0.  1.
       -2   -1    0    0    0  501  0.00000000000E+00  0.00000000000E+00 -0.15719962385E+04  0.15719962385E+04  0.25500000920E-02 0. -1.
    10030    2    1    2    0    0  0.00000000000E+00  0.00000000000E+00  0.32206789982E+03  0.34660603769E+04  0.34510645899E+04 0.  0.
        5    1    3    3  502    0 -0.17196861810E+03 -0.71203067132E+03  0.17301538754E+04  0.18788335225E+04  0.46999998093E+01 0.  1.
       -5    1    3    3    0  502  0.17196861810E+03  0.71203067132E+03 -0.14080859756E+04  0.15872268544E+04  0.46999998093E+01 0. -1.
</event>
<event>
 5   0  0.2666813E-07  0.3972957E+04  0.7818609E-02  0.8010024E-01
        1   -1    0    0  501    0  0.00000000000E+00  0.00000000000E+00  0.16540808899E+04  0.16540808899E+04  0.50400001928E-02 0. -1.
       -1   -1    0    0    0  501  0.00000000000E+00  0.00000000000E+00 -0.23856733416E+04  0.23856733416E+04  0.50400001928E-02 0.  1.
    10030    2    1    2    0    0  0.00000000000E+00  0.00000000000E+00 -0.73159245165E+03  0.40397542315E+04  0.39729569259E+04 0.  0.
        1    1    3    3  502    0 -0.42397758241E+03 -0.80908071604E+03 -0.21594635975E+04  0.23447071511E+04  0.50400001928E-02 0.  1.
       -1    1    3    3    0  502  0.42397758241E+03  0.80908071604E+03  0.14278711459E+04  0.16950470804E+04  0.50400001928E-02 0. -1.
</event>
<event>
 5   0  0.1860500E-07  0.3903168E+04  0.7818609E-02  0.8024371E-01
        1   -1    0    0  501    0  0.00000000000E+00  0.00000000000E+00  0.31414170027E+04  0.31414170027E+04  0.50400001928E-02 0. -1.
       -1   -1    0    0    0  501  0.00000000000E+00  0.00000000000E+00 -0.12124085316E+04  0.12124085316E+04  0.50400001928E-02 0.  1.
    10030    2    1    2    0    0  0.00000000000E+00  0.00000000000E+00  0.19290084711E+04  0.43538255344E+04  0.39031683415E+04 0.  0.
        4    1    3    3  502    0  0.19844834035E+03 -0.16221254908E+04  0.21544470059E+04  0.27041295025E+04  0.12699999809E+01 0. -1.
       -4    1    3    3    0  502 -0.19844834035E+03  0.16221254908E+04 -0.22543853481E+03  0.16496960319E+04  0.12699999809E+01 0.  1.
</event>
<event>
 5   0  0.1860500E-07  0.3928888E+04  0.7818609E-02  0.8019048E-01
       -1   -1    0    0    0  501  0.00000000000E+00  0.00000000000E+00  0.22786385056E+04  0.22786385056E+04  0.50400001928E-02 0. -1.
        1   -1    0    0  501    0  0.00000000000E+00  0.00000000000E+00 -0.16935729971E+04  0.16935729971E+04  0.50400001928E-02 0.  1.
    10030    2    1    2    0    0  0.00000000000E+00  0.00000000000E+00  0.58506550854E+03  0.39722115027E+04  0.39288882108E+04 0.  0.
        5    1    3    3  502    0 -0.11675579783E+03 -0.19605861655E+04  0.33153958535E+03  0.19918510525E+04  0.46999998093E+01 0.  1.
       -5    1    3    3    0  502  0.11675579783E+03  0.19605861655E+04  0.25352592319E+03  0.19803604502E+04  0.46999998093E+01 0. -1.
</event>
<event>
 5   0  0.3959190E-07  0.3911584E+04  0.7818609E-02  0.8022624E-01
       -2   -1    0    0    0  501  0.00000000000E+00  0.00000000000E+00  0.29084002475E+04  0.29084002475E+04  0.25500000920E-02 0.  1.
        2   -1    0    0  501    0  0.00000000000E+00  0.00000000000E+00 -0.13151980989E+04  0.13151980989E+04  0.25500000920E-02 0. -1.
    10030    2    1    2    0    0  0.00000000000E+00  0.00000000000E+00  0.15932021486E+04  0.42235983464E+04  0.39115840661E+04 0.  0.
        2    1    3    3  502    0 -0.10452989773E+04 -0.12523678793E+04 -0.36837026705E+03  0.16723551987E+04  0.25500000920E-02 0. -1.
       -2    1    3    3    0  502  0.10452989773E+04  0.12523678793E+04  0.19615724156E+04  0.25512431477E+04  0.25500000920E-02 0.  1.
</event>
<event>
 5   0  0.2666813E-07  0.4078779E+04  0.7818609E-02  0.7988840E-01
       -1   -1    0    0    0  501  0.00000000000E+00  0.00000000000E+00  0.27656483982E+04  0.27656483982E+04  0.50400001928E-02 0.  1.
        1   -1    0    0  501    0  0.00000000000E+00  0.00000000000E+00 -0.15038463713E+04  0.15038463713E+04  0.50400001928E-02 0. -1.
    10030    2    1    2    0    0  0.00000000000E+00  0.00000000000E+00  0.12618020270E+04  0.42694947695E+04  0.40787793801E+04 0.  0.
        1    1    3    3  502    0 -0.48762573391E+03  0.96500551963E+03 -0.11791416943E+04  0.15998092525E+04  0.50400001928E-02 0. -1.
       -1    1    3    3    0  502  0.48762573391E+03 -0.96500551963E+03  0.24409437212E+04  0.26696855170E+04  0.50400001928E-02 0.  1.
</event>
<event>
 5   0  0.3959190E-07  0.3620575E+04  0.7818609E-02  0.8085795E-01
       -2   -1    0    0    0  501  0.00000000000E+00  0.00000000000E+00  0.32746425776E+04  0.32746425776E+04  0.25500000920E-02 0. -1.
        2   -1    0    0  501    0  0.00000000000E+00  0.00000000000E+00 -0.10007627975E+04  0.10007627975E+04  0.25500000920E-02 0.  1.
    10030    2    1    2    0    0  0.00000000000E+00  0.00000000000E+00  0.22738797802E+04  0.42754053751E+04  0.36205747979E+04 0.  0.
        2    1    3    3  502    0 -0.48438547325E+02  0.16930200372E+04  0.38222354992E+03  0.17363058433E+04  0.25500000920E-02 0.  1.
       -2    1    3    3    0  502  0.48438547325E+02 -0.16930200372E+04  0.18916562302E+04  0.25390995319E+04  0.25500000920E-02 0. -1.
</event>
<event>
 5   0  0.5735179E-07  0.2601943E+04  0.7818609E-02  0.8367542E-01
       -2   -1    0    0    0  501  0.00000000000E+00  0.00000000000E+00  0.10495953934E+04  0.10495953934E+04  0.25500000920E-02 0.  1.
        2   -1    0    0  501    0  0.00000000000E+00  0.00000000000E+00 -0.16125517382E+04  0.16125517382E+04  0.25500000920E-02 0. -1.
    10030    2    1    2    0    0  0.00000000000E+00  0.00000000000E+00 -0.56295634483E+03  0.26621471316E+04  0.26019430247E+04 0.  0.
        5    1    3    3  502    0 -0.12932515639E+04  0.13494943193E+03 -0.32481177870E+03  0.13402371948E+04  0.46999998093E+01 0. -1.
       -5    1    3    3    0  502  0.12932515639E+04 -0.13494943193E+03 -0.23814456613E+03  0.13219099368E+04  0.46999998093E+01 0.  1.
</event>
<event>
 5   0  0.1876027E-07  0.4027820E+04  0.7818609E-02  0.7998958E-01
       -1   -1    0    0    0  501  0.00000000000E+00  0.00000000000E+00  0.22267865803E+04  0.22267865803E+04  0.50400001928E-02 0. -1.
        1   -1    0    0  501    0  0.00000000000E+00  0.00000000000E+00 -0.18213838782E+04  0.18213838782E+04  0.50400001928E-02 0.  1.
    10030    2    1    2    0    0  0.00000000000E+00  0.00000000000E+00  0.40540270207E+03  0.40481704585E+04  0.40278198458E+04 0.  0.
        3    1    3    3  502    0  0.13611808863E+03 -0.14032545976E+04  0.16480848271E+04  0.21688326831E+04  0.10100000352E+00 0. -1.
       -3    1    3    3    0  502 -0.13611808863E+03  0.14032545976E+04 -0.12426821251E+04  0.18793377754E+04  0.10100000352E+00 0.  1.
</event>
<event>
 5   0  0.1860500E-07  0.3879990E+04  0.7818609E-02  0.8029204E-01
       -1   -1    0    0    0  501  0.00000000000E+00  0.00000000000E+00  0.14091989232E+04  0.14091989232E+04  0.50400001928E-02 0.  1.
        1   -1    0    0  501    0  0.00000000000E+00  0.00000000000E+00 -0.26707231846E+04  0.26707231846E+04  0.50400001928E-02 0. -1.
    10030    2    1    2    0    0  0.00000000000E+00  0.00000000000E+00 -0.12615242615E+04  0.40799221078E+04  0.38799898123E+04 0.  0.
        5    1    3    3  502    0  0.10741593208E+04  0.15931070142E+04 -0.91242659576E+03  0.21270525588E+04  0.46999998093E+01 0. -1.
       -5    1    3    3    0  502 -0.10741593208E+04 -0.15931070142E+04 -0.34909766570E+03  0.19528695490E+04  0.46999998093E+01 0.  1.
</event>
<event>
 5   0  0.3959190E-07  0.3749078E+04  0.7818609E-02  0.8057172E-01
        2   -1    0    0  501    0  0.00000000000E+00  0.00000000000E+00  0.23363623437E+04  0.23363623437E+04  0.25500000920E-02 0.  1.
       -2   -1    0    0    0  501  0.00000000000E+00  0.00000000000E+00 -0.15040031590E+04  0.15040031590E+04  0.25500000920E-02 0. -1.
    10030    2    1    2    0    0  0.00000000000E+00  0.00000000000E+00  0.83235918466E+03  0.38403655027E+04  0.37490779376E+04 0.  0.
        2    1    3    3  502    0 -0.12659214032E+04  0.76096793217E+02  0.18302079159E+04  0.22266586484E+04  0.25500000920E-02 0.  1.
       -2    1    3    3    0  502  0.12659214032E+04 -0.76096793217E+02 -0.99784873123E+03  0.16137068543E+04  0.25500000920E-02 0. -1.
</event>
<event>
 5   0  0.1860500E-07  0.3933126E+04  0.7818609E-02  0.8018175E-01
        1   -1    0    0  501    0  0.00000000000E+00  0.00000000000E+00  0.26738839044E+04  0.26738839044E+04  0.50400001928E-02 0.  1.
       -1   -1    0    0    0  501  0.00000000000E+00  0.00000000000E+00 -0.14463494808E+04  0.14463494808E+04  0.50400001928E-02 0. -1.
    10030    2    1    2    0    0  0.00000000000E+00  0.00000000000E+00  0.12275344236E+04  0.41202333852E+04  0.39331262867E+04 0.  0.
        4    1    3    3  502    0 -0.65783382032E+02 -0.99670178128E+03 -0.11608171798E+04  0.15314176543E+04  0.12699999809E+01 0. -1.
       -4    1    3    3    0  502  0.65783382032E+02  0.99670178128E+03  0.23883516034E+04  0.25888157309E+04  0.12699999809E+01 0.  1.
</event>
<event>
 5   0  0.5872444E-07  0.3758365E+04  0.7818609E-02  0.8055149E-01
        2   -1    0    0  501    0  0.00000000000E+00  0.00000000000E+00  0.17449417609E+04  0.17449417609E+04  0.25500000920E-02 0.  1.
       -2   -1    0    0    0  501  0.00000000000E+00  0.00000000000E+00 -0.20237510093E+04  0.20237510093E+04  0.25500000920E-02 0. -1.
    10030    2    1    2    0    0  0.00000000000E+00  0.00000000000E+00 -0.27880924839E+03  0.37686927702E+04  0.37583654159E+04 0.  0.
        3    1    3    3  502    0  0.15765068751E+04 -0.44809831439E+03 -0.10612574961E+04  0.19525453926E+04  0.10100000352E+00 0. -1.
       -3    1    3    3    0  502 -0.15765068751E+04  0.44809831439E+03  0.78244824773E+03  0.18161473776E+04  0.10100000352E+00 0.  1.
</event>
<event>
 5   0  0.5735179E-07  0.3918207E+04  0.7818609E-02  0.8021253E-01
        2   -1    0    0  501    0  0.00000000000E+00  0.00000000000E+00  0.20664429409E+04  0.20664429409E+04  0.25500000920E-02 0.  1.
       -2   -1    0    0    0  501  0.00000000000E+00  0.00000000000E+00 -0.18573397023E+04  0.18573397023E+04  0.25500000920E-02 0. -1.
    10030    2    1    2    0    0  0.00000000000E+00  0.00000000000E+00  0.20910323860E+03  0.39237826431E+04  0.39182069963E+04 0.  0.
        5    1    3    3  502    0 -0.15115657692E+04  0.59439593865E+03  0.12015221135E+04  0.20203502383E+04  0.46999998093E+01 0.  1.
       -5    1    3    3    0  502  0.15115657692E+04 -0.59439593865E+03 -0.99241887486E+03  0.19034324048E+04  0.46999998093E+01 0. -1.
</event>
<event>
 5   0  0.6095665E-07  0.2869875E+04  0.7818609E-02  0.8281897E-01
        2   -1    0    0  501    0  0.00000000000E+00  0.00000000000E+00  0.11877429303E+04  0.11877429303E+04  0.25500000920E-02 0. -1.
       -2   -1    0    0    0  501  0.00000000000E+00  0.00000000000E+00 -0.17335786378E+04  0.17335786378E+04  0.25500000920E-02 0.  1.
    10030    2    1    2    0    0  0.00000000000E+00  0.00000000000E+00 -0.54583570743E+03  0.29213215681E+04  0.28698750992E+04 0.  0.
        4    1    3    3  502    0 -0.23161599047E+03  0.12936930185E+04 -0.85922627477E+03  0.15702098578E+04  0.12699999809E+01 0.  1.
       -4    1    3    3    0  502  0.23161599047E+03 -0.12936930185E+04  0.31339056733E+03  0.13511117104E+04  0.12699999809E+01 0. -1.
</event>
<event>
 5   0  0.1860500E-07  0.3632877E+04  0.7818609E-02  0.8083002E-01
        1   -1    0    0  501    0  0.00000000000E+00  0.00000000000E+00  0.15584324779E+04  0.15584324779E+04  0.50400001928E-02 0. -1.
       -1   -1    0    0    0  501  0.00000000000E+00  0.00000000000E+00 -0.21171587952E+04  0.21171587953E+04  0.50400001928E-02 0.  1.
    10030    2    1    2    0    0  0.00000000000E+00  0.00000000000E+00 -0.55872631735E+03  0.36755912732E+04  0.36328771118E+04 0.  0.
        4    1    3    3  502    0  0.20249617600E+03  0.30491324979E+03 -0.20794590809E+04  0.21114280649E+04  0.12699999809E+01 0.  1.
       -4    1    3    3    0  502 -0.20249617600E+03 -0.30491324979E+03  0.15207327635E+04  0.15641632083E+04  0.12699999809E+01 0. -1.
</event>
<event>
 5   0  0.5805753E-07  0.3056400E+04  0.7818609E-02  0.8227807E-01
       -2   -1    0    0    0  501  0.00000000000E+00  0.00000000000E+00  0.11963415201E+04  0.11963415201E+04  0.25500000920E-02 0.  1.
        2   -1    0    0  501    0  0.00000000000E+00  0.00000000000E+00 -0.19521135408E+04  0.19521135408E+04  0.25500000920E-02 0. -1.
    10030    2    1    2    0    0  0.00000000000E+00  0.00000000000E+00 -0.75577202071E+03  0.31484550610E+04  0.30563995033E+04 0.  0.
        1    1    3    3  502    0 -0.73170758591E+03  0.44768883440E+03 -0.16807210717E+04  0.18869670386E+04  0.50400001928E-02 0. -1.
       -1    1    3    3    0  502  0.73170758591E+03 -0.44768883440E+03  0.92494905099E+03  0.12614880224E+04  0.50400001928E-02 0.  1.
</event>
<event>
 5   0  0.1860500E-07  0.3917294E+04  0.7818609E-02  0.8021442E-01
       -1   -1    0    0    0  501  0.00000000000E+00  0.00000000000E+00  0.29074768709E+04  0.29074768709E+04  0.50400001928E-02 0. -1.
        1   -1    0    0  501    0  0.00000000000E+00  0.00000000000E+00 -0.13194593367E+04  0.13194593367E+04  0.50400001928E-02 0.  1.
    10030    2    1    2    0    0  0.00000000000E+00  0.00000000000E+00  0.15880175342E+04  0.42269362076E+04  0.39172937105E+04 0.  0.
        4    1    3    3  502    0  0.22250071838E+03  0.17046057250E+04  0.18068801222E+04  0.24939937121E+04  0.12699999809E+01 0. -1.
       -4    1    3    3    0  502 -0.22250071838E+03 -0.17046057250E+04 -0.21886258801E+03  0.17329424955E+04  0.12699999809E+01 0.  1.
</event>
<event>
 5   0  0.3959190E-07  0.3896443E+04  0.7818609E-02  0.8025769E-01
        2   -1    0    0  501    0  0.00000000000E+00  0.00000000000E+00  0.26116266690E+04  0.26116266690E+04  0.25500000920E-02 0.  1.
       -2   -1    0    0    0  501  0.00000000000E+00  0.00000000000E+00 -0.14533345568E+04  0.14533345568E+04  0.25500000920E-02 0. -1.
    10030    2    1    2    0    0  0.00000000000E+00  0.00000000000E+00  0.11582921123E+04  0.40649612258E+04  0.38964431408E+04 0.  0.
        2    1    3    3  502    0  0.11752975211E+04  0.11894403770E+04  0.16221211751E+04  0.23296716035E+04  0.25500000920E-02 0.  1.
       -2    1    3    3    0  502 -0.11752975211E+04 -0.11894403770E+04 -0.46382906280E+03  0.17352896223E+04  0.25500000920E-02 0. -1.
</event>
<event>
 5   0  0.2666813E-07  0.3535117E+04  0.7818609E-02  0.8105518E-01
        1   -1    0    0  501    0  0.00000000000E+00  0.00000000000E+00  0.18787665678E+04  0.18787665678E+04  0.50400001928E-02 0. -1.
       -1   -1    0    0    0  501  0.00000000000E+00  0.00000000000E+00 -0.16629333444E+04  0.16629333444E+04  0.50400001928E-02 0.  1.
    10030    2    1    2    0    0  0.00000000000E+00  0.00000000000E+00  0.21583322336E+03  0.35416999122E+04  0.35351172948E+04 0.  0.
        1    1    3    3  502    0 -0.24135567002E+03  0.15415599831E+04 -0.72405357773E+03  0.17201492157E+04  0.50400001928E-02 0.  1.
       -1    1    3    3    0  502  0.24135567002E+03 -0.15415599831E+04  0.93988680109E+03  0.18215506965E+04  0.50400001928E-02 0. -1.
</event>
<event>
 5   0  0.5872444E-07  0.3756064E+04  0.7818609E-02  0.8055650E-01
       -2   -1    0    0    0  501  0.00000000000E+00  0.00000000000E+00  0.18455215962E+04  0.18455215962E+04  0.25500000920E-02 0. -1.
        2   -1    0    0  501    0  0.00000000000E+00  0.00000000000E+00 -0.19111155258E+04  0.19111155258E+04  0.25500000920E-02 0.  1.
    10030    2    1    2    0    0  0.00000000000E+00  0.00000000000E+00 -0.65593929528E+02  0.37566371220E+04  0.37560644168E+04 0.  0.
        3    1    3    3  502    0 -0.25461154139E+03 -0.59356717781E+03 -0.17965442130E+04  0.19091150178E+04  0.10100000352E+00 0.  1.
       -3    1    3    3    0  502  0.25461154139E+03  0.59356717781E+03  0.17309502835E+04  0.18475221042E+04  0.10100000352E+00 0. -1.
</event>
<event>
 5   0  0.5735179E-07  0.3610619E+04  0.7818609E-02  0.8088064E-01
        2   -1    0    0  501    0  0.00000000000E+00  0.00000000000E+00  0.21288611027E+04  0.21288611027E+04  0.25500000920E-02 0. -1.
       -2   -1    0    0    0  501  0.00000000000E+00  0.00000000000E+00 -0.15309325943E+04  0.15309325944E+04  0.25500000920E-02 0.  1.
    10030    2    1    2    0    0  0.00000000000E+00  0.00000000000E+00  0.59792850838E+03  0.36597936971E+04  0.36106192549E+04 0.  0.
        5    1    3    3  502    0  0.94018160637E+03  0.14919199097E+04 -0.92762977582E+02  0.17658973724E+04  0.46999998093E+01 0. -1.
       -5    1    3    3    0  502 -0.94018160637E+03 -0.14919199097E+04  0.69069148596E+03  0.18938963247E+04  0.46999998093E+01 0.  1.
</event>
<event>
 5   0  0.3959190E-07  0.3837754E+04  0.7818609E-02  0.8038101E-01
        2   -1    0    0  501    0  0.00000000000E+00  0.00000000000E+00  0.11574981356E+04  0.11574981356E+04  0.25500000920E-02 0.  1.
       -2   -1    0    0    0  501  0.00000000000E+00  0.00000000000E+00 -0.31810757502E+04  0.31810757502E+04  0.25500000920E-02 0. -1.
    10030    2    1    2    0    0  0.00000000000E+00  0.00000000000E+00 -0.20235776146E+04  0.43385738858E+04  0.38377541610E+04 0.  0.
        2    1    3    3  502    0  0.85510680374E+03 -0.57224679494E+03 -0.28428521265E+04  0.30233230481E+04  0.25500000920E-02 0. -1.
       -2    1    3    3    0  502 -0.85510680374E+03  0.57224679494E+03  0.81927451192E+03  0.13152508377E+04  0.25500000920E-02 0.  1.
</event>
<event>
 5   0  0.3959190E-07  0.2667624E+04  0.7818609E-02  0.8345587E-01
        2   -1    0    0  501    0  0.00000000000E+00  0.00000000000E+00  0.86780860236E+03  0.86780860237E+03  0.25500000920E-02 0. -1.
       -2   -1    0    0    0  501  0.00000000000E+00  0.00000000000E+00 -0.20500547143E+04  0.20500547143E+04  0.25500000920E-02 0.  1.
    10030    2    1    2    0    0  0.00000000000E+00  0.00000000000E+00 -0.11822461119E+04  0.29178633167E+04  0.26676244986E+04 0.  0.
        2    1    3    3  502    0 -0.49405314880E+03  0.52852030131E+03  0.63454139226E+03  0.96232271158E+03  0.25500000920E-02 0. -1.
       -2    1    3    3    0  502  0.49405314880E+03 -0.52852030131E+03 -0.18167875042E+04  0.19555406051E+04  0.25500000920E-02 0.  1.
</event>
<event>
 5   0  0.5805753E-07  0.4005827E+04  0.7818609E-02  0.8003372E-01
        2   -1    0    0  501    0  0.00000000000E+00  0.00000000000E+00  0.23700166164E+04  0.23700166164E+04  0.25500000920E-02 0.  1.
       -2   -1    0    0    0  501  0.00000000000E+00  0.00000000000E+00 -0.16926730381E+04  0.16926730381E+04  0.25500000920E-02 0. -1.
    10030    2    1    2    0    0  0.00000000000E+00  0.00000000000E+00  0.67734357830E+03  0.40626896545E+04  0.40058273684E+04 0.  0.
        1    1    3    3  502    0 -0.15756983290E+04  0.80440080468E+03  0.12910312222E+04  0.21901249953E+04  0.50400001928E-02 0.  1.
       -1    1    3    3    0  502  0.15756983290E+04 -0.80440080468E+03 -0.61368764390E+03  0.18725646592E+04  0.50400001928E-02 0. -1.
</event>
<event>
 5   0  0.1876027E-07  0.3879270E+04  0.7818609E-02  0.8029354E-01
       -1   -1    0    0    0  501  0.00000000000E+00  0.00000000000E+00  0.18999663766E+04  0.18999663766E+04  0.50400001928E-02 0.  1.
        1   -1    0    0  501    0  0.00000000000E+00  0.00000000000E+00 -0.19801321544E+04  0.19801321544E+04  0.50400001928E-02 0. -1.
    10030    2    1    2    0    0  0.00000000000E+00  0.00000000000E+00 -0.80165777804E+02  0.38800985310E+04  0.38792702997E+04 0.  0.
        3    1    3    3  502    0 -0.24508732878E+03  0.15778216738E+04  0.10613313425E+04  0.19172932123E+04  0.10100000352E+00 0.  1.
       -3    1    3    3    0  502  0.24508732878E+03 -0.15778216738E+04 -0.11414971203E+04  0.19628053187E+04  0.10100000352E+00 0. -1.
</event>
<event>
 5   0  0.1876027E-07  0.3894077E+04  0.7818609E-02  0.8026262E-01
        1   -1    0    0  501    0  0.00000000000E+00  0.00000000000E+00  0.13048865213E+04  0.13048865213E+04  0.50400001928E-02 0.  1.
       -1   -1    0    0    0  501  0.00000000000E+00  0.00000000000E+00 -0.29052015120E+04  0.29052015120E+04  0.50400001928E-02 0. -1.
    10030    2    1    2    0    0  0.00000000000E+00  0.00000000000E+00 -0.16003149907E+04  0.42100880333E+04  0.38940766786E+04 0.  0.
        3    1    3    3  502    0  0.12333556630E+04 -0.68357820143E+03 -0.22516870172E+04  0.26567912568E+04  0.10100000352E+00 0. -1.
       -3    1    3    3    0  502 -0.12333556630E+04  0.68357820143E+03  0.65137202641E+03  0.15532967765E+04  0.10100000352E+00 0.  1.
</event>
<event>
 5   0  0.5872444E-07  0.3400666E+04  0.7818609E-02  0.8137743E-01
        2   -1    0    0  501    0  0.00000000000E+00  0.00000000000E+00  0.19900480168E+04  0.19900480168E+04  0.25500000920E-02 0.  1.
       -2   -1    0    0    0  501  0.00000000000E+00  0.00000000000E+00 -0.14527949983E+04  0.14527949983E+04  0.25500000920E-02 0. -1.
    10030    2    1    2    0    0  0.00000000000E+00  0.00000000000E+00  0.53725301850E+03  0.34428430150E+04  0.34006657025E+04 0.  0.
        3    1    3    3  502    0  0.16924425555E+04  0.14506631395E+03  0.19201929138E+03  0.17094670098E+04  0.10100000352E+00 0.  1.
       -3    1    3    3    0  502 -0.16924425555E+04 -0.14506631395E+03  0.34523372712E+03  0.17333760052E+04  0.10100000352E+00 0. -1.
</event>
<event>
 5   0  0.1860500E-07  0.3137488E+04  0.7818609E-02  0.8205524E-01
        1   -1    0    0  501    0  0.00000000000E+00  0.00000000000E+00  0.13728038139E+04  0.13728038139E+04  0.50400001928E-02 0. -1.
       -1   -1    0    0    0  501  0.00000000000E+00  0.00000000000E+00 -0.17926503307E+04  0.17926503307E+04  0.50400001928E-02 0.  1.
    10030    2    1    2    0    0  0.00000000000E+00  0.00000000000E+00 -0.41984651677E+03  0.31654541446E+04  0.31374876644E+04 0.  0.
        4    1    3    3  502    0  0.46234987793E+03 -0.97482945202E+02 -0.17191465556E+04  0.17829012386E+04  0.12699999809E+01 0.  1.
       -4    1    3    3    0  502 -0.46234987793E+03  0.97482945202E+02  0.12993000388E+04  0.13825529060E+04  0.12699999809E+01 0. -1.
</event>
<event>
 5   0  0.3959190E-07  0.3952688E+04  0.7818609E-02  0.8014159E-01
        2   -1    0    0  501    0  0.00000000000E+00  0.00000000000E+00  0.18079112931E+04  0.18079112931E+04  0.25500000920E-02 0.  1.
       -2   -1    0    0    0  501  0.00000000000E+00  0.00000000000E+00 -0.21604688801E+04  0.21604688801E+04  0.25500000920E-02 0. -1.
    10030    2    1    2    0    0  0.00000000000E+00  0.00000000000E+00 -0.35255758705E+03  0.39683801733E+04  0.39526882431E+04 0.  0.
        2    1    3    3  502    0 -0.13385932724E+04 -0.86913658281E+03  0.99398404409E+03  0.18802219625E+04  0.25500000920E-02 0.  1.
       -2    1    3    3    0  502  0.13385932724E+04  0.86913658281E+03 -0.13465416311E+04  0.20881582107E+04  0.25500000920E-02 0. -1.
</event>
<event>
 5   0  0.1860500E-07  0.3852215E+04  0.7818609E-02  0.8035042E-01
        1   -1    0    0  501    0  0.00000000000E+00  0.00000000000E+00  0.26237699630E+04  0.26237699630E+04  0.50400001928E-02 0. -1.
       -1   -1    0    0    0  501  0.00000000000E+00  0.00000000000E+00 -0.14139541193E+04  0.14139541193E+04  0.50400001928E-02 0.  1.
    10030    2    1    2    0    0  0.00000000000E+00  0.00000000000E+00  0.12098158436E+04  0.40377240823E+04  0.38522151276E+04 0.  0.
        4    1    3    3  502    0  0.62632499985E+03 -0.17148933172E+04 -0.38447254202E+02  0.18260947125E+04  0.12699999809E+01 0.  1.
       -4    1    3    3    0  502 -0.62632499985E+03  0.17148933172E+04  0.12482630978E+04  0.22116293698E+04  0.12699999809E+01 0. -1.
</event>
<event>
 5   0  0.1860500E-07  0.4068953E+04  0.7818609E-02  0.7990779E-01
       -1   -1    0    0    0  501  0.00000000000E+00  0.00000000000E+00  0.14951033241E+04  0.14951033241E+04  0.50400001928E-02 0. -1.
        1   -1    0    0  501    0  0.00000000000E+00  0.00000000000E+00 -0.27684333737E+04  0.27684333737E+04  0.50400001928E-02 0.  1.
    10030    2    1    2    0    0  0.00000000000E+00  0.00000000000E+00 -0.12733300496E+04  0.42635366979E+04  0.40689526612E+04 0.  0.
        4    1    3    3  502    0  0.46045205686E+03  0.11614021516E+04 -0.23191355394E+04  0.26342479605E+04  0.12699999809E+01 0.  1.
       -4    1    3    3    0  502 -0.46045205686E+03 -0.11614021516E+04  0.10458054898E+04  0.16292887374E+04  0.12699999809E+01 0. -1.
</event>
<event>
 5   0  0.1860500E-07  0.3844462E+04  0.7818609E-02  0.8036680E-01
       -4   -1    0    0    0  501  0.00000000000E+00  0.00000000000E+00  0.16768807051E+04  0.16768811860E+04  0.12699999809E+01 0. -1.
        4   -1    0    0  501    0  0.00000000000E+00  0.00000000000E+00 -0.22034787179E+04  0.22034790839E+04  0.12699999809E+01 0.  1.
    10030    2    1    2    0    0  0.00000000000E+00  0.00000000000E+00 -0.52659801284E+03  0.38803602699E+04  0.38444622975E+04 0.  0.
        1    1    3    3  502    0 -0.54153136284E+03  0.11253826097E+04 -0.17381862197E+04  0.21403349200E+04  0.50400001928E-02 0.  1.
       -1    1    3    3    0  502  0.54153136284E+03 -0.11253826097E+04  0.12115882069E+04  0.17400253499E+04  0.50400001928E-02 0. -1.
</event>
<event>
 5   0  0.1876027E-07  0.2768053E+04  0.7818609E-02  0.8313256E-01
        1   -1    0    0  501    0  0.00000000000E+00  0.00000000000E+00  0.11830154508E+04  0.11830154509E+04  0.50400001928E-02 0.  1.
       -1   -1    0    0    0  501  0.00000000000E+00  0.00000000000E+00 -0.16191925314E+04  0.16191925314E+04  0.50400001928E-02 0. -1.
    10030    2    1    2    0    0  0.00000000000E+00  0.00000000000E+00 -0.43617708054E+03  0.28022079823E+04  0.27680533106E+04 0.  0.
        3    1    3    3  502    0  0.79575000174E+03  0.15062408985E+03 -0.13542665903E+04  0.15779555410E+04  0.10100000352E+00 0. -1.
       -3    1    3    3    0  502 -0.79575000174E+03 -0.15062408985E+03  0.91808950975E+03  0.12242524412E+04  0.10100000352E+00 0.  1.
</event>
<event>
 5   0  0.3959190E-07  0.3864996E+04  0.7818609E-02  0.8032349E-01
        2   -1    0    0  501    0  0.00000000000E+00  0.00000000000E+00  0.19097363359E+04  0.19097363359E+04  0.25500000920E-02 0.  1.
       -2   -1    0    0    0  501  0.00000000000E+00  0.00000000000E+00 -0.19555310309E+04  0.19555310309E+04  0.25500000920E-02 0. -1.
    10030    2    1    2    0    0  0.00000000000E+00  0.00000000000E+00 -0.45794694936E+02  0.38652673668E+04  0.38649960754E+04 0.  0.
        2    1    3    3  502    0 -0.17421188714E+04 -0.77081697209E+03 -0.34759181558E+03  0.19364805801E+04  0.25500000920E-02 0. -1.
       -2    1    3    3    0  502  0.17421188714E+04  0.77081697209E+03  0.30179712064E+03  0.19287867867E+04  0.25500000920E-02 0.  1.
</event>
<event>
 5   0  0.3959190E-07  0.2556268E+04  0.7818609E-02  0.8383210E-01
        2   -1    0    0  501    0  0.00000000000E+00  0.00000000000E+00  0.12651396056E+04  0.12651396056E+04  0.25500000920E-02 0.  1.
       -2   -1    0    0    0  501  0.00000000000E+00  0.00000000000E+00 -0.12912616764E+04  0.12912616764E+04  0.25500000920E-02 0. -1.
    10030    2    1    2    0    0  0.00000000000E+00  0.00000000000E+00 -0.26122070813E+02  0.25564012820E+04  0.25562678170E+04 0.  0.
        2    1    3    3  502    0  0.76973981698E+03  0.50910593149E+03 -0.89737981627E+03  0.12872368741E+04  0.25500000920E-02 0. -1.
       -2    1    3    3    0  502 -0.76973981698E+03 -0.50910593149E+03  0.87125774546E+03  0.12691644079E+04  0.25500000920E-02 0.  1.
</event>
<event>
 5   0  0.1943459E-07  0.3895250E+04  0.7818609E-02  0.8026018E-01
        1   -1    0    0  501    0  0.00000000000E+00  0.00000000000E+00  0.11557515625E+04  0.11557515625E+04  0.50400001928E-02 0. -1.
       -1   -1    0    0    0  501  0.00000000000E+00  0.00000000000E+00 -0.32820573231E+04  0.32820573231E+04  0.50400001928E-02 0.  1.
    10030    2    1    2    0    0  0.00000000000E+00  0.00000000000E+00 -0.21263057606E+04  0.44378088857E+04  0.38952498659E+04 0.  0.
        2    1    3    3  502    0  0.57198527879E+03 -0.15499046367E+04  0.11195524260E+03  0.16558700186E+04  0.25500000920E-02 0. -1.
       -2    1    3    3    0  502 -0.57198527879E+03  0.15499046367E+04 -0.22382610032E+04  0.27819388671E+04  0.25500000920E-02 0.  1.
</event>
<event>
 5   0  0.6095665E-07  0.2756772E+04  0.7818609E-02  0.8316816E-01
       -2   -1    0    0    0  501  0.00000000000E+00  0.00000000000E+00  0.11195606845E+04  0.11195606845E+04  0.25500000920E-02 0.  1.
        2   -1    0    0  501    0  0.00000000000E+00  0.00000000000E+00 -0.16970481524E+04  0.16970481524E+04  0.25500000920E-02 0. -1.
    10030    2    1    2    0    0  0.00000000000E+00  0.00000000000E+00 -0.57748746790E+03  0.28166088369E+04  0.27567723092E+04 0.  0.
        4    1    3    3  502    0 -0.89343050467E+03 -0.31638560545E+03  0.73379331970E+03  0.11986543150E+04  0.12699999809E+01 0.  1.
       -4    1    3    3    0  502  0.89343050467E+03  0.31638560545E+03 -0.13112807876E+04  0.16179545219E+04  0.12699999809E+01 0. -1.
</event>
<event>
 5   0  0.6095665E-07  0.3910553E+04  0.7818609E-02  0.8022838E-01
        2   -1    0    0  501    0  0.00000000000E+00  0.00000000000E+00  0.23706469380E+04  0.23706469380E+04  0.25500000920E-02 0.  1.
       -2   -1    0    0    0  501  0.00000000000E+00  0.00000000000E+00 -0.16126850038E+04  0.16126850038E+04  0.25500000920E-02 0. -1.
    10030    2    1    2    0    0  0.00000000000E+00  0.00000000000E+00  0.75796193422E+03  0.39833319417E+04  0.39105532939E+04 0.  0.
        4    1    3    3  502    0  0.99116284629E+03 -0.41163474918E+03  0.20437969015E+04  0.23084528027E+04  0.12699999809E+01 0.  1.
       -4    1    3    3    0  502 -0.99116284629E+03  0.41163474918E+03 -0.12858349673E+04  0.16748791391E+04  0.12699999809E+01 0. -1.
</event>
<event>
 5   0  0.6095665E-07  0.3862675E+04  0.7818609E-02  0.8032837E-01
        2   -1    0    0  501    0  0.00000000000E+00  0.00000000000E+00  0.20664507983E+04  0.20664507983E+04  0.25500000920E-02 0. -1.
       -2   -1    0    0    0  501  0.00000000000E+00  0.00000000000E+00 -0.18050581762E+04  0.18050581762E+04  0.25500000920E-02 0.  1.
    10030    2    1    2    0    0  0.00000000000E+00  0.00000000000E+00  0.26139262208E+03  0.38715089745E+04  0.38626746740E+04 0.  0.
        4    1    3    3  502    0 -0.14736465123E+04  0.62968809096E+03  0.12110860949E+04  0.20086991505E+04  0.12699999809E+01 0. -1.
       -4    1    3    3    0  502  0.14736465123E+04 -0.62968809096E+03 -0.94969347284E+03  0.18628098240E+04  0.12699999809E+01 0.  1.
</event>
<event>
 5   0  0.1876027E-07  0.3849751E+04  0.7818609E-02  0.8035562E-01
        1   -1    0    0  501    0  0.00000000000E+00  0.00000000000E+00  0.24463119042E+04  0.24463119042E+04  0.50400001928E-02 0. -1.
       -1   -1    0    0    0  501  0.00000000000E+00  0.00000000000E+00 -0.15145842410E+04  0.15145842410E+04  0.50400001928E-02 0.  1.
    10030    2    1    2    0    0  0.00000000000E+00  0.00000000000E+00  0.93172766321E+03  0.39608961452E+04  0.38497508796E+04 0.  0.
        3    1    3    3  502    0  0.52178038994E+03  0.17624545187E+03 -0.14317901143E+04  0.15340600302E+04  0.10100000352E+00 0.  1.
       -3    1    3    3    0  502 -0.52178038994E+03 -0.17624545187E+03  0.23635177775E+04  0.24268361151E+04  0.10100000352E+00 0. -1.
</event>
<event>
 5   0  0.5735179E-07  0.2899162E+04  0.7818609E-02  0.8273127E-01
       -2   -1    0    0    0  501  0.00000000000E+00  0.00000000000E+00  0.16421823725E+04  0.16421823725E+04  0.25500000920E-02 0.  1.
        2   -1    0    0  501    0  0.00000000000E+00  0.00000000000E+00 -0.12795688813E+04  0.12795688813E+04  0.25500000920E-02 0. -1.
    10030    2    1    2    0    0  0.00000000000E+00  0.00000000000E+00  0.36261349116E+03  0.29217512538E+04  0.28991622661E+04 0.  0.
        5    1    3    3  502    0  0.29294259816E+03  0.14071961736E+04 -0.78977235991E+01  0.14373937877E+04  0.46999998093E+01 0.  1.
       -5    1    3    3    0  502 -0.29294259816E+03 -0.14071961736E+04  0.37051121476E+03  0.14843574661E+04  0.46999998093E+01 0. -1.
</event>
<event>
 5   0  0.1860500E-07  0.3728506E+04  0.7818609E-02  0.8061674E-01
       -1   -1    0    0    0  501  0.00000000000E+00  0.00000000000E+00  0.15150816786E+04  0.15150816786E+04  0.50400001928E-02 0. -1.
        1   -1    0    0  501    0  0.00000000000E+00  0.00000000000E+00 -0.22938961355E+04  0.22938961355E+04  0.50400001928E-02 0.  1.
    10030    2    1    2    0    0  0.00000000000E+00  0.00000000000E+00 -0.77881445689E+03  0.38089778140E+04  0.37285064073E+04 0.  0.
        5    1    3    3  502    0  0.61120088974E+03 -0.72195432933E+03  0.12516990269E+04  0.15689350290E+04  0.46999998093E+01 0. -1.
       -5    1    3    3    0  502 -0.61120088974E+03  0.72195432933E+03 -0.20305134838E+04  0.22400427851E+04  0.46999998093E+01 0.  1.
</event>
<event>
 5   0  0.1876027E-07  0.3865984E+04  0.7818609E-02  0.8032141E-01
       -1   -1    0    0    0  501  0.00000000000E+00  0.00000000000E+00  0.31083719344E+04  0.31083719344E+04  0.50400001928E-02 0. -1.
        1   -1    0    0  501    0  0.00000000000E+00  0.00000000000E+00 -0.12020624313E+04  0.12020624313E+04  0.50400001928E-02 0.  1.
    10030    2    1    2    0    0  0.00000000000E+00  0.00000000000E+00  0.19063095031E+04  0.43104343657E+04  0.38659835099E+04 0.  0.
        3    1    3    3  502    0  0.18321171296E+04 -0.34835576865E+03  0.38632693711E+03  0.19045349644E+04  0.10100000352E+00 0.  1.
       -3    1    3    3    0  502 -0.18321171296E+04  0.34835576865E+03  0.15199825660E+04  0.24058994013E+04  0.10100000352E+00 0. -1.
</event>
<event>
 5   0  0.5872444E-07  0.2849870E+04  0.7818609E-02  0.8287951E-01
       -2   -1    0    0    0  501  0.00000000000E+00  0.00000000000E+00  0.13651122925E+04  0.13651122925E+04  0.25500000920E-02 0. -1.
        2   -1    0    0  501    0  0.00000000000E+00  0.00000000000E+00 -0.14873796384E+04  0.14873796384E+04  0.25500000920E-02 0.  1.
    10030    2    1    2    0    0  0.00000000000E+00  0.00000000000E+00 -0.12226734589E+03  0.28524919309E+04  0.28498703325E+04 0.  0.
        3    1    3    3  502    0 -0.55873219964E+03  0.59668797835E+03 -0.12293499949E+04  0.14763196248E+04  0.10100000352E+00 0.  1.
       -3    1    3    3    0  502  0.55873219964E+03 -0.59668797835E+03  0.11070826490E+04  0.13761723062E+04  0.10100000352E+00 0. -1.
</event>
<event>
 5   0  0.2666813E-07  0.3908685E+04  0.7818609E-02  0.8023225E-01
       -1   -1    0    0    0  501  0.00000000000E+00  0.00000000000E+00  0.13953827256E+04  0.13953827256E+04  0.50400001928E-02 0.  1.
        1   -1    0    0  501    0  0.00000000000E+00  0.00000000000E+00 -0.27372092758E+04  0.27372092758E+04  0.50400001928E-02 0. -1.
    10030    2    1    2    0    0  0.00000000000E+00  0.00000000000E+00 -0.13418265503E+04  0.41325920014E+04  0.39086849655E+04 0.  0.
        1    1    3    3  502    0  0.10144724170E+04 -0.12717673808E+04 -0.18159616475E+04  0.24380859831E+04  0.50400001928E-02 0. -1.
       -1    1    3    3    0  502 -0.10144724170E+04  0.12717673808E+04  0.47413509726E+03  0.16945060183E+04  0.50400001928E-02 0.  1.
</event>
<event>
 5   0  0.1860500E-07  0.3913325E+04  0.7818609E-02  0.8022264E-01
        1   -1    0    0  501    0  0.00000000000E+00  0.00000000000E+00  0.28038968539E+04  0.28038968539E+04  0.50400001928E-02 0. -1.
       -1   -1    0    0    0  501  0.00000000000E+00  0.00000000000E+00 -0.13654309318E+04  0.13654309318E+04  0.50400001928E-02 0.  1.
    10030    2    1    2    0    0  0.00000000000E+00  0.00000000000E+00  0.14384659221E+04  0.41693277857E+04  0.39133246704E+04 0.  0.
        4    1    3    3  502    0  0.14685760770E+04 -0.12869401677E+04  0.58618276437E+03  0.20387600485E+04  0.12699999809E+01 0.  1.
       -4    1    3    3    0  502 -0.14685760770E+04  0.12869401677E+04  0.85228315770E+03  0.21305677372E+04  0.12699999809E+01 0. -1.
</event>
<event>
 5   0  0.1860500E-07  0.3522324E+04  0.7818609E-02  0.8108520E-01
        1   -1    0    0  501    0  0.00000000000E+00  0.00000000000E+00  0.13962139698E+04  0.13962139698E+04  0.50400001928E-02 0. -1.
       -1   -1    0    0    0  501  0.00000000000E+00  0.00000000000E+00 -0.22215022232E+04  0.22215022233E+04  0.50400001928E-02 0.  1.
    10030    2    1    2    0    0  0.00000000000E+00  0.00000000000E+00 -0.82528825343E+03  0.36177161931E+04  0.35223244814E+04 0.  0.
        5    1    3    3  502    0 -0.86731314963E+03  0.43897352000E+03  0.10957126510E+04  0.14647655630E+04  0.46999998093E+01 0. -1.
       -5    1    3    3    0  502  0.86731314963E+03 -0.43897352000E+03 -0.19210009045E+04  0.21529506301E+04  0.46999998093E+01 0.  1.
</event>
<event>
 5   0  0.1860500E-07  0.3816111E+04  0.7818609E-02  0.8042706E-01
        1   -1    0    0  501    0  0.00000000000E+00  0.00000000000E+00  0.18135905126E+04  0.18135905126E+04  0.50400001928E-02 0.  1.
       -1   -1    0    0    0  501  0.00000000000E+00  0.00000000000E+00 -0.20074403902E+04  0.20074403902E+04  0.50400001928E-02 0. -1.
    10030    2    1    2    0    0  0.00000000000E+00  0.00000000000E+00 -0.19384987757E+03  0.38210309028E+04  0.38161105049E+04 0.  0.
        4    1    3    3  502    0  0.18617370085E+04 -0.39822843816E+03 -0.22366877818E+03  0.19169454643E+04  0.12699999809E+01 0. -1.
       -4    1    3    3    0  502 -0.18617370085E+04  0.39822843816E+03  0.29818900604E+02  0.19040854386E+04  0.12699999809E+01 0.  1.
</event>
<event>
 5   0  0.2666813E-07  0.2992689E+04  0.7818609E-02  0.8245822E-01
        1   -1    0    0  501    0  0.00000000000E+00  0.00000000000E+00  0.22216378391E+04  0.22216378391E+04  0.50400001928E-02 0.  1.
       -1   -1    0    0    0  501  0.00000000000E+00  0.00000000000E+00 -0.10078363471E+04  0.10078363472E+04  0.50400001928E-02 0. -1.
    10030    2    1    2    0    0  0.00000000000E+00  0.00000000000E+00  0.12138014920E+04  0.32294741863E+04  0.29926893354E+04 0.  0.
        1    1    3    3  502    0 -0.12040566523E+04 -0.87413824979E+03  0.77812860955E+03  0.16790932775E+04  0.50400001928E-02 0.  1.
       -1    1    3    3    0  502  0.12040566523E+04  0.87413824979E+03  0.43567288241E+03  0.15503809087E+04  0.50400001928E-02 0. -1.
</event>
<event>
 5   0  0.6095665E-07  0.3934786E+04  0.7818609E-02  0.8017833E-01
        2   -1    0    0  501    0  0.00000000000E+00  0.00000000000E+00  0.32179178981E+04  0.32179178981E+04  0.25500000920E-02 0. -1.
       -2   -1    0    0    0  501  0.00000000000E+00  0.00000000000E+00 -0.12028383772E+04  0.12028383772E+04  0.25500000920E-02 0.  1.
    10030    2    1    2    0    0  0.00000000000E+00  0.00000000000E+00  0.20150795209E+04  0.44207562754E+04  0.39347859625E+04 0.  0.
        4    1    3    3  502    0 -0.12292732849E+03  0.14609112443E+04 -0.46646467383E+03  0.15384939703E+04  0.12699999809E+01 0.  1.
       -4    1    3    3    0  502  0.12292732849E+03 -0.14609112443E+04  0.24815441947E+04  0.28822623050E+04  0.12699999809E+01 0. -1.
</event>
<event>
 5   0  0.1860500E-07  0.3951567E+04  0.7818609E-02  0.8014389E-01
        1   -1    0    0  501    0  0.00000000000E+00  0.00000000000E+00  0.18094767455E+04  0.18094767455E+04  0.50400001928E-02 0. -1.
       -1   -1    0    0    0  501  0.00000000000E+00  0.00000000000E+00 -0.21573749955E+04  0.21573749955E+04  0.50400001928E-02 0.  1.
    10030    2    1    2    0    0  0.00000000000E+00  0.00000000000E+00 -0.34789825000E+03  0.39668517410E+04  0.39515667200E+04 0.  0.
        4    1    3    3  502    0  0.36871494169E+03 -0.18435226644E+04  0.43601268448E+03  0.19299313968E+04  0.12699999809E+01 0.  1.
       -4    1    3    3    0  502 -0.36871494169E+03  0.18435226644E+04 -0.78391093449E+03  0.20369203442E+04  0.12699999809E+01 0. -1.
</event>
<event>
 5   0  0.1860500E-07  0.3846483E+04  0.7818609E-02  0.8036253E-01
        1   -1    0    0  501    0  0.00000000000E+00  0.00000000000E+00  0.25835659172E+04  0.25835659172E+04  0.50400001928E-02 0. -1.
       -1   -1    0    0    0  501  0.00000000000E+00  0.00000000000E+00 -0.14316873151E+04  0.14316873151E+04  0.50400001928E-02 0.  1.
    10030    2    1    2    0    0  0.00000000000E+00  0.00000000000E+00  0.11518786021E+04  0.40152532323E+04  0.38464833557E+04 0.  0.
        4    1    3    3  502    0 -0.65198168113E+03  0.16938823743E+04 -0.88001651477E+02  0.18171580873E+04  0.12699999809E+01 0.  1.
       -4    1    3    3    0  502  0.65198168113E+03 -0.16938823743E+04  0.12398802535E+04  0.21980951450E+04  0.12699999809E+01 0. -1.
</event>
<event>
 5   0  0.1876027E-07  0.3959992E+04  0.7818609E-02  0.8012666E-01
       -1   -1    0    0    0  501  0.00000000000E+00  0.00000000000E+00  0.15361158548E+04  0.15361158548E+04  0.50400001928E-02 0. -1.
        1   -1    0    0  501    0  0.00000000000E+00  0.00000000000E+00 -0.25521409188E+04  0.25521409188E+04  0.50400001928E-02 0.  1.
    10030    2    1    2    0    0  0.00000000000E+00  0.00000000000E+00 -0.10160250640E+04  0.40882567736E+04  0.39599919844E+04 0.  0.
        3    1    3    3  502    0 -0.81874718999E+03 -0.17478463066E+04 -0.52039038642E+02  0.19308085727E+04  0.10100000352E+00 0. -1.
       -3    1    3    3    0  502  0.81874718999E+03  0.17478463066E+04 -0.96398602533E+03  0.21574482010E+04  0.10100000352E+00 0.  1.
</event>
<event>
 5   0  0.1876027E-07  0.3947789E+04  0.7818609E-02  0.8015163E-01
        1   -1    0    0  501    0  0.00000000000E+00  0.00000000000E+00  0.22997046446E+04  0.22997046446E+04  0.50400001928E-02 0. -1.
       -1   -1    0    0    0  501  0.00000000000E+00  0.00000000000E+00 -0.16942433477E+04  0.16942433477E+04  0.50400001928E-02 0.  1.
    10030    2    1    2    0    0  0.00000000000E+00  0.00000000000E+00  0.60546129690E+03  0.39939479924E+04  0.39477888981E+04 0.  0.
        3    1    3    3  502    0  0.66235078356E+03 -0.16081805707E+04  0.12470824881E+04  0.21401327180E+04  0.10100000352E+00 0. -1.
       -3    1    3    3    0  502 -0.66235078356E+03  0.16081805707E+04 -0.64162119117E+03  0.18538152744E+04  0.10100000352E+00 0.  1.
</event>
<event>
 5   0  0.3959190E-07  0.3658842E+04  0.7818609E-02  0.8077145E-01
        2   -1    0    0  501    0  0.00000000000E+00  0.00000000000E+00  0.22864344734E+04  0.22864344734E+04  0.25500000920E-02 0.  1.
       -2   -1    0    0    0  501  0.00000000000E+00  0.00000000000E+00 -0.14637556029E+04  0.14637556030E+04  0.25500000920E-02 0. -1.
    10030    2    1    2    0    0  0.00000000000E+00  0.00000000000E+00  0.82267887046E+03  0.37501900764E+04  0.36588420415E+04 0.  0.
        2    1    3    3  502    0 -0.10137568815E+04 -0.10391700877E+04 -0.72964832416E+03  0.16247966528E+04  0.25500000920E-02 0. -1.
       -2    1    3    3    0  502  0.10137568815E+04  0.10391700877E+04  0.15523271946E+04  0.21253934236E+04  0.25500000920E-02 0.  1.
</event>
<event>
 5   0  0.1943459E-07  0.3010536E+04  0.7818609E-02  0.8240729E-01
        1   -1    0    0  501    0  0.00000000000E+00  0.00000000000E+00  0.17284383186E+04  0.17284383186E+04  0.50400001928E-02 0. -1.
       -1   -1    0    0    0  501  0.00000000000E+00  0.00000000000E+00 -0.13109126734E+04  0.13109126734E+04  0.50400001928E-02 0.  1.
    10030    2    1    2    0    0  0.00000000000E+00  0.00000000000E+00  0.41752564528E+03  0.30393509920E+04  0.30105359636E+04 0.  0.
        2    1    3    3  502    0 -0.89893240876E+03  0.55724505826E+03 -0.87257729590E+03  0.13711282463E+04  0.25500000920E-02 0.  1.
       -2    1    3    3    0  502  0.89893240876E+03 -0.55724505826E+03  0.12901029412E+04  0.16682227457E+04  0.25500000920E-02 0. -1.
</event>
<event>
 5   0  0.1860500E-07  0.3861933E+04  0.7818609E-02  0.8032993E-01
       -1   -1    0    0    0  501  0.00000000000E+00  0.00000000000E+00  0.25585098439E+04  0.25585098439E+04  0.50400001928E-02 0. -1.
        1   -1    0    0  501    0  0.00000000000E+00  0.00000000000E+00 -0.14573452439E+04  0.14573452439E+04  0.50400001928E-02 0.  1.
    10030    2    1    2    0    0  0.00000000000E+00  0.00000000000E+00  0.11011646000E+04  0.40158550879E+04  0.38619332737E+04 0.  0.
        4    1    3    3  502    0  0.53743269814E+03 -0.18472457233E+04  0.72295981830E+03  0.20551941950E+04  0.12699999809E+01 0.  1.
       -4    1    3    3    0  502 -0.53743269814E+03  0.18472457233E+04  0.37820478167E+03  0.19606608929E+04  0.12699999809E+01 0. -1.
</event>
<event>
 5   0  0.6095665E-07  0.3089982E+04  0.7818609E-02  0.8218493E-01
       -2   -1    0    0    0  501  0.00000000000E+00  0.00000000000E+00  0.13474762022E+04  0.13474762022E+04  0.25500000920E-02 0. -1.
        2   -1    0    0  501    0  0.00000000000E+00  0.00000000000E+00 -0.17714579123E+04  0.17714579123E+04  0.25500000920E-02 0.  1.
    10030    2    1    2    0    0  0.00000000000E+00  0.00000000000E+00 -0.42398171012E+03  0.31189341146E+04  0.30899821230E+04 0.  0.
        4    1    3    3  502    0 -0.14557042799E+04  0.51751627485E+03 -0.22196892375E+03  0.15608234561E+04  0.12699999809E+01 0.  1.
       -4    1    3    3    0  502  0.14557042799E+04 -0.51751627485E+03 -0.20201278636E+03  0.15581106584E+04  0.12699999809E+01 0. -1.
</event>
<event>
 5   0  0.5872444E-07  0.3942538E+04  0.7818609E-02  0.8016240E-01
       -2   -1    0    0    0  501  0.00000000000E+00  0.00000000000E+00  0.18112471337E+04  0.18112471337E+04  0.25500000920E-02 0. -1.
        2   -1    0    0  501    0  0.00000000000E+00  0.00000000000E+00 -0.21454285369E+04  0.21454285369E+04  0.25500000920E-02 0.  1.
    10030    2    1    2    0    0  0.00000000000E+00  0.00000000000E+00 -0.33418140321E+03  0.39566756706E+04  0.39425379075E+04 0.  0.
        3    1    3    3  502    0 -0.52233964866E+03  0.15368906559E+03  0.17342855245E+04  0.18177473224E+04  0.10100000352E+00 0. -1.
       -3    1    3    3    0  502  0.52233964866E+03 -0.15368906559E+03 -0.20684669277E+04  0.21389283482E+04  0.10100000352E+00 0.  1.
</event>
<event>
 5   0  0.1943459E-07  0.3977798E+04  0.7818609E-02  0.8009041E-01
        1   -1    0    0  501    0  0.00000000000E+00  0.00000000000E+00  0.17358564840E+04  0.17358564840E+04  0.50400001928E-02 0.  1.
       -1   -1    0    0    0  501  0.00000000000E+00  0.00000000000E+00 -0.22788279523E+04  0.22788279523E+04  0.50400001928E-02 0. -1.
    10030    2    1    2    0    0  0.00000000000E+00  0.00000000000E+00 -0.54297146827E+03  0.40146844364E+04  0.39777975198E+04 0.  0.
        2    1    3    3  502    0 -0.16184063997E+03  0.25734430555E+03 -0.22552403356E+04  0.22756378129E+04  0.25500000920E-02 0. -1.
       -2    1    3    3    0  502  0.16184063997E+03 -0.25734430555E+03  0.17122688673E+04  0.17390466234E+04  0.25500000920E-02 0.  1.
</event>
<event>
 5   0  0.3959190E-07  0.3309730E+04  0.7818609E-02  0.8160424E-01
       -2   -1    0    0    0  501  0.00000000000E+00  0.00000000000E+00  0.14570501708E+04  0.14570501708E+04  0.25500000920E-02 0.  1.
        2   -1    0    0  501    0  0.00000000000E+00  0.00000000000E+00 -0.18795364828E+04  0.18795364828E+04  0.25500000920E-02 0. -1.
    10030    2    1    2    0    0  0.00000000000E+00  0.00000000000E+00 -0.42248631198E+03  0.33365866536E+04  0.33097304744E+04 0.  0.
        2    1    3    3  502    0  0.46385736091E+03 -0.14363998848E+04  0.47262006608E+03  0.15817009854E+04  0.25500000920E-02 0.  1.
       -2    1    3    3    0  502 -0.46385736091E+03  0.14363998848E+04 -0.89510637806E+03  0.17548856682E+04  0.25500000920E-02 0. -1.
</event>
<event>
 5   0  0.5872444E-07  0.3830656E+04  0.7818609E-02  0.8039608E-01
       -2   -1    0    0    0  501  0.00000000000E+00  0.00000000000E+00  0.16824778528E+04  0.16824778528E+04  0.25500000920E-02 0.  1.
        2   -1    0    0  501    0  0.00000000000E+00  0.00000000000E+00 -0.21804034459E+04  0.21804034459E+04  0.25500000920E-02 0. -1.
    10030    2    1    2    0    0  0.00000000000E+00  0.00000000000E+00 -0.49792559310E+03  0.38628812987E+04  0.38306555616E+04 0.  0.
        3    1    3    3  502    0  0.57265509872E+03 -0.16260929513E+04 -0.10904698709E+04  0.20399109534E+04  0.10100000352E+00 0. -1.
       -3    1    3    3    0  502 -0.57265509872E+03  0.16260929513E+04  0.59254427779E+03  0.18229703453E+04  0.10100000352E+00 0.  1.
</event>
<event>
 5   0  0.1860500E-07  0.3730880E+04  0.7818609E-02  0.8061153E-01
        1   -1    0    0  501    0  0.00000000000E+00  0.00000000000E+00  0.27410630183E+04  0.27410630183E+04  0.50400001928E-02 0. -1.
       -1   -1    0    0    0  501  0.00000000000E+00  0.00000000000E+00 -0.12695319780E+04  0.12695319780E+04  0.50400001928E-02 0.  1.
    10030    2    1    2    0    0  0.00000000000E+00  0.00000000000E+00  0.14715310403E+04  0.40105949963E+04  0.37308804084E+04 0.  0.
        5    1    3    3  502    0 -0.82919735190E+03  0.57642149411E+03  0.24217996591E+04  0.26239218102E+04  0.46999998093E+01 0. -1.
       -5    1    3    3    0  502  0.82919735190E+03 -0.57642149411E+03 -0.95026861873E+03  0.13866731861E+04  0.46999998093E+01 0.  1.
</event>
<event>
 5   0  0.3959190E-07  0.2785489E+04  0.7818609E-02  0.8307788E-01
        2   -1    0    0  501    0  0.00000000000E+00  0.00000000000E+00  0.16823790001E+04  0.16823790001E+04  0.25500000920E-02 0.  1.
       -2   -1    0    0    0  501  0.00000000000E+00  0.00000000000E+00 -0.11529731242E+04  0.11529731242E+04  0.25500000920E-02 0. -1.
    10030    2    1    2    0    0  0.00000000000E+00  0.00000000000E+00  0.52940587594E+03  0.28353521243E+04  0.27854893802E+04 0.  0.
        2    1    3    3  502    0  0.12745758906E+03  0.86958184376E+03  0.13644692491E+04  0.16230201329E+04  0.25500000920E-02 0.  1.
       -2    1    3    3    0  502 -0.12745758906E+03 -0.86958184376E+03 -0.83506337319E+03  0.12123319914E+04  0.25500000920E-02 0. -1.
</event>
<event>
 5   0  0.1860500E-07  0.3866600E+04  0.7818609E-02  0.8032012E-01
       -1   -1    0    0    0  501  0.00000000000E+00  0.00000000000E+00  0.15867614212E+04  0.15867614212E+04  0.50400001928E-02 0.  1.
        1   -1    0    0  501    0  0.00000000000E+00  0.00000000000E+00 -0.23555204118E+04  0.23555204118E+04  0.50400001928E-02 0. -1.
    10030    2    1    2    0    0  0.00000000000E+00  0.00000000000E+00 -0.76875899062E+03  0.39422818330E+04  0.38666000136E+04 0.  0.
        5    1    3    3  502    0 -0.18855729253E+04 -0.42345375721E+03 -0.32920480332E+03  0.19603816551E+04  0.46999998093E+01 0. -1.
       -5    1    3    3    0  502  0.18855729253E+04  0.42345375721E+03 -0.43955418730E+03  0.19819001778E+04  0.46999998093E+01 0.  1.
</event>
<event>
 5   0  0.3959190E-07  0.2633324E+04  0.7818609E-02  0.8356969E-01
       -2   -1    0    0    0  501  0.00000000000E+00  0.00000000000E+00  0.10743073838E+04  0.10743073838E+04  0.25500000920E-02 0.  1.
        2   -1    0    0  501    0  0.00000000000E+00  0.00000000000E+00 -0.16136896559E+04  0.16136896559E+04  0.25500000920E-02 0. -1.
    10030    2    1    2    0    0  0.00000000000E+00  0.00000000000E+00 -0.53938227205E+03  0.26879970397E+04  0.26333239167E+04 0.  0.
        2    1    3    3  502    0 -0.77651764798E+03 -0.11622601929E+03 -0.13485697454E+04  0.15604898281E+04  0.25500000920E-02 0. -1.
       -2    1    3    3    0  502  0.77651764798E+03  0.11622601929E+03  0.80918747339E+03  0.11275072116E+04  0.25500000920E-02 0.  1.
</event>
<event>
 5   0  0.1876027E-07  0.3835480E+04  0.7818609E-02  0.8038584E-01
        1   -1    0    0  501    0  0.00000000000E+00  0.00000000000E+00  0.25666778222E+04  0.25666778222E+04  0.50400001928E-02 0.  1.
       -1   -1    0    0    0  501  0.00000000000E+00  0.00000000000E+00 -0.14328741995E+04  0.14328741995E+04  0.50400001928E-02 0. -1.
    10030    2    1    2    0    0  0.00000000000E+00  0.00000000000E+00  0.11338036227E+04  0.39995520217E+04  0.38354798552E+04 0.  0.
        3    1    3    3  502    0  0.18575003791E+03  0.19087003858E+04  0.55722135108E+03  0.19970317683E+04  0.10100000352E+00 0. -1.
       -3    1    3    3    0  502 -0.18575003791E+03 -0.19087003858E+04  0.57658227163E+03  0.20025202534E+04  0.10100000352E+00 0.  1.
</event>
<event>
 5   0  0.5805753E-07  0.3905777E+04  0.7818609E-02  0.8023829E-01
       -2   -1    0    0    0  501  0.00000000000E+00  0.00000000000E+00  0.15465599994E+04  0.15465599994E+04  0.25500000920E-02 0.  1.
        2   -1    0    0  501    0  0.00000000000E+00  0.00000000000E+00 -0.24659716631E+04  0.24659716631E+04  0.25500000920E-02 0. -1.
    10030    2    1    2    0    0  0.00000000000E+00  0.00000000000E+00 -0.91941166367E+03  0.40125316625E+04  0.39057768158E+04 0.  0.
        1    1    3    3  502    0  0.13743551194E+03 -0.42186891407E+03  0.14940935794E+04  0.15585818954E+04  0.50400001928E-02 0.  1.
       -1    1    3    3    0  502 -0.13743551194E+03  0.42186891407E+03 -0.24135052431E+04  0.24539497670E+04  0.50400001928E-02 0. -1.
</event>
<event>
 5   0  0.1943459E-07  0.2999161E+04  0.7818609E-02  0.8243971E-01
        1   -1    0    0  501    0  0.00000000000E+00  0.00000000000E+00  0.10932928857E+04  0.10932928857E+04  0.50400001928E-02 0.  1.
       -1   -1    0    0    0  501  0.00000000000E+00  0.00000000000E+00 -0.20568518613E+04  0.20568518613E+04  0.50400001928E-02 0. -1.
    10030    2    1    2    0    0  0.00000000000E+00  0.00000000000E+00 -0.96355897562E+03  0.31501447471E+04  0.29991608873E+04 0.  0.
        2    1    3    3  502    0  0.13383296391E+04 -0.51569072484E+03 -0.94163065056E+03  0.17157305816E+04  0.25500000920E-02 0. -1.
       -2    1    3    3    0  502 -0.13383296391E+04  0.51569072484E+03 -0.21928325059E+02  0.14344141654E+04  0.25500000920E-02 0.  1.
</event>
<event>
 5   0  0.2666813E-07  0.3908499E+04  0.7818609E-02  0.8023264E-01
        1   -1    0    0  501    0  0.00000000000E+00  0.00000000000E+00  0.23277508730E+04  0.23277508730E+04  0.50400001928E-02 0.  1.
       -1   -1    0    0    0  501  0.00000000000E+00  0.00000000000E+00 -0.16406787327E+04  0.16406787327E+04  0.50400001928E-02 0. -1.
    10030    2    1    2    0    0  0.00000000000E+00  0.00000000000E+00  0.68707214024E+03  0.39684296057E+04  0.39084991249E+04 0.  0.
        1    1    3    3  502    0 -0.12119187802E+04 -0.40436360005E+03 -0.11579337271E+04  0.17242585558E+04  0.50400001928E-02 0. -1.
       -1    1    3    3    0  502  0.12119187802E+04  0.40436360005E+03  0.18450058674E+04  0.22441710499E+04  0.50400001928E-02 0.  1.
</event>
<event>
 5   0  0.3959190E-07  0.3989314E+04  0.7818609E-02  0.8006706E-01
       -2   -1    0    0    0  501  0.00000000000E+00  0.00000000000E+00  0.21797889655E+04  0.21797889655E+04  0.25500000920E-02 0. -1.
        2   -1    0    0  501    0  0.00000000000E+00  0.00000000000E+00 -0.18252486943E+04  0.18252486943E+04  0.25500000920E-02 0.  1.
    10030    2    1    2    0    0  0.00000000000E+00  0.00000000000E+00  0.35454027123E+03  0.40050376598E+04  0.39893142083E+04 0.  0.
        2    1    3    3  502    0  0.16993352867E+04  0.27600314536E+03  0.11885829166E+04  0.20920438576E+04  0.25500000920E-02 0. -1.
       -2    1    3    3    0  502 -0.16993352867E+04 -0.27600314536E+03 -0.83404264533E+03  0.19129938021E+04  0.25500000920E-02 0.  1.
</event>
<event>
 5   0  0.1876027E-07  0.3873802E+04  0.7818609E-02  0.8030500E-01
       -1   -1    0    0    0  501  0.00000000000E+00  0.00000000000E+00  0.28072363382E+04  0.28072363382E+04  0.50400001928E-02 0. -1.
        1   -1    0    0  501    0  0.00000000000E+00  0.00000000000E+00 -0.13363984360E+04  0.13363984361E+04  0.50400001928E-02 0.  1.
    10030    2    1    2    0    0  0.00000000000E+00  0.00000000000E+00  0.14708379021E+04  0.41436347742E+04  0.38738023966E+04 0.  0.
        3    1    3    3  502    0 -0.16824533285E+04 -0.27493752986E+03 -0.24805159494E+03  0.17227215248E+04  0.10100000352E+00 0.  1.
       -3    1    3    3    0  502  0.16824533285E+04  0.27493752986E+03  0.17188894971E+04  0.24209132495E+04  0.10100000352E+00 0. -1.
</event>
<event>
 5   0  0.3959190E-07  0.3847665E+04  0.7818609E-02  0.8036003E-01
       -2   -1    0    0    0  501  0.00000000000E+00  0.00000000000E+00  0.22905890272E+04  0.22905890272E+04  0.25500000920E-02 0.  1.
        2   -1    0    0  501    0  0.00000000000E+00  0.00000000000E+00 -0.16157992117E+04  0.16157992117E+04  0.25500000920E-02 0. -1.
    10030    2    1    2    0    0  0.00000000000E+00  0.00000000000E+00  0.67478981555E+03  0.39063882389E+04  0.38476652372E+04 0.  0.
        2    1    3    3  502    0  0.12871424919E+04 -0.13486808891E+04 -0.14467390035E+03  0.18699215151E+04  0.25500000920E-02 0.  1.
       -2    1    3    3    0  502 -0.12871424919E+04  0.13486808891E+04  0.81946371589E+03  0.20364667237E+04  0.25500000920E-02 0. -1.
</event>
<event>
 5   0  0.5805753E-07  0.3874545E+04  0.7818609E-02  0.8030344E-01
       -2   -1    0    0    0  501  0.00000000000E+00  0.00000000000E+00  0.13101575260E+04  0.13101575260E+04  0.25500000920E-02 0. -1.
        2   -1    0    0  501    0  0.00000000000E+00  0.00000000000E+00 -0.28645601405E+04  0.28645601405E+04  0.25500000920E-02 0.  1.
    10030    2    1    2    0    0  0.00000000000E+00  0.00000000000E+00 -0.15544026145E+04  0.41747176665E+04  0.38745451484E+04 0.  0.
        1    1    3    3  502    0  0.12180329953E+04  0.94207608283E+03 -0.20438225946E+04  0.25589690349E+04  0.50400001928E-02 0.  1.
       -1    1    3    3    0  502 -0.12180329953E+04 -0.94207608283E+03  0.48941998005E+03  0.16157486316E+04  0.50400001928E-02 0. -1.
</event>
<event>
 5   0  0.5735179E-07  0.2719339E+04  0.7818609E-02  0.8328757E-01
        2   -1    0    0  501    0  0.00000000000E+00  0.00000000000E+00  0.15689478618E+04  0.15689478618E+04  0.25500000920E-02 0. -1.
       -2   -1    0    0    0  501  0.00000000000E+00  0.00000000000E+00 -0.11783061082E+04  0.11783061082E+04  0.25500000920E-02 0.  1.
    10030    2    1    2    0    0  0.00000000000E+00  0.00000000000E+00  0.39064175366E+03  0.27472539700E+04  0.27193387792E+04 0.  0.
        5    1    3    3  502    0 -0.12005123926E+04  0.62822574781E+03  0.30953523377E+03  0.13898675282E+04  0.46999998093E+01 0. -1.
       -5    1    3    3    0  502  0.12005123926E+04 -0.62822574781E+03  0.81106519888E+02  0.13573864418E+04  0.46999998093E+01 0.  1.
</event>
<event>
 5   0  0.1860500E-07  0.3264233E+04  0.7818609E-02  0.8172056E-01
        1   -1    0    0  501    0  0.00000000000E+00  0.00000000000E+00  0.22976482105E+04  0.22976482105E+04  0.50400001928E-02 0. -1.
       -1   -1    0    0    0  501  0.00000000000E+00  0.00000000000E+00 -0.11593611615E+04  0.11593611615E+04  0.50400001928E-02 0.  1.
    10030    2    1    2    0    0  0.00000000000E+00  0.00000000000E+00  0.11382870491E+04  0.34570093720E+04  0.32642328949E+04 0.  0.
        4    1    3    3  502    0  0.82226894521E+03  0.13208996425E+04  0.47187955025E+02  0.15566407421E+04  0.12699999809E+01 0.  1.
       -4    1    3    3    0  502 -0.82226894521E+03 -0.13208996425E+04  0.10910990940E+04  0.19003686300E+04  0.12699999809E+01 0. -1.
</event>
<event>
 5   0  0.1876027E-07  0.3882109E+04  0.7818609E-02  0.8028760E-01
       -1   -1    0    0    0  501  0.00000000000E+00  0.00000000000E+00  0.14449344329E+04  0.14449344329E+04  0.50400001928E-02 0. -1.
        1   -1    0    0  501    0  0.00000000000E+00  0.00000000000E+00 -0.26075180758E+04  0.26075180758E+04  0.50400001928E-02 0.  1.
    10030    2    1    2    0    0  0.00000000000E+00  0.00000000000E+00 -0.11625836429E+04  0.40524525087E+04  0.38821090413E+04 0.  0.
        3    1    3    3  502    0 -0.10895620021E+04  0.14559650523E+04  0.12724995563E+03  0.18229569801E+04  0.10100000352E+00 0. -1.
       -3    1    3    3    0  502  0.10895620021E+04 -0.14559650523E+04 -0.12898335985E+04  0.22294955286E+04  0.10100000352E+00 0.  1.
</event>
<event>
 5   0  0.1860500E-07  0.3901719E+04  0.7818609E-02  0.8024672E-01
        1   -1    0    0  501    0  0.00000000000E+00  0.00000000000E+00  0.18651526024E+04  0.18651526024E+04  0.50400001928E-02 0.  1.
       -1   -1    0    0    0  501  0.00000000000E+00  0.00000000000E+00 -0.20405046298E+04  0.20405046298E+04  0.50400001928E-02 0. -1.
    10030    2    1    2    0    0  0.00000000000E+00  0.00000000000E+00 -0.17535202734E+03  0.39056572322E+04  0.39017188625E+04 0.  0.
        5    1    3    3  502    0 -0.46078886139E+03  0.12505656718E+04 -0.15137506727E+04  0.20168549931E+04  0.46999998093E+01 0. -1.
       -5    1    3    3    0  502  0.46078886139E+03 -0.12505656718E+04  0.13383986454E+04  0.18888022390E+04  0.46999998093E+01 0.  1.
</event>
<event>
 5   0  0.3959190E-07  0.3862855E+04  0.7818609E-02  0.8032799E-01
        2   -1    0    0  501    0  0.00000000000E+00  0.00000000000E+00  0.27611387261E+04  0.27611387261E+04  0.25500000920E-02 0. -1.
       -2   -1    0    0    0  501  0.00000000000E+00  0.00000000000E+00 -0.13510415181E+04  0.13510415181E+04  0.25500000920E-02 0.  1.
    10030    2    1    2    0    0  0.00000000000E+00  0.00000000000E+00  0.14100972080E+04  0.41121802442E+04  0.38628554496E+04 0.  0.
        2    1    3    3  502    0  0.17800582576E+04 -0.73070462680E+03  0.52730987932E+03  0.19951421907E+04  0.25500000920E-02 0.  1.
       -2    1    3    3    0  502 -0.17800582576E+04  0.73070462680E+03  0.88278732866E+03  0.21170380535E+04  0.25500000920E-02 0. -1.
</event>
<event>
 5   0  0.6095665E-07  0.3891176E+04  0.7818609E-02  0.8026867E-01
        2   -1    0    0  501    0  0.00000000000E+00  0.00000000000E+00  0.22897137567E+04  0.22897137567E+04  0.25500000920E-02 0.  1.
       -2   -1    0    0    0  501  0.00000000000E+00  0.00000000000E+00 -0.16531815026E+04  0.16531815026E+04  0.25500000920E-02 0. -1.
    10030    2    1    2    0    0  0.00000000000E+00  0.00000000000E+00  0.63653225409E+03  0.39428952594E+04  0.38911758783E+04 0.  0.
        4    1    3    3  502    0 -0.73607152952E+03  0.14558487440E+04 -0.75602065161E+03  0.17980171580E+04  0.12699999809E+01 0. -1.
       -4    1    3    3    0  502  0.73607152952E+03 -0.14558487440E+04  0.13925529057E+04  0.21448781014E+04  0.12699999809E+01 0.  1.
</event>
<event>
 5   0  0.5872444E-07  0.3943293E+04  0.7818609E-02  0.8016085E-01
       -2   -1    0    0    0  501  0.00000000000E+00  0.00000000000E+00  0.14502424050E+04  0.14502424050E+04  0.25500000920E-02 0. -1.
        2   -1    0    0  501    0  0.00000000000E+00  0.00000000000E+00 -0.26805105463E+04  0.26805105463E+04  0.25500000920E-02 0.  1.
    10030    2    1    2    0    0  0.00000000000E+00  0.00000000000E+00 -0.12302681413E+04  0.41307529513E+04  0.39432930712E+04 0.  0.
        3    1    3    3  502    0 -0.59075674985E+03  0.15547310143E+03  0.13486101738E+04  0.14805116798E+04  0.10100000352E+00 0. -1.
       -3    1    3    3    0  502  0.59075674985E+03 -0.15547310143E+03 -0.25788783152E+04  0.26502412715E+04  0.10100000352E+00 0.  1.
</event>
<event>
 5   0  0.6095665E-07  0.3814336E+04  0.7818609E-02  0.8043085E-01
       -2   -1    0    0    0  501  0.00000000000E+00  0.00000000000E+00  0.25393305885E+04  0.25393305885E+04  0.25500000920E-02 0. -1.
        2   -1    0    0  501    0  0.00000000000E+00  0.00000000000E+00 -0.14323810901E+04  0.14323810901E+04  0.25500000920E-02 0.  1.
    10030    2    1    2    0    0  0.00000000000E+00  0.00000000000E+00  0.11069494984E+04  0.39717116787E+04  0.38143356521E+04 0.  0.
        4    1    3    3  502    0 -0.17101813936E+02 -0.47282294521E+03  0.24772508693E+04  0.25220284479E+04  0.12699999809E+01 0. -1.
       -4    1    3    3    0  502  0.17101813936E+02  0.47282294521E+03 -0.13703013709E+04  0.14496832308E+04  0.12699999809E+01 0.  1.
</event>
<event>
 5   0  0.3959190E-07  0.2501113E+04  0.7818609E-02  0.8402589E-01
        2   -1    0    0  501    0  0.00000000000E+00  0.00000000000E+00  0.17296917797E+04  0.17296917797E+04  0.25500000920E-02 0. -1.
       -2   -1    0    0    0  501  0.00000000000E+00  0.00000000000E+00 -0.90414428657E+03  0.90414428657E+03  0.25500000920E-02 0.  1.
    10030    2    1    2    0    0  0.00000000000E+00  0.00000000000E+00  0.82554749317E+03  0.26338360663E+04  0.25011125046E+04 0.  0.
        2    1    3    3  502    0 -0.81793212773E+03  0.85836334099E+03 -0.59312972482E+01  0.11856794554E+04  0.25500000920E-02 0.  1.
       -2    1    3    3    0  502  0.81793212773E+03 -0.85836334099E+03  0.83147879042E+03  0.14481566109E+04  0.25500000920E-02 0. -1.
</event>
<event>
 5   0  0.5872444E-07  0.3872986E+04  0.7818609E-02  0.8030671E-01
       -2   -1    0    0    0  501  0.00000000000E+00  0.00000000000E+00  0.14660090865E+04  0.14660090865E+04  0.25500000920E-02 0.  1.
        2   -1    0    0  501    0  0.00000000000E+00  0.00000000000E+00 -0.25579680131E+04  0.25579680132E+04  0.25500000920E-02 0. -1.
    10030    2    1    2    0    0  0.00000000000E+00  0.00000000000E+00 -0.10919589266E+04  0.40239770997E+04  0.38729855927E+04 0.  0.
        3    1    3    3  502    0 -0.26890448974E+02 -0.18499335755E+03  0.14566124554E+04  0.14685589855E+04  0.10100000352E+00 0.  1.
       -3    1    3    3    0  502  0.26890448974E+02  0.18499335755E+03 -0.25485713820E+04  0.25554181141E+04  0.10100000352E+00 0. -1.
</event>
<event>
 5   0  0.5735179E-07  0.3088149E+04  0.7818609E-02  0.8218998E-01
        2   -1    0    0  501    0  0.00000000000E+00  0.00000000000E+00  0.23485551909E+04  0.23485551909E+04  0.25500000920E-02 0. -1.
       -2   -1    0    0    0  501  0.00000000000E+00  0.00000000000E+00 -0.10151626934E+04  0.10151626934E+04  0.25500000920E-02 0.  1.
    10030    2    1    2    0    0  0.00000000000E+00  0.00000000000E+00  0.13333924975E+04  0.33637178843E+04  0.30881487096E+04 0.  0.
        5    1    3    3  502    0  0.96169226487E+03  0.42840991261E+03  0.18969798816E+04  0.21695487610E+04  0.46999998093E+01 0. -1.
       -5    1    3    3    0  502 -0.96169226487E+03 -0.42840991261E+03 -0.56358738404E+03  0.11941691233E+04  0.46999998093E+01 0.  1.
</event>
<event>
 5   0  0.5735179E-07  0.3866772E+04  0.7818609E-02  0.8031976E-01
        2   -1    0    0  501    0  0.00000000000E+00  0.00000000000E+00  0.16576567431E+04  0.16576567431E+04  0.25500000920E-02 0. -1.
       -2   -1    0    0    0  501  0.00000000000E+00  0.00000000000E+00 -0.22549787853E+04  0.22549787853E+04  0.25500000920E-02 0.  1.
    10030    2    1    2    0    0  0.00000000000E+00  0.00000000000E+00 -0.59732204222E+03  0.39126355284E+04  0.38667716710E+04 0.  0.
        5    1    3    3  502    0  0.14657334850E+04 -0.10281007626E+04 -0.10371066784E+04  0.20690524835E+04  0.46999998093E+01 0.  1.
       -5    1    3    3    0  502 -0.14657334850E+04  0.10281007626E+04  0.43978463616E+03  0.18435830449E+04  0.46999998093E+01 0. -1.
</event>
<event>
 5   0  0.5735179E-07  0.2597664E+04  0.7818609E-02  0.8368995E-01
       -2   -1    0    0    0  501  0.00000000000E+00  0.00000000000E+00  0.10688128516E+04  0.10688128516E+04  0.25500000920E-02 0. -1.
        2   -1    0    0  501    0  0.00000000000E+00  0.00000000000E+00 -0.15783534122E+04  0.15783534122E+04  0.25500000920E-02 0.  1.
    10030    2    1    2    0    0  0.00000000000E+00  0.00000000000E+00 -0.50954056062E+03  0.26471662638E+04  0.25976638823E+04 0.  0.
        5    1    3    3  502    0 -0.35052637638E+03 -0.25120327916E+03  0.99371762878E+03  0.10832675772E+04  0.46999998093E+01 0. -1.
       -5    1    3    3    0  502  0.35052637638E+03  0.25120327916E+03 -0.15032581894E+04  0.15638986866E+04  0.46999998093E+01 0.  1.
</event>
<event>
 5   0  0.5735179E-07  0.3946865E+04  0.7818609E-02  0.8015352E-01
        2   -1    0    0  501    0  0.00000000000E+00  0.00000000000E+00  0.17631754446E+04  0.17631754446E+04  0.25500000920E-02 0.  1.
       -2   -1    0    0    0  501  0.00000000000E+00  0.00000000000E+00 -0.22087627441E+04  0.22087627441E+04  0.25500000920E-02 0. -1.
    10030    2    1    2    0    0  0.00000000000E+00  0.00000000000E+00 -0.44558729951E+03  0.39719381888E+04  0.39468652034E+04 0.  0.
        5    1    3    3  502    0 -0.15411056236E+04  0.12320463622E+04 -0.26136941673E+03  0.19902966723E+04  0.46999998093E+01 0.  1.
       -5    1    3    3    0  502  0.15411056236E+04 -0.12320463622E+04 -0.18421788279E+03  0.19816415165E+04  0.46999998093E+01 0. -1.
</event>
<event>
 5   0  0.1860500E-07  0.3666335E+04  0.7818609E-02  0.8075464E-01
       -1   -1    0    0    0  501  0.00000000000E+00  0.00000000000E+00  0.14104429712E+04  0.14104429712E+04  0.50400001928E-02 0. -1.
        1   -1    0    0  501    0  0.00000000000E+00  0.00000000000E+00 -0.23825863859E+04  0.23825863859E+04  0.50400001928E-02 0.  1.
    10030    2    1    2    0    0  0.00000000000E+00  0.00000000000E+00 -0.97214341475E+03  0.37930293571E+04  0.36663345299E+04 0.  0.
        5    1    3    3  502    0 -0.77689188650E+03 -0.14600669741E+04  0.33189767585E+03  0.16868712842E+04  0.46999998093E+01 0. -1.
       -5    1    3    3    0  502  0.77689188650E+03  0.14600669741E+04 -0.13040410906E+04  0.21061580729E+04  0.46999998093E+01 0.  1.
</event>
<event>
 5   0  0.5872444E-07  0.2984029E+04  0.7818609E-02  0.8248306E-01
       -2   -1    0    0    0  501  0.00000000000E+00  0.00000000000E+00  0.19829084951E+04  0.19829084951E+04  0.25500000920E-02 0. -1.
        2   -1    0    0  501    0  0.00000000000E+00  0.00000000000E+00 -0.11226476373E+04  0.11226476373E+04  0.25500000920E-02 0.  1.
    10030    2    1    2    0    0  0.00000000000E+00  0.00000000000E+00  0.86026085782E+03  0.31055561323E+04  0.29840291801E+04 0.  0.
        3    1    3    3  502    0  0.27251582181E+03 -0.10267481718E+04  0.15204767667E+04  0.18548116588E+04  0.10100000352E+00 0. -1.
       -3    1    3    3    0  502 -0.27251582181E+03  0.10267481718E+04 -0.66021590887E+03  0.12507444735E+04  0.10100000352E+00 0.  1.
</event>
<event>
 5   0  0.2666813E-07  0.3865578E+04  0.7818609E-02  0.8032227E-01
        1   -1    0    0  501    0  0.00000000000E+00  0.00000000000E+00  0.31433829845E+04  0.31433829845E+04  0.50400001928E-02 0. -1.
       -1   -1    0    0    0  501  0.00000000000E+00  0.00000000000E+00 -0.11884247591E+04  0.11884247591E+04  0.50400001928E-02 0.  1.
    10030    2    1    2    0    0  0.00000000000E+00  0.00000000000E+00  0.19549582254E+04  0.43318077436E+04  0.38655784385E+04 0.  0.
        1    1    3    3  502    0 -0.14175750389E+04  0.11063966869E+04  0.18347178148E+03  0.18075659087E+04  0.50400001928E-02 0.  1.
       -1    1    3    3    0  502  0.14175750389E+04 -0.11063966869E+04  0.17714864439E+04  0.25242418348E+04  0.50400001928E-02 0. -1.
</event>
<event>
 5   0  0.1860500E-07  0.2809899E+04  0.7818609E-02  0.8300202E-01
        4   -1    0    0  501    0  0.00000000000E+00  0.00000000000E+00  0.12680987799E+04  0.12680994158E+04  0.12699999809E+01 0.  1.
       -4   -1    0    0    0  501  0.00000000000E+00  0.00000000000E+00 -0.15565671618E+04  0.15565676799E+04  0.12699999809E+01 0. -1.
    10030    2    1    2    0    0  0.00000000000E+00  0.00000000000E+00 -0.28846838197E+03  0.28246670958E+04  0.28098986093E+04 0.  0.
        2    1    3    3  502    0 -0.10925603532E+04  0.41962622490E+03  0.63709492159E+03  0.13325405184E+04  0.25500000920E-02 0.  1.
       -2    1    3    3    0  502  0.10925603532E+04 -0.41962622490E+03 -0.92556330356E+03  0.14921265774E+04  0.25500000920E-02 0. -1.
</event>
<event>
 5   0  0.1860500E-07  0.2712300E+04  0.7818609E-02  0.8331025E-01
       -1   -1    0    0    0  501  0.00000000000E+00  0.00000000000E+00  0.10018511860E+04  0.10018511860E+04  0.50400001928E-02 0.  1.
        1   -1    0    0  501    0  0.00000000000E+00  0.00000000000E+00 -0.18357448541E+04  0.18357448541E+04  0.50400001928E-02 0. -1.
    10030    2    1    2    0    0  0.00000000000E+00  0.00000000000E+00 -0.83389366811E+03  0.28375960402E+04  0.27123002484E+04 0.  0.
        5    1    3    3  502    0 -0.11630217365E+04 -0.35207865370E+03  0.21298281144E+03  0.12336785262E+04  0.46999998093E+01 0.  1.
       -5    1    3    3    0  502  0.11630217365E+04  0.35207865370E+03 -0.10468764796E+04  0.16039175139E+04  0.46999998093E+01 0. -1.
</event>
<event>
 5   0  0.3959190E-07  0.3680602E+04  0.7818609E-02  0.8072274E-01
        2   -1    0    0  501    0  0.00000000000E+00  0.00000000000E+00  0.17505740825E+04  0.17505740825E+04  0.25500000920E-02 0. -1.
       -2   -1    0    0    0  501  0.00000000000E+00  0.00000000000E+00 -0.19346273725E+04  0.19346273725E+04  0.25500000920E-02 0.  1.
    10030    2    1    2    0    0  0.00000000000E+00  0.00000000000E+00 -0.18405329000E+03  0.36852014549E+04  0.36806024167E+04 0.  0.
        2    1    3    3  502    0  0.71418214533E+03 -0.16766445980E+04  0.16425273789E+03  0.18298011386E+04  0.25500000920E-02 0. -1.
       -2    1    3    3    0  502 -0.71418214533E+03  0.16766445980E+04 -0.34830602789E+03  0.18554003163E+04  0.25500000920E-02 0.  1.
</event>
<event>
 5   0  0.3959190E-07  0.3916256E+04  0.7818609E-02  0.8021657E-01
       -2   -1    0    0    0  501  0.00000000000E+00  0.00000000000E+00  0.16175785710E+04  0.16175785710E+04  0.25500000920E-02 0.  1.
        2   -1    0    0  501    0  0.00000000000E+00  0.00000000000E+00 -0.23703729483E+04  0.23703729483E+04  0.25500000920E-02 0. -1.
    10030    2    1    2    0    0  0.00000000000E+00  0.00000000000E+00 -0.75279437732E+03  0.39879515192E+04  0.39162556027E+04 0.  0.
        2    1    3    3  502    0  0.17891742818E+04  0.79483555576E+03 -0.33889478224E+03  0.19868965360E+04  0.25500000920E-02 0.  1.
       -2    1    3    3    0  502 -0.17891742818E+04 -0.79483555576E+03 -0.41389959508E+03  0.20010549833E+04  0.25500000920E-02 0. -1.
</event>
<event>
 5   0  0.1876027E-07  0.3770219E+04  0.7818609E-02  0.8052576E-01
        1   -1    0    0  501    0  0.00000000000E+00  0.00000000000E+00  0.11858925256E+04  0.11858925256E+04  0.50400001928E-02 0. -1.
       -1   -1    0    0    0  501  0.00000000000E+00  0.00000000000E+00 -0.29965942402E+04  0.29965942402E+04  0.50400001928E-02 0.  1.
    10030    2    1    2    0    0  0.00000000000E+00  0.00000000000E+00 -0.18107017146E+04  0.41824867657E+04  0.37702194693E+04 0.  0.
        3    1    3    3  502    0 -0.12154820049E+03  0.10758312711E+04 -0.26172920528E+04  0.28323849648E+04  0.10100000352E+00 0.  1.
       -3    1    3    3    0  502  0.12154820049E+03 -0.10758312711E+04  0.80659033826E+03  0.13501018009E+04  0.10100000352E+00 0. -1.
</event>
<event>
 5   0  0.3959190E-07  0.3927258E+04  0.7818609E-02  0.8019384E-01
       -2   -1    0    0    0  501  0.00000000000E+00  0.00000000000E+00  0.13861523720E+04  0.13861523720E+04  0.25500000920E-02 0.  1.
        2   -1    0    0  501    0  0.00000000000E+00  0.00000000000E+00 -0.27816848568E+04  0.27816848568E+04  0.25500000920E-02 0. -1.
    10030    2    1    2    0    0  0.00000000000E+00  0.00000000000E+00 -0.13955324848E+04  0.41678372289E+04  0.39272581084E+04 0.  0.
        2    1    3    3  502    0  0.37966755170E+01 -0.17553987282E+04 -0.16316739583E+04  0.23966224183E+04  0.25500000920E-02 0. -1.
       -2    1    3    3    0  502 -0.37966755170E+01  0.17553987282E+04  0.23614147348E+03  0.17712148106E+04  0.25500000920E-02 0.  1.
</event>
<event>
 5   0  0.1860500E-07  0.3904005E+04  0.7818609E-02  0.8024197E-01
        1   -1    0    0  501    0  0.00000000000E+00  0.00000000000E+00  0.22940238259E+04  0.22940238259E+04  0.50400001928E-02 0.  1.
       -1   -1    0    0    0  501  0.00000000000E+00  0.00000000000E+00 -0.16609740680E+04  0.16609740680E+04  0.50400001928E-02 0. -1.
    10030    2    1    2    0    0  0.00000000000E+00  0.00000000000E+00  0.63304975788E+03  0.39549978940E+04  0.39040051672E+04 0.  0.
        5    1    3    3  502    0  0.11962593895E+04  0.77447882915E+03 -0.10348545530E+04  0.17611927832E+04  0.46999998093E+01 0. -1.
       -5    1    3    3    0  502 -0.11962593895E+04 -0.77447882915E+03  0.16679043108E+04  0.21938051108E+04  0.46999998093E+01 0.  1.
</event>
<event>
 5   0  0.1860500E-07  0.3946631E+04  0.7818609E-02  0.8015400E-01
       -1   -1    0    0    0  501  0.00000000000E+00  0.00000000000E+00  0.14949488550E+04  0.14949488550E+04  0.50400001928E-02 0.  1.
        1   -1    0    0  501    0  0.00000000000E+00  0.00000000000E+00 -0.26047538466E+04  0.26047538466E+04  0.50400001928E-02 0. -1.
    10030    2    1    2    0    0  0.00000000000E+00  0.00000000000E+00 -0.11098049916E+04  0.40997027016E+04  0.39466308571E+04 0.  0.
        4    1    3    3  502    0  0.10741232609E+03  0.86465444790E+03 -0.23941123780E+04  0.25477324062E+04  0.12699999809E+01 0. -1.
       -4    1    3    3    0  502 -0.10741232609E+03 -0.86465444790E+03  0.12843073864E+04  0.15519702954E+04  0.12699999809E+01 0.  1.
</event>
<event>
 5   0  0.1943459E-07  0.4017079E+04  0.7818609E-02  0.8001110E-01
        1   -1    0    0  501    0  0.00000000000E+00  0.00000000000E+00  0.19891305770E+04  0.19891305770E+04  0.50400001928E-02 0.  1.
       -1   -1    0    0    0  501  0.00000000000E+00  0.00000000000E+00 -0.20281380151E+04  0.20281380151E+04  0.50400001928E-02 0. -1.
    10030    2    1    2    0    0  0.00000000000E+00  0.00000000000E+00 -0.39007438117E+02  0.40172685921E+04  0.40170792077E+04 0.  0.
        2    1    3    3  502    0 -0.18237721468E+04 -0.11549621371E+03 -0.85305793479E+03  0.20167280577E+04  0.25500000920E-02 0. -1.
       -2    1    3    3    0  502  0.18237721468E+04  0.11549621371E+03  0.81405049667E+03  0.20005405344E+04  0.25500000920E-02 0.  1.
</event>
<event>
 5   0  0.1860500E-07  0.3685416E+04  0.7818609E-02  0.8071201E-01
        1   -1    0    0  501    0  0.00000000000E+00  0.00000000000E+00  0.20117493501E+04  0.20117493502E+04  0.50400001928E-02 0.  1.
       -1   -1    0    0    0  501  0.00000000000E+00  0.00000000000E+00 -0.16878708609E+04  0.16878708609E+04  0.50400001928E-02 0. -1.
    10030    2    1    2    0    0  0.00000000000E+00  0.00000000000E+00  0.32387848923E+03  0.36996202111E+04  0.36854161814E+04 0.  0.
        5    1    3    3  502    0 -0.33978287359E+03  0.14743200961E+04  0.12178863584E+04  0.19422516364E+04  0.46999998093E+01 0.  1.
       -5    1    3    3    0  502  0.33978287359E+03 -0.14743200961E+04 -0.89400786920E+03  0.17573685747E+04  0.46999998093E+01 0. -1.
</event>
<event>
 5   0  0.2666813E-07  0.3931331E+04  0.7818609E-02  0.8018544E-01
       -1   -1    0    0    0  501  0.00000000000E+00  0.00000000000E+00  0.13933897775E+04  0.13933897776E+04  0.50400001928E-02 0. -1.
        1   -1    0    0  501    0  0.00000000000E+00  0.00000000000E+00 -0.27729797287E+04  0.27729797287E+04  0.50400001928E-02 0.  1.
    10030    2    1    2    0    0  0.00000000000E+00  0.00000000000E+00 -0.13795899512E+04  0.41663695063E+04  0.39313313813E+04 0.  0.
        1    1    3    3  502    0 -0.66008561522E+03 -0.10758420861E+04 -0.22867669087E+04  0.26119824097E+04  0.50400001928E-02 0.  1.
       -1    1    3    3    0  502  0.66008561522E+03  0.10758420861E+04  0.90717695756E+03  0.15543870966E+04  0.50400001928E-02 0. -1.
</event>
<event>
 5   0  0.5805753E-07  0.3897420E+04  0.7818609E-02  0.8025566E-01
        2   -1    0    0  501    0  0.00000000000E+00  0.00000000000E+00  0.24157835214E+04  0.24157835214E+04  0.25500000920E-02 0.  1.
       -2   -1    0    0    0  501  0.00000000000E+00  0.00000000000E+00 -0.15719414225E+04  0.15719414225E+04  0.25500000920E-02 0. -1.
    10030    2    1    2    0    0  0.00000000000E+00  0.00000000000E+00  0.84384209889E+03  0.39877249440E+04  0.38974197543E+04 0.  0.
        1    1    3    3  502    0 -0.14486386871E+04 -0.50309527478E+03  0.16522006354E+04  0.22542018190E+04  0.50400001928E-02 0.  1.
       -1    1    3    3    0  502  0.14486386871E+04  0.50309527478E+03 -0.80835853652E+03  0.17335231250E+04  0.50400001928E-02 0. -1.
</event>
<event>
 5   0  0.5872444E-07  0.3869279E+04  0.7818609E-02  0.8031449E-01
        2   -1    0    0  501    0  0.00000000000E+00  0.00000000000E+00  0.12624924409E+04  0.12624924409E+04  0.25500000920E-02 0.  1.
       -2   -1    0    0    0  501  0.00000000000E+00  0.00000000000E+00 -0.29646348974E+04  0.29646348974E+04  0.25500000920E-02 0. -1.
    10030    2    1    2    0    0  0.00000000000E+00  0.00000000000E+00 -0.17021424565E+04  0.42271273383E+04  0.38692785623E+04 0.  0.
        3    1    3    3  502    0  0.16090187784E+03 -0.17025027980E+04  0.13726450507E+03  0.17155893291E+04  0.10100000352E+00 0.  1.
       -3    1    3    3    0  502 -0.16090187784E+03  0.17025027980E+04 -0.18394069616E+04  0.25115380093E+04  0.10100000352E+00 0. -1.
</event>
<event>
 5   0  0.1860500E-07  0.3887478E+04  0.7818609E-02  0.8027639E-01
        1   -1    0    0  501    0  0.00000000000E+00  0.00000000000E+00  0.28004966822E+04  0.28004966822E+04  0.50400001928E-02 0. -1.
       -1   -1    0    0    0  501  0.00000000000E+00  0.00000000000E+00 -0.13490899317E+04  0.13490899317E+04  0.50400001928E-02 0.  1.
    10030    2    1    2    0    0  0.00000000000E+00  0.00000000000E+00  0.14514067505E+04  0.41495866139E+04  0.38874782972E+04 0.  0.
        5    1    3    3  502    0 -0.12197945896E+04 -0.63404993754E+02 -0.88825428951E+03  0.15102770629E+04  0.46999998093E+01 0.  1.
       -5    1    3    3    0  502  0.12197945896E+04  0.63404993754E+02  0.23396610400E+04  0.26393095510E+04  0.46999998093E+01 0. -1.
</event>
<event>
 5   0  0.1876027E-07  0.3878980E+04  0.7818609E-02  0.8029415E-01
       -1   -1    0    0    0  501  0.00000000000E+00  0.00000000000E+00  0.30556198532E+04  0.30556198532E+04  0.50400001928E-02 0. -1.
        1   -1    0    0  501    0  0.00000000000E+00  0.00000000000E+00 -0.12310504601E+04  0.12310504601E+04  0.50400001928E-02 0.  1.
    10030    2    1    2    0    0  0.00000000000E+00  0.00000000000E+00  0.18245693931E+04  0.42866703133E+04  0.38789803949E+04 0.  0.
        3    1    3    3  502    0 -0.14824767570E+03  0.17126339935E+03  0.30409521163E+04  0.30493767083E+04  0.10100000352E+00 0. -1.
       -3    1    3    3    0  502  0.14824767570E+03 -0.17126339935E+03 -0.12163827232E+04  0.12372936049E+04  0.10100000352E+00 0.  1.
</event>
<event>
 5   0  0.1876027E-07  0.3805637E+04  0.7818609E-02  0.8044946E-01
       -1   -1    0    0    0  501  0.00000000000E+00  0.00000000000E+00  0.11681089570E+04  0.11681089570E+04  0.50400001928E-02 0.  1.
        1   -1    0    0  501    0  0.00000000000E+00  0.00000000000E+00 -0.30996415383E+04  0.30996415383E+04  0.50400001928E-02 0. -1.
    10030    2    1    2    0    0  0.00000000000E+00  0.00000000000E+00 -0.19315325814E+04  0.42677504953E+04  0.38056374207E+04 0.  0.
        3    1    3    3  502    0 -0.89067259813E+03 -0.81230200303E+03 -0.26168149113E+04  0.28811200099E+04  0.10100000352E+00 0. -1.
       -3    1    3    3    0  502  0.89067259813E+03  0.81230200303E+03  0.68528232997E+03  0.13866304854E+04  0.10100000352E+00 0.  1.
</event>
<event>
 5   0  0.3959190E-07  0.3987018E+04  0.7818609E-02  0.8007171E-01
       -2   -1    0    0    0  501  0.00000000000E+00  0.00000000000E+00  0.20184423702E+04  0.20184423702E+04  0.25500000920E-02 0. -1.
        2   -1    0    0  501    0  0.00000000000E+00  0.00000000000E+00 -0.19688837949E+04  0.19688837949E+04  0.25500000920E-02 0.  1.
    10030    2    1    2    0    0  0.00000000000E+00  0.00000000000E+00  0.49558575211E+02  0.39873261651E+04  0.39870181708E+04 0.  0.
        2    1    3    3  502    0 -0.33661619237E+02  0.13134948249E+04  0.15241204730E+04  0.20122984311E+04  0.25500000920E-02 0. -1.
       -2    1    3    3    0  502  0.33661619237E+02 -0.13134948249E+04 -0.14745618978E+04  0.19750277340E+04  0.25500000920E-02 0.  1.
</event>
<event>
 5   0  0.3959190E-07  0.3934069E+04  0.7818609E-02  0.8017981E-01
       -2   -1    0    0    0  501  0.00000000000E+00  0.00000000000E+00  0.18905653465E+04  0.18905653465E+04  0.25500000920E-02 0. -1.
        2   -1    0    0  501    0  0.00000000000E+00  0.00000000000E+00 -0.20465966659E+04  0.20465966659E+04  0.25500000920E-02 0.  1.
    10030    2    1    2    0    0  0.00000000000E+00  0.00000000000E+00 -0.15603131941E+03  0.39371620124E+04  0.39340690054E+04 0.  0.
        2    1    3    3  502    0  0.12495816374E+04 -0.13432006187E+04  0.63217777821E+03  0.19404357536E+04  0.25500000920E-02 0. -1.
       -2    1    3    3    0  502 -0.12495816374E+04  0.13432006187E+04 -0.78820909762E+03  0.19967262587E+04  0.25500000920E-02 0.  1.
</event>
<event>
 5   0  0.1860500E-07  0.2390106E+04  0.7818609E-02  0.8443217E-01
       -1   -1    0    0    0  501  0.00000000000E+00  0.00000000000E+00  0.16033510896E+04  0.16033510896E+04  0.50400001928E-02 0. -1.
        1   -1    0    0  501    0  0.00000000000E+00  0.00000000000E+00 -0.89072893834E+03  0.89072893836E+03  0.50400001928E-02 0.  1.
    10030    2    1    2    0    0  0.00000000000E+00  0.00000000000E+00  0.71262215124E+03  0.24940800279E+04  0.23901056159E+04 0.  0.
        4    1    3    3  502    0  0.49335419273E+02  0.11480397847E+04  0.13825717749E+02  0.11491832292E+04  0.12699999809E+01 0.  1.
       -4    1    3    3    0  502 -0.49335419273E+02 -0.11480397847E+04  0.69879643349E+03  0.13448967987E+04  0.12699999809E+01 0. -1.
</event>
<event>
 5   0  0.5805753E-07  0.3651523E+04  0.7818609E-02  0.8078791E-01
       -2   -1    0    0    0  501  0.00000000000E+00  0.00000000000E+00  0.11295771300E+04  0.11295771300E+04  0.25500000920E-02 0.  1.
        2   -1    0    0  501    0  0.00000000000E+00  0.00000000000E+00 -0.29510196701E+04  0.29510196701E+04  0.25500000920E-02 0. -1.
    10030    2    1    2    0    0  0.00000000000E+00  0.00000000000E+00 -0.18214425401E+04  0.40805968001E+04  0.36515226027E+04 0.  0.
        1    1    3    3  502    0  0.14677975528E+04 -0.31119425718E+03  0.25177073163E+03  0.15214006780E+04  0.50400001928E-02 0.  1.
       -1    1    3    3    0  502 -0.14677975528E+04  0.31119425718E+03 -0.20732132717E+04  0.25591961221E+04  0.50400001928E-02 0. -1.
</event>
<event>
 5   0  0.1860500E-07  0.2751167E+04  0.7818609E-02  0.8318592E-01
       -3   -1    0    0    0  501  0.00000000000E+00  0.00000000000E+00  0.15785438422E+04  0.15785438454E+04  0.10100000352E+00 0.  1.
        3   -1    0    0  501    0  0.00000000000E+00  0.00000000000E+00 -0.11987182914E+04  0.11987182956E+04  0.10100000352E+00 0. -1.
    10030    2    1    2    0    0  0.00000000000E+00  0.00000000000E+00  0.37982555076E+03  0.27772621410E+04  0.27511665800E+04 0.  0.
        5    1    3    3  502    0  0.18205232076E+03 -0.47248207390E+02 -0.11856685651E+04  0.12005030100E+04  0.46999998093E+01 0. -1.
       -5    1    3    3    0  502 -0.18205232076E+03  0.47248207390E+02  0.15654941159E+04  0.15767591311E+04  0.46999998093E+01 0.  1.
</event>
<event>
 5   0  0.5735179E-07  0.3972686E+04  0.7818609E-02  0.8010079E-01
        2   -1    0    0  501    0  0.00000000000E+00  0.00000000000E+00  0.24027086402E+04  0.24027086402E+04  0.25500000920E-02 0. -1.
       -2   -1    0    0    0  501  0.00000000000E+00  0.00000000000E+00 -0.16421294075E+04  0.16421294075E+04  0.25500000920E-02 0.  1.
    10030    2    1    2    0    0  0.00000000000E+00  0.00000000000E+00  0.76057923277E+03  0.40448380477E+04  0.39726860011E+04 0.  0.
        5    1    3    3  502    0  0.18060010769E+04 -0.75741659187E+03  0.71830812832E+03  0.20859790125E+04  0.46999998093E+01 0.  1.
       -5    1    3    3    0  502 -0.18060010769E+04  0.75741659187E+03  0.42271104455E+02  0.19588590352E+04  0.46999998093E+01 0. -1.
</event>
<event>
 5   0  0.5735179E-07  0.3873159E+04  0.7818609E-02  0.8030635E-01
        2   -1    0    0  501    0  0.00000000000E+00  0.00000000000E+00  0.21859374498E+04  0.21859374498E+04  0.25500000920E-02 0.  1.
       -2   -1    0    0    0  501  0.00000000000E+00  0.00000000000E+00 -0.17156670137E+04  0.17156670137E+04  0.25500000920E-02 0. -1.
    10030    2    1    2    0    0  0.00000000000E+00  0.00000000000E+00  0.47027043602E+03  0.39016044635E+04  0.38731593185E+04 0.  0.
        5    1    3    3  502    0  0.13097509696E+04 -0.37639611117E+03 -0.11509048576E+04  0.17837392512E+04  0.46999998093E+01 0. -1.
       -5    1    3    3    0  502 -0.13097509696E+04  0.37639611117E+03  0.16211752936E+04  0.21178652123E+04  0.46999998093E+01 0.  1.
</event>
<event>
 5   0  0.3959190E-07  0.3924382E+04  0.7818609E-02  0.8019977E-01
       -2   -1    0    0    0  501  0.00000000000E+00  0.00000000000E+00  0.32348154143E+04  0.32348154143E+04  0.25500000920E-02 0.  1.
        2   -1    0    0  501    0  0.00000000000E+00  0.00000000000E+00 -0.11902360561E+04  0.11902360561E+04  0.25500000920E-02 0. -1.
    10030    2    1    2    0    0  0.00000000000E+00  0.00000000000E+00  0.20445793581E+04  0.44250514704E+04  0.39243822143E+04 0.  0.
        2    1    3    3  502    0 -0.18431089679E+04  0.51656318282E+03  0.15089883486E+04  0.24374031315E+04  0.25500000920E-02 0.  1.
       -2    1    3    3    0  502  0.18431089679E+04 -0.51656318282E+03  0.53559100957E+03  0.19876483388E+04  0.25500000920E-02 0. -1.
</event>
<event>
 5   0  0.1860500E-07  0.3675012E+04  0.7818609E-02  0.8073522E-01
       -1   -1    0    0    0  501  0.00000000000E+00  0.00000000000E+00  0.20882477029E+04  0.20882477030E+04  0.50400001928E-02 0. -1.
        1   -1    0    0  501    0  0.00000000000E+00  0.00000000000E+00 -0.16168713046E+04  0.16168713046E+04  0.50400001928E-02 0.  1.
    10030    2    1    2    0    0  0.00000000000E+00  0.00000000000E+00  0.47137639832E+03  0.37051190076E+04  0.36750117213E+04 0.  0.
        5    1    3    3  502    0 -0.16720222714E+04 -0.53821024684E+03 -0.30824722402E+03  0.17833584012E+04  0.46999998093E+01 0.  1.
       -5    1    3    3    0  502  0.16720222714E+04  0.53821024684E+03  0.77962362233E+03  0.19217606064E+04  0.46999998093E+01 0. -1.
</event>
<event>
 5   0  0.5872444E-07  0.3953040E+04  0.7818609E-02  0.8014087E-01
       -2   -1    0    0    0  501  0.00000000000E+00  0.00000000000E+00  0.13455147294E+04  0.13455147294E+04  0.25500000920E-02 0. -1.
        2   -1    0    0  501    0  0.00000000000E+00  0.00000000000E+00 -0.29034472052E+04  0.29034472052E+04  0.25500000920E-02 0.  1.
    10030    2    1    2    0    0  0.00000000000E+00  0.00000000000E+00 -0.15579324758E+04  0.42489619346E+04  0.39530398332E+04 0.  0.
        3    1    3    3  502    0  0.10231647713E+04 -0.29113843789E+03  0.10115711604E+04  0.14679591145E+04  0.10100000352E+00 0. -1.
       -3    1    3    3    0  502 -0.10231647713E+04  0.29113843789E+03 -0.25695036361E+04  0.27810028201E+04  0.10100000352E+00 0.  1.
</event>
<event>
 5   0  0.1876027E-07  0.3965488E+04  0.7818609E-02  0.8011545E-01
       -1   -1    0    0    0  501  0.00000000000E+00  0.00000000000E+00  0.20117101975E+04  0.20117101975E+04  0.50400001928E-02 0. -1.
        1   -1    0    0  501    0  0.00000000000E+00  0.00000000000E+00 -0.19541945255E+04  0.19541945255E+04  0.50400001928E-02 0.  1.
    10030    2    1    2    0    0  0.00000000000E+00  0.00000000000E+00  0.57515671972E+02  0.39659047230E+04  0.39654876395E+04 0.  0.
        3    1    3    3  502    0 -0.27814470537E+03  0.53387298500E+03  0.19181066609E+04  0.20103527089E+04  0.10100000352E+00 0. -1.
       -3    1    3    3    0  502  0.27814470537E+03 -0.53387298500E+03 -0.18605909890E+04  0.19555520141E+04  0.10100000352E+00 0.  1.
</event>
<event>
 5   0  0.6095665E-07  0.3325403E+04  0.7818609E-02  0.8156461E-01
        2   -1    0    0  501    0  0.00000000000E+00  0.00000000000E+00  0.24367953404E+04  0.24367953404E+04  0.25500000920E-02 0.  1.
       -2   -1    0    0    0  501  0.00000000000E+00  0.00000000000E+00 -0.11345131638E+04  0.11345131638E+04  0.25500000920E-02 0. -1.
    10030    2    1    2    0    0  0.00000000000E+00  0.00000000000E+00  0.13022821766E+04  0.35713085042E+04  0.33254030680E+04 0.  0.
        4    1    3    3  502    0 -0.46287869233E+02  0.12115957963E+04  0.18730215127E+04  0.22312144989E+04  0.12699999809E+01 0.  1.
       -4    1    3    3    0  502  0.46287869233E+02 -0.12115957963E+04 -0.57073933601E+03  0.13400940053E+04  0.12699999809E+01 0. -1.
</event>
<event>
 5   0  0.1943459E-07  0.3952851E+04  0.7818609E-02  0.8014126E-01
        1   -1    0    0  501    0  0.00000000000E+00  0.00000000000E+00  0.17991579771E+04  0.17991579771E+04  0.50400001928E-02 0. -1.
       -1   -1    0    0    0  501  0.00000000000E+00  0.00000000000E+00 -0.21711590061E+04  0.21711590061E+04  0.50400001928E-02 0.  1.
    10030    2    1    2    0    0  0.00000000000E+00  0.00000000000E+00 -0.37200102903E+03  0.39703169832E+04  0.39528511459E+04 0.  0.
        2    1    3    3  502    0 -0.16844798430E+04  0.95034118959E+03 -0.59478445738E+03  0.20234597275E+04  0.25500000920E-02 0.  1.
       -2    1    3    3    0  502  0.16844798430E+04 -0.95034118959E+03  0.22278342835E+03  0.19468572557E+04  0.25500000920E-02 0. -1.
</event>
<event>
 5   0  0.2666813E-07  0.3874444E+04  0.7818609E-02  0.8030365E-01
       -1   -1    0    0    0  501  0.00000000000E+00  0.00000000000E+00  0.21902698724E+04  0.21902698724E+04  0.50400001928E-02 0. -1.
        1   -1    0    0  501    0  0.00000000000E+00  0.00000000000E+00 -0.17134096988E+04  0.17134096988E+04  0.50400001928E-02 0.  1.
    10030    2    1    2    0    0  0.00000000000E+00  0.00000000000E+00  0.47686017354E+03  0.39036795712E+04  0.38744442917E+04 0.  0.
        1    1    3    3  502    0 -0.13604426703E+04  0.12069896163E+04  0.91069899475E+03  0.20339618610E+04  0.50400001928E-02 0.  1.
       -1    1    3    3    0  502  0.13604426703E+04 -0.12069896163E+04 -0.43383882121E+03  0.18697177102E+04  0.50400001928E-02 0. -1.
</event>
<event>
 5   0  0.5872444E-07  0.2558840E+04  0.7818609E-02  0.8382318E-01
        2   -1    0    0  501    0  0.00000000000E+00  0.00000000000E+00  0.18851242229E+04  0.18851242229E+04  0.25500000920E-02 0.  1.
       -2   -1    0    0    0  501  0.00000000000E+00  0.00000000000E+00 -0.86833320465E+03  0.86833320466E+03  0.25500000920E-02 0. -1.
    10030    2    1    2    0    0  0.00000000000E+00  0.00000000000E+00  0.10167910183E+04  0.27534574276E+04  0.25588403293E+04 0.  0.
        3    1    3    3  502    0 -0.91246358274E+03  0.64761646502E+03 -0.15920997272E+03  0.11301967533E+04  0.10100000352E+00 0. -1.
       -3    1    3    3    0  502  0.91246358274E+03 -0.64761646502E+03  0.11760009910E+04  0.16232606742E+04  0.10100000352E+00 0.  1.
</event>
<event>
 5   0  0.1860500E-07  0.3606800E+04  0.7818609E-02  0.8088936E-01
       -1   -1    0    0    0  501  0.00000000000E+00  0.00000000000E+00  0.24237339959E+04  0.24237339959E+04  0.50400001928E-02 0.  1.
        1   -1    0    0  501    0  0.00000000000E+00  0.00000000000E+00 -0.13418349910E+04  0.13418349910E+04  0.50400001928E-02 0. -1.
    10030    2    1    2    0    0  0.00000000000E+00  0.00000000000E+00  0.10818990049E+04  0.37655689869E+04  0.36067997364E+04 0.  0.
        5    1    3    3  502    0 -0.12245412995E+04 -0.63019565618E+03  0.17564952866E+04  0.22320272716E+04  0.46999998093E+01 0.  1.
       -5    1    3    3    0  502  0.12245412995E+04  0.63019565618E+03 -0.67459628177E+03  0.15335417153E+04  0.46999998093E+01 0. -1.
</event>
<event>
 5   0  0.5872444E-07  0.2829330E+04  0.7818609E-02  0.8294220E-01
        2   -1    0    0  501    0  0.00000000000E+00  0.00000000000E+00  0.21056284684E+04  0.21056284684E+04  0.25500000920E-02 0.  1.
       -2   -1    0    0    0  501  0.00000000000E+00  0.00000000000E+00 -0.95044153137E+03  0.95044153137E+03  0.25500000920E-02 0. -1.
    10030    2    1    2    0    0  0.00000000000E+00  0.00000000000E+00  0.11551869371E+04  0.30560699998E+04  0.28293297765E+04 0.  0.
        3    1    3    3  502    0 -0.40579331122E+03  0.10082106872E+04 -0.40058558479E+03  0.11582857256E+04  0.10100000352E+00 0. -1.
       -3    1    3    3    0  502  0.40579331122E+03 -0.10082106872E+04  0.15557725219E+04  0.18977842742E+04  0.10100000352E+00 0.  1.
</event>
<event>
 5   0  0.5805753E-07  0.3873335E+04  0.7818609E-02  0.8030598E-01
       -2   -1    0    0    0  501  0.00000000000E+00  0.00000000000E+00  0.18058660261E+04  0.18058660261E+04  0.25500000920E-02 0.  1.
        2   -1    0    0  501    0  0.00000000000E+00  0.00000000000E+00 -0.20769429914E+04  0.20769429914E+04  0.25500000920E-02 0. -1.
    10030    2    1    2    0    0  0.00000000000E+00  0.00000000000E+00 -0.27107696523E+03  0.38828090175E+04  0.38733348868E+04 0.  0.
        1    1    3    3  502    0 -0.12461149759E+04 -0.14407178399E+04  0.21490258281E+03  0.19169385873E+04  0.50400001928E-02 0. -1.
       -1    1    3    3    0  502  0.12461149759E+04  0.14407178399E+04 -0.48597954804E+03  0.19658704302E+04  0.50400001928E-02 0.  1.
</event>
<event>
 5   0  0.5735179E-07  0.3904258E+04  0.7818609E-02  0.8024144E-01
        2   -1    0    0  501    0  0.00000000000E+00  0.00000000000E+00  0.28739094199E+04  0.28739094199E+04  0.25500000920E-02 0.  1.
       -2   -1    0    0    0  501  0.00000000000E+00  0.00000000000E+00 -0.13260014787E+04  0.13260014787E+04  0.25500000920E-02 0. -1.
    10030    2    1    2    0    0  0.00000000000E+00  0.00000000000E+00  0.15479079412E+04  0.41999108986E+04  0.39042582601E+04 0.  0.
        5    1    3    3  502    0 -0.58055848230E+03 -0.85109914155E+03 -0.10097303217E+04  0.14425655315E+04  0.46999998093E+01 0. -1.
       -5    1    3    3    0  502  0.58055848230E+03  0.85109914155E+03  0.25576382628E+04  0.27573453671E+04  0.46999998093E+01 0.  1.
</event>
<event>
 5   0  0.5735179E-07  0.2858578E+04  0.7818609E-02  0.8285310E-01
        2   -1    0    0  501    0  0.00000000000E+00  0.00000000000E+00  0.14033981422E+04  0.14033981422E+04  0.25500000920E-02 0. -1.
       -2   -1    0    0    0  501  0.00000000000E+00  0.00000000000E+00 -0.14556573373E+04  0.14556573373E+04  0.25500000920E-02 0.  1.
    10030    2    1    2    0    0  0.00000000000E+00  0.00000000000E+00 -0.52259195124E+02  0.28590554794E+04  0.28585778301E+04 0.  0.
        5    1    3    3  502    0 -0.91940766551E+02  0.14122821915E+04  0.17352995910E+03  0.14258782660E+04  0.46999998093E+01 0.  1.
       -5    1    3    3    0  502  0.91940766551E+02 -0.14122821915E+04 -0.22578915422E+03  0.14331772134E+04  0.46999998093E+01 0. -1.
</event>
<event>
 5   0  0.5805753E-07  0.2701590E+04  0.7818609E-02  0.8334489E-01
        2   -1    0    0  501    0  0.00000000000E+00  0.00000000000E+00  0.17538426998E+04  0.17538426998E+04  0.25500000920E-02 0.  1.
       -2   -1    0    0    0  501  0.00000000000E+00  0.00000000000E+00 -0.10403707144E+04  0.10403707144E+04  0.25500000920E-02 0. -1.
    10030    2    1    2    0    0  0.00000000000E+00  0.00000000000E+00  0.71347198537E+03  0.27942134142E+04  0.27015895933E+04 0.  0.
        1    1    3    3  502    0 -0.53446625139E+03  0.78884083701E+03 -0.63354662051E+03  0.11442488193E+04  0.50400001928E-02 0. -1.
       -1    1    3    3    0  502  0.53446625139E+03 -0.78884083701E+03  0.13470186059E+04  0.16499645950E+04  0.50400001928E-02 0.  1.
</event>
<event>
 5   0  0.5872444E-07  0.3980958E+04  0.7818609E-02  0.8008399E-01
       -2   -1    0    0    0  501  0.00000000000E+00  0.00000000000E+00  0.15307760020E+04  0.15307760020E+04  0.25500000920E-02 0.  1.
        2   -1    0    0  501    0  0.00000000000E+00  0.00000000000E+00 -0.25882337138E+04  0.25882337138E+04  0.25500000920E-02 0. -1.
    10030    2    1    2    0    0  0.00000000000E+00  0.00000000000E+00 -0.10574577118E+04  0.41190097158E+04  0.39809577022E+04 0.  0.
        3    1    3    3  502    0  0.11063535984E+04 -0.12196557244E+04  0.62827429532E+03  0.17624718356E+04  0.10100000352E+00 0.  1.
       -3    1    3    3    0  502 -0.11063535984E+04  0.12196557244E+04 -0.16857320071E+04  0.23565378802E+04  0.10100000352E+00 0. -1.
</event>
<event>
 5   0  0.1943459E-07  0.3906663E+04  0.7818609E-02  0.8023645E-01
        1   -1    0    0  501    0  0.00000000000E+00  0.00000000000E+00  0.13860424926E+04  0.13860424927E+04  0.50400001928E-02 0.  1.
       -1   -1    0    0    0  501  0.00000000000E+00  0.00000000000E+00 -0.27528049213E+04  0.27528049213E+04  0.50400001928E-02 0. -1.
    10030    2    1    2    0    0  0.00000000000E+00  0.00000000000E+00 -0.13667624286E+04  0.41388474139E+04  0.39066633307E+04 0.  0.
        2    1    3    3  502    0 -0.96057018175E+03  0.14665633555E+04  0.22920899487E+03  0.17680610603E+04  0.25500000920E-02 0.  1.
       -2    1    3    3    0  502  0.96057018175E+03 -0.14665633555E+04 -0.15959714235E+04  0.23707863536E+04  0.25500000920E-02 0. -1.
</event>
<event>
 5   0  0.1860500E-07  0.3874445E+04  0.7818609E-02  0.8030365E-01
       -1   -1    0    0    0  501  0.00000000000E+00  0.00000000000E+00  0.14807645741E+04  0.14807645741E+04  0.50400001928E-02 0.  1.
        1   -1    0    0  501    0  0.00000000000E+00  0.00000000000E+00 -0.25343867616E+04  0.25343867616E+04  0.50400001928E-02 0. -1.
    10030    2    1    2    0    0  0.00000000000E+00  0.00000000000E+00 -0.10536221875E+04  0.40151513358E+04  0.38744445454E+04 0.  0.
        4    1    3    3  502    0  0.54406256510E+03  0.91613075441E+03 -0.22034448718E+04  0.24475437789E+04  0.12699999809E+01 0. -1.
       -4    1    3    3    0  502 -0.54406256510E+03 -0.91613075441E+03  0.11498226843E+04  0.15676075568E+04  0.12699999809E+01 0.  1.
</event>
<event>
 5   0  0.2666813E-07  0.3863045E+04  0.7818609E-02  0.8032759E-01
       -1   -1    0    0    0  501  0.00000000000E+00  0.00000000000E+00  0.13663929275E+04  0.13663929275E+04  0.50400001928E-02 0.  1.
        1   -1    0    0  501    0  0.00000000000E+00  0.00000000000E+00 -0.27303848043E+04  0.27303848043E+04  0.50400001928E-02 0. -1.
    10030    2    1    2    0    0  0.00000000000E+00  0.00000000000E+00 -0.13639918768E+04  0.40967777319E+04  0.38630446470E+04 0.  0.
        1    1    3    3  502    0  0.17881524104E+04 -0.42951534538E+03 -0.55663859960E+02  0.18398562281E+04  0.50400001928E-02 0. -1.
       -1    1    3    3    0  502 -0.17881524104E+04  0.42951534538E+03 -0.13083280168E+04  0.22569215038E+04  0.50400001928E-02 0.  1.
</event>
<event>
 5   0  0.2666813E-07  0.4269984E+04  0.7818609E-02  0.7952192E-01
        1   -1    0    0  501    0  0.00000000000E+00  0.00000000000E+00  0.14328995645E+04  0.14328995645E+04  0.50400001928E-02 0. -1.
       -1   -1    0    0    0  501  0.00000000000E+00  0.00000000000E+00 -0.31810952096E+04  0.31810952096E+04  0.50400001928E-02 0.  1.
    10030    2    1    2    0    0  0.00000000000E+00  0.00000000000E+00 -0.17481956451E+04  0.46139947741E+04  0.42699835786E+04 0.  0.
        1    1    3    3  502    0  0.21125994846E+04  0.10141414383E+03 -0.11888160254E+04  0.24262409100E+04  0.50400001928E-02 0.  1.
       -1    1    3    3    0  502 -0.21125994846E+04 -0.10141414383E+03 -0.55937961972E+03  0.21877538641E+04  0.50400001928E-02 0. -1.
</event>
<event>
 5   0  0.1943459E-07  0.3927492E+04  0.7818609E-02  0.8019336E-01
       -1   -1    0    0    0  501  0.00000000000E+00  0.00000000000E+00  0.19320503954E+04  0.19320503954E+04  0.50400001928E-02 0.  1.
        1   -1    0    0  501    0  0.00000000000E+00  0.00000000000E+00 -0.19959612691E+04  0.19959612691E+04  0.50400001928E-02 0. -1.
    10030    2    1    2    0    0  0.00000000000E+00  0.00000000000E+00 -0.63910873717E+02  0.39280116645E+04  0.39274916979E+04 0.  0.
        2    1    3    3  502    0 -0.15882873589E+04  0.82352001527E+03 -0.84166487509E+03  0.19771802427E+04  0.25500000920E-02 0. -1.
       -2    1    3    3    0  502  0.15882873589E+04 -0.82352001527E+03  0.77775400137E+03  0.19508314219E+04  0.25500000920E-02 0.  1.
</event>
<event>
 5   0  0.1860500E-07  0.3855741E+04  0.7818609E-02  0.8034298E-01
       -1   -1    0    0    0  501  0.00000000000E+00  0.00000000000E+00  0.31637725231E+04  0.31637725231E+04  0.50400001928E-02 0. -1.
        1   -1    0    0  501    0  0.00000000000E+00  0.00000000000E+00 -0.11747637568E+04  0.11747637569E+04  0.50400001928E-02 0.  1.
    10030    2    1    2    0    0  0.00000000000E+00  0.00000000000E+00  0.19890087663E+04  0.43385362800E+04  0.38557413270E+04 0.  0.
        5    1    3    3  502    0  0.16124334657E+04  0.37822582858E+03  0.21048048235E+04  0.26782871193E+04  0.46999998093E+01 0. -1.
       -5    1    3    3    0  502 -0.16124334657E+04 -0.37822582858E+03 -0.11579605718E+03  0.16602491607E+04  0.46999998093E+01 0.  1.
</event>
<event>
 5   0  0.5735179E-07  0.3921617E+04  0.7818609E-02  0.8020548E-01
       -2   -1    0    0    0  501  0.00000000000E+00  0.00000000000E+00  0.17900574893E+04  0.17900574893E+04  0.25500000920E-02 0. -1.
        2   -1    0    0  501    0  0.00000000000E+00  0.00000000000E+00 -0.21478473751E+04  0.21478473751E+04  0.25500000920E-02 0.  1.
    10030    2    1    2    0    0  0.00000000000E+00  0.00000000000E+00 -0.35778988585E+03  0.39379048644E+04  0.39216171561E+04 0.  0.
        5    1    3    3  502    0 -0.10572505912E+03 -0.12101518535E+04  0.13666868303E+04  0.18285240711E+04  0.46999998093E+01 0. -1.
       -5    1    3    3    0  502  0.10572505912E+03  0.12101518535E+04 -0.17244767162E+04  0.21093807933E+04  0.46999998093E+01 0.  1.
</event>
<event>
 5   0  0.6095665E-07  0.3801031E+04  0.7818609E-02  0.8045934E-01
        2   -1    0    0  501    0  0.00000000000E+00  0.00000000000E+00  0.22702813134E+04  0.22702813134E+04  0.25500000920E-02 0. -1.
       -2   -1    0    0    0  501  0.00000000000E+00  0.00000000000E+00 -0.15909746748E+04  0.15909746748E+04  0.25500000920E-02 0.  1.
    10030    2    1    2    0    0  0.00000000000E+00  0.00000000000E+00  0.67930663863E+03  0.38612559882E+04  0.38010314781E+04 0.  0.
        4    1    3    3  502    0  0.92590974765E+03  0.16191796220E+04  0.70999362325E+03  0.19957815679E+04  0.12699999809E+01 0. -1.
       -4    1    3    3    0  502 -0.92590974765E+03 -0.16191796220E+04 -0.30686984620E+02  0.18654744203E+04  0.12699999809E+01 0.  1.
</event>
<event>
 5   0  0.5805753E-07  0.3898013E+04  0.7818609E-02  0.8025443E-01
       -2   -1    0    0    0  501  0.00000000000E+00  0.00000000000E+00  0.20925762644E+04  0.20925762644E+04  0.25500000920E-02 0. -1.
        2   -1    0    0  501    0  0.00000000000E+00  0.00000000000E+00 -0.18152868461E+04  0.18152868462E+04  0.25500000920E-02 0.  1.
    10030    2    1    2    0    0  0.00000000000E+00  0.00000000000E+00  0.27728941823E+03  0.39078631105E+04  0.38980129129E+04 0.  0.
        1    1    3    3  502    0  0.19262210094E+04  0.23647421224E+03  0.31904034328E+03  0.19667318502E+04  0.50400001928E-02 0. -1.
       -1    1    3    3    0  502 -0.19262210094E+04 -0.23647421224E+03 -0.41750925048E+02  0.19411312603E+04  0.50400001928E-02 0.  1.
</event>
<event>
 5   0  0.3959190E-07  0.3999715E+04  0.7818609E-02  0.8004604E-01
        2   -1    0    0  501    0  0.00000000000E+00  0.00000000000E+00  0.27452596071E+04  0.27452596071E+04  0.25500000920E-02 0.  1.
       -2   -1    0    0    0  501  0.00000000000E+00  0.00000000000E+00 -0.14568497274E+04  0.14568497274E+04  0.25500000920E-02 0. -1.
    10030    2    1    2    0    0  0.00000000000E+00  0.00000000000E+00  0.12884098798E+04  0.42021093345E+04  0.39997153450E+04 0.  0.
        2    1    3    3  502    0 -0.18843431943E+04 -0.43300348549E+03  0.10727693939E+03  0.19364270278E+04  0.25500000920E-02 0. -1.
       -2    1    3    3    0  502  0.18843431943E+04  0.43300348549E+03  0.11811329404E+04  0.22656823067E+04  0.25500000920E-02 0.  1.
</event>
<event>
 5   0  0.1943459E-07  0.3923224E+04  0.7818609E-02  0.8020216E-01
        1   -1    0    0  501    0  0.00000000000E+00  0.00000000000E+00  0.13445200299E+04  0.13445200299E+04  0.50400001928E-02 0.  1.
       -1   -1    0    0    0  501  0.00000000000E+00  0.00000000000E+00 -0.28619301046E+04  0.28619301046E+04  0.50400001928E-02 0. -1.
    10030    2    1    2    0    0  0.00000000000E+00  0.00000000000E+00 -0.15174100747E+04  0.42064501345E+04  0.39232243626E+04 0.  0.
        2    1    3    3  502    0  0.15575572374E+04  0.41447517812E+03  0.44011318883E+03  0.16707704331E+04  0.25500000920E-02 0. -1.
       -2    1    3    3    0  502 -0.15575572374E+04 -0.41447517812E+03 -0.19575232636E+04  0.25356797015E+04  0.25500000920E-02 0.  1.
</event>
<event>
 5   0  0.1943459E-07  0.2420231E+04  0.7818609E-02  0.8431968E-01
       -1   -1    0    0    0  501  0.00000000000E+00  0.00000000000E+00  0.77935136358E+03  0.77935136360E+03  0.50400001928E-02 0.  1.
        1   -1    0    0  501    0  0.00000000000E+00  0.00000000000E+00 -0.18789727125E+04  0.18789727125E+04  0.50400001928E-02 0. -1.
    10030    2    1    2    0    0  0.00000000000E+00  0.00000000000E+00 -0.10996213489E+04  0.26583240761E+04  0.24202313490E+04 0.  0.
        2    1    3    3  502    0 -0.68809149575E+03  0.63400908288E+03  0.29311153820E+03  0.98048549073E+03  0.25500000920E-02 0.  1.
       -2    1    3    3    0  502  0.68809149575E+03 -0.63400908288E+03 -0.13927328871E+04  0.16778385854E+04  0.25500000920E-02 0. -1.
</event>
<event>
 5   0  0.1860500E-07  0.3900524E+04  0.7818609E-02  0.8024920E-01
        1   -1    0    0  501    0  0.00000000000E+00  0.00000000000E+00  0.27298974302E+04  0.27298974302E+04  0.50400001928E-02 0. -1.
       -1   -1    0    0    0  501  0.00000000000E+00  0.00000000000E+00 -0.13932834659E+04  0.13932834659E+04  0.50400001928E-02 0.  1.
    10030    2    1    2    0    0  0.00000000000E+00  0.00000000000E+00  0.13366139643E+04  0.41231808962E+04  0.39005235306E+04 0.  0.
        4    1    3    3  502    0  0.12307753270E+04 -0.59335294431E+03 -0.80276645138E+03  0.15847117121E+04  0.12699999809E+01 0.  1.
       -4    1    3    3    0  502 -0.12307753270E+04  0.59335294431E+03  0.21393804157E+04  0.25384691840E+04  0.12699999809E+01 0. -1.
</event>
<event>
 5   0  0.1943459E-07  0.3735694E+04  0.7818609E-02  0.8060097E-01
        1   -1    0    0  501    0  0.00000000000E+00  0.00000000000E+00  0.19715571315E+04  0.19715571315E+04  0.50400001928E-02 0.  1.
       -1   -1    0    0    0  501  0.00000000000E+00  0.00000000000E+00 -0.17695918902E+04  0.17695918902E+04  0.50400001928E-02 0. -1.
    10030    2    1    2    0    0  0.00000000000E+00  0.00000000000E+00  0.20196524136E+03  0.37411490217E+04  0.37356935158E+04 0.  0.
        2    1    3    3  502    0  0.77512017628E+03  0.54436510893E+02  0.18020145484E+04  0.19624044064E+04  0.25500000920E-02 0.  1.
       -2    1    3    3    0  502 -0.77512017628E+03 -0.54436510893E+02 -0.16000493071E+04  0.17787446153E+04  0.25500000920E-02 0. -1.
</event>
<event>
 5   0  0.5735179E-07  0.3817577E+04  0.7818609E-02  0.8042393E-01
        2   -1    0    0  501    0  0.00000000000E+00  0.00000000000E+00  0.22734714798E+04  0.22734714798E+04  0.25500000920E-02 0. -1.
       -2   -1    0    0    0  501  0.00000000000E+00  0.00000000000E+00 -0.16026036868E+04  0.16026036868E+04  0.25500000920E-02 0.  1.
    10030    2    1    2    0    0  0.00000000000E+00  0.00000000000E+00  0.67086779308E+03  0.38760751666E+04  0.38175771245E+04 0.  0.
        5    1    3    3  502    0  0.51930443478E+03  0.35200651648E+03 -0.14949285556E+04  0.16212400069E+04  0.46999998093E+01 0.  1.
       -5    1    3    3    0  502 -0.51930443478E+03 -0.35200651648E+03  0.21657963487E+04  0.22548351597E+04  0.46999998093E+01 0. -1.
</event>
<event>
 5   0  0.5805753E-07  0.3176096E+04  0.7818609E-02  0.8195159E-01
        2   -1    0    0  501    0  0.00000000000E+00  0.00000000000E+00  0.26557880467E+04  0.26557880467E+04  0.25500000920E-02 0. -1.
       -2   -1    0    0    0  501  0.00000000000E+00  0.00000000000E+00 -0.94958489535E+03  0.94958489535E+03  0.25500000920E-02 0.  1.
    10030    2    1    2    0    0  0.00000000000E+00  0.00000000000E+00  0.17062031514E+04  0.36053729421E+04  0.31760958515E+04 0.  0.
        1    1    3    3  502    0  0.19045502052E+03  0.12723933811E+04  0.19098594788E+04  0.23027855436E+04  0.50400001928E-02 0. -1.
       -1    1    3    3    0  502 -0.19045502052E+03 -0.12723933811E+04 -0.20365632739E+03  0.13025873985E+04  0.50400001928E-02 0.  1.
</event>
<event>
 5   0  0.5805753E-07  0.3470750E+04  0.7818609E-02  0.8120757E-01
        2   -1    0    0  501    0  0.00000000000E+00  0.00000000000E+00  0.33678117016E+04  0.33678117016E+04  0.25500000920E-02 0.  1.
       -2   -1    0    0    0  501  0.00000000000E+00  0.00000000000E+00 -0.89420858692E+03  0.89420858692E+03  0.25500000920E-02 0. -1.
    10030    2    1    2    0    0  0.00000000000E+00  0.00000000000E+00  0.24736031147E+04  0.42620202886E+04  0.34707498572E+04 0.  0.
        1    1    3    3  502    0 -0.23121609195E+03  0.88004037540E+02  0.33460454512E+04  0.33551789451E+04  0.50400001928E-02 0.  1.
       -1    1    3    3    0  502  0.23121609195E+03 -0.88004037540E+02 -0.87244233647E+03  0.90684134351E+03  0.50400001928E-02 0. -1.
</event>
<event>
 5   0  0.5805753E-07  0.3849612E+04  0.7818609E-02  0.8035591E-01
        2   -1    0    0  501    0  0.00000000000E+00  0.00000000000E+00  0.20018269354E+04  0.20018269354E+04  0.25500000920E-02 0. -1.
       -2   -1    0    0    0  501  0.00000000000E+00  0.00000000000E+00 -0.18507485417E+04  0.18507485417E+04  0.25500000920E-02 0.  1.
    10030    2    1    2    0    0  0.00000000000E+00  0.00000000000E+00  0.15107839370E+03  0.38525754771E+04  0.38496120747E+04 0.  0.
        1    1    3    3  502    0 -0.17796426461E+04  0.67279304307E+03  0.36748255367E+03  0.19377362705E+04  0.50400001928E-02 0. -1.
       -1    1    3    3    0  502  0.17796426461E+04 -0.67279304307E+03 -0.21640415997E+03  0.19148392066E+04  0.50400001928E-02 0.  1.
</event>
<event>
 5   0  0.1860500E-07  0.3892766E+04  0.7818609E-02  0.8026535E-01
       -1   -1    0    0    0  501  0.00000000000E+00  0.00000000000E+00  0.14352067525E+04  0.14352067525E+04  0.50400001928E-02 0.  1.
        1   -1    0    0  501    0  0.00000000000E+00  0.00000000000E+00 -0.26396245497E+04  0.26396245497E+04  0.50400001928E-02 0. -1.
    10030    2    1    2    0    0  0.00000000000E+00  0.00000000000E+00 -0.12044177972E+04  0.40748313022E+04  0.38927661002E+04 0.  0.
        4    1    3    3  502    0  0.15730893300E+04  0.10848868327E+04 -0.21502295172E+03  0.19229732090E+04  0.12699999809E+01 0.  1.
       -4    1    3    3    0  502 -0.15730893300E+04 -0.10848868327E+04 -0.98939484547E+03  0.21518580932E+04  0.12699999809E+01 0. -1.
</event>
<event>
 5   0  0.3959190E-07  0.3758435E+04  0.7818609E-02  0.8055134E-01
       -2   -1    0    0    0  501  0.00000000000E+00  0.00000000000E+00  0.24237701715E+04  0.24237701715E+04  0.25500000920E-02 0.  1.
        2   -1    0    0  501    0  0.00000000000E+00  0.00000000000E+00 -0.14570106564E+04  0.14570106564E+04  0.25500000920E-02 0. -1.
    10030    2    1    2    0    0  0.00000000000E+00  0.00000000000E+00  0.96675951510E+03  0.38807808278E+04  0.37584352959E+04 0.  0.
        2    1    3    3  502    0 -0.13773862772E+04  0.98058924575E+03 -0.36350871151E+03  0.17294180550E+04  0.25500000920E-02 0. -1.
       -2    1    3    3    0  502  0.13773862772E+04 -0.98058924575E+03  0.13302682266E+04  0.21513627728E+04  0.25500000920E-02 0.  1.
</event>
<event>
 5   0  0.3959190E-07  0.3360056E+04  0.7818609E-02  0.8147780E-01
       -2   -1    0    0    0  501  0.00000000000E+00  0.00000000000E+00  0.17129543453E+04  0.17129543453E+04  0.25500000920E-02 0. -1.
        2   -1    0    0  501    0  0.00000000000E+00  0.00000000000E+00 -0.16477349071E+04  0.16477349071E+04  0.25500000920E-02 0.  1.
    10030    2    1    2    0    0  0.00000000000E+00  0.00000000000E+00  0.65219438141E+02  0.33606892524E+04  0.33600563502E+04 0.  0.
        2    1    3    3  502    0 -0.49588290992E+03 -0.11554438052E+04 -0.10818462836E+04  0.16587168621E+04  0.25500000920E-02 0.  1.
       -2    1    3    3    0  502  0.49588290992E+03  0.11554438052E+04  0.11470657217E+04  0.17019723903E+04  0.25500000920E-02 0. -1.
</event>
<event>
 5   0  0.1860500E-07  0.3812267E+04  0.7818609E-02  0.8043528E-01
       -1   -1    0    0    0  501  0.00000000000E+00  0.00000000000E+00  0.27062805265E+04  0.27062805266E+04  0.50400001928E-02 0. -1.
        1   -1    0    0  501    0  0.00000000000E+00  0.00000000000E+00 -0.13425604522E+04  0.13425604522E+04  0.50400001928E-02 0.  1.
    10030    2    1    2    0    0  0.00000000000E+00  0.00000000000E+00  0.13637200744E+04  0.40488409788E+04  0.38122671509E+04 0.  0.
        4    1    3    3  502    0  0.16982365388E+03 -0.85175286435E+03  0.24839222394E+04  0.26313863873E+04  0.12699999809E+01 0. -1.
       -4    1    3    3    0  502 -0.16982365388E+03  0.85175286435E+03 -0.11202021650E+04  0.14174545914E+04  0.12699999809E+01 0.  1.
</event>
<event>
 5   0  0.1943459E-07  0.3927603E+04  0.7818609E-02  0.8019313E-01
       -1   -1    0    0    0  501  0.00000000000E+00  0.00000000000E+00  0.24025187870E+04  0.24025187870E+04  0.50400001928E-02 0. -1.
        1   -1    0    0  501    0  0.00000000000E+00  0.00000000000E+00 -0.16051972328E+04  0.16051972328E+04  0.50400001928E-02 0.  1.
    10030    2    1    2    0    0  0.00000000000E+00  0.00000000000E+00  0.79732155416E+03  0.40077160198E+04  0.39276030902E+04 0.  0.
        2    1    3    3  502    0 -0.16346705117E+04 -0.97464748329E+03 -0.95396123363E+02  0.19055670597E+04  0.25500000920E-02 0.  1.
       -2    1    3    3    0  502  0.16346705117E+04  0.97464748329E+03  0.89271767752E+03  0.21021489601E+04  0.25500000920E-02 0. -1.
</event>
<event>
 5   0  0.1860500E-07  0.3788308E+04  0.7818609E-02  0.8048669E-01
        1   -1    0    0  501    0  0.00000000000E+00  0.00000000000E+00  0.10981300913E+04  0.10981300913E+04  0.50400001928E-02 0.  1.
       -1   -1    0    0    0  501  0.00000000000E+00  0.00000000000E+00 -0.32672084459E+04  0.32672084459E+04  0.50400001928E-02 0. -1.
    10030    2    1    2    0    0  0.00000000000E+00  0.00000000000E+00 -0.21690783546E+04  0.43653385372E+04  0.37883082816E+04 0.  0.
        5    1    3    3  502    0  0.19120355931E+03  0.18831246212E+03 -0.32451836113E+04  0.32562646001E+04  0.46999998093E+01 0. -1.
       -5    1    3    3    0  502 -0.19120355931E+03 -0.18831246212E+03  0.10761052567E+04  0.11090739371E+04  0.46999998093E+01 0.  1.
</event>
<event>
 5   0  0.3959190E-07  0.3970753E+04  0.7818609E-02  0.8010473E-01
        2   -1    0    0  501    0  0.00000000000E+00  0.00000000000E+00  0.13817444766E+04  0.13817444766E+04  0.25500000920E-02 0. -1.
       -2   -1    0    0    0  501  0.00000000000E+00  0.00000000000E+00 -0.28527127498E+04  0.28527127498E+04  0.25500000920E-02 0.  1.
    10030    2    1    2    0    0  0.00000000000E+00  0.00000000000E+00 -0.14709682733E+04  0.42344572264E+04  0.39707531202E+04 0.  0.
        2    1    3    3  502    0 -0.15207510288E+04 -0.51811044265E+03 -0.19793964665E+04  0.25493396192E+04  0.25500000920E-02 0.  1.
       -2    1    3    3    0  502  0.15207510288E+04  0.51811044265E+03  0.50842819323E+03  0.16851176072E+04  0.25500000920E-02 0. -1.
</event>
<event>
 5   0  0.1860500E-07  0.3885485E+04  0.7818609E-02  0.8028055E-01
        1   -1    0    0  501    0  0.00000000000E+00  0.00000000000E+00  0.26565927109E+04  0.26565927109E+04  0.50400001928E-02 0.  1.
       -1   -1    0    0    0  501  0.00000000000E+00  0.00000000000E+00 -0.14207102446E+04  0.14207102446E+04  0.50400001928E-02 0. -1.
    10030    2    1    2    0    0  0.00000000000E+00  0.00000000000E+00  0.12358824663E+04  0.40773029555E+04  0.38854850303E+04 0.  0.
        5    1    3    3  502    0 -0.18675387113E+04  0.32913430299E+03  0.17496858020E+03  0.19043808236E+04  0.46999998093E+01 0. -1.
       -5    1    3    3    0  502  0.18675387113E+04 -0.32913430299E+03  0.10609138861E+04  0.21729221319E+04  0.46999998093E+01 0.  1.
</event>
<event>
 5   0  0.5805753E-07  0.2965748E+04  0.7818609E-02  0.8253580E-01
        2   -1    0    0  501    0  0.00000000000E+00  0.00000000000E+00  0.17156985655E+04  0.17156985655E+04  0.25500000920E-02 0.  1.
       -2   -1    0    0    0  501  0.00000000000E+00  0.00000000000E+00 -0.12816444006E+04  0.12816444006E+04  0.25500000920E-02 0. -1.
    10030    2    1    2    0    0  0.00000000000E+00  0.00000000000E+00  0.43405416490E+03  0.29973429661E+04  0.29657481077E+04 0.  0.
        1    1    3    3  502    0 -0.41122122698E+03  0.17441291839E+03 -0.12120354334E+04  0.12917246825E+04  0.50400001928E-02 0. -1.
       -1    1    3    3    0  502  0.41122122698E+03 -0.17441291839E+03  0.16460895983E+04  0.17056182836E+04  0.50400001928E-02 0.  1.
</event>
<event>
 5   0  0.1860500E-07  0.2691107E+04  0.7818609E-02  0.8337896E-01
        1   -1    0    0  501    0  0.00000000000E+00  0.00000000000E+00  0.20651678513E+04  0.20651678513E+04  0.50400001928E-02 0.  1.
       -1   -1    0    0    0  501  0.00000000000E+00  0.00000000000E+00 -0.87669097249E+03  0.87669097250E+03  0.50400001928E-02 0. -1.
    10030    2    1    2    0    0  0.00000000000E+00  0.00000000000E+00  0.11884768788E+04  0.29418588238E+04  0.26911068443E+04 0.  0.
        5    1    3    3  502    0 -0.10321665296E+04 -0.44453314517E+03 -0.21465010243E+03  0.11441478132E+04  0.46999998093E+01 0. -1.
       -5    1    3    3    0  502  0.10321665296E+04  0.44453314517E+03  0.14031269812E+04  0.17977110105E+04  0.46999998093E+01 0.  1.
</event>
<event>
 5   0  0.1876027E-07  0.3955410E+04  0.7818609E-02  0.8013603E-01
        1   -1    0    0  501    0  0.00000000000E+00  0.00000000000E+00  0.22880436968E+04  0.22880436968E+04  0.50400001928E-02 0.  1.
       -1   -1    0    0    0  501  0.00000000000E+00  0.00000000000E+00 -0.17094594320E+04  0.17094594320E+04  0.50400001928E-02 0. -1.
    10030    2    1    2    0    0  0.00000000000E+00  0.00000000000E+00  0.57858426479E+03  0.39975031287E+04  0.39554104102E+04 0.  0.
        3    1    3    3  502    0 -0.13684425972E+04  0.88021945757E+02  0.17295665857E+04  0.22072117228E+04  0.10100000352E+00 0.  1.
       -3    1    3    3    0  502  0.13684425972E+04 -0.88021945757E+02 -0.11509823209E+04  0.17902914059E+04  0.10100000352E+00 0. -1.
</event>
<event>
 5   0  0.1876027E-07  0.3926141E+04  0.7818609E-02  0.8019614E-01
       -1   -1    0    0    0  501  0.00000000000E+00  0.00000000000E+00  0.16068238036E+04  0.16068238036E+04  0.50400001928E-02 0.  1.
        1   -1    0    0  501    0  0.00000000000E+00  0.00000000000E+00 -0.23983004969E+04  0.23983004969E+04  0.50400001928E-02 0. -1.
    10030    2    1    2    0    0  0.00000000000E+00  0.00000000000E+00 -0.79147669326E+03  0.40051243005E+04  0.39261412744E+04 0.  0.
        3    1    3    3  502    0  0.22681681897E+03  0.13623675421E+04  0.10273727456E+04  0.17213326110E+04  0.10100000352E+00 0.  1.
       -3    1    3    3    0  502 -0.22681681897E+03 -0.13623675421E+04 -0.18188494389E+04  0.22837916894E+04  0.10100000352E+00 0. -1.
</event>
<event>
 5   0  0.1860500E-07  0.3944059E+04  0.7818609E-02  0.8015928E-01
        1   -1    0    0  501    0  0.00000000000E+00  0.00000000000E+00  0.28699312009E+04  0.28699312009E+04  0.50400001928E-02 0.  1.
       -1   -1    0    0    0  501  0.00000000000E+00  0.00000000000E+00 -0.13550502159E+04  0.13550502159E+04  0.50400001928E-02 0. -1.
    10030    2    1    2    0    0  0.00000000000E+00  0.00000000000E+00  0.15148809850E+04  0.42249814168E+04  0.39440592761E+04 0.  0.
        5    1    3    3  502    0  0.11831918254E+04 -0.15337759293E+04  0.11531674895E+04  0.22543799249E+04  0.46999998093E+01 0.  1.
       -5    1    3    3    0  502 -0.11831918254E+04  0.15337759293E+04  0.36171349540E+03  0.19706014919E+04  0.46999998093E+01 0. -1.
</event>
<event>
 5   0  0.3959190E-07  0.3984935E+04  0.7818609E-02  0.8007593E-01
        2   -1    0    0  501    0  0.00000000000E+00  0.00000000000E+00  0.27556052684E+04  0.27556052684E+04  0.25500000920E-02 0.  1.
       -2   -1    0    0    0  501  0.00000000000E+00  0.00000000000E+00 -0.14406729094E+04  0.14406729094E+04  0.25500000920E-02 0. -1.
    10030    2    1    2    0    0  0.00000000000E+00  0.00000000000E+00  0.13149323590E+04  0.41962781777E+04  0.39849345586E+04 0.  0.
        2    1    3    3  502    0  0.64988056990E+03 -0.17867737979E+04  0.30029661383E+02  0.19015275808E+04  0.25500000920E-02 0. -1.
       -2    1    3    3    0  502 -0.64988056990E+03  0.17867737979E+04  0.12849026976E+04  0.22947505969E+04  0.25500000920E-02 0.  1.
</event>
<event>
 5   0  0.5805753E-07  0.3979359E+04  0.7818609E-02  0.8008723E-01
        2   -1    0    0  501    0  0.00000000000E+00  0.00000000000E+00  0.30120010590E+04  0.30120010590E+04  0.25500000920E-02 0. -1.
       -2   -1    0    0    0  501  0.00000000000E+00  0.00000000000E+00 -0.13143504271E+04  0.13143504271E+04  0.25500000920E-02 0.  1.
    10030    2    1    2    0    0  0.00000000000E+00  0.00000000000E+00  0.16976506319E+04  0.43263514862E+04  0.39793591838E+04 0.  0.
        1    1    3    3  502    0  0.10748971851E+04  0.80191139455E+03  0.24468063690E+04  0.27902199288E+04  0.50400001928E-02 0. -1.
       -1    1    3    3    0  502 -0.10748971851E+04 -0.80191139455E+03 -0.74915573715E+03  0.15361315574E+04  0.50400001928E-02 0.  1.
</event>
<event>
 5   0  0.3959190E-07  0.3966735E+04  0.7818609E-02  0.8011291E-01
        2   -1    0    0  501    0  0.00000000000E+00  0.00000000000E+00  0.15931214097E+04  0.15931214097E+04  0.25500000920E-02 0.  1.
       -2   -1    0    0    0  501  0.00000000000E+00  0.00000000000E+00 -0.24692065594E+04  0.24692065594E+04  0.25500000920E-02 0. -1.
    10030    2    1    2    0    0  0.00000000000E+00  0.00000000000E+00 -0.87608514973E+03  0.40623279691E+04  0.39667345940E+04 0.  0.
        2    1    3    3  502    0  0.59277380226E+02  0.88510550486E+03  0.13786348059E+04  0.16393777755E+04  0.25500000920E-02 0.  1.
       -2    1    3    3    0  502 -0.59277380226E+02 -0.88510550486E+03 -0.22547199557E+04  0.24229501937E+04  0.25500000920E-02 0. -1.
</event>
<event>
 5   0  0.5805753E-07  0.3914179E+04  0.7818609E-02  0.8022087E-01
        2   -1    0    0  501    0  0.00000000000E+00  0.00000000000E+00  0.26964712052E+04  0.26964712052E+04  0.25500000920E-02 0. -1.
       -2   -1    0    0    0  501  0.00000000000E+00  0.00000000000E+00 -0.14204487817E+04  0.14204487817E+04  0.25500000920E-02 0.  1.
    10030    2    1    2    0    0  0.00000000000E+00  0.00000000000E+00  0.12760224235E+04  0.41169199869E+04  0.39141789629E+04 0.  0.
        1    1    3    3  502    0 -0.18540449978E+04 -0.43698365490E+03  0.11104560191E+04  0.22048923191E+04  0.50400001928E-02 0.  1.
       -1    1    3    3    0  502  0.18540449978E+04  0.43698365490E+03  0.16556640443E+03  0.19120276679E+04  0.50400001928E-02 0. -1.
</event>
<event>
 5   0  0.5872444E-07  0.3927601E+04  0.7818609E-02  0.8019313E-01
        2   -1    0    0  501    0  0.00000000000E+00  0.00000000000E+00  0.19374504652E+04  0.19374504652E+04  0.25500000920E-02 0.  1.
       -2   -1    0    0    0  501  0.00000000000E+00  0.00000000000E+00 -0.19905084694E+04  0.19905084694E+04  0.25500000920E-02 0. -1.
    10030    2    1    2    0    0  0.00000000000E+00  0.00000000000E+00 -0.53058004182E+02  0.39279589347E+04  0.39276005704E+04 0.  0.
        3    1    3    3  502    0  0.17917427259E+04  0.50003006920E+03  0.60292455207E+03  0.19554769474E+04  0.10100000352E+00 0. -1.
       -3    1    3    3    0  502 -0.17917427259E+04 -0.50003006920E+03 -0.65598255626E+03  0.19724819873E+04  0.10100000352E+00 0.  1.
</event>
<event>
 5   0  0.5805753E-07  0.3869840E+04  0.7818609E-02  0.8031331E-01
       -2   -1    0    0    0  501  0.00000000000E+00  0.00000000000E+00  0.23108602369E+04  0.23108602369E+04  0.25500000920E-02 0.  1.
        2   -1    0    0  501    0  0.00000000000E+00  0.00000000000E+00 -0.16201391504E+04  0.16201391504E+04  0.25500000920E-02 0. -1.
    10030    2    1    2    0    0  0.00000000000E+00  0.00000000000E+00  0.69072108653E+03  0.39309993874E+04  0.38698398628E+04 0.  0.
        1    1    3    3  502    0  0.75595350410E+03 -0.42187948374E+03  0.21031617496E+04  0.22743652618E+04  0.50400001928E-02 0.  1.
       -1    1    3    3    0  502 -0.75595350410E+03  0.42187948374E+03 -0.14124406631E+04  0.16566341255E+04  0.50400001928E-02 0. -1.
</event>
<event>
 5   0  0.2666813E-07  0.3317030E+04  0.7818609E-02  0.8158576E-01
        1   -1    0    0  501    0  0.00000000000E+00  0.00000000000E+00  0.21759002851E+04  0.21759002851E+04  0.50400001928E-02 0. -1.
       -1   -1    0    0    0  501  0.00000000000E+00  0.00000000000E+00 -0.12641537179E+04  0.12641537179E+04  0.50400001928E-02 0.  1.
    10030    2    1    2    0    0  0.00000000000E+00  0.00000000000E+00  0.91174656721E+03  0.34400540030E+04  0.33170302593E+04 0.  0.
        1    1    3    3  502    0  0.45105250687E+03  0.65636403191E+03  0.19646180033E+04  0.21199023575E+04  0.50400001928E-02 0. -1.
       -1    1    3    3    0  502 -0.45105250687E+03 -0.65636403191E+03 -0.10528714361E+04  0.13201516456E+04  0.50400001928E-02 0.  1.
</event>
<event>
 5   0  0.1876027E-07  0.3916461E+04  0.7818609E-02  0.8021614E-01
        1   -1    0    0  501    0  0.00000000000E+00  0.00000000000E+00  0.15521850486E+04  0.15521850486E+04  0.50400001928E-02 0. -1.
       -1   -1    0    0    0  501  0.00000000000E+00  0.00000000000E+00 -0.24704960220E+04  0.24704960221E+04  0.50400001928E-02 0.  1.
    10030    2    1    2    0    0  0.00000000000E+00  0.00000000000E+00 -0.91831097345E+03  0.40226810707E+04  0.39164611516E+04 0.  0.
        3    1    3    3  502    0 -0.82575005373E+03  0.12689883746E+04  0.81649139015E+03  0.17201316364E+04  0.10100000352E+00 0. -1.
       -3    1    3    3    0  502  0.82575005373E+03 -0.12689883746E+04 -0.17348023636E+04  0.23025494342E+04  0.10100000352E+00 0.  1.
</event>
<event>
 5   0  0.1860500E-07  0.3960595E+04  0.7818609E-02  0.8012543E-01
        1   -1    0    0  501    0  0.00000000000E+00  0.00000000000E+00  0.17491223435E+04  0.17491223435E+04  0.50400001928E-02 0. -1.
       -1   -1    0    0    0  501  0.00000000000E+00  0.00000000000E+00 -0.22420260587E+04  0.22420260587E+04  0.50400001928E-02 0.  1.
    10030    2    1    2    0    0  0.00000000000E+00  0.00000000000E+00 -0.49290371520E+03  0.39911484022E+04  0.39605948412E+04 0.  0.
        5    1    3    3  502    0  0.11947608426E+03  0.15366393020E+04 -0.14994347458E+04  0.21503166107E+04  0.46999998093E+01 0.  1.
       -5    1    3    3    0  502 -0.11947608426E+03 -0.15366393020E+04  0.10065310306E+04  0.18408317915E+04  0.46999998093E+01 0. -1.
</event>
<event>
 5   0  0.1876027E-07  0.3867361E+04  0.7818609E-02  0.8031852E-01
       -1   -1    0    0    0  501  0.00000000000E+00  0.00000000000E+00  0.15860672515E+04  0.15860672515E+04  0.50400001928E-02 0. -1.
        1   -1    0    0  501    0  0.00000000000E+00  0.00000000000E+00 -0.23574792689E+04  0.23574792689E+04  0.50400001928E-02 0.  1.
    10030    2    1    2    0    0  0.00000000000E+00  0.00000000000E+00 -0.77141201737E+03  0.39435465205E+04  0.38673612009E+04 0.  0.
        3    1    3    3  502    0  0.14288144698E+04  0.85073567986E+02  0.94004944715E+03  0.17124372323E+04  0.10100000352E+00 0. -1.
       -3    1    3    3    0  502 -0.14288144698E+04 -0.85073567986E+02 -0.17114614645E+04  0.22311092882E+04  0.10100000352E+00 0.  1.
</event>
<event>
 5   0  0.3959190E-07  0.2400775E+04  0.7818609E-02  0.8439213E-01
        2   -1    0    0  501    0  0.00000000000E+00  0.00000000000E+00  0.22206415256E+04  0.22206415256E+04  0.25500000920E-02 0.  1.
       -2   -1    0    0    0  501  0.00000000000E+00  0.00000000000E+00 -0.64888010669E+03  0.64888010670E+03  0.25500000920E-02 0. -1.
    10030    2    1    2    0    0  0.00000000000E+00  0.00000000000E+00  0.15717614189E+04  0.28695216323E+04  0.24007749666E+04 0.  0.
        2    1    3    3  502    0  0.70657391889E+03  0.73737882858E+03  0.15398879336E+04  0.18477632661E+04  0.25500000920E-02 0.  1.
       -2    1    3    3    0  502 -0.70657391889E+03 -0.73737882858E+03  0.31873485313E+02  0.10217583661E+04  0.25500000920E-02 0. -1.
</event>
<event>
 5   0  0.5805753E-07  0.3835030E+04  0.7818609E-02  0.8038679E-01
        2   -1    0    0  501    0  0.00000000000E+00  0.00000000000E+00  0.20216020516E+04  0.20216020516E+04  0.25500000920E-02 0. -1.
       -2   -1    0    0    0  501  0.00000000000E+00  0.00000000000E+00 -0.18187868702E+04  0.18187868702E+04  0.25500000920E-02 0.  1.
    10030    2    1    2    0    0  0.00000000000E+00  0.00000000000E+00  0.20281518143E+03  0.38403889219E+04  0.38350297356E+04 0.  0.
        1    1    3    3  502    0  0.13092652944E+03 -0.38007643274E+03  0.19789312130E+04  0.20193485575E+04  0.50400001928E-02 0. -1.
       -1    1    3    3    0  502 -0.13092652944E+03  0.38007643274E+03 -0.17761160316E+04  0.18210403643E+04  0.50400001928E-02 0.  1.
</event>
<event>
 5   0  0.1876027E-07  0.3819473E+04  0.7818609E-02  0.8041989E-01
        1   -1    0    0  501    0  0.00000000000E+00  0.00000000000E+00  0.24711457514E+04  0.24711457514E+04  0.50400001928E-02 0. -1.
       -1   -1    0    0    0  501  0.00000000000E+00  0.00000000000E+00 -0.14758715199E+04  0.14758715199E+04  0.50400001928E-02 0.  1.
    10030    2    1    2    0    0  0.00000000000E+00  0.00000000000E+00  0.99527423144E+03  0.39470172713E+04  0.38194730715E+04 0.  0.
        3    1    3    3  502    0 -0.51470006362E+03 -0.39078094307E+03 -0.13594447476E+04  0.15052295284E+04  0.10100000352E+00 0.  1.
       -3    1    3    3    0  502  0.51470006362E+03  0.39078094307E+03  0.23547189791E+04  0.24417877429E+04  0.10100000352E+00 0. -1.
</event>
<event>
 5   0  0.1943459E-07  0.3973209E+04  0.7818609E-02  0.8009973E-01
        1   -1    0    0  501    0  0.00000000000E+00  0.00000000000E+00  0.19730495057E+04  0.19730495057E+04  0.50400001928E-02 0.  1.
       -1   -1    0    0    0  501  0.00000000000E+00  0.00000000000E+00 -0.20002529380E+04  0.20002529380E+04  0.50400001928E-02 0. -1.
    10030    2    1    2    0    0  0.00000000000E+00  0.00000000000E+00 -0.27203432358E+02  0.39733024437E+04  0.39732093177E+04 0.  0.
        2    1    3    3  502    0  0.90345805401E+03 -0.37775330082E+03 -0.17421282891E+04  0.19984856735E+04  0.25500000920E-02 0. -1.
       -2    1    3    3    0  502 -0.90345805401E+03  0.37775330082E+03  0.17149248567E+04  0.19748167702E+04  0.25500000920E-02 0.  1.
</event>
<event>
 5   0  0.3959190E-07  0.3885902E+04  0.7818609E-02  0.8027968E-01
       -2   -1    0    0    0  501  0.00000000000E+00  0.00000000000E+00  0.18621053462E+04  0.18621053462E+04  0.25500000920E-02 0.  1.
        2   -1    0    0  501    0  0.00000000000E+00  0.00000000000E+00 -0.20273067413E+04  0.20273067413E+04  0.25500000920E-02 0. -1.
    10030    2    1    2    0    0  0.00000000000E+00  0.00000000000E+00 -0.16520139513E+03  0.38894120875E+04  0.38859020685E+04 0.  0.
        2    1    3    3  502    0 -0.39419483134E+03 -0.16338445531E+03 -0.19798272156E+04  0.20252900654E+04  0.25500000920E-02 0. -1.
       -2    1    3    3    0  502  0.39419483134E+03  0.16338445531E+03  0.18146258204E+04  0.18641220222E+04  0.25500000920E-02 0.  1.
</event>
<event>
 5   0  0.1943459E-07  0.3625231E+04  0.7818609E-02  0.8084736E-01
        1   -1    0    0  501    0  0.00000000000E+00  0.00000000000E+00  0.22076312022E+04  0.22076312022E+04  0.50400001928E-02 0. -1.
       -1   -1    0    0    0  501  0.00000000000E+00  0.00000000000E+00 -0.14882810417E+04  0.14882810417E+04  0.50400001928E-02 0.  1.
    10030    2    1    2    0    0  0.00000000000E+00  0.00000000000E+00  0.71935016051E+03  0.36959122439E+04  0.36252313941E+04 0.  0.
        2    1    3    3  502    0 -0.17104065502E+04 -0.17106694695E+03 -0.22670955658E+03  0.17338257382E+04  0.25500000920E-02 0.  1.
       -2    1    3    3    0  502  0.17104065502E+04  0.17106694695E+03  0.94605971709E+03  0.19620865057E+04  0.25500000920E-02 0. -1.
</event>
<event>
 5   0  0.6095665E-07  0.3831250E+04  0.7818609E-02  0.8039482E-01
       -2   -1    0    0    0  501  0.00000000000E+00  0.00000000000E+00  0.27800133989E+04  0.27800133989E+04  0.25500000920E-02 0.  1.
        2   -1    0    0  501    0  0.00000000000E+00  0.00000000000E+00 -0.13200007729E+04  0.13200007729E+04  0.25500000920E-02 0. -1.
    10030    2    1    2    0    0  0.00000000000E+00  0.00000000000E+00  0.14600126260E+04  0.41000141717E+04  0.38312503625E+04 0.  0.
        4    1    3    3  502    0  0.10794995238E+04 -0.15794908103E+04  0.62565824782E+03  0.20128488015E+04  0.12699999809E+01 0.  1.
       -4    1    3    3    0  502 -0.10794995238E+04  0.15794908103E+04  0.83435437820E+03  0.20871653703E+04  0.12699999809E+01 0. -1.
</event>
<event>
 5   0  0.1943459E-07  0.2507697E+04  0.7818609E-02  0.8400248E-01
       -1   -1    0    0    0  501  0.00000000000E+00  0.00000000000E+00  0.93752447802E+03  0.93752447804E+03  0.50400001928E-02 0.  1.
        1   -1    0    0  501    0  0.00000000000E+00  0.00000000000E+00 -0.16769019328E+04  0.16769019329E+04  0.50400001928E-02 0. -1.
    10030    2    1    2    0    0  0.00000000000E+00  0.00000000000E+00 -0.73937745482E+03  0.26144264109E+04  0.25076974373E+04 0.  0.
        2    1    3    3  502    0 -0.28397935818E+03  0.11460636157E+04  0.70205759313E+02  0.11828080722E+04  0.25500000920E-02 0.  1.
       -2    1    3    3    0  502  0.28397935818E+03 -0.11460636157E+04 -0.80958321413E+03  0.14316183387E+04  0.25500000920E-02 0. -1.
</event>
<event>
 5   0  0.1876027E-07  0.3881277E+04  0.7818609E-02  0.8028934E-01
       -1   -1    0    0    0  501  0.00000000000E+00  0.00000000000E+00  0.17851703278E+04  0.17851703278E+04  0.50400001928E-02 0.  1.
        1   -1    0    0  501    0  0.00000000000E+00  0.00000000000E+00 -0.21096464880E+04  0.21096464880E+04  0.50400001928E-02 0. -1.
    10030    2    1    2    0    0  0.00000000000E+00  0.00000000000E+00 -0.32447616026E+03  0.38948168158E+04  0.38812772705E+04 0.  0.
        3    1    3    3  502    0  0.57431871859E+03 -0.53849792200E+03 -0.19421946937E+04  0.20956961233E+04  0.10100000352E+00 0. -1.
       -3    1    3    3    0  502 -0.57431871859E+03  0.53849792200E+03  0.16177185335E+04  0.17991206925E+04  0.10100000352E+00 0.  1.
</event>
<event>
 5   0  0.1943459E-07  0.3786858E+04  0.7818609E-02  0.8048981E-01
        1   -1    0    0  501    0  0.00000000000E+00  0.00000000000E+00  0.17532894256E+04  0.17532894256E+04  0.50400001928E-02 0.  1.
       -1   -1    0    0    0  501  0.00000000000E+00  0.00000000000E+00 -0.20447698544E+04  0.20447698544E+04  0.50400001928E-02 0. -1.
    10030    2    1    2    0    0  0.00000000000E+00  0.00000000000E+00 -0.29148042882E+03  0.37980592800E+04  0.37868579923E+04 0.  0.
        2    1    3    3  502    0 -0.32870403014E+03 -0.18338973704E+04 -0.48415115153E+03  0.19250008421E+04  0.25500000920E-02 0. -1.
       -2    1    3    3    0  502  0.32870403014E+03  0.18338973704E+04  0.19267072271E+03  0.18730584379E+04  0.25500000920E-02 0.  1.
</event>
<event>
 5   0  0.6095665E-07  0.3275284E+04  0.7818609E-02  0.8169213E-01
        2   -1    0    0  501    0  0.00000000000E+00  0.00000000000E+00  0.29490722197E+04  0.29490722197E+04  0.25500000920E-02 0. -1.
       -2   -1    0    0    0  501  0.00000000000E+00  0.00000000000E+00 -0.90939491453E+03  0.90939491453E+03  0.25500000920E-02 0.  1.
    10030    2    1    2    0    0  0.00000000000E+00  0.00000000000E+00  0.20396773051E+04  0.38584671342E+04  0.32752839750E+04 0.  0.
        4    1    3    3  502    0 -0.31740823657E+03  0.12508835120E+04 -0.16784495376E+03  0.13013958240E+04  0.12699999809E+01 0.  1.
       -4    1    3    3    0  502  0.31740823657E+03 -0.12508835120E+04  0.22075222589E+04  0.25570713103E+04  0.12699999809E+01 0. -1.
</event>
<event>
 5   0  0.5872444E-07  0.3319493E+04  0.7818609E-02  0.8157953E-01
        2   -1    0    0  501    0  0.00000000000E+00  0.00000000000E+00  0.20495363838E+04  0.20495363838E+04  0.25500000920E-02 0. -1.
       -2   -1    0    0    0  501  0.00000000000E+00  0.00000000000E+00 -0.13440885048E+04  0.13440885048E+04  0.25500000920E-02 0.  1.
    10030    2    1    2    0    0  0.00000000000E+00  0.00000000000E+00  0.70544787902E+03  0.33936248885E+04  0.33194929092E+04 0.  0.
        3    1    3    3  502    0  0.84237725062E+03  0.38880232040E+03  0.17596818837E+04  0.19892830414E+04  0.10100000352E+00 0. -1.
       -3    1    3    3    0  502 -0.84237725062E+03 -0.38880232040E+03 -0.10542340047E+04  0.14043418471E+04  0.10100000352E+00 0.  1.
</event>
<event>
 5   0  0.1860500E-07  0.3858089E+04  0.7818609E-02  0.8033803E-01
       -1   -1    0    0    0  501  0.00000000000E+00  0.00000000000E+00  0.13608059505E+04  0.13608059505E+04  0.50400001928E-02 0. -1.
        1   -1    0    0  501    0  0.00000000000E+00  0.00000000000E+00 -0.27345648054E+04  0.27345648054E+04  0.50400001928E-02 0.  1.
    10030    2    1    2    0    0  0.00000000000E+00  0.00000000000E+00 -0.13737588550E+04  0.40953707559E+04  0.38580886767E+04 0.  0.
        5    1    3    3  502    0  0.53984042728E+03 -0.66628797411E+03 -0.25211061699E+04  0.26629618400E+04  0.46999998093E+01 0.  1.
       -5    1    3    3    0  502 -0.53984042728E+03  0.66628797411E+03  0.11473473149E+04  0.14324089159E+04  0.46999998093E+01 0. -1.
</event>
<event>
 5   0  0.6095665E-07  0.3700858E+04  0.7818609E-02  0.8067772E-01
       -2   -1    0    0    0  501  0.00000000000E+00  0.00000000000E+00  0.16631371025E+04  0.16631371025E+04  0.25500000920E-02 0.  1.
        2   -1    0    0  501    0  0.00000000000E+00  0.00000000000E+00 -0.20588127979E+04  0.20588127979E+04  0.25500000920E-02 0. -1.
    10030    2    1    2    0    0  0.00000000000E+00  0.00000000000E+00 -0.39567569546E+03  0.37219499004E+04  0.37008582525E+04 0.  0.
        4    1    3    3  502    0  0.12377886993E+04  0.72418711372E+03  0.97823622692E+03  0.17359480316E+04  0.12699999809E+01 0.  1.
       -4    1    3    3    0  502 -0.12377886993E+04 -0.72418711372E+03 -0.13739119224E+04  0.19860018688E+04  0.12699999809E+01 0. -1.
</event>
<event>
 5   0  0.1860500E-07  0.3906880E+04  0.7818609E-02  0.8023600E-01
       -1   -1    0    0    0  501  0.00000000000E+00  0.00000000000E+00  0.25194068523E+04  0.25194068523E+04  0.50400001928E-02 0. -1.
        1   -1    0    0  501    0  0.00000000000E+00  0.00000000000E+00 -0.15146138904E+04  0.15146138904E+04  0.50400001928E-02 0.  1.
    10030    2    1    2    0    0  0.00000000000E+00  0.00000000000E+00  0.10047929619E+04  0.40340207427E+04  0.39068803995E+04 0.  0.
        4    1    3    3  502    0 -0.89161670263E+03  0.12389365446E+04  0.17610752760E+04  0.23305217971E+04  0.12699999809E+01 0. -1.
       -4    1    3    3    0  502  0.89161670263E+03 -0.12389365446E+04 -0.75628231417E+03  0.17034989456E+04  0.12699999809E+01 0.  1.
</event>
<event>
 5   0  0.1860500E-07  0.3810958E+04  0.7818609E-02  0.8043807E-01
       -1   -1    0    0    0  501  0.00000000000E+00  0.00000000000E+00  0.24806592608E+04  0.24806592608E+04  0.50400001928E-02 0. -1.
        1   -1    0    0  501    0  0.00000000000E+00  0.00000000000E+00 -0.14636637963E+04  0.14636637963E+04  0.50400001928E-02 0.  1.
    10030    2    1    2    0    0  0.00000000000E+00  0.00000000000E+00  0.10169954645E+04  0.39443230571E+04  0.38109584889E+04 0.  0.
        5    1    3    3  502    0 -0.39056156867E+03  0.83522728480E+03  0.22343922271E+04  0.24171623178E+04  0.46999998093E+01 0. -1.
       -5    1    3    3    0  502  0.39056156867E+03 -0.83522728480E+03 -0.12173967625E+04  0.15271607393E+04  0.46999998093E+01 0.  1.
</event>
<event>
 5   0  0.1943459E-07  0.3565888E+04  0.7818609E-02  0.8098351E-01
        1   -1    0    0  501    0  0.00000000000E+00  0.00000000000E+00  0.26980363308E+04  0.26980363308E+04  0.50400001928E-02 0. -1.
       -1   -1    0    0    0  501  0.00000000000E+00  0.00000000000E+00 -0.11782230819E+04  0.11782230819E+04  0.50400001928E-02 0.  1.
    10030    2    1    2    0    0  0.00000000000E+00  0.00000000000E+00  0.15198132490E+04  0.38762594127E+04  0.35658876486E+04 0.  0.
        2    1    3    3  502    0  0.56420751304E+03 -0.12529842930E+04 -0.47501428778E+03  0.14539389017E+04  0.25500000920E-02 0.  1.
       -2    1    3    3    0  502 -0.56420751304E+03  0.12529842930E+04  0.19948275368E+04  0.24223205110E+04  0.25500000920E-02 0. -1.
</event>
<event>
 5   0  0.5735179E-07  0.2416578E+04  0.7818609E-02  0.8433323E-01
        2   -1    0    0  501    0  0.00000000000E+00  0.00000000000E+00  0.17810139568E+04  0.17810139569E+04  0.25500000920E-02 0.  1.
       -2   -1    0    0    0  501  0.00000000000E+00  0.00000000000E+00 -0.81973690149E+03  0.81973690149E+03  0.25500000920E-02 0. -1.
    10030    2    1    2    0    0  0.00000000000E+00  0.00000000000E+00  0.96127705536E+03  0.26007508583E+04  0.24165784593E+04 0.  0.
        5    1    3    3  502    0  0.69657061717E+02  0.39323971224E+03  0.17079219827E+04  0.17539980520E+04  0.46999998093E+01 0.  1.
       -5    1    3    3    0  502 -0.69657061717E+02 -0.39323971224E+03 -0.74664492732E+03  0.84675280633E+03  0.46999998093E+01 0. -1.
</event>
<event>
 5   0  0.1860500E-07  0.3799577E+04  0.7818609E-02  0.8046246E-01
       -1   -1    0    0    0  501  0.00000000000E+00  0.00000000000E+00  0.18671619823E+04  0.18671619823E+04  0.50400001928E-02 0. -1.
        1   -1    0    0  501    0  0.00000000000E+00  0.00000000000E+00 -0.19329847859E+04  0.19329847859E+04  0.50400001928E-02 0.  1.
    10030    2    1    2    0    0  0.00000000000E+00  0.00000000000E+00 -0.65822803608E+02  0.38001467682E+04  0.37995766630E+04 0.  0.
        5    1    3    3  502    0 -0.22584882899E+03 -0.13149036492E+04  0.13197686329E+04  0.18766434489E+04  0.46999998093E+01 0. -1.
       -5    1    3    3    0  502  0.22584882899E+03  0.13149036492E+04 -0.13855914365E+04  0.19235033192E+04  0.46999998093E+01 0.  1.
</event>
<event>
 5   0  0.1860500E-07  0.3951912E+04  0.7818609E-02  0.8014318E-01
        1   -1    0    0  501    0  0.00000000000E+00  0.00000000000E+00  0.15675476731E+04  0.15675476732E+04  0.50400001928E-02 0. -1.
       -1   -1    0    0    0  501  0.00000000000E+00  0.00000000000E+00 -0.24907714020E+04  0.24907714021E+04  0.50400001928E-02 0.  1.
    10030    2    1    2    0    0  0.00000000000E+00  0.00000000000E+00 -0.92322372890E+03  0.40583190752E+04  0.39519124057E+04 0.  0.
        5    1    3    3  502    0 -0.10088790435E+03  0.15988125032E+04  0.72625318516E+03  0.17589330768E+04  0.46999998093E+01 0. -1.
       -5    1    3    3    0  502  0.10088790435E+03 -0.15988125032E+04 -0.16494769141E+04  0.22993859984E+04  0.46999998093E+01 0.  1.
</event>
<event>
 5   0  0.1943459E-07  0.3703670E+04  0.7818609E-02  0.8067149E-01
        1   -1    0    0  501    0  0.00000000000E+00  0.00000000000E+00  0.16386942146E+04  0.16386942146E+04  0.50400001928E-02 0.  1.
       -1   -1    0    0    0  501  0.00000000000E+00  0.00000000000E+00 -0.20926980724E+04  0.20926980724E+04  0.50400001928E-02 0. -1.
    10030    2    1    2    0    0  0.00000000000E+00  0.00000000000E+00 -0.45400385778E+03  0.37313922870E+04  0.37036696528E+04 0.  0.
        2    1    3    3  502    0  0.10442882935E+03  0.10544213632E+04  0.13031098433E+04  0.16795252470E+04  0.25500000920E-02 0.  1.
       -2    1    3    3    0  502 -0.10442882935E+03 -0.10544213632E+04 -0.17571137011E+04  0.20518670401E+04  0.25500000920E-02 0. -1.
</event>
<event>
 5   0  0.5735179E-07  0.4087844E+04  0.7818609E-02  0.7987056E-01
        2   -1    0    0  501    0  0.00000000000E+00  0.00000000000E+00  0.18245740800E+04  0.18245740800E+04  0.25500000920E-02 0.  1.
       -2   -1    0    0    0  501  0.00000000000E+00  0.00000000000E+00 -0.22896394752E+04  0.22896394752E+04  0.25500000920E-02 0. -1.
    10030    2    1    2    0    0  0.00000000000E+00  0.00000000000E+00 -0.46506539518E+03  0.41142135552E+04  0.40878438517E+04 0.  0.
        5    1    3    3  502    0  0.71066037297E+03 -0.18550660154E+04  0.25149233912E+03  0.20023932116E+04  0.46999998093E+01 0.  1.
       -5    1    3    3    0  502 -0.71066037297E+03  0.18550660154E+04 -0.71655773430E+03  0.21118203436E+04  0.46999998093E+01 0. -1.
</event>
<event>
 5   0  0.5735179E-07  0.3928375E+04  0.7818609E-02  0.8019153E-01
       -2   -1    0    0    0  501  0.00000000000E+00  0.00000000000E+00  0.20962805864E+04  0.20962805864E+04  0.25500000920E-02 0. -1.
        2   -1    0    0  501    0  0.00000000000E+00  0.00000000000E+00 -0.18404184093E+04  0.18404184093E+04  0.25500000920E-02 0.  1.
    10030    2    1    2    0    0  0.00000000000E+00  0.00000000000E+00  0.25586217702E+03  0.39366989957E+04  0.39283754313E+04 0.  0.
        5    1    3    3  502    0  0.71215276751E+03  0.55101021417E+03 -0.16214014459E+04  0.18546532180E+04  0.46999998093E+01 0.  1.
       -5    1    3    3    0  502 -0.71215276751E+03 -0.55101021417E+03  0.18772636229E+04  0.20820457777E+04  0.46999998093E+01 0. -1.
</event>
<event>
 5   0  0.6095665E-07  0.3832999E+04  0.7818609E-02  0.8039110E-01
        2   -1    0    0  501    0  0.00000000000E+00  0.00000000000E+00  0.15841603842E+04  0.15841603842E+04  0.25500000920E-02 0.  1.
       -2   -1    0    0    0  501  0.00000000000E+00  0.00000000000E+00 -0.23185601250E+04  0.23185601250E+04  0.25500000920E-02 0. -1.
    10030    2    1    2    0    0  0.00000000000E+00  0.00000000000E+00 -0.73439974080E+03  0.39027205092E+04  0.38329993991E+04 0.  0.
        4    1    3    3  502    0 -0.77523431913E+03  0.17418712785E+04 -0.16906924580E+03  0.19140767548E+04  0.12699999809E+01 0. -1.
       -4    1    3    3    0  502  0.77523431913E+03 -0.17418712785E+04 -0.56533049501E+03  0.19886437544E+04  0.12699999809E+01 0.  1.
</event>
<event>
 5   0  0.1860500E-07  0.3474429E+04  0.7818609E-02  0.8119877E-01
       -1   -1    0    0    0  501  0.00000000000E+00  0.00000000000E+00  0.17513105857E+04  0.17513105857E+04  0.50400001928E-02 0.  1.
        1   -1    0    0  501    0  0.00000000000E+00  0.00000000000E+00 -0.17232320796E+04  0.17232320796E+04  0.50400001928E-02 0. -1.
    10030    2    1    2    0    0  0.00000000000E+00  0.00000000000E+00  0.28078506150E+02  0.34745426653E+04  0.34744292093E+04 0.  0.
        5    1    3    3  502    0  0.55698007636E+03 -0.68862442494E+03 -0.14804867442E+04  0.17251937554E+04  0.46999998093E+01 0. -1.
       -5    1    3    3    0  502 -0.55698007636E+03  0.68862442494E+03  0.15085652503E+04  0.17493489099E+04  0.46999998093E+01 0.  1.
</event>
<event>
 5   0  0.1943459E-07  0.3782025E+04  0.7818609E-02  0.8050023E-01
       -1   -1    0    0    0  501  0.00000000000E+00  0.00000000000E+00  0.22114253524E+04  0.22114253524E+04  0.50400001928E-02 0. -1.
        1   -1    0    0  501    0  0.00000000000E+00  0.00000000000E+00 -0.16170239647E+04  0.16170239647E+04  0.50400001928E-02 0.  1.
    10030    2    1    2    0    0  0.00000000000E+00  0.00000000000E+00  0.59440138768E+03  0.38284493172E+04  0.37820247440E+04 0.  0.
        2    1    3    3  502    0  0.45573512046E+03  0.86201671403E+03 -0.13429224788E+04  0.16595806999E+04  0.25500000920E-02 0.  1.
       -2    1    3    3    0  502 -0.45573512046E+03 -0.86201671403E+03  0.19373238665E+04  0.21688686173E+04  0.25500000920E-02 0. -1.
</event>
<event>
 5   0  0.2666813E-07  0.3837057E+04  0.7818609E-02  0.8038249E-01
       -1   -1    0    0    0  501  0.00000000000E+00  0.00000000000E+00  0.12361286746E+04  0.12361286746E+04  0.50400001928E-02 0. -1.
        1   -1    0    0  501    0  0.00000000000E+00  0.00000000000E+00 -0.29776444488E+04  0.29776444488E+04  0.50400001928E-02 0.  1.
    10030    2    1    2    0    0  0.00000000000E+00  0.00000000000E+00 -0.17415157741E+04  0.42137731234E+04  0.38370570421E+04 0.  0.
        1    1    3    3  502    0 -0.65940531974E+03 -0.10418769407E+04 -0.24849040845E+04  0.27739991428E+04  0.50400001928E-02 0.  1.
       -1    1    3    3    0  502  0.65940531974E+03  0.10418769407E+04  0.74338831031E+03  0.14397739806E+04  0.50400001928E-02 0. -1.
</event>
<event>
 5   0  0.5735179E-07  0.2461778E+04  0.7818609E-02  0.8416730E-01
        2   -1    0    0  501    0  0.00000000000E+00  0.00000000000E+00  0.14314874482E+04  0.14314874482E+04  0.25500000920E-02 0. -1.
       -2   -1    0    0    0  501  0.00000000000E+00  0.00000000000E+00 -0.10584009023E+04  0.10584009023E+04  0.25500000920E-02 0.  1.
    10030    2    1    2    0    0  0.00000000000E+00  0.00000000000E+00  0.37308654582E+03  0.24898883505E+04  0.24617778997E+04 0.  0.
        5    1    3    3  502    0 -0.52939439067E+02  0.60783579367E+03  0.12677677053E+04  0.14069555717E+04  0.46999998093E+01 0. -1.
       -5    1    3    3    0  502  0.52939439067E+02 -0.60783579367E+03 -0.89468115945E+03  0.10829327788E+04  0.46999998093E+01 0.  1.
</event>
<event>
 5   0  0.5872444E-07  0.3826756E+04  0.7818609E-02  0.8040437E-01
        2   -1    0    0  501    0  0.00000000000E+00  0.00000000000E+00  0.12069382110E+04  0.12069382110E+04  0.25500000920E-02 0.  1.
       -2   -1    0    0    0  501  0.00000000000E+00  0.00000000000E+00 -0.30333079787E+04  0.30333079787E+04  0.25500000920E-02 0. -1.
    10030    2    1    2    0    0  0.00000000000E+00  0.00000000000E+00 -0.18263697676E+04  0.42402461897E+04  0.38267559657E+04 0.  0.
        3    1    3    3  502    0  0.13147324656E+04  0.66378048600E+03 -0.22665924654E+04  0.27030662967E+04  0.10100000352E+00 0. -1.
       -3    1    3    3    0  502 -0.13147324656E+04 -0.66378048600E+03  0.44022269779E+03  0.15371798930E+04  0.10100000352E+00 0.  1.
</event>
<event>
 5   0  0.6095665E-07  0.3815243E+04  0.7818609E-02  0.8042892E-01
       -2   -1    0    0    0  501  0.00000000000E+00  0.00000000000E+00  0.12253991544E+04  0.12253991544E+04  0.25500000920E-02 0.  1.
        2   -1    0    0  501    0  0.00000000000E+00  0.00000000000E+00 -0.29696605444E+04  0.29696605444E+04  0.25500000920E-02 0. -1.
    10030    2    1    2    0    0  0.00000000000E+00  0.00000000000E+00 -0.17442613899E+04  0.41950596988E+04  0.38152428599E+04 0.  0.
        4    1    3    3  502    0 -0.14555693905E+04  0.68680367623E+03 -0.19981048311E+04  0.25656979692E+04  0.12699999809E+01 0. -1.
       -4    1    3    3    0  502  0.14555693905E+04 -0.68680367623E+03  0.25384344116E+03  0.16293617296E+04  0.12699999809E+01 0.  1.
</event>
<event>
 5   0  0.1860500E-07  0.2563609E+04  0.7818609E-02  0.8380668E-01
       -1   -1    0    0    0  501  0.00000000000E+00  0.00000000000E+00  0.84984726098E+03  0.84984726100E+03  0.50400001928E-02 0. -1.
        1   -1    0    0  501    0  0.00000000000E+00  0.00000000000E+00 -0.19333156602E+04  0.19333156602E+04  0.50400001928E-02 0.  1.
    10030    2    1    2    0    0  0.00000000000E+00  0.00000000000E+00 -0.10834683992E+04  0.27831629212E+04  0.25636091890E+04 0.  0.
        5    1    3    3  502    0  0.41301014020E+03  0.10804341911E+04 -0.11413838736E+04  0.16250214318E+04  0.46999998093E+01 0.  1.
       -5    1    3    3    0  502 -0.41301014020E+03 -0.10804341911E+04  0.57915474350E+02  0.11581414893E+04  0.46999998093E+01 0. -1.
</event>
<event>
 5   0  0.3959190E-07  0.3941756E+04  0.7818609E-02  0.8016400E-01
       -2   -1    0    0    0  501  0.00000000000E+00  0.00000000000E+00  0.16000322863E+04  0.16000322863E+04  0.25500000920E-02 0. -1.
        2   -1    0    0  501    0  0.00000000000E+00  0.00000000000E+00 -0.24276760150E+04  0.24276760150E+04  0.25500000920E-02 0.  1.
    10030    2    1    2    0    0  0.00000000000E+00  0.00000000000E+00 -0.82764372862E+03  0.40277083013E+04  0.39417559563E+04 0.  0.
        2    1    3    3  502    0  0.90905079481E+03 -0.24033616398E+03 -0.21837074968E+04  0.23775435329E+04  0.25500000920E-02 0.  1.
       -2    1    3    3    0  502 -0.90905079481E+03  0.24033616398E+03  0.13560637682E+04  0.16501647684E+04  0.25500000920E-02 0. -1.
</event>
<event>
 5   0  0.1943459E-07  0.3787359E+04  0.7818609E-02  0.8048873E-01
       -1   -1    0    0    0  501  0.00000000000E+00  0.00000000000E+00  0.32199849978E+04  0.32199849978E+04  0.50400001928E-02 0.  1.
        1   -1    0    0  501    0  0.00000000000E+00  0.00000000000E+00 -0.11136768200E+04  0.11136768200E+04  0.50400001928E-02 0. -1.
    10030    2    1    2    0    0  0.00000000000E+00  0.00000000000E+00  0.21063081777E+04  0.43336618178E+04  0.37873593190E+04 0.  0.
        2    1    3    3  502    0  0.39418639956E+03 -0.17953887559E+04  0.53227941398E+03  0.19136679642E+04  0.25500000920E-02 0. -1.
       -2    1    3    3    0  502 -0.39418639956E+03  0.17953887559E+04  0.15740287638E+04  0.24199938536E+04  0.25500000920E-02 0.  1.
</event>
<event>
 5   0  0.3959190E-07  0.3861424E+04  0.7818609E-02  0.8033100E-01
        2   -1    0    0  501    0  0.00000000000E+00  0.00000000000E+00  0.20665669669E+04  0.20665669669E+04  0.25500000920E-02 0. -1.
       -2   -1    0    0    0  501  0.00000000000E+00  0.00000000000E+00 -0.18037878409E+04  0.18037878409E+04  0.25500000920E-02 0.  1.
    10030    2    1    2    0    0  0.00000000000E+00  0.00000000000E+00  0.26277912604E+03  0.38703548078E+04  0.38614237619E+04 0.  0.
        2    1    3    3  502    0 -0.16933672001E+04 -0.92719360135E+03  0.15307102128E+03  0.19366494743E+04  0.25500000920E-02 0.  1.
       -2    1    3    3    0  502  0.16933672001E+04  0.92719360135E+03  0.10970810476E+03  0.19337053335E+04  0.25500000920E-02 0. -1.
</event>
<event>
 5   0  0.1860500E-07  0.3720896E+04  0.7818609E-02  0.8063347E-01
       -1   -1    0    0    0  501  0.00000000000E+00  0.00000000000E+00  0.22208428443E+04  0.22208428443E+04  0.50400001928E-02 0.  1.
        1   -1    0    0  501    0  0.00000000000E+00  0.00000000000E+00 -0.15585376996E+04  0.15585376996E+04  0.50400001928E-02 0. -1.
    10030    2    1    2    0    0  0.00000000000E+00  0.00000000000E+00  0.66230514476E+03  0.37793805439E+04  0.37208962887E+04 0.  0.
        5    1    3    3  502    0  0.10720633655E+04  0.12955486628E+04  0.11395765248E+04  0.20313598754E+04  0.46999998093E+01 0. -1.
       -5    1    3    3    0  502 -0.10720633655E+04 -0.12955486628E+04 -0.47727138005E+03  0.17480206685E+04  0.46999998093E+01 0.  1.
</event>
<event>
 5   0  0.6095665E-07  0.3824479E+04  0.7818609E-02  0.8040922E-01
        2   -1    0    0  501    0  0.00000000000E+00  0.00000000000E+00  0.19300774882E+04  0.19300774882E+04  0.25500000920E-02 0. -1.
       -2   -1    0    0    0  501  0.00000000000E+00  0.00000000000E+00 -0.18945660507E+04  0.18945660507E+04  0.25500000920E-02 0.  1.
    10030    2    1    2    0    0  0.00000000000E+00  0.00000000000E+00  0.35511437478E+02  0.38246435388E+04  0.38244786752E+04 0.  0.
        4    1    3    3  502    0  0.15336346853E+04  0.11308526885E+04 -0.14285793037E+03  0.19108304876E+04  0.12699999809E+01 0.  1.
       -4    1    3    3    0  502 -0.15336346853E+04 -0.11308526885E+04  0.17836936785E+03  0.19138130513E+04  0.12699999809E+01 0. -1.
</event>
<event>
 5   0  0.2666813E-07  0.3906128E+04  0.7818609E-02  0.8023756E-01
        1   -1    0    0  501    0  0.00000000000E+00  0.00000000000E+00  0.12106390504E+04  0.12106390504E+04  0.50400001928E-02 0. -1.
       -1   -1    0    0    0  501  0.00000000000E+00  0.00000000000E+00 -0.31507809123E+04  0.31507809123E+04  0.50400001928E-02 0.  1.
    10030    2    1    2    0    0  0.00000000000E+00  0.00000000000E+00 -0.19401418619E+04  0.43614199627E+04  0.39061277049E+04 0.  0.
        1    1    3    3  502    0 -0.37284720813E+03  0.18269124061E+04 -0.16190540858E+04  0.24694048094E+04  0.50400001928E-02 0.  1.
       -1    1    3    3    0  502  0.37284720813E+03 -0.18269124061E+04 -0.32108777614E+03  0.18920151533E+04  0.50400001928E-02 0. -1.
</event>
<event>
 5   0  0.1860500E-07  0.3677955E+04  0.7818609E-02  0.8072865E-01
        1   -1    0    0  501    0  0.00000000000E+00  0.00000000000E+00  0.18129442325E+04  0.18129442325E+04  0.50400001928E-02 0. -1.
       -1   -1    0    0    0  501  0.00000000000E+00  0.00000000000E+00 -0.18653850129E+04  0.18653850129E+04  0.50400001928E-02 0.  1.
    10030    2    1    2    0    0  0.00000000000E+00  0.00000000000E+00 -0.52440780478E+02  0.36783292454E+04  0.36779554106E+04 0.  0.
        5    1    3    3  502    0 -0.25737883842E+03 -0.10188218530E+04  0.14830967050E+04  0.18176467647E+04  0.46999998093E+01 0. -1.
       -5    1    3    3    0  502  0.25737883842E+03  0.10188218530E+04 -0.15355374855E+04  0.18606824807E+04  0.46999998093E+01 0.  1.
</event>
<event>
 5   0  0.1860500E-07  0.3087028E+04  0.7818609E-02  0.8219307E-01
        1   -1    0    0  501    0  0.00000000000E+00  0.00000000000E+00  0.27418331411E+04  0.27418331411E+04  0.50400001928E-02 0.  1.
       -1   -1    0    0    0  501  0.00000000000E+00  0.00000000000E+00 -0.86892062057E+03  0.86892062058E+03  0.50400001928E-02 0. -1.
    10030    2    1    2    0    0  0.00000000000E+00  0.00000000000E+00  0.18729125205E+04  0.36107537617E+04  0.30870279263E+04 0.  0.
        4    1    3    3  502    0 -0.15185778759E+04  0.27342048211E+03  0.98318705952E+03  0.18296163346E+04  0.12699999809E+01 0.  1.
       -4    1    3    3    0  502  0.15185778759E+04 -0.27342048211E+03  0.88972546102E+03  0.17811374270E+04  0.12699999809E+01 0. -1.
</event>
<event>
 5   0  0.3959190E-07  0.3592342E+04  0.7818609E-02  0.8092248E-01
       -2   -1    0    0    0  501  0.00000000000E+00  0.00000000000E+00  0.22930326940E+04  0.22930326940E+04  0.25500000920E-02 0. -1.
        2   -1    0    0  501    0  0.00000000000E+00  0.00000000000E+00 -0.14069706779E+04  0.14069706779E+04  0.25500000920E-02 0.  1.
    10030    2    1    2    0    0  0.00000000000E+00  0.00000000000E+00  0.88606201609E+03  0.37000033720E+04  0.35923417232E+04 0.  0.
        2    1    3    3  502    0 -0.82015042284E+03  0.66186926207E+03  0.19411014569E+04  0.22087536083E+04  0.25500000920E-02 0. -1.
       -2    1    3    3    0  502  0.82015042284E+03 -0.66186926207E+03 -0.10550394408E+04  0.14912497637E+04  0.25500000920E-02 0.  1.
</event>
<event>
 5   0  0.5805753E-07  0.4169781E+04  0.7818609E-02  0.7971145E-01
        2   -1    0    0  501    0  0.00000000000E+00  0.00000000000E+00  0.23881417757E+04  0.23881417757E+04  0.25500000920E-02 0. -1.
       -2   -1    0    0    0  501  0.00000000000E+00  0.00000000000E+00 -0.18201470124E+04  0.18201470124E+04  0.25500000920E-02 0.  1.
    10030    2    1    2    0    0  0.00000000000E+00  0.00000000000E+00  0.56799476331E+03  0.42082887881E+04  0.41697813459E+04 0.  0.
        1    1    3    3  502    0  0.14170217883E+04  0.12552948748E+04  0.11655934542E+04  0.22231338403E+04  0.50400001928E-02 0. -1.
       -1    1    3    3    0  502 -0.14170217883E+04 -0.12552948748E+04 -0.59759869084E+03  0.19851549478E+04  0.50400001928E-02 0.  1.
</event>
<event>
 5   0  0.1860500E-07  0.3944553E+04  0.7818609E-02  0.8015826E-01
       -1   -1    0    0    0  501  0.00000000000E+00  0.00000000000E+00  0.15044956515E+04  0.15044956515E+04  0.50400001928E-02 0.  1.
        1   -1    0    0  501    0  0.00000000000E+00  0.00000000000E+00 -0.25855006185E+04  0.25855006185E+04  0.50400001928E-02 0. -1.
    10030    2    1    2    0    0  0.00000000000E+00  0.00000000000E+00 -0.10810049670E+04  0.40899962700E+04  0.39445529214E+04 0.  0.
        5    1    3    3  502    0  0.13995549687E+03 -0.13944621588E+04  0.89837547913E+03  0.16646960218E+04  0.46999998093E+01 0.  1.
       -5    1    3    3    0  502 -0.13995549687E+03  0.13944621588E+04 -0.19793804461E+04  0.24253002482E+04  0.46999998093E+01 0. -1.
</event>
<event>
 5   0  0.5735179E-07  0.3980498E+04  0.7818609E-02  0.8008492E-01
       -2   -1    0    0    0  501  0.00000000000E+00  0.00000000000E+00  0.14282583177E+04  0.14282583177E+04  0.25500000920E-02 0. -1.
        2   -1    0    0  501    0  0.00000000000E+00  0.00000000000E+00 -0.27733714311E+04  0.27733714311E+04  0.25500000920E-02 0.  1.
    10030    2    1    2    0    0  0.00000000000E+00  0.00000000000E+00 -0.13451131134E+04  0.42016297488E+04  0.39804978656E+04 0.  0.
        5    1    3    3  502    0  0.56113749497E+02 -0.19142570787E+03  0.14176735510E+04  0.14316469333E+04  0.46999998093E+01 0. -1.
       -5    1    3    3    0  502 -0.56113749497E+02  0.19142570787E+03 -0.27627866644E+04  0.27699828154E+04  0.46999998093E+01 0.  1.
</event>
<event>
 5   0  0.5872444E-07  0.3837867E+04  0.7818609E-02  0.8038077E-01
       -2   -1    0    0    0  501  0.00000000000E+00  0.00000000000E+00  0.27837628097E+04  0.27837628098E+04  0.25500000920E-02 0.  1.
        2   -1    0    0  501    0  0.00000000000E+00  0.00000000000E+00 -0.13227797855E+04  0.13227797855E+04  0.25500000920E-02 0. -1.
    10030    2    1    2    0    0  0.00000000000E+00  0.00000000000E+00  0.14609830242E+04  0.41065425953E+04  0.38378666847E+04 0.  0.
        3    1    3    3  502    0 -0.16817243212E+04  0.55095345309E+03 -0.63449591625E+02  0.17708111872E+04  0.10100000352E+00 0. -1.
       -3    1    3    3    0  502  0.16817243212E+04 -0.55095345309E+03  0.15244326159E+04  0.23357314080E+04  0.10100000352E+00 0.  1.
</event>
<event>
 5   0  0.5735179E-07  0.3940157E+04  0.7818609E-02  0.8016729E-01
       -2   -1    0    0    0  501  0.00000000000E+00  0.00000000000E+00  0.22510137175E+04  0.22510137175E+04  0.25500000920E-02 0. -1.
        2   -1    0    0  501    0  0.00000000000E+00  0.00000000000E+00 -0.17242052993E+04  0.17242052993E+04  0.25500000920E-02 0.  1.
    10030    2    1    2    0    0  0.00000000000E+00  0.00000000000E+00  0.52680841820E+03  0.39752190167E+04  0.39401572458E+04 0.  0.
        5    1    3    3  502    0  0.28210738444E+03  0.22573619250E+03  0.22172962396E+04  0.22465453722E+04  0.46999998093E+01 0. -1.
       -5    1    3    3    0  502 -0.28210738444E+03 -0.22573619250E+03 -0.16904878214E+04  0.17286736446E+04  0.46999998093E+01 0.  1.
</event>
<event>
 5   0  0.1860500E-07  0.3884267E+04  0.7818609E-02  0.8028309E-01
        1   -1    0    0  501    0  0.00000000000E+00  0.00000000000E+00  0.12670443451E+04  0.12670443451E+04  0.50400001928E-02 0.  1.
       -1   -1    0    0    0  501  0.00000000000E+00  0.00000000000E+00 -0.29769143666E+04  0.29769143666E+04  0.50400001928E-02 0. -1.
    10030    2    1    2    0    0  0.00000000000E+00  0.00000000000E+00 -0.17098700215E+04  0.42439587117E+04  0.38842669908E+04 0.  0.
        4    1    3    3  502    0  0.70853228954E+03  0.11316295832E+04 -0.23959602381E+04  0.27428508152E+04  0.12699999809E+01 0. -1.
       -4    1    3    3    0  502 -0.70853228954E+03 -0.11316295832E+04  0.68609021658E+03  0.15011078965E+04  0.12699999809E+01 0.  1.
</event>
<event>
 5   0  0.6095665E-07  0.3156293E+04  0.7818609E-02  0.8200456E-01
       -2   -1    0    0    0  501  0.00000000000E+00  0.00000000000E+00  0.12139992597E+04  0.12139992597E+04  0.25500000920E-02 0. -1.
        2   -1    0    0  501    0  0.00000000000E+00  0.00000000000E+00 -0.20515227331E+04  0.20515227331E+04  0.25500000920E-02 0.  1.
    10030    2    1    2    0    0  0.00000000000E+00  0.00000000000E+00 -0.83752347336E+03  0.32655219928E+04  0.31562934460E+04 0.  0.
        4    1    3    3  502    0  0.10513356070E+04 -0.10221279739E+04 -0.10224733538E+04  0.17875976968E+04  0.12699999809E+01 0.  1.
       -4    1    3    3    0  502 -0.10513356070E+04  0.10221279739E+04  0.18494988049E+03  0.14779242960E+04  0.12699999809E+01 0. -1.
</event>
<event>
 5   0  0.1860500E-07  0.3793808E+04  0.7818609E-02  0.8047485E-01
       -1   -1    0    0    0  501  0.00000000000E+00  0.00000000000E+00  0.31485015277E+04  0.31485015277E+04  0.50400001928E-02 0. -1.
        1   -1    0    0  501    0  0.00000000000E+00  0.00000000000E+00 -0.11428432904E+04  0.11428432905E+04  0.50400001928E-02 0.  1.
    10030    2    1    2    0    0  0.00000000000E+00  0.00000000000E+00  0.20056582372E+04  0.42913448181E+04  0.37938075048E+04 0.  0.
        4    1    3    3  502    0  0.11388857152E+04  0.19122512225E+01 -0.71307579825E+03  0.13437049661E+04  0.12699999809E+01 0.  1.
       -4    1    3    3    0  502 -0.11388857152E+04 -0.19122512225E+01  0.27187340355E+04  0.29476398521E+04  0.12699999809E+01 0. -1.
</event>
<event>
 5   0  0.2666813E-07  0.4476108E+04  0.7818609E-02  0.7914833E-01
        1   -1    0    0  501    0  0.00000000000E+00  0.00000000000E+00  0.22890195468E+04  0.22890195468E+04  0.50400001928E-02 0.  1.
       -1   -1    0    0    0  501  0.00000000000E+00  0.00000000000E+00 -0.21882227652E+04  0.21882227652E+04  0.50400001928E-02 0. -1.
    10030    2    1    2    0    0  0.00000000000E+00  0.00000000000E+00  0.10079678155E+03  0.44772423120E+04  0.44761075422E+04 0.  0.
        1    1    3    3  502    0  0.97389869596E+03 -0.83056112855E+03  0.18867761942E+04  0.22799637860E+04  0.50400001928E-02 0.  1.
       -1    1    3    3    0  502 -0.97389869596E+03  0.83056112855E+03 -0.17859794127E+04  0.21972785260E+04  0.50400001928E-02 0. -1.
</event>
<event>
 5   0  0.1943459E-07  0.3911628E+04  0.7818609E-02  0.8022615E-01
        1   -1    0    0  501    0  0.00000000000E+00  0.00000000000E+00  0.15223011580E+04  0.15223011580E+04  0.50400001928E-02 0.  1.
       -1   -1    0    0    0  501  0.00000000000E+00  0.00000000000E+00 -0.25127807171E+04  0.25127807171E+04  0.50400001928E-02 0. -1.
    10030    2    1    2    0    0  0.00000000000E+00  0.00000000000E+00 -0.99047955907E+03  0.40350818751E+04  0.39116283032E+04 0.  0.
        2    1    3    3  502    0  0.61348394100E+02  0.40279815746E+03  0.14780360061E+04  0.15331667934E+04  0.25500000920E-02 0.  1.
       -2    1    3    3    0  502 -0.61348394100E+02 -0.40279815746E+03 -0.24685155651E+04  0.25019150818E+04  0.25500000920E-02 0. -1.
</event>
<event>
 5   0  0.3959190E-07  0.2905494E+04  0.7818609E-02  0.8271245E-01
        2   -1    0    0  501    0  0.00000000000E+00  0.00000000000E+00  0.14888514306E+04  0.14888514306E+04  0.25500000920E-02 0. -1.
       -2   -1    0    0    0  501  0.00000000000E+00  0.00000000000E+00 -0.14175181717E+04  0.14175181717E+04  0.25500000920E-02 0.  1.
    10030    2    1    2    0    0  0.00000000000E+00  0.00000000000E+00  0.71333258914E+02  0.29063696022E+04  0.29054940769E+04 0.  0.
        2    1    3    3  502    0  0.13236586672E+04  0.27831108249E+03 -0.49453519426E+03  0.14401716510E+04  0.25500000920E-02 0.  1.
       -2    1    3    3    0  502 -0.13236586672E+04 -0.27831108249E+03  0.56586845318E+03  0.14661979512E+04  0.25500000920E-02 0. -1.
</event>
<event>
 5   0  0.1860500E-07  0.3852617E+04  0.7818609E-02  0.8034957E-01
       -1   -1    0    0    0  501  0.00000000000E+00  0.00000000000E+00  0.14767348944E+04  0.14767348945E+04  0.50400001928E-02 0.  1.
        1   -1    0    0  501    0  0.00000000000E+00  0.00000000000E+00 -0.25127489561E+04  0.25127489561E+04  0.50400001928E-02 0. -1.
    10030    2    1    2    0    0  0.00000000000E+00  0.00000000000E+00 -0.10360140616E+04  0.39894838505E+04  0.38526168065E+04 0.  0.
        4    1    3    3  502    0 -0.42952516546E+03  0.10843190161E+04  0.10695666749E+04  0.15824708785E+04  0.12699999809E+01 0.  1.
       -4    1    3    3    0  502  0.42952516546E+03 -0.10843190161E+04 -0.21055807365E+04  0.24070129720E+04  0.12699999809E+01 0. -1.
</event>
<event>
 5   0  0.1876027E-07  0.2746370E+04  0.7818609E-02  0.8320115E-01
        1   -1    0    0  501    0  0.00000000000E+00  0.00000000000E+00  0.90873468447E+03  0.90873468448E+03  0.50400001928E-02 0.  1.
       -1   -1    0    0    0  501  0.00000000000E+00  0.00000000000E+00 -0.20750130908E+04  0.20750130908E+04  0.50400001928E-02 0. -1.
    10030    2    1    2    0    0  0.00000000000E+00  0.00000000000E+00 -0.11662784063E+04  0.29837477753E+04  0.27463695064E+04 0.  0.
        3    1    3    3  502    0 -0.13429985326E+04  0.28572406595E+03 -0.56272535811E+03  0.14838945849E+04  0.10100000352E+00 0.  1.
       -3    1    3    3    0  502  0.13429985326E+04 -0.28572406595E+03 -0.60355304823E+03  0.14998531903E+04  0.10100000352E+00 0. -1.
</event>
<event>
 5   0  0.5805753E-07  0.3900014E+04  0.7818609E-02  0.8025026E-01
       -2   -1    0    0    0  501  0.00000000000E+00  0.00000000000E+00  0.22028358419E+04  0.22028358420E+04  0.25500000920E-02 0. -1.
        2   -1    0    0  501    0  0.00000000000E+00  0.00000000000E+00 -0.17261964210E+04  0.17261964210E+04  0.25500000920E-02 0.  1.
    10030    2    1    2    0    0  0.00000000000E+00  0.00000000000E+00  0.47663942100E+03  0.39290322629E+04  0.39000140237E+04 0.  0.
        1    1    3    3  502    0 -0.43280066899E+03  0.68033879021E+03 -0.15503767415E+04  0.17475254874E+04  0.50400001928E-02 0.  1.
       -1    1    3    3    0  502  0.43280066899E+03 -0.68033879021E+03  0.20270161625E+04  0.21815067755E+04  0.50400001928E-02 0. -1.
</event>
<event>
 5   0  0.5735179E-07  0.3298113E+04  0.7818609E-02  0.8163376E-01
        2   -1    0    0  501    0  0.00000000000E+00  0.00000000000E+00  0.16490466131E+04  0.16490466131E+04  0.25500000920E-02 0.  1.
       -2   -1    0    0    0  501  0.00000000000E+00  0.00000000000E+00 -0.16490663531E+04  0.16490663531E+04  0.25500000920E-02 0. -1.
    10030    2    1    2    0    0  0.00000000000E+00  0.00000000000E+00 -0.19740028524E-01  0.32981129663E+04  0.32981129662E+04 0.  0.
        5    1    3    3  502    0 -0.11391978387E+04 -0.19645375661E+03  0.11760000791E+04  0.16490494444E+04  0.46999998093E+01 0.  1.
       -5    1    3    3    0  502  0.11391978387E+04  0.19645375661E+03 -0.11760198191E+04  0.16490635218E+04  0.46999998093E+01 0. -1.
</event>
<event>
 5   0  0.1943459E-07  0.4058129E+04  0.7818609E-02  0.7992922E-01
       -1   -1    0    0    0  501  0.00000000000E+00  0.00000000000E+00  0.18451529302E+04  0.18451529302E+04  0.50400001928E-02 0.  1.
        1   -1    0    0  501    0  0.00000000000E+00  0.00000000000E+00 -0.22313067122E+04  0.22313067123E+04  0.50400001928E-02 0. -1.
    10030    2    1    2    0    0  0.00000000000E+00  0.00000000000E+00 -0.38615378204E+03  0.40764596425E+04  0.40581286911E+04 0.  0.
        2    1    3    3  502    0 -0.12055022667E+04  0.67366630851E+03  0.13002586783E+04  0.18967695276E+04  0.25500000920E-02 0.  1.
       -2    1    3    3    0  502  0.12055022667E+04 -0.67366630851E+03 -0.16864124604E+04  0.21796901149E+04  0.25500000920E-02 0. -1.
</event>
<event>
 5   0  0.6095665E-07  0.3894046E+04  0.7818609E-02  0.8026269E-01
        2   -1    0    0  501    0  0.00000000000E+00  0.00000000000E+00  0.20064687701E+04  0.20064687701E+04  0.25500000920E-02 0.  1.
       -2   -1    0    0    0  501  0.00000000000E+00  0.00000000000E+00 -0.18893382161E+04  0.18893382161E+04  0.25500000920E-02 0. -1.
    10030    2    1    2    0    0  0.00000000000E+00  0.00000000000E+00  0.11713055399E+03  0.38958069862E+04  0.38940457762E+04 0.  0.
        4    1    3    3  502    0 -0.58399058997E+03  0.56386667534E+02  0.19159264413E+04  0.20037465426E+04  0.12699999809E+01 0.  1.
       -4    1    3    3    0  502  0.58399058997E+03 -0.56386667534E+02 -0.17987958873E+04  0.18920604437E+04  0.12699999809E+01 0. -1.
</event>
<event>
 5   0  0.3959190E-07  0.3223776E+04  0.7818609E-02  0.8182566E-01
        2   -1    0    0  501    0  0.00000000000E+00  0.00000000000E+00  0.21351007662E+04  0.21351007662E+04  0.25500000920E-02 0.  1.
       -2   -1    0    0    0  501  0.00000000000E+00  0.00000000000E+00 -0.12168902085E+04  0.12168902085E+04  0.25500000920E-02 0. -1.
    10030    2    1    2    0    0  0.00000000000E+00  0.00000000000E+00  0.91821055764E+03  0.33519909747E+04  0.32237761812E+04 0.  0.
        2    1    3    3  502    0 -0.13164728412E+04  0.39542555468E+03  0.13344429949E+04  0.19157766617E+04  0.25500000920E-02 0.  1.
       -2    1    3    3    0  502  0.13164728412E+04 -0.39542555468E+03 -0.41623243721E+03  0.14362143130E+04  0.25500000920E-02 0. -1.
</event>
<event>
 5   0  0.2666813E-07  0.3916247E+04  0.7818609E-02  0.8021659E-01
        1   -1    0    0  501    0  0.00000000000E+00  0.00000000000E+00  0.25565026233E+04  0.25565026233E+04  0.50400001928E-02 0. -1.
       -1   -1    0    0    0  501  0.00000000000E+00  0.00000000000E+00 -0.14998017645E+04  0.14998017645E+04  0.50400001928E-02 0.  1.
    10030    2    1    2    0    0  0.00000000000E+00  0.00000000000E+00  0.10567008588E+04  0.40563043879E+04  0.39162467468E+04 0.  0.
        1    1    3    3  502    0 -0.14796568842E+03  0.10965023626E+03 -0.14908115150E+04  0.15021437989E+04  0.50400001928E-02 0.  1.
       -1    1    3    3    0  502  0.14796568842E+03 -0.10965023626E+03  0.25475123738E+04  0.25541605889E+04  0.50400001928E-02 0. -1.
</event>
<event>
 5   0  0.3959190E-07  0.3876189E+04  0.7818609E-02  0.8030000E-01
       -2   -1    0    0    0  501  0.00000000000E+00  0.00000000000E+00  0.28177589483E+04  0.28177589483E+04  0.25500000920E-02 0. -1.
        2   -1    0    0  501    0  0.00000000000E+00  0.00000000000E+00 -0.13330485324E+04  0.13330485324E+04  0.25500000920E-02 0.  1.
    10030    2    1    2    0    0  0.00000000000E+00  0.00000000000E+00  0.14847104159E+04  0.41508074806E+04  0.38761885560E+04 0.  0.
        2    1    3    3  502    0 -0.17651331413E+04  0.80020057083E+03  0.75725001352E+03  0.20807314923E+04  0.25500000920E-02 0. -1.
       -2    1    3    3    0  502  0.17651331413E+04 -0.80020057083E+03  0.72746040239E+03  0.20700759883E+04  0.25500000920E-02 0.  1.
</event>
<event>
 5   0  0.1943459E-07  0.3885783E+04  0.7818609E-02  0.8027993E-01
        1   -1    0    0  501    0  0.00000000000E+00  0.00000000000E+00  0.25782726685E+04  0.25782726685E+04  0.50400001928E-02 0. -1.
       -1   -1    0    0    0  501  0.00000000000E+00  0.00000000000E+00 -0.14640912795E+04  0.14640912795E+04  0.50400001928E-02 0.  1.
    10030    2    1    2    0    0  0.00000000000E+00  0.00000000000E+00  0.11141813891E+04  0.40423639480E+04  0.38857825621E+04 0.  0.
        2    1    3    3  502    0 -0.47949777941E+02 -0.16172735981E+03  0.25706403489E+04  0.25761690013E+04  0.25500000920E-02 0. -1.
       -2    1    3    3    0  502  0.47949777941E+02  0.16172735981E+03 -0.14564589598E+04  0.14661949467E+04  0.25500000920E-02 0.  1.
</event>
<event>
 5   0  0.1860500E-07  0.2571844E+04  0.7818609E-02  0.8377829E-01
        1   -1    0    0  501    0  0.00000000000E+00  0.00000000000E+00  0.27381083962E+04  0.27381083962E+04  0.50400001928E-02 0. -1.
       -1   -1    0    0    0  501  0.00000000000E+00  0.00000000000E+00 -0.60391884509E+03  0.60391884511E+03  0.50400001928E-02 0.  1.
    10030    2    1    2    0    0  0.00000000000E+00  0.00000000000E+00  0.21341895511E+04  0.33420272413E+04  0.25718438991E+04 0.  0.
        4    1    3    3  502    0 -0.11986328421E+03 -0.12576737750E+04  0.13786503542E+04  0.18699703055E+04  0.12699999809E+01 0.  1.
       -4    1    3    3    0  502  0.11986328421E+03  0.12576737750E+04  0.75553919690E+03  0.14720569358E+04  0.12699999809E+01 0. -1.
</event>
<event>
 5   0  0.6095665E-07  0.3883195E+04  0.7818609E-02  0.8028533E-01
       -2   -1    0    0    0  501  0.00000000000E+00  0.00000000000E+00  0.20576525322E+04  0.20576525323E+04  0.25500000920E-02 0.  1.
        2   -1    0    0  501    0  0.00000000000E+00  0.00000000000E+00 -0.18320879598E+04  0.18320879598E+04  0.25500000920E-02 0. -1.
    10030    2    1    2    0    0  0.00000000000E+00  0.00000000000E+00  0.22556457249E+03  0.38897404920E+04  0.38831947825E+04 0.  0.
        4    1    3    3  502    0  0.50128630655E+02  0.14245673653E+04 -0.12077318788E+04  0.18682941316E+04  0.12699999809E+01 0. -1.
       -4    1    3    3    0  502 -0.50128630655E+02 -0.14245673653E+04  0.14332964513E+04  0.20214463605E+04  0.12699999809E+01 0.  1.
</event>
<event>
 5   0  0.3959190E-07  0.4100341E+04  0.7818609E-02  0.7984605E-01
       -2   -1    0    0    0  501  0.00000000000E+00  0.00000000000E+00  0.15636849825E+04  0.15636849825E+04  0.25500000920E-02 0. -1.
        2   -1    0    0  501    0  0.00000000000E+00  0.00000000000E+00 -0.26880094332E+04  0.26880094332E+04  0.25500000920E-02 0.  1.
    10030    2    1    2    0    0  0.00000000000E+00  0.00000000000E+00 -0.11243244508E+04  0.42516944157E+04  0.41003414411E+04 0.  0.
        2    1    3    3  502    0  0.11983004012E+04 -0.15864039422E+04 -0.43085691599E+02  0.19885818304E+04  0.25500000920E-02 0. -1.
       -2    1    3    3    0  502 -0.11983004012E+04  0.15864039422E+04 -0.10812387592E+04  0.22631125853E+04  0.25500000920E-02 0.  1.
</event>
<event>
 5   0  0.2666813E-07  0.3638617E+04  0.7818609E-02  0.8081703E-01
       -1   -1    0    0    0  501  0.00000000000E+00  0.00000000000E+00  0.11423055996E+04  0.11423055996E+04  0.50400001928E-02 0. -1.
        1   -1    0    0  501    0  0.00000000000E+00  0.00000000000E+00 -0.28975468400E+04  0.28975468400E+04  0.50400001928E-02 0.  1.
    10030    2    1    2    0    0  0.00000000000E+00  0.00000000000E+00 -0.17552412404E+04  0.40398524396E+04  0.36386173091E+04 0.  0.
        1    1    3    3  502    0  0.17574132383E+04  0.22286336909E+03 -0.41754126713E+03  0.18200302418E+04  0.50400001928E-02 0.  1.
       -1    1    3    3    0  502 -0.17574132383E+04 -0.22286336909E+03 -0.13376999732E+04  0.22198221978E+04  0.50400001928E-02 0. -1.
</event>
<event>
 5   0  0.1943459E-07  0.3970323E+04  0.7818609E-02  0.8010560E-01
        1   -1    0    0  501    0  0.00000000000E+00  0.00000000000E+00  0.14312055329E+04  0.14312055329E+04  0.50400001928E-02 0. -1.
       -1   -1    0    0    0  501  0.00000000000E+00  0.00000000000E+00 -0.27535290280E+04  0.27535290280E+04  0.50400001928E-02 0.  1.
    10030    2    1    2    0    0  0.00000000000E+00  0.00000000000E+00 -0.13223234952E+04  0.41847345609E+04  0.39703228986E+04 0.  0.
        2    1    3    3  502    0 -0.52327297911E+03 -0.10800399648E+04  0.10055525659E+04  0.15657065175E+04  0.25500000920E-02 0. -1.
       -2    1    3    3    0  502  0.52327297911E+03  0.10800399648E+04 -0.23278760611E+04  0.26190280434E+04  0.25500000920E-02 0.  1.
</event>
<event>
 5   0  0.5805753E-07  0.3862551E+04  0.7818609E-02  0.8032863E-01
       -2   -1    0    0    0  501  0.00000000000E+00  0.00000000000E+00  0.21551534863E+04  0.21551534863E+04  0.25500000920E-02 0.  1.
        2   -1    0    0  501    0  0.00000000000E+00  0.00000000000E+00 -0.17306540452E+04  0.17306540452E+04  0.25500000920E-02 0. -1.
    10030    2    1    2    0    0  0.00000000000E+00  0.00000000000E+00  0.42449944106E+03  0.38858075315E+04  0.38625510218E+04 0.  0.
        1    1    3    3  502    0 -0.76146358633E+02  0.18844004007E+04  0.63076167379E+03  0.19886235006E+04  0.50400001928E-02 0.  1.
       -1    1    3    3    0  502  0.76146358633E+02 -0.18844004007E+04 -0.20626223273E+03  0.18971840308E+04  0.50400001928E-02 0. -1.
</event>
<event>
 5   0  0.5735179E-07  0.3924235E+04  0.7818609E-02  0.8020008E-01
        2   -1    0    0  501    0  0.00000000000E+00  0.00000000000E+00  0.21247289583E+04  0.21247289583E+04  0.25500000920E-02 0. -1.
       -2   -1    0    0    0  501  0.00000000000E+00  0.00000000000E+00 -0.18119514843E+04  0.18119514843E+04  0.25500000920E-02 0.  1.
    10030    2    1    2    0    0  0.00000000000E+00  0.00000000000E+00  0.31277747397E+03  0.39366804426E+04  0.39242353598E+04 0.  0.
        5    1    3    3  502    0  0.19378166786E+04  0.22145837619E+03  0.37085730874E+03  0.19853801968E+04  0.46999998093E+01 0. -1.
       -5    1    3    3    0  502 -0.19378166786E+04 -0.22145837619E+03 -0.58079834768E+02  0.19513002459E+04  0.46999998093E+01 0.  1.
</event>
<event>
 5   0  0.1876027E-07  0.3691216E+04  0.7818609E-02  0.8069911E-01
       -1   -1    0    0    0  501  0.00000000000E+00  0.00000000000E+00  0.14103985078E+04  0.14103985078E+04  0.50400001928E-02 0.  1.
        1   -1    0    0  501    0  0.00000000000E+00  0.00000000000E+00 -0.24151109525E+04  0.24151109525E+04  0.50400001928E-02 0. -1.
    10030    2    1    2    0    0  0.00000000000E+00  0.00000000000E+00 -0.10047124447E+04  0.38255094603E+04  0.36912159967E+04 0.  0.
        3    1    3    3  502    0 -0.44197753165E+03 -0.12891037290E+04  0.78756930616E+03  0.15739752173E+04  0.10100000352E+00 0.  1.
       -3    1    3    3    0  502  0.44197753165E+03  0.12891037290E+04 -0.17922817508E+04  0.22515342429E+04  0.10100000352E+00 0. -1.
</event>
<event>
 5   0  0.6095665E-07  0.4138701E+04  0.7818609E-02  0.7977136E-01
       -2   -1    0    0    0  501  0.00000000000E+00  0.00000000000E+00  0.19961071563E+04  0.19961071563E+04  0.25500000920E-02 0. -1.
        2   -1    0    0  501    0  0.00000000000E+00  0.00000000000E+00 -0.21452810356E+04  0.21452810356E+04  0.25500000920E-02 0.  1.
    10030    2    1    2    0    0  0.00000000000E+00  0.00000000000E+00 -0.14917387932E+03  0.41413881919E+04  0.41387006790E+04 0.  0.
        4    1    3    3  502    0 -0.17470383685E+03 -0.76096295936E+03  0.18430664251E+04  0.20016197232E+04  0.12699999809E+01 0. -1.
       -4    1    3    3    0  502  0.17470383685E+03  0.76096295936E+03 -0.19922403044E+04  0.21397684687E+04  0.12699999809E+01 0.  1.
</event>
<event>
 5   0  0.6095665E-07  0.3821809E+04  0.7818609E-02  0.8041491E-01
        2   -1    0    0  501    0  0.00000000000E+00  0.00000000000E+00  0.17259356087E+04  0.17259356087E+04  0.25500000920E-02 0. -1.
       -2   -1    0    0    0  501  0.00000000000E+00  0.00000000000E+00 -0.21156968878E+04  0.21156968878E+04  0.25500000920E-02 0.  1.
    10030    2    1    2    0    0  0.00000000000E+00  0.00000000000E+00 -0.38976127916E+03  0.38416324965E+04  0.38218093076E+04 0.  0.
        4    1    3    3  502    0 -0.19070411954E+04  0.11491821030E+03 -0.15540011900E+03  0.19168106651E+04  0.12699999809E+01 0.  1.
       -4    1    3    3    0  502  0.19070411954E+04 -0.11491821030E+03 -0.23436116016E+03  0.19248218313E+04  0.12699999809E+01 0. -1.
</event>
<event>
 5   0  0.6095665E-07  0.2444602E+04  0.7818609E-02  0.8422992E-01
        2   -1    0    0  501    0  0.00000000000E+00  0.00000000000E+00  0.11981908564E+04  0.11981908564E+04  0.25500000920E-02 0.  1.
       -2   -1    0    0    0  501  0.00000000000E+00  0.00000000000E+00 -0.12468958363E+04  0.12468958363E+04  0.25500000920E-02 0. -1.
    10030    2    1    2    0    0  0.00000000000E+00  0.00000000000E+00 -0.48704979888E+02  0.24450866928E+04  0.24446015545E+04 0.  0.
        4    1    3    3  502    0 -0.15126584778E+03  0.36441956392E+03 -0.11814461972E+04  0.12455921102E+04  0.12699999809E+01 0. -1.
       -4    1    3    3    0  502  0.15126584778E+03 -0.36441956392E+03  0.11327412173E+04  0.11994945826E+04  0.12699999809E+01 0.  1.
</event>
<event>
 5   0  0.5872444E-07  0.3044843E+04  0.7818609E-02  0.8231040E-01
        2   -1    0    0  501    0  0.00000000000E+00  0.00000000000E+00  0.18298267147E+04  0.18298267147E+04  0.25500000920E-02 0.  1.
       -2   -1    0    0    0  501  0.00000000000E+00  0.00000000000E+00 -0.12666593134E+04  0.12666593134E+04  0.25500000920E-02 0. -1.
    10030    2    1    2    0    0  0.00000000000E+00  0.00000000000E+00  0.56316740138E+03  0.30964860281E+04  0.30448428860E+04 0.  0.
        3    1    3    3  502    0 -0.92047454333E+03 -0.11536162402E+04  0.66163766796E+03  0.16173645935E+04  0.10100000352E+00 0.  1.
       -3    1    3    3    0  502  0.92047454333E+03  0.11536162402E+04 -0.98470266582E+02  0.14791214346E+04  0.10100000352E+00 0. -1.
</event>
<event>
 5   0  0.2666813E-07  0.3452572E+04  0.7818609E-02  0.8125123E-01
       -1   -1    0    0    0  501  0.00000000000E+00  0.00000000000E+00  0.13507481660E+04  0.13507481661E+04  0.50400001928E-02 0. -1.
        1   -1    0    0  501    0  0.00000000000E+00  0.00000000000E+00 -0.22062311779E+04  0.22062311779E+04  0.50400001928E-02 0.  1.
    10030    2    1    2    0    0  0.00000000000E+00  0.00000000000E+00 -0.85548301187E+03  0.35569793440E+04  0.34525716314E+04 0.  0.
        1    1    3    3  502    0  0.36829087858E+03 -0.12694695077E+04  0.71618359552E+03  0.15033662044E+04  0.50400001928E-02 0. -1.
       -1    1    3    3    0  502 -0.36829087858E+03  0.12694695077E+04 -0.15716666074E+04  0.20536131396E+04  0.50400001928E-02 0.  1.
</event>
<event>
 5   0  0.3959190E-07  0.3692574E+04  0.7818609E-02  0.8069610E-01
       -2   -1    0    0    0  501  0.00000000000E+00  0.00000000000E+00  0.26722660626E+04  0.26722660626E+04  0.25500000920E-02 0. -1.
        2   -1    0    0  501    0  0.00000000000E+00  0.00000000000E+00 -0.12756121026E+04  0.12756121026E+04  0.25500000920E-02 0.  1.
    10030    2    1    2    0    0  0.00000000000E+00  0.00000000000E+00  0.13966539600E+04  0.39478781652E+04  0.36925735908E+04 0.  0.
        2    1    3    3  502    0  0.52630636911E+03  0.43967751290E+03 -0.11343861455E+04  0.13255740782E+04  0.25500000920E-02 0.  1.
       -2    1    3    3    0  502 -0.52630636911E+03 -0.43967751290E+03  0.25310401055E+04  0.26223040871E+04  0.25500000920E-02 0. -1.
</event>
<event>
 5   0  0.5805753E-07  0.3805535E+04  0.7818609E-02  0.8044968E-01
        2   -1    0    0  501    0  0.00000000000E+00  0.00000000000E+00  0.31898305766E+04  0.31898305766E+04  0.25500000920E-02 0.  1.
       -2   -1    0    0    0  501  0.00000000000E+00  0.00000000000E+00 -0.11350206668E+04  0.11350206668E+04  0.25500000920E-02 0. -1.
    10030    2    1    2    0    0  0.00000000000E+00  0.00000000000E+00  0.20548099098E+04  0.43248512435E+04  0.38055347210E+04 0.  0.
        1    1    3    3  502    0 -0.13218822616E+04  0.54580849367E+03  0.24537657814E+04  0.28401137539E+04  0.50400001928E-02 0.  1.
       -1    1    3    3    0  502  0.13218822616E+04 -0.54580849367E+03 -0.39895587160E+03  0.14847374895E+04  0.50400001928E-02 0. -1.
</event>
<event>
 5   0  0.1943459E-07  0.3892938E+04  0.7818609E-02  0.8026500E-01
        1   -1    0    0  501    0  0.00000000000E+00  0.00000000000E+00  0.25814809398E+04  0.25814809398E+04  0.50400001928E-02 0. -1.
       -1   -1    0    0    0  501  0.00000000000E+00  0.00000000000E+00 -0.14676621602E+04  0.14676621602E+04  0.50400001928E-02 0.  1.
    10030    2    1    2    0    0  0.00000000000E+00  0.00000000000E+00  0.11138187797E+04  0.40491431000E+04  0.38929381668E+04 0.  0.
        2    1    3    3  502    0 -0.46613391291E+03  0.14677552715E+04  0.17951195910E+04  0.23651724478E+04  0.25500000920E-02 0. -1.
       -2    1    3    3    0  502  0.46613391291E+03 -0.14677552715E+04 -0.68130081134E+03  0.16839706522E+04  0.25500000920E-02 0.  1.
</event>
<event>
 5   0  0.1943459E-07  0.3871940E+04  0.7818609E-02  0.8030891E-01
        1   -1    0    0  501    0  0.00000000000E+00  0.00000000000E+00  0.20552383794E+04  0.20552383794E+04  0.50400001928E-02 0.  1.
       -1   -1    0    0    0  501  0.00000000000E+00  0.00000000000E+00 -0.18236228595E+04  0.18236228595E+04  0.50400001928E-02 0. -1.
    10030    2    1    2    0    0  0.00000000000E+00  0.00000000000E+00  0.23161551989E+03  0.38788612389E+04  0.38719399223E+04 0.  0.
        2    1    3    3  502    0  0.17416229914E+04  0.29016351086E+03 -0.67967349723E+03  0.18919306462E+04  0.25500000920E-02 0. -1.
       -2    1    3    3    0  502 -0.17416229914E+04 -0.29016351086E+03  0.91128901713E+03  0.19869305927E+04  0.25500000920E-02 0.  1.
</event>
<event>
 5   0  0.6095665E-07  0.3652439E+04  0.7818609E-02  0.8078584E-01
       -2   -1    0    0    0  501  0.00000000000E+00  0.00000000000E+00  0.17609380306E+04  0.17609380306E+04  0.25500000920E-02 0.  1.
        2   -1    0    0  501    0  0.00000000000E+00  0.00000000000E+00 -0.18939210934E+04  0.18939210934E+04  0.25500000920E-02 0. -1.
    10030    2    1    2    0    0  0.00000000000E+00  0.00000000000E+00 -0.13298306281E+03  0.36548591239E+04  0.36524390099E+04 0.  0.
        4    1    3    3  502    0 -0.11192692996E+04 -0.12994257542E+04  0.56146312995E+03  0.18045812575E+04  0.12699999809E+01 0.  1.
       -4    1    3    3    0  502  0.11192692996E+04  0.12994257542E+04 -0.69444619276E+03  0.18502778665E+04  0.12699999809E+01 0. -1.
</event>
<event>
 5   0  0.3959190E-07  0.3891137E+04  0.7818609E-02  0.8026875E-01
        2   -1    0    0  501    0  0.00000000000E+00  0.00000000000E+00  0.25077259902E+04  0.25077259902E+04  0.25500000920E-02 0.  1.
       -2   -1    0    0    0  501  0.00000000000E+00  0.00000000000E+00 -0.15094299516E+04  0.15094299516E+04  0.25500000920E-02 0. -1.
    10030    2    1    2    0    0  0.00000000000E+00  0.00000000000E+00  0.99829603863E+03  0.40171559418E+04  0.38911369649E+04 0.  0.
        2    1    3    3  502    0  0.20818687053E+03  0.11714891641E+04 -0.10900253199E+04  0.16136554256E+04  0.25500000920E-02 0. -1.
       -2    1    3    3    0  502 -0.20818687053E+03 -0.11714891641E+04  0.20883213585E+04  0.24035005161E+04  0.25500000920E-02 0.  1.
</event>
<event>
 5   0  0.6095665E-07  0.3819158E+04  0.7818609E-02  0.8042056E-01
        2   -1    0    0  501    0  0.00000000000E+00  0.00000000000E+00  0.16089755709E+04  0.16089755709E+04  0.25500000920E-02 0.  1.
       -2   -1    0    0    0  501  0.00000000000E+00  0.00000000000E+00 -0.22663442128E+04  0.22663442128E+04  0.25500000920E-02 0. -1.
    10030    2    1    2    0    0  0.00000000000E+00  0.00000000000E+00 -0.65736864184E+03  0.38753197837E+04  0.38191582704E+04 0.  0.
        4    1    3    3  502    0 -0.91732805703E+03  0.10803449779E+04  0.96992223566E+03  0.17173778826E+04  0.12699999809E+01 0.  1.
       -4    1    3    3    0  502  0.91732805703E+03 -0.10803449779E+04 -0.16272908775E+04  0.21579419011E+04  0.12699999809E+01 0. -1.
</event>
<event>
 5   0  0.1876027E-07  0.3893232E+04  0.7818609E-02  0.8026438E-01
        1   -1    0    0  501    0  0.00000000000E+00  0.00000000000E+00  0.13554126152E+04  0.13554126152E+04  0.50400001928E-02 0.  1.
       -1   -1    0    0    0  501  0.00000000000E+00  0.00000000000E+00 -0.27956907584E+04  0.27956907584E+04  0.50400001928E-02 0. -1.
    10030    2    1    2    0    0  0.00000000000E+00  0.00000000000E+00 -0.14402781432E+04  0.41511033736E+04  0.38932323445E+04 0.  0.
        3    1    3    3  502    0  0.92339927599E+03  0.15424542902E+04 -0.15162417044E+04  0.23517696266E+04  0.10100000352E+00 0. -1.
       -3    1    3    3    0  502 -0.92339927599E+03 -0.15424542902E+04  0.75963561176E+02  0.17993337470E+04  0.10100000352E+00 0.  1.
</event>
<event>
 5   0  0.1860500E-07  0.3918072E+04  0.7818609E-02  0.8021281E-01
       -1   -1    0    0    0  501  0.00000000000E+00  0.00000000000E+00  0.22564195046E+04  0.22564195047E+04  0.50400001928E-02 0. -1.
        1   -1    0    0  501    0  0.00000000000E+00  0.00000000000E+00 -0.17008455660E+04  0.17008455660E+04  0.50400001928E-02 0.  1.
    10030    2    1    2    0    0  0.00000000000E+00  0.00000000000E+00  0.55557393861E+03  0.39572650707E+04  0.39180715203E+04 0.  0.
        5    1    3    3  502    0 -0.75060666799E+03  0.16641585080E+04  0.99550435802E+03  0.20793953272E+04  0.46999998093E+01 0. -1.
       -5    1    3    3    0  502  0.75060666799E+03 -0.16641585080E+04 -0.43993041940E+03  0.18778697435E+04  0.46999998093E+01 0.  1.
</event>
<event>
 5   0  0.3959190E-07  0.3724798E+04  0.7818609E-02  0.8062488E-01
       -2   -1    0    0    0  501  0.00000000000E+00  0.00000000000E+00  0.15600388315E+04  0.15600388315E+04  0.25500000920E-02 0. -1.
        2   -1    0    0  501    0  0.00000000000E+00  0.00000000000E+00 -0.22233616208E+04  0.22233616208E+04  0.25500000920E-02 0.  1.
    10030    2    1    2    0    0  0.00000000000E+00  0.00000000000E+00 -0.66332278931E+03  0.37834004523E+04  0.37247982307E+04 0.  0.
        2    1    3    3  502    0  0.13049160203E+04 -0.49095342152E+03  0.92254857056E+03  0.16718064922E+04  0.25500000920E-02 0. -1.
       -2    1    3    3    0  502 -0.13049160203E+04  0.49095342152E+03 -0.15858713599E+04  0.21115939601E+04  0.25500000920E-02 0.  1.
</event>
<event>
 5   0  0.5735179E-07  0.3547612E+04  0.7818609E-02  0.8102598E-01
        2   -1    0    0  501    0  0.00000000000E+00  0.00000000000E+00  0.31595650245E+04  0.31595650245E+04  0.25500000920E-02 0.  1.
       -2   -1    0    0    0  501  0.00000000000E+00  0.00000000000E+00 -0.99582911909E+03  0.99582911910E+03  0.25500000920E-02 0. -1.
    10030    2    1    2    0    0  0.00000000000E+00  0.00000000000E+00  0.21637359054E+04  0.41553941436E+04  0.35476115092E+04 0.  0.
        5    1    3    3  502    0 -0.41833467253E+03 -0.16639208227E+04  0.16092598152E+04  0.23523128290E+04  0.46999998093E+01 0.  1.
       -5    1    3    3    0  502  0.41833467253E+03  0.16639208227E+04  0.55447609019E+03  0.18030813146E+04  0.46999998093E+01 0. -1.
</event>
<event>
 5   0  0.1943459E-07  0.3971722E+04  0.7818609E-02  0.8010275E-01
        1   -1    0    0  501    0  0.00000000000E+00  0.00000000000E+00  0.19517655638E+04  0.19517655639E+04  0.50400001928E-02 0. -1.
       -1   -1    0    0    0  501  0.00000000000E+00  0.00000000000E+00 -0.20205525183E+04  0.20205525183E+04  0.50400001928E-02 0.  1.
    10030    2    1    2    0    0  0.00000000000E+00  0.00000000000E+00 -0.68786954461E+02  0.39723180822E+04  0.39717224602E+04 0.  0.
        2    1    3    3  502    0 -0.13746888616E+02 -0.34199621753E+03  0.19220426211E+04  0.19522802635E+04  0.25500000920E-02 0. -1.
       -2    1    3    3    0  502  0.13746888616E+02  0.34199621753E+03 -0.19908295756E+04  0.20200378187E+04  0.25500000920E-02 0.  1.
</event>
<event>
 5   0  0.2666813E-07  0.3843728E+04  0.7818609E-02  0.8036836E-01
        1   -1    0    0  501    0  0.00000000000E+00  0.00000000000E+00  0.23300304284E+04  0.23300304284E+04  0.50400001928E-02 0. -1.
       -1   -1    0    0    0  501  0.00000000000E+00  0.00000000000E+00 -0.15851985260E+04  0.15851985260E+04  0.50400001928E-02 0.  1.
    10030    2    1    2    0    0  0.00000000000E+00  0.00000000000E+00  0.74483190235E+03  0.39152289544E+04  0.38437277743E+04 0.  0.
        1    1    3    3  502    0 -0.16238049670E+04 -0.74596855534E+03 -0.34809589000E+03  0.18205445353E+04  0.50400001928E-02 0.  1.
       -1    1    3    3    0  502  0.16238049670E+04  0.74596855534E+03  0.10929277924E+04  0.20946844191E+04  0.50400001928E-02 0. -1.
</event>
<event>
 5   0  0.3959190E-07  0.3486124E+04  0.7818609E-02  0.8117086E-01
        2   -1    0    0  501    0  0.00000000000E+00  0.00000000000E+00  0.17538333518E+04  0.17538333518E+04  0.25500000920E-02 0.  1.
       -2   -1    0    0    0  501  0.00000000000E+00  0.00000000000E+00 -0.17323570856E+04  0.17323570856E+04  0.25500000920E-02 0. -1.
    10030    2    1    2    0    0  0.00000000000E+00  0.00000000000E+00  0.21476266272E+02  0.34861904374E+04  0.34861242858E+04 0.  0.
        2    1    3    3  502    0  0.93164012117E+03  0.20174510471E+03  0.14700845806E+04  0.17520853509E+04  0.25500000920E-02 0.  1.
       -2    1    3    3    0  502 -0.93164012117E+03 -0.20174510471E+03 -0.14486083143E+04  0.17341050865E+04  0.25500000920E-02 0. -1.
</event>
<event>
 5   0  0.6095665E-07  0.3881146E+04  0.7818609E-02  0.8028962E-01
        2   -1    0    0  501    0  0.00000000000E+00  0.00000000000E+00  0.20718521717E+04  0.20718521717E+04  0.25500000920E-02 0. -1.
       -2   -1    0    0    0  501  0.00000000000E+00  0.00000000000E+00 -0.18176125316E+04  0.18176125316E+04  0.25500000920E-02 0.  1.
    10030    2    1    2    0    0  0.00000000000E+00  0.00000000000E+00  0.25423964011E+03  0.38894647033E+04  0.38811464651E+04 0.  0.
        4    1    3    3  502    0 -0.82943705941E+03 -0.17520555883E+04  0.21763636878E+03  0.19506490771E+04  0.12699999809E+01 0.  1.
       -4    1    3    3    0  502  0.82943705941E+03  0.17520555883E+04  0.36603271323E+02  0.19388156262E+04  0.12699999809E+01 0. -1.
</event>
<event>
 5   0  0.2666813E-07  0.3835128E+04  0.7818609E-02  0.8038658E-01
       -1   -1    0    0    0  501  0.00000000000E+00  0.00000000000E+00  0.22948165658E+04  0.22948165658E+04  0.50400001928E-02 0. -1.
        1   -1    0    0  501    0  0.00000000000E+00  0.00000000000E+00 -0.16023291475E+04  0.16023291475E+04  0.50400001928E-02 0.  1.
    10030    2    1    2    0    0  0.00000000000E+00  0.00000000000E+00  0.69248741831E+03  0.38971457133E+04  0.38351278840E+04 0.  0.
        1    1    3    3  502    0  0.53995904123E+02  0.17506192887E+04  0.11395524786E+04  0.20895366240E+04  0.50400001928E-02 0. -1.
       -1    1    3    3    0  502 -0.53995904123E+02 -0.17506192887E+04 -0.44706506024E+03  0.18076090893E+04  0.50400001928E-02 0.  1.
</event>
<event>
 5   0  0.5805753E-07  0.3881620E+04  0.7818609E-02  0.8028863E-01
       -2   -1    0    0    0  501  0.00000000000E+00  0.00000000000E+00  0.20056046030E+04  0.20056046030E+04  0.25500000920E-02 0.  1.
        2   -1    0    0  501    0  0.00000000000E+00  0.00000000000E+00 -0.18781085551E+04  0.18781085551E+04  0.25500000920E-02 0. -1.
    10030    2    1    2    0    0  0.00000000000E+00  0.00000000000E+00  0.12749604786E+03  0.38837131581E+04  0.38816198490E+04 0.  0.
        1    1    3    3  502    0 -0.10083802183E+04  0.20835844505E+03  0.17097793743E+04  0.19958931372E+04  0.50400001928E-02 0.  1.
       -1    1    3    3    0  502  0.10083802183E+04 -0.20835844505E+03 -0.15822833264E+04  0.18878200209E+04  0.50400001928E-02 0. -1.
</event>
<event>
 5   0  0.1943459E-07  0.3064475E+04  0.7818609E-02  0.8225556E-01
        1   -1    0    0  501    0  0.00000000000E+00  0.00000000000E+00  0.22872649562E+04  0.22872649562E+04  0.50400001928E-02 0. -1.
       -1   -1    0    0    0  501  0.00000000000E+00  0.00000000000E+00 -0.10264448029E+04  0.10264448029E+04  0.50400001928E-02 0.  1.
    10030    2    1    2    0    0  0.00000000000E+00  0.00000000000E+00  0.12608201532E+04  0.33137097591E+04  0.30644746546E+04 0.  0.
        2    1    3    3  502    0  0.13104081510E+04  0.13456516682E+03 -0.21584684460E+03  0.13348659733E+04  0.25500000920E-02 0.  1.
       -2    1    3    3    0  502 -0.13104081510E+04 -0.13456516682E+03  0.14766669978E+04  0.19788437858E+04  0.25500000920E-02 0. -1.
</event>
<event>
 5   0  0.1860500E-07  0.3940938E+04  0.7818609E-02  0.8016568E-01
        1   -1    0    0  501    0  0.00000000000E+00  0.00000000000E+00  0.23984082212E+04  0.23984082212E+04  0.50400001928E-02 0. -1.
       -1   -1    0    0    0  501  0.00000000000E+00  0.00000000000E+00 -0.16188850304E+04  0.16188850304E+04  0.50400001928E-02 0.  1.
    10030    2    1    2    0    0  0.00000000000E+00  0.00000000000E+00  0.77952319078E+03  0.40172932516E+04  0.39409375362E+04 0.  0.
        4    1    3    3  502    0  0.84179135903E+03 -0.11139525588E+04  0.18071117563E+04  0.22836719353E+04  0.12699999809E+01 0. -1.
       -4    1    3    3    0  502 -0.84179135903E+03  0.11139525588E+04 -0.10275885655E+04  0.17336213163E+04  0.12699999809E+01 0.  1.
</event>
<event>
 5   0  0.2666813E-07  0.3877922E+04  0.7818609E-02  0.8029637E-01
       -1   -1    0    0    0  501  0.00000000000E+00  0.00000000000E+00  0.21877052020E+04  0.21877052020E+04  0.50400001928E-02 0. -1.
        1   -1    0    0  501    0  0.00000000000E+00  0.00000000000E+00 -0.17184995184E+04  0.17184995184E+04  0.50400001928E-02 0.  1.
    10030    2    1    2    0    0  0.00000000000E+00  0.00000000000E+00  0.46920568358E+03  0.39062047204E+04  0.38779222973E+04 0.  0.
        1    1    3    3  502    0 -0.14832298492E+04  0.74018070369E+03  0.12477876221E+04  0.20748041376E+04  0.50400001928E-02 0. -1.
       -1    1    3    3    0  502  0.14832298492E+04 -0.74018070369E+03 -0.77858193855E+03  0.18314005828E+04  0.50400001928E-02 0.  1.
</event>
<event>
 5   0  0.2666813E-07  0.3935001E+04  0.7818609E-02  0.8017789E-01
        1   -1    0    0  501    0  0.00000000000E+00  0.00000000000E+00  0.26987736972E+04  0.26987736972E+04  0.50400001928E-02 0.  1.
       -1   -1    0    0    0  501  0.00000000000E+00  0.00000000000E+00 -0.14343764030E+04  0.14343764030E+04  0.50400001928E-02 0. -1.
    10030    2    1    2    0    0  0.00000000000E+00  0.00000000000E+00  0.12643972942E+04  0.41331501002E+04  0.39350005379E+04 0.  0.
        1    1    3    3  502    0  0.12275260792E+04 -0.39659581916E+03 -0.92818902082E+03  0.15892272894E+04  0.50400001928E-02 0. -1.
       -1    1    3    3    0  502 -0.12275260792E+04  0.39659581916E+03  0.21925863150E+04  0.25439228108E+04  0.50400001928E-02 0.  1.
</event>
<event>
 5   0  0.3078517E-07  0.2385195E+04  0.7818609E-02  0.8445067E-01
        1   -1    0    0  501    0  0.00000000000E+00  0.00000000000E+00  0.19560722138E+04  0.19560722138E+04  0.50400001928E-02 0. -1.
       -1   -1    0    0    0  501  0.00000000000E+00  0.00000000000E+00 -0.72711471980E+03  0.72711471982E+03  0.50400001928E-02 0.  1.
    10030    2    1    2    0    0  0.00000000000E+00  0.00000000000E+00  0.12289574940E+04  0.26831869336E+04  0.23851950861E+04 0.  0.
        1    1    3    3  502    0 -0.68961720267E+03 -0.89057452549E+03  0.17360504975E+03  0.11396638035E+04  0.50400001928E-02 0.  1.
       -1    1    3    3    0  502  0.68961720267E+03  0.89057452549E+03  0.10553524442E+04  0.15435231301E+04  0.50400001928E-02 0. -1.
</event>
<event>
 5   0  0.1943459E-07  0.3936089E+04  0.7818609E-02  0.8017565E-01
        1   -1    0    0  501    0  0.00000000000E+00  0.00000000000E+00  0.20092023582E+04  0.20092023582E+04  0.50400001928E-02 0.  1.
       -1   -1    0    0    0  501  0.00000000000E+00  0.00000000000E+00 -0.19277299454E+04  0.19277299454E+04  0.50400001928E-02 0. -1.
    10030    2    1    2    0    0  0.00000000000E+00  0.00000000000E+00  0.81472412787E+02  0.39369323037E+04  0.39360892025E+04 0.  0.
        2    1    3    3  502    0 -0.24900401975E+03 -0.16763671071E+04 -0.95997291121E+03  0.19477570870E+04  0.25500000920E-02 0.  1.
       -2    1    3    3    0  502  0.24900401975E+03  0.16763671071E+04  0.10414453240E+04  0.19891752167E+04  0.25500000920E-02 0. -1.
</event>
<event>
 5   0  0.1860500E-07  0.3943523E+04  0.7818609E-02  0.8016038E-01
        1   -1    0    0  501    0  0.00000000000E+00  0.00000000000E+00  0.14695065984E+04  0.14695065984E+04  0.50400001928E-02 0.  1.
       -1   -1    0    0    0  501  0.00000000000E+00  0.00000000000E+00 -0.26456792247E+04  0.26456792247E+04  0.50400001928E-02 0. -1.
    10030    2    1    2    0    0  0.00000000000E+00  0.00000000000E+00 -0.11761726263E+04  0.41151858231E+04  0.39435228302E+04 0.  0.
        4    1    3    3  502    0 -0.94362537964E+02 -0.18879980467E+04 -0.29638901073E+01  0.18903574557E+04  0.12699999809E+01 0.  1.
       -4    1    3    3    0  502  0.94362537964E+02  0.18879980467E+04 -0.11732087362E+04  0.22248283674E+04  0.12699999809E+01 0. -1.
</event>
<event>
 5   0  0.3959190E-07  0.3923966E+04  0.7818609E-02  0.8020063E-01
        2   -1    0    0  501    0  0.00000000000E+00  0.00000000000E+00  0.22864864602E+04  0.22864864602E+04  0.25500000920E-02 0.  1.
       -2   -1    0    0    0  501  0.00000000000E+00  0.00000000000E+00 -0.16835334015E+04  0.16835334015E+04  0.25500000920E-02 0. -1.
    10030    2    1    2    0    0  0.00000000000E+00  0.00000000000E+00  0.60295305869E+03  0.39700198617E+04  0.39239655084E+04 0.  0.
        2    1    3    3  502    0  0.79249014540E+03  0.81947956871E+02 -0.15125028043E+04  0.17095089445E+04  0.25500000920E-02 0. -1.
       -2    1    3    3    0  502 -0.79249014540E+03 -0.81947956871E+02  0.21154558630E+04  0.22605109172E+04  0.25500000920E-02 0.  1.
</event>
<event>
 5   0  0.5735179E-07  0.3386469E+04  0.7818609E-02  0.8141235E-01
       -2   -1    0    0    0  501  0.00000000000E+00  0.00000000000E+00  0.16511243790E+04  0.16511243790E+04  0.25500000920E-02 0. -1.
        2   -1    0    0  501    0  0.00000000000E+00  0.00000000000E+00 -0.17364185063E+04  0.17364185063E+04  0.25500000920E-02 0.  1.
    10030    2    1    2    0    0  0.00000000000E+00  0.00000000000E+00 -0.85294127298E+02  0.33875428853E+04  0.33864689149E+04 0.  0.
        5    1    3    3  502    0  0.70497653179E+03  0.14191729540E+03 -0.15760677862E+04  0.17323810741E+04  0.46999998093E+01 0.  1.
       -5    1    3    3    0  502 -0.70497653179E+03 -0.14191729540E+03  0.14907736589E+04  0.16551618112E+04  0.46999998093E+01 0. -1.
</event>
<event>
 5   0  0.1860500E-07  0.3311968E+04  0.7818609E-02  0.8159857E-01
       -1   -1    0    0    0  501  0.00000000000E+00  0.00000000000E+00  0.30870812458E+04  0.30870812458E+04  0.50400001928E-02 0.  1.
        1   -1    0    0  501    0  0.00000000000E+00  0.00000000000E+00 -0.88830923286E+03  0.88830923287E+03  0.50400001928E-02 0. -1.
    10030    2    1    2    0    0  0.00000000000E+00  0.00000000000E+00  0.21987720129E+04  0.39753904787E+04  0.33119678581E+04 0.  0.
        5    1    3    3  502    0  0.81671815589E+02 -0.16436565136E+04  0.87811282738E+03  0.18653099602E+04  0.46999998093E+01 0. -1.
       -5    1    3    3    0  502 -0.81671815589E+02  0.16436565136E+04  0.13206591856E+04  0.21100805185E+04  0.46999998093E+01 0.  1.
</event>
<event>
 5   0  0.6095665E-07  0.3900741E+04  0.7818609E-02  0.8024875E-01
        2   -1    0    0  501    0  0.00000000000E+00  0.00000000000E+00  0.20808705778E+04  0.20808705778E+04  0.25500000920E-02 0. -1.
       -2   -1    0    0    0  501  0.00000000000E+00  0.00000000000E+00 -0.18280544539E+04  0.18280544539E+04  0.25500000920E-02 0.  1.
    10030    2    1    2    0    0  0.00000000000E+00  0.00000000000E+00  0.25281612389E+03  0.39089250316E+04  0.39007408156E+04 0.  0.
        4    1    3    3  502    0  0.27904234021E+03 -0.15898622261E+04 -0.97061094630E+03  0.18835110161E+04  0.12699999809E+01 0. -1.
       -4    1    3    3    0  502 -0.27904234021E+03  0.15898622261E+04  0.12234270702E+04  0.20254140156E+04  0.12699999809E+01 0.  1.
</event>
<event>
 5   0  0.6095665E-07  0.3872622E+04  0.7818609E-02  0.8030748E-01
        2   -1    0    0  501    0  0.00000000000E+00  0.00000000000E+00  0.14875080260E+04  0.14875080260E+04  0.25500000920E-02 0.  1.
       -2   -1    0    0    0  501  0.00000000000E+00  0.00000000000E+00 -0.25205241396E+04  0.25205241396E+04  0.25500000920E-02 0. -1.
    10030    2    1    2    0    0  0.00000000000E+00  0.00000000000E+00 -0.10330161136E+04  0.40080321657E+04  0.38726217928E+04 0.  0.
        4    1    3    3  502    0 -0.50113840258E+03 -0.17860105029E+04 -0.10911939349E+04  0.21521335998E+04  0.12699999809E+01 0. -1.
       -4    1    3    3    0  502  0.50113840258E+03  0.17860105029E+04  0.58177821281E+02  0.18558985659E+04  0.12699999809E+01 0.  1.
</event>
<event>
 5   0  0.3959190E-07  0.4033105E+04  0.7818609E-02  0.7997901E-01
        2   -1    0    0  501    0  0.00000000000E+00  0.00000000000E+00  0.20059724196E+04  0.20059724196E+04  0.25500000920E-02 0. -1.
       -2   -1    0    0    0  501  0.00000000000E+00  0.00000000000E+00 -0.20271879499E+04  0.20271879499E+04  0.25500000920E-02 0.  1.
    10030    2    1    2    0    0  0.00000000000E+00  0.00000000000E+00 -0.21215530337E+02  0.40331603695E+04  0.40331045694E+04 0.  0.
        2    1    3    3  502    0  0.15166675519E+04  0.41522251301E+03 -0.12730803474E+04  0.20232211370E+04  0.25500000920E-02 0.  1.
       -2    1    3    3    0  502 -0.15166675519E+04 -0.41522251301E+03  0.12518648170E+04  0.20099392325E+04  0.25500000920E-02 0. -1.
</event>
<event>
 5   0  0.5735179E-07  0.3963171E+04  0.7818609E-02  0.8012018E-01
        2   -1    0    0  501    0  0.00000000000E+00  0.00000000000E+00  0.25039525824E+04  0.25039525824E+04  0.25500000920E-02 0.  1.
       -2   -1    0    0    0  501  0.00000000000E+00  0.00000000000E+00 -0.15681929010E+04  0.15681929010E+04  0.25500000920E-02 0. -1.
    10030    2    1    2    0    0  0.00000000000E+00  0.00000000000E+00  0.93575968135E+03  0.40721454834E+04  0.39631707832E+04 0.  0.
        5    1    3    3  502    0  0.21946768235E+03 -0.34931210457E+02  0.24911023600E+04  0.25009996623E+04  0.46999998093E+01 0.  1.
       -5    1    3    3    0  502 -0.21946768235E+03  0.34931210457E+02 -0.15553426786E+04  0.15711458210E+04  0.46999998093E+01 0. -1.
</event>
<event>
 5   0  0.1943459E-07  0.3957448E+04  0.7818609E-02  0.8013186E-01
       -1   -1    0    0    0  501  0.00000000000E+00  0.00000000000E+00  0.16313979667E+04  0.16313979667E+04  0.50400001928E-02 0.  1.
        1   -1    0    0  501    0  0.00000000000E+00  0.00000000000E+00 -0.23999956610E+04  0.23999956610E+04  0.50400001928E-02 0. -1.
    10030    2    1    2    0    0  0.00000000000E+00  0.00000000000E+00 -0.76859769428E+03  0.40313936277E+04  0.39574476833E+04 0.  0.
        2    1    3    3  502    0  0.14658749519E+04  0.95526733577E+02  0.96615407694E+03  0.17582287768E+04  0.25500000920E-02 0.  1.
       -2    1    3    3    0  502 -0.14658749519E+04 -0.95526733577E+02 -0.17347517712E+04  0.22731648508E+04  0.25500000920E-02 0. -1.
</event>
<event>
 5   0  0.5805753E-07  0.2716935E+04  0.7818609E-02  0.8329531E-01
        2   -1    0    0  501    0  0.00000000000E+00  0.00000000000E+00  0.16770653576E+04  0.16770653576E+04  0.25500000920E-02 0. -1.
       -2   -1    0    0    0  501  0.00000000000E+00  0.00000000000E+00 -0.11003946661E+04  0.11003946661E+04  0.25500000920E-02 0.  1.
    10030    2    1    2    0    0  0.00000000000E+00  0.00000000000E+00  0.57667069156E+03  0.27774600237E+04  0.27169348717E+04 0.  0.
        1    1    3    3  502    0  0.84733557734E+03 -0.10557832402E+04  0.17277759822E+03  0.13647373115E+04  0.50400001928E-02 0. -1.
       -1    1    3    3    0  502 -0.84733557734E+03  0.10557832402E+04  0.40389309334E+03  0.14127227123E+04  0.50400001928E-02 0.  1.
</event>
<event>
 5   0  0.1860500E-07  0.3951100E+04  0.7818609E-02  0.8014484E-01
        1   -1    0    0  501    0  0.00000000000E+00  0.00000000000E+00  0.12801407959E+04  0.12801407959E+04  0.50400001928E-02 0.  1.
       -1   -1    0    0    0  501  0.00000000000E+00  0.00000000000E+00 -0.30487258414E+04  0.30487258414E+04  0.50400001928E-02 0. -1.
    10030    2    1    2    0    0  0.00000000000E+00  0.00000000000E+00 -0.17685850455E+04  0.43288666374E+04  0.39511002646E+04 0.  0.
        4    1    3    3  502    0 -0.13490456382E+04 -0.77894003141E+03 -0.22154141033E+04  0.27082712140E+04  0.12699999809E+01 0. -1.
       -4    1    3    3    0  502  0.13490456382E+04  0.77894003141E+03  0.44682905777E+03  0.16205954234E+04  0.12699999809E+01 0.  1.
</event>
<event>
 5   0  0.5735179E-07  0.3928160E+04  0.7818609E-02  0.8019198E-01
        2   -1    0    0  501    0  0.00000000000E+00  0.00000000000E+00  0.26012895287E+04  0.26012895287E+04  0.25500000920E-02 0.  1.
       -2   -1    0    0    0  501  0.00000000000E+00  0.00000000000E+00 -0.14829610334E+04  0.14829610334E+04  0.25500000920E-02 0. -1.
    10030    2    1    2    0    0  0.00000000000E+00  0.00000000000E+00  0.11183284953E+04  0.40842505621E+04  0.39281603876E+04 0.  0.
        5    1    3    3  502    0 -0.60261634723E+03 -0.37311467123E+03 -0.13453497886E+04  0.15206410371E+04  0.46999998093E+01 0. -1.
       -5    1    3    3    0  502  0.60261634723E+03  0.37311467123E+03  0.24636782840E+04  0.25636095250E+04  0.46999998093E+01 0.  1.
</event>
<event>
 5   0  0.2666813E-07  0.3882714E+04  0.7818609E-02  0.8028634E-01
       -1   -1    0    0    0  501  0.00000000000E+00  0.00000000000E+00  0.16593990477E+04  0.16593990477E+04  0.50400001928E-02 0. -1.
        1   -1    0    0  501    0  0.00000000000E+00  0.00000000000E+00 -0.22712237061E+04  0.22712237062E+04  0.50400001928E-02 0.  1.
    10030    2    1    2    0    0  0.00000000000E+00  0.00000000000E+00 -0.61182465849E+03  0.39306227538E+04  0.38827137185E+04 0.  0.
        1    1    3    3  502    0 -0.16556667262E+03 -0.44206730754E+03 -0.22122386089E+04  0.22620423272E+04  0.50400001928E-02 0.  1.
       -1    1    3    3    0  502  0.16556667262E+03  0.44206730754E+03  0.16004139504E+04  0.16685804266E+04  0.50400001928E-02 0. -1.
</event>
<event>
 5   0  0.1860500E-07  0.3742986E+04  0.7818609E-02  0.8058502E-01
        1   -1    0    0  501    0  0.00000000000E+00  0.00000000000E+00  0.14692494325E+04  0.14692494325E+04  0.50400001928E-02 0.  1.
       -1   -1    0    0    0  501  0.00000000000E+00  0.00000000000E+00 -0.23838612754E+04  0.23838612755E+04  0.50400001928E-02 0. -1.
    10030    2    1    2    0    0  0.00000000000E+00  0.00000000000E+00 -0.91461184295E+03  0.38531107080E+04  0.37429864152E+04 0.  0.
        5    1    3    3  502    0  0.10564494023E+04  0.14896665067E+04 -0.87832936927E+03  0.20264935755E+04  0.46999998093E+01 0.  1.
       -5    1    3    3    0  502 -0.10564494023E+04 -0.14896665067E+04 -0.36282473686E+02  0.18266171324E+04  0.46999998093E+01 0. -1.
</event>
<event>
 5   0  0.5735179E-07  0.3534126E+04  0.7818609E-02  0.8105750E-01
        2   -1    0    0  501    0  0.00000000000E+00  0.00000000000E+00  0.15533058060E+04  0.15533058060E+04  0.25500000920E-02 0. -1.
       -2   -1    0    0    0  501  0.00000000000E+00  0.00000000000E+00 -0.20102367782E+04  0.20102367782E+04  0.25500000920E-02 0.  1.
    10030    2    1    2    0    0  0.00000000000E+00  0.00000000000E+00 -0.45693097221E+03  0.35635425841E+04  0.35341264600E+04 0.  0.
        5    1    3    3  502    0  0.40189340485E+03  0.60901101160E+03 -0.18512328294E+04  0.19898486876E+04  0.46999998093E+01 0.  1.
       -5    1    3    3    0  502 -0.40189340485E+03 -0.60901101160E+03  0.13943018571E+04  0.15736938965E+04  0.46999998093E+01 0. -1.
</event>
<event>
 5   0  0.6095665E-07  0.3522583E+04  0.7818609E-02  0.8108459E-01
       -2   -1    0    0    0  501  0.00000000000E+00  0.00000000000E+00  0.17419342969E+04  0.17419342969E+04  0.25500000920E-02 0.  1.
        2   -1    0    0  501    0  0.00000000000E+00  0.00000000000E+00 -0.17808634363E+04  0.17808634363E+04  0.25500000920E-02 0. -1.
    10030    2    1    2    0    0  0.00000000000E+00  0.00000000000E+00 -0.38929139369E+02  0.35227977333E+04  0.35225826309E+04 0.  0.
        4    1    3    3  502    0  0.83568090069E+03  0.43479169237E+02 -0.15693632198E+04  0.17785262254E+04  0.12699999809E+01 0. -1.
       -4    1    3    3    0  502 -0.83568090069E+03 -0.43479169237E+02  0.15304340804E+04  0.17442715079E+04  0.12699999809E+01 0.  1.
</event>
<event>
 5   0  0.5872444E-07  0.4070521E+04  0.7818609E-02  0.7990469E-01
        2   -1    0    0  501    0  0.00000000000E+00  0.00000000000E+00  0.24753596497E+04  0.24753596497E+04  0.25500000920E-02 0. -1.
       -2   -1    0    0    0  501  0.00000000000E+00  0.00000000000E+00 -0.16734077978E+04  0.16734077978E+04  0.25500000920E-02 0.  1.
    10030    2    1    2    0    0  0.00000000000E+00  0.00000000000E+00  0.80195185188E+03  0.41487674475E+04  0.40705214114E+04 0.  0.
        3    1    3    3  502    0  0.18769784027E+04  0.55422881234E+03 -0.16839345078E+03  0.19643252951E+04  0.10100000352E+00 0.  1.
       -3    1    3    3    0  502 -0.18769784027E+04 -0.55422881234E+03  0.97034530266E+03  0.21844421524E+04  0.10100000352E+00 0. -1.
</event>
<event>
 5   0  0.2666813E-07  0.2750715E+04  0.7818609E-02  0.8318735E-01
       -1   -1    0    0    0  501  0.00000000000E+00  0.00000000000E+00  0.13949597208E+04  0.13949597208E+04  0.50400001928E-02 0. -1.
        1   -1    0    0  501    0  0.00000000000E+00  0.00000000000E+00 -0.13560311926E+04  0.13560311926E+04  0.50400001928E-02 0.  1.
    10030    2    1    2    0    0  0.00000000000E+00  0.00000000000E+00  0.38928528164E+02  0.27509909134E+04  0.27507154661E+04 0.  0.
        1    1    3    3  502    0 -0.84375045157E+03  0.33269352712E+03  0.10534967544E+04  0.13901277707E+04  0.50400001928E-02 0. -1.
       -1    1    3    3    0  502  0.84375045157E+03 -0.33269352712E+03 -0.10145682262E+04  0.13608631427E+04  0.50400001928E-02 0.  1.
</event>
<event>
 5   0  0.1943459E-07  0.3727321E+04  0.7818609E-02  0.8061934E-01
        1   -1    0    0  501    0  0.00000000000E+00  0.00000000000E+00  0.13835498877E+04  0.13835498878E+04  0.50400001928E-02 0. -1.
       -1   -1    0    0    0  501  0.00000000000E+00  0.00000000000E+00 -0.25103761522E+04  0.25103761522E+04  0.50400001928E-02 0.  1.
    10030    2    1    2    0    0  0.00000000000E+00  0.00000000000E+00 -0.11268262645E+04  0.38939260400E+04  0.37273210989E+04 0.  0.
        2    1    3    3  502    0  0.50420817523E+03 -0.87514929078E+03  0.10728387255E+04  0.14734636392E+04  0.25500000920E-02 0. -1.
       -2    1    3    3    0  502 -0.50420817523E+03  0.87514929078E+03 -0.21996649900E+04  0.24204624008E+04  0.25500000920E-02 0.  1.
</event>
<event>
 5   0  0.1860500E-07  0.3756040E+04  0.7818609E-02  0.8055655E-01
       -1   -1    0    0    0  501  0.00000000000E+00  0.00000000000E+00  0.18882779217E+04  0.18882779217E+04  0.50400001928E-02 0. -1.
        1   -1    0    0  501    0  0.00000000000E+00  0.00000000000E+00 -0.18678180993E+04  0.18678180993E+04  0.50400001928E-02 0.  1.
    10030    2    1    2    0    0  0.00000000000E+00  0.00000000000E+00  0.20459822397E+02  0.37560960210E+04  0.37560402972E+04 0.  0.
        4    1    3    3  502    0 -0.95616969627E+03  0.72062778994E+03  0.14571076810E+04  0.18859292952E+04  0.12699999809E+01 0. -1.
       -4    1    3    3    0  502  0.95616969627E+03 -0.72062778994E+03 -0.14366478586E+04  0.18701667258E+04  0.12699999809E+01 0.  1.
</event>
<event>
 5   0  0.2213490E-07  0.2499754E+04  0.7818609E-02  0.8403073E-01
        1   -1    0    0  501    0  0.00000000000E+00  0.00000000000E+00  0.14097425700E+04  0.14097425700E+04  0.50400001928E-02 0.  1.
       -1   -1    0    0    0  501  0.00000000000E+00  0.00000000000E+00 -0.11081401100E+04  0.11081401100E+04  0.50400001928E-02 0. -1.
    10030    2    1    2    0    0  0.00000000000E+00  0.00000000000E+00  0.30160246000E+03  0.25178826800E+04  0.24997538172E+04 0.  0.
        2    1    3    3  502    0 -0.50531854942E+03 -0.32248171321E+03 -0.95389829193E+03  0.11266158365E+04  0.25500000920E-02 0. -1.
       -2    1    3    3    0  502  0.50531854942E+03  0.32248171321E+03  0.12555007519E+04  0.13912668435E+04  0.25500000920E-02 0.  1.
</event>
<event>
 5   0  0.1876027E-07  0.3947089E+04  0.7818609E-02  0.8015306E-01
       -1   -1    0    0    0  501  0.00000000000E+00  0.00000000000E+00  0.22610725824E+04  0.22610725824E+04  0.50400001928E-02 0. -1.
        1   -1    0    0  501    0  0.00000000000E+00  0.00000000000E+00 -0.17225796771E+04  0.17225796771E+04  0.50400001928E-02 0.  1.
    10030    2    1    2    0    0  0.00000000000E+00  0.00000000000E+00  0.53849290533E+03  0.39836522595E+04  0.39470888912E+04 0.  0.
        3    1    3    3  502    0  0.12034393726E+04  0.15542493157E+04  0.91775560066E+02  0.19678363810E+04  0.10100000352E+00 0.  1.
       -3    1    3    3    0  502 -0.12034393726E+04 -0.15542493157E+04  0.44671734526E+03  0.20158158784E+04  0.10100000352E+00 0. -1.
</event>
<event>
 5   0  0.5805753E-07  0.3848467E+04  0.7818609E-02  0.8035833E-01
        2   -1    0    0  501    0  0.00000000000E+00  0.00000000000E+00  0.24317497469E+04  0.24317497469E+04  0.25500000920E-02 0. -1.
       -2   -1    0    0    0  501  0.00000000000E+00  0.00000000000E+00 -0.15226379725E+04  0.15226379725E+04  0.25500000920E-02 0.  1.
    10030    2    1    2    0    0  0.00000000000E+00  0.00000000000E+00  0.90911177440E+03  0.39543877193E+04  0.38484669696E+04 0.  0.
        1    1    3    3  502    0  0.41345121079E+02 -0.13123580396E+04  0.18999271895E+04  0.23094840048E+04  0.50400001928E-02 0. -1.
       -1    1    3    3    0  502 -0.41345121079E+02  0.13123580396E+04 -0.99081541510E+03  0.16449037145E+04  0.50400001928E-02 0.  1.
</event>
<event>
 5   0  0.1860500E-07  0.2569488E+04  0.7818609E-02  0.8378640E-01
        1   -1    0    0  501    0  0.00000000000E+00  0.00000000000E+00  0.21744269425E+04  0.21744269425E+04  0.50400001928E-02 0. -1.
       -1   -1    0    0    0  501  0.00000000000E+00  0.00000000000E+00 -0.75908144437E+03  0.75908144439E+03  0.50400001928E-02 0.  1.
    10030    2    1    2    0    0  0.00000000000E+00  0.00000000000E+00  0.14153454981E+04  0.29335083869E+04  0.25694879990E+04 0.  0.
        5    1    3    3  502    0 -0.92870699828E+03  0.87474716043E+03  0.88030966319E+03  0.15500472497E+04  0.46999998093E+01 0. -1.
       -5    1    3    3    0  502  0.92870699828E+03 -0.87474716043E+03  0.53503583493E+03  0.13834611371E+04  0.46999998093E+01 0.  1.
</event>
<event>
 5   0  0.3959190E-07  0.2743973E+04  0.7818609E-02  0.8320877E-01
        2   -1    0    0  501    0  0.00000000000E+00  0.00000000000E+00  0.31656171473E+04  0.31656171473E+04  0.25500000920E-02 0.  1.
       -2   -1    0    0    0  501  0.00000000000E+00  0.00000000000E+00 -0.59462259711E+03  0.59462259712E+03  0.25500000920E-02 0. -1.
    10030    2    1    2    0    0  0.00000000000E+00  0.00000000000E+00  0.25709945502E+04  0.37602397444E+04  0.27439733888E+04 0.  0.
        2    1    3    3  502    0 -0.56588530010E+03  0.10361225479E+04  0.22433520151E+04  0.25350353786E+04  0.25500000920E-02 0.  1.
       -2    1    3    3    0  502  0.56588530010E+03 -0.10361225479E+04  0.32764253502E+03  0.12252043658E+04  0.25500000920E-02 0. -1.
</event>
<event>
 5   0  0.1943459E-07  0.3679254E+04  0.7818609E-02  0.8072575E-01
       -1   -1    0    0    0  501  0.00000000000E+00  0.00000000000E+00  0.19309629450E+04  0.19309629450E+04  0.50400001928E-02 0. -1.
        1   -1    0    0  501    0  0.00000000000E+00  0.00000000000E+00 -0.17526109276E+04  0.17526109276E+04  0.50400001928E-02 0.  1.
    10030    2    1    2    0    0  0.00000000000E+00  0.00000000000E+00  0.17835201741E+03  0.36835738725E+04  0.36792535972E+04 0.  0.
        2    1    3    3  502    0 -0.18304854630E+04  0.42577951778E+02  0.26753357714E+03  0.18504226887E+04  0.25500000920E-02 0.  1.
       -2    1    3    3    0  502  0.18304854630E+04 -0.42577951778E+02 -0.89181559732E+02  0.18331511838E+04  0.25500000920E-02 0. -1.
</event>
<event>
 5   0  0.5872444E-07  0.3897851E+04  0.7818609E-02  0.8025476E-01
       -2   -1    0    0    0  501  0.00000000000E+00  0.00000000000E+00  0.15575650031E+04  0.15575650031E+04  0.25500000920E-02 0. -1.
        2   -1    0    0  501    0  0.00000000000E+00  0.00000000000E+00 -0.24386211756E+04  0.24386211756E+04  0.25500000920E-02 0.  1.
    10030    2    1    2    0    0  0.00000000000E+00  0.00000000000E+00 -0.88105617251E+03  0.39961861786E+04  0.38978512023E+04 0.  0.
        3    1    3    3  502    0 -0.20282967396E+02  0.18858195935E+04 -0.94443995386E+03  0.21091926832E+04  0.10100000352E+00 0.  1.
       -3    1    3    3    0  502  0.20282967396E+02 -0.18858195935E+04  0.63383781355E+02  0.18869934955E+04  0.10100000352E+00 0. -1.
</event>
<event>
 5   0  0.1860500E-07  0.3866239E+04  0.7818609E-02  0.8032088E-01
       -1   -1    0    0    0  501  0.00000000000E+00  0.00000000000E+00  0.19476698986E+04  0.19476698986E+04  0.50400001928E-02 0.  1.
        1   -1    0    0  501    0  0.00000000000E+00  0.00000000000E+00 -0.19186775427E+04  0.19186775427E+04  0.50400001928E-02 0. -1.
    10030    2    1    2    0    0  0.00000000000E+00  0.00000000000E+00  0.28992355846E+02  0.38663474413E+04  0.38662387381E+04 0.  0.
        4    1    3    3  502    0 -0.11595547558E+04  0.78307240076E+03  0.13483924685E+04  0.19431761316E+04  0.12699999809E+01 0.  1.
       -4    1    3    3    0  502  0.11595547558E+04 -0.78307240076E+03 -0.13194001126E+04  0.19231713097E+04  0.12699999809E+01 0. -1.
</event>
<event>
 5   0  0.5805753E-07  0.3765476E+04  0.7818609E-02  0.8053604E-01
       -2   -1    0    0    0  501  0.00000000000E+00  0.00000000000E+00  0.19428467205E+04  0.19428467205E+04  0.25500000920E-02 0. -1.
        2   -1    0    0  501    0  0.00000000000E+00  0.00000000000E+00 -0.18244893949E+04  0.18244893949E+04  0.25500000920E-02 0.  1.
    10030    2    1    2    0    0  0.00000000000E+00  0.00000000000E+00  0.11835732561E+03  0.37673361153E+04  0.37654764572E+04 0.  0.
        1    1    3    3  502    0 -0.16610452174E+04 -0.25071468588E+03  0.90975979330E+03  0.19103905228E+04  0.50400001928E-02 0. -1.
       -1    1    3    3    0  502  0.16610452174E+04  0.25071468588E+03 -0.79140246769E+03  0.18569455926E+04  0.50400001928E-02 0.  1.
</event>
<event>
 5   0  0.1876027E-07  0.3817638E+04  0.7818609E-02  0.8042380E-01
       -1   -1    0    0    0  501  0.00000000000E+00  0.00000000000E+00  0.15135906237E+04  0.15135906237E+04  0.50400001928E-02 0.  1.
        1   -1    0    0  501    0  0.00000000000E+00  0.00000000000E+00 -0.24072491159E+04  0.24072491159E+04  0.50400001928E-02 0. -1.
    10030    2    1    2    0    0  0.00000000000E+00  0.00000000000E+00 -0.89365849222E+03  0.39208397395E+04  0.38176378511E+04 0.  0.
        3    1    3    3  502    0  0.51462488483E+03  0.18330369459E+04 -0.58737322556E+03  0.19924533955E+04  0.10100000352E+00 0. -1.
       -3    1    3    3    0  502 -0.51462488483E+03 -0.18330369459E+04 -0.30628526667E+03  0.19283863440E+04  0.10100000352E+00 0.  1.
</event>
<event>
 5   0  0.1860500E-07  0.3912901E+04  0.7818609E-02  0.8022351E-01
       -1   -1    0    0    0  501  0.00000000000E+00  0.00000000000E+00  0.23946882135E+04  0.23946882135E+04  0.50400001928E-02 0. -1.
        1   -1    0    0  501    0  0.00000000000E+00  0.00000000000E+00 -0.15984116795E+04  0.15984116795E+04  0.50400001928E-02 0.  1.
    10030    2    1    2    0    0  0.00000000000E+00  0.00000000000E+00  0.79627653404E+03  0.39930998930E+04  0.39129005145E+04 0.  0.
        5    1    3    3  502    0  0.29735314727E+03  0.97185363373E+03  0.21041554688E+04  0.23367521705E+04  0.46999998093E+01 0. -1.
       -5    1    3    3    0  502 -0.29735314727E+03 -0.97185363373E+03 -0.13078789348E+04  0.16563477224E+04  0.46999998093E+01 0.  1.
</event>
<event>
 5   0  0.1876027E-07  0.3303104E+04  0.7818609E-02  0.8162106E-01
       -1   -1    0    0    0  501  0.00000000000E+00  0.00000000000E+00  0.98400518688E+03  0.98400518689E+03  0.50400001928E-02 0. -1.
        1   -1    0    0  501    0  0.00000000000E+00  0.00000000000E+00 -0.27719617448E+04  0.27719617448E+04  0.50400001928E-02 0.  1.
    10030    2    1    2    0    0  0.00000000000E+00  0.00000000000E+00 -0.17879565579E+04  0.37559669317E+04  0.33031044396E+04 0.  0.
        3    1    3    3  502    0  0.15540659915E+04  0.54008932654E+03 -0.10580016099E+04  0.19560636501E+04  0.10100000352E+00 0. -1.
       -3    1    3    3    0  502 -0.15540659915E+04 -0.54008932654E+03 -0.72995494797E+03  0.17999032815E+04  0.10100000352E+00 0.  1.
</event>
<event>
 5   0  0.5872444E-07  0.3908919E+04  0.7818609E-02  0.8023177E-01
       -2   -1    0    0    0  501  0.00000000000E+00  0.00000000000E+00  0.15764654888E+04  0.15764654888E+04  0.25500000920E-02 0. -1.
        2   -1    0    0  501    0  0.00000000000E+00  0.00000000000E+00 -0.24230867627E+04  0.24230867627E+04  0.25500000920E-02 0.  1.
    10030    2    1    2    0    0  0.00000000000E+00  0.00000000000E+00 -0.84662127390E+03  0.39995522514E+04  0.39089193686E+04 0.  0.
        3    1    3    3  502    0 -0.12022830287E+03 -0.13148048609E+04 -0.18978159850E+04  0.23118979628E+04  0.10100000352E+00 0.  1.
       -3    1    3    3    0  502  0.12022830287E+03  0.13148048609E+04  0.10511947111E+04  0.16876542887E+04  0.10100000352E+00 0. -1.
</event>
<event>
 5   0  0.5805753E-07  0.3876618E+04  0.7818609E-02  0.8029910E-01
        2   -1    0    0  501    0  0.00000000000E+00  0.00000000000E+00  0.21369375802E+04  0.21369375802E+04  0.25500000920E-02 0. -1.
       -2   -1    0    0    0  501  0.00000000000E+00  0.00000000000E+00 -0.17581425457E+04  0.17581425457E+04  0.25500000920E-02 0.  1.
    10030    2    1    2    0    0  0.00000000000E+00  0.00000000000E+00  0.37879503446E+03  0.38950801259E+04  0.38766175345E+04 0.  0.
        1    1    3    3  502    0 -0.54869009030E+02 -0.11686856648E+04  0.17421390108E+04  0.20985435721E+04  0.50400001928E-02 0.  1.
       -1    1    3    3    0  502  0.54869009030E+02  0.11686856648E+04 -0.13633439763E+04  0.17965365538E+04  0.50400001928E-02 0. -1.
</event>
<event>
 5   0  0.6095665E-07  0.3103598E+04  0.7818609E-02  0.8214751E-01
       -2   -1    0    0    0  501  0.00000000000E+00  0.00000000000E+00  0.11215026512E+04  0.11215026512E+04  0.25500000920E-02 0. -1.
        2   -1    0    0  501    0  0.00000000000E+00  0.00000000000E+00 -0.21471910233E+04  0.21471910233E+04  0.25500000920E-02 0.  1.
    10030    2    1    2    0    0  0.00000000000E+00  0.00000000000E+00 -0.10256883721E+04  0.32686936745E+04  0.31035981861E+04 0.  0.
        4    1    3    3  502    0 -0.30931415571E+03  0.77621521964E+03 -0.18900322933E+04  0.20664967933E+04  0.12699999809E+01 0.  1.
       -4    1    3    3    0  502  0.30931415571E+03 -0.77621521964E+03  0.86434392120E+03  0.12021968812E+04  0.12699999809E+01 0. -1.
</event>
<event>
 5   0  0.1943459E-07  0.3239838E+04  0.7818609E-02  0.8178374E-01
       -1   -1    0    0    0  501  0.00000000000E+00  0.00000000000E+00  0.28166323933E+04  0.28166323933E+04  0.50400001928E-02 0. -1.
        1   -1    0    0  501    0  0.00000000000E+00  0.00000000000E+00 -0.93165807426E+03  0.93165807427E+03  0.50400001928E-02 0.  1.
    10030    2    1    2    0    0  0.00000000000E+00  0.00000000000E+00  0.18849743190E+04  0.37482904675E+04  0.32398384598E+04 0.  0.
        2    1    3    3  502    0 -0.63343524202E+03 -0.92570498980E+03 -0.40967944175E+03  0.11941554250E+04  0.25500000920E-02 0.  1.
       -2    1    3    3    0  502  0.63343524202E+03  0.92570498980E+03  0.22946537608E+04  0.25541350426E+04  0.25500000920E-02 0. -1.
</event>
<event>
 5   0  0.5735179E-07  0.4236637E+04  0.7818609E-02  0.7958440E-01
        2   -1    0    0  501    0  0.00000000000E+00  0.00000000000E+00  0.16959809483E+04  0.16959809483E+04  0.25500000920E-02 0. -1.
       -2   -1    0    0    0  501  0.00000000000E+00  0.00000000000E+00 -0.26458273709E+04  0.26458273709E+04  0.25500000920E-02 0.  1.
    10030    2    1    2    0    0  0.00000000000E+00  0.00000000000E+00 -0.94984642259E+03  0.43418083191E+04  0.42366367857E+04 0.  0.
        5    1    3    3  502    0 -0.96553741537E+03 -0.49403451689E+03 -0.23396861703E+04  0.25788536349E+04  0.46999998093E+01 0.  1.
       -5    1    3    3    0  502  0.96553741537E+03  0.49403451689E+03  0.13898397478E+04  0.17629546843E+04  0.46999998093E+01 0. -1.
</event>
<event>
 5   0  0.3959190E-07  0.3775119E+04  0.7818609E-02  0.8051515E-01
       -2   -1    0    0    0  501  0.00000000000E+00  0.00000000000E+00  0.16376144969E+04  0.16376144969E+04  0.25500000920E-02 0.  1.
        2   -1    0    0  501    0  0.00000000000E+00  0.00000000000E+00 -0.21756534970E+04  0.21756534970E+04  0.25500000920E-02 0. -1.
    10030    2    1    2    0    0  0.00000000000E+00  0.00000000000E+00 -0.53803900005E+03  0.38132679939E+04  0.37751194455E+04 0.  0.
        2    1    3    3  502    0  0.51811976670E+03  0.18124470687E+04 -0.17072614993E+03  0.18927651433E+04  0.25500000920E-02 0. -1.
       -2    1    3    3    0  502 -0.51811976670E+03 -0.18124470687E+04 -0.36731285012E+03  0.19205028506E+04  0.25500000920E-02 0.  1.
</event>
<event>
 5   0  0.1860500E-07  0.2976573E+04  0.7818609E-02  0.8250452E-01
       -1   -1    0    0    0  501  0.00000000000E+00  0.00000000000E+00  0.19348049076E+04  0.19348049076E+04  0.50400001928E-02 0.  1.
        1   -1    0    0  501    0  0.00000000000E+00  0.00000000000E+00 -0.11448165414E+04  0.11448165414E+04  0.50400001928E-02 0. -1.
    10030    2    1    2    0    0  0.00000000000E+00  0.00000000000E+00  0.78998836625E+03  0.30796214490E+04  0.29765729708E+04 0.  0.
        5    1    3    3  502    0  0.96823116166E+03 -0.62956840775E+03 -0.57619735409E+03  0.12906794502E+04  0.46999998093E+01 0. -1.
       -5    1    3    3    0  502 -0.96823116166E+03  0.62956840775E+03  0.13661857203E+04  0.17889419987E+04  0.46999998093E+01 0.  1.
</event>
<event>
 5   0  0.1860500E-07  0.3000825E+04  0.7818609E-02  0.8243495E-01
        1   -1    0    0  501    0  0.00000000000E+00  0.00000000000E+00  0.17639742476E+04  0.17639742476E+04  0.50400001928E-02 0.  1.
       -1   -1    0    0    0  501  0.00000000000E+00  0.00000000000E+00 -0.12762300626E+04  0.12762300626E+04  0.50400001928E-02 0. -1.
    10030    2    1    2    0    0  0.00000000000E+00  0.00000000000E+00  0.48774418494E+03  0.30402043102E+04  0.30008245296E+04 0.  0.
        4    1    3    3  502    0 -0.14293114677E+04 -0.16348345760E+03 -0.18783866749E+03  0.14508422004E+04  0.12699999809E+01 0. -1.
       -4    1    3    3    0  502  0.14293114677E+04  0.16348345760E+03  0.67558285244E+03  0.15893621098E+04  0.12699999809E+01 0.  1.
</event>
<event>
 5   0  0.1876027E-07  0.3854692E+04  0.7818609E-02  0.8034519E-01
       -1   -1    0    0    0  501  0.00000000000E+00  0.00000000000E+00  0.17781252620E+04  0.17781252621E+04  0.50400001928E-02 0.  1.
        1   -1    0    0  501    0  0.00000000000E+00  0.00000000000E+00 -0.20890889879E+04  0.20890889879E+04  0.50400001928E-02 0. -1.
    10030    2    1    2    0    0  0.00000000000E+00  0.00000000000E+00 -0.31096372581E+03  0.38672142499E+04  0.38546916369E+04 0.  0.
        3    1    3    3  502    0 -0.66537520944E+03 -0.18082787375E+04 -0.20107983813E+03  0.19372736703E+04  0.10100000352E+00 0.  1.
       -3    1    3    3    0  502  0.66537520944E+03  0.18082787375E+04 -0.10988388767E+03  0.19299405796E+04  0.10100000352E+00 0. -1.
</event>
<event>
 5   0  0.1860500E-07  0.3895652E+04  0.7818609E-02  0.8025934E-01
        1   -1    0    0  501    0  0.00000000000E+00  0.00000000000E+00  0.24242407511E+04  0.24242407511E+04  0.50400001928E-02 0. -1.
       -1   -1    0    0    0  501  0.00000000000E+00  0.00000000000E+00 -0.15650367320E+04  0.15650367320E+04  0.50400001928E-02 0.  1.
    10030    2    1    2    0    0  0.00000000000E+00  0.00000000000E+00  0.85920401917E+03  0.39892774831E+04  0.38956518441E+04 0.  0.
        5    1    3    3  502    0  0.89934689471E+03 -0.15141078461E+04  0.12818637866E+04  0.21781974805E+04  0.46999998093E+01 0.  1.
       -5    1    3    3    0  502 -0.89934689471E+03  0.15141078461E+04 -0.42265976741E+03  0.18110800026E+04  0.46999998093E+01 0. -1.
</event>
<event>
 5   0  0.3959190E-07  0.3931276E+04  0.7818609E-02  0.8018556E-01
       -2   -1    0    0    0  501  0.00000000000E+00  0.00000000000E+00  0.19503013103E+04  0.19503013103E+04  0.25500000920E-02 0.  1.
        2   -1    0    0  501    0  0.00000000000E+00  0.00000000000E+00 -0.19810954665E+04  0.19810954665E+04  0.25500000920E-02 0. -1.
    10030    2    1    2    0    0  0.00000000000E+00  0.00000000000E+00 -0.30794156203E+02  0.39313967768E+04  0.39312761715E+04 0.  0.
        2    1    3    3  502    0  0.18791189500E+04  0.57560201327E+03 -0.51831397105E+02  0.19659837740E+04  0.25500000920E-02 0.  1.
       -2    1    3    3    0  502 -0.18791189500E+04 -0.57560201327E+03  0.21037240902E+02  0.19654130028E+04  0.25500000920E-02 0. -1.
</event>
<event>
 5   0  0.3959190E-07  0.3634112E+04  0.7818609E-02  0.8082722E-01
        2   -1    0    0  501    0  0.00000000000E+00  0.00000000000E+00  0.15400195775E+04  0.15400195775E+04  0.25500000920E-02 0. -1.
       -2   -1    0    0    0  501  0.00000000000E+00  0.00000000000E+00 -0.21439286199E+04  0.21439286199E+04  0.25500000920E-02 0.  1.
    10030    2    1    2    0    0  0.00000000000E+00  0.00000000000E+00 -0.60390904239E+03  0.36839481975E+04  0.36341117471E+04 0.  0.
        2    1    3    3  502    0 -0.58934731658E+03  0.91591116987E+03 -0.17763653787E+04  0.20836740362E+04  0.25500000920E-02 0.  1.
       -2    1    3    3    0  502  0.58934731658E+03 -0.91591116987E+03  0.11724563363E+04  0.16002741613E+04  0.25500000920E-02 0. -1.
</event>
<event>
 5   0  0.1860500E-07  0.3637113E+04  0.7818609E-02  0.8082043E-01
       -1   -1    0    0    0  501  0.00000000000E+00  0.00000000000E+00  0.11195180034E+04  0.11195180034E+04  0.50400001928E-02 0. -1.
        1   -1    0    0  501    0  0.00000000000E+00  0.00000000000E+00 -0.29540813963E+04  0.29540813963E+04  0.50400001928E-02 0.  1.
    10030    2    1    2    0    0  0.00000000000E+00  0.00000000000E+00 -0.18345633929E+04  0.40735993997E+04  0.36371127596E+04 0.  0.
        4    1    3    3  502    0 -0.54023836983E+03  0.12613430225E+04  0.41938334870E+03  0.14348267222E+04  0.12699999809E+01 0. -1.
       -4    1    3    3    0  502  0.54023836983E+03 -0.12613430225E+04 -0.22539467416E+04  0.26387726775E+04  0.12699999809E+01 0.  1.
</event>
<event>
 5   0  0.2666813E-07  0.3906549E+04  0.7818609E-02  0.8023668E-01
        1   -1    0    0  501    0  0.00000000000E+00  0.00000000000E+00  0.15553575482E+04  0.15553575482E+04  0.50400001928E-02 0.  1.
       -1   -1    0    0    0  501  0.00000000000E+00  0.00000000000E+00 -0.24529931997E+04  0.24529931997E+04  0.50400001928E-02 0. -1.
    10030    2    1    2    0    0  0.00000000000E+00  0.00000000000E+00 -0.89763565155E+03  0.40083507479E+04  0.39065491108E+04 0.  0.
        1    1    3    3  502    0 -0.63268989903E+03 -0.94532134164E+03  0.11804377494E+04  0.16393176103E+04  0.50400001928E-02 0.  1.
       -1    1    3    3    0  502  0.63268989903E+03  0.94532134164E+03 -0.20780734009E+04  0.23690331376E+04  0.50400001928E-02 0. -1.
</event>
<event>
 5   0  0.1860500E-07  0.3840051E+04  0.7818609E-02  0.8037614E-01
        1   -1    0    0  501    0  0.00000000000E+00  0.00000000000E+00  0.11725009935E+04  0.11725009935E+04  0.50400001928E-02 0.  1.
       -1   -1    0    0    0  501  0.00000000000E+00  0.00000000000E+00 -0.31441320059E+04  0.31441320059E+04  0.50400001928E-02 0. -1.
    10030    2    1    2    0    0  0.00000000000E+00  0.00000000000E+00 -0.19716310125E+04  0.43166329994E+04  0.38400509895E+04 0.  0.
        4    1    3    3  502    0 -0.72081281873E+03 -0.54461026594E+03  0.91865240270E+03  0.12884468601E+04  0.12699999809E+01 0.  1.
       -4    1    3    3    0  502  0.72081281873E+03  0.54461026594E+03 -0.28902834152E+04  0.30281861393E+04  0.12699999809E+01 0. -1.
</event>
<event>
 5   0  0.1860500E-07  0.3906545E+04  0.7818609E-02  0.8023669E-01
       -1   -1    0    0    0  501  0.00000000000E+00  0.00000000000E+00  0.22335055116E+04  0.22335055116E+04  0.50400001928E-02 0.  1.
        1   -1    0    0  501    0  0.00000000000E+00  0.00000000000E+00 -0.17081999437E+04  0.17081999437E+04  0.50400001928E-02 0. -1.
    10030    2    1    2    0    0  0.00000000000E+00  0.00000000000E+00  0.52530556794E+03  0.39417054553E+04  0.39065452713E+04 0.  0.
        5    1    3    3  502    0  0.10010267925E+04  0.70956578158E+03  0.17961054625E+04  0.21752138194E+04  0.46999998093E+01 0.  1.
       -5    1    3    3    0  502 -0.10010267925E+04 -0.70956578158E+03 -0.12707998945E+04  0.17664916359E+04  0.46999998093E+01 0. -1.
</event>
<event>
 5   0  0.6095665E-07  0.3687684E+04  0.7818609E-02  0.8070697E-01
       -2   -1    0    0    0  501  0.00000000000E+00  0.00000000000E+00  0.14181671041E+04  0.14181671041E+04  0.25500000920E-02 0.  1.
        2   -1    0    0  501    0  0.00000000000E+00  0.00000000000E+00 -0.23972863410E+04  0.23972863410E+04  0.25500000920E-02 0. -1.
    10030    2    1    2    0    0  0.00000000000E+00  0.00000000000E+00 -0.97911923696E+03  0.38154534451E+04  0.36876836241E+04 0.  0.
        4    1    3    3  502    0  0.12078632718E+04  0.11502220624E+04 -0.13027996608E+04  0.21164198651E+04  0.12699999809E+01 0. -1.
       -4    1    3    3    0  502 -0.12078632718E+04 -0.11502220624E+04  0.32368042383E+03  0.16990335800E+04  0.12699999809E+01 0.  1.
</event>
<event>
 5   0  0.5805753E-07  0.3695155E+04  0.7818609E-02  0.8069036E-01
        2   -1    0    0  501    0  0.00000000000E+00  0.00000000000E+00  0.16603880062E+04  0.16603880062E+04  0.25500000920E-02 0.  1.
       -2   -1    0    0    0  501  0.00000000000E+00  0.00000000000E+00 -0.20558702662E+04  0.20558702662E+04  0.25500000920E-02 0. -1.
    10030    2    1    2    0    0  0.00000000000E+00  0.00000000000E+00 -0.39548226001E+03  0.37162582725E+04  0.36951548452E+04 0.  0.
        1    1    3    3  502    0 -0.13161079469E+04 -0.12392620363E+04 -0.58153794865E+03  0.18989725928E+04  0.50400001928E-02 0.  1.
       -1    1    3    3    0  502  0.13161079469E+04  0.12392620363E+04  0.18605568864E+03  0.18172856797E+04  0.50400001928E-02 0. -1.
</event>
<event>
 5   0  0.5805753E-07  0.3885281E+04  0.7818609E-02  0.8028097E-01
       -2   -1    0    0    0  501  0.00000000000E+00  0.00000000000E+00  0.13735659409E+04  0.13735659409E+04  0.25500000920E-02 0. -1.
        2   -1    0    0  501    0  0.00000000000E+00  0.00000000000E+00 -0.27474850840E+04  0.27474850840E+04  0.25500000920E-02 0.  1.
    10030    2    1    2    0    0  0.00000000000E+00  0.00000000000E+00 -0.13739191431E+04  0.41210510250E+04  0.38852809086E+04 0.  0.
        1    1    3    3  502    0 -0.52389953535E+03  0.12709291485E+04  0.76896837834E+03  0.15751330072E+04  0.50400001928E-02 0. -1.
       -1    1    3    3    0  502  0.52389953535E+03 -0.12709291485E+04 -0.21428875214E+04  0.25459180177E+04  0.50400001928E-02 0.  1.
</event>
<event>
 5   0  0.5872444E-07  0.3946879E+04  0.7818609E-02  0.8015349E-01
        2   -1    0    0  501    0  0.00000000000E+00  0.00000000000E+00  0.16936205332E+04  0.16936205332E+04  0.25500000920E-02 0. -1.
       -2   -1    0    0    0  501  0.00000000000E+00  0.00000000000E+00 -0.22994902876E+04  0.22994902876E+04  0.25500000920E-02 0.  1.
    10030    2    1    2    0    0  0.00000000000E+00  0.00000000000E+00 -0.60586975446E+03  0.39931108208E+04  0.39468792568E+04 0.  0.
        3    1    3    3  502    0  0.15793404820E+04  0.13933274534E+02 -0.14999904760E+04  0.21781831724E+04  0.10100000352E+00 0.  1.
       -3    1    3    3    0  502 -0.15793404820E+04 -0.13933274534E+02  0.89412072158E+03  0.18149276484E+04  0.10100000352E+00 0. -1.
</event>
<event>
 5   0  0.5872444E-07  0.3941564E+04  0.7818609E-02  0.8016440E-01
       -2   -1    0    0    0  501  0.00000000000E+00  0.00000000000E+00  0.15454474202E+04  0.15454474202E+04  0.25500000920E-02 0. -1.
        2   -1    0    0  501    0  0.00000000000E+00  0.00000000000E+00 -0.25131759247E+04  0.25131759247E+04  0.25500000920E-02 0.  1.
    10030    2    1    2    0    0  0.00000000000E+00  0.00000000000E+00 -0.96772850449E+03  0.40586233449E+04  0.39415637757E+04 0.  0.
        3    1    3    3  502    0  0.17136884989E+04  0.92961291779E+03 -0.78064764253E+03  0.21000759987E+04  0.10100000352E+00 0. -1.
       -3    1    3    3    0  502 -0.17136884989E+04 -0.92961291779E+03 -0.18708086196E+03  0.19585473462E+04  0.10100000352E+00 0.  1.
</event>
<event>
 5   0  0.5735179E-07  0.2605559E+04  0.7818609E-02  0.8366315E-01
       -2   -1    0    0    0  501  0.00000000000E+00  0.00000000000E+00  0.99104942867E+03  0.99104942867E+03  0.25500000920E-02 0.  1.
        2   -1    0    0  501    0  0.00000000000E+00  0.00000000000E+00 -0.17125634167E+04  0.17125634167E+04  0.25500000920E-02 0. -1.
    10030    2    1    2    0    0  0.00000000000E+00  0.00000000000E+00 -0.72151398806E+03  0.27036128454E+04  0.26055594376E+04 0.  0.
        5    1    3    3  502    0 -0.56681687026E+03 -0.46304555292E+03 -0.14790534007E+04  0.16502465272E+04  0.46999998093E+01 0. -1.
       -5    1    3    3    0  502  0.56681687026E+03  0.46304555292E+03  0.75753941266E+03  0.10533663182E+04  0.46999998093E+01 0.  1.
</event>
<event>
 5   0  0.2666813E-07  0.3864695E+04  0.7818609E-02  0.8032412E-01
        1   -1    0    0  501    0  0.00000000000E+00  0.00000000000E+00  0.29583456864E+04  0.29583456865E+04  0.50400001928E-02 0. -1.
       -1   -1    0    0    0  501  0.00000000000E+00  0.00000000000E+00 -0.12621806710E+04  0.12621806711E+04  0.50400001928E-02 0.  1.
    10030    2    1    2    0    0  0.00000000000E+00  0.00000000000E+00  0.16961650154E+04  0.42205263575E+04  0.38646949394E+04 0.  0.
        1    1    3    3  502    0 -0.15049911629E+04  0.10287548388E+04  0.15478885709E+04  0.23915045362E+04  0.50400001928E-02 0.  1.
       -1    1    3    3    0  502  0.15049911629E+04 -0.10287548388E+04  0.14827644447E+03  0.18290218213E+04  0.50400001928E-02 0. -1.
</event>
<event>
 5   0  0.6095665E-07  0.3355497E+04  0.7818609E-02  0.8148916E-01
       -2   -1    0    0    0  501  0.00000000000E+00  0.00000000000E+00  0.13622751312E+04  0.13622751312E+04  0.25500000920E-02 0.  1.
        2   -1    0    0  501    0  0.00000000000E+00  0.00000000000E+00 -0.20662785219E+04  0.20662785219E+04  0.25500000920E-02 0. -1.
    10030    2    1    2    0    0  0.00000000000E+00  0.00000000000E+00 -0.70400339070E+03  0.34285536531E+04  0.33554968899E+04 0.  0.
        4    1    3    3  502    0  0.10376090584E+04 -0.11697496727E+04  0.26942687009E+03  0.15866755517E+04  0.12699999809E+01 0.  1.
       -4    1    3    3    0  502 -0.10376090584E+04  0.11697496727E+04 -0.97343026079E+03  0.18418781014E+04  0.12699999809E+01 0. -1.
</event>
<event>
 5   0  0.1876027E-07  0.3924197E+04  0.7818609E-02  0.8020015E-01
        1   -1    0    0  501    0  0.00000000000E+00  0.00000000000E+00  0.21091664430E+04  0.21091664430E+04  0.50400001928E-02 0. -1.
       -1   -1    0    0    0  501  0.00000000000E+00  0.00000000000E+00 -0.18252856023E+04  0.18252856023E+04  0.50400001928E-02 0.  1.
    10030    2    1    2    0    0  0.00000000000E+00  0.00000000000E+00  0.28388084071E+03  0.39344520453E+04  0.39241973147E+04 0.  0.
        3    1    3    3  502    0  0.97045581478E+03 -0.10117142229E+04  0.15182917241E+04  0.20665333114E+04  0.10100000352E+00 0. -1.
       -3    1    3    3    0  502 -0.97045581478E+03  0.10117142229E+04 -0.12344108834E+04  0.18679187339E+04  0.10100000352E+00 0.  1.
</event>
<event>
 5   0  0.1943459E-07  0.3732075E+04  0.7818609E-02  0.8060891E-01
        1   -1    0    0  501    0  0.00000000000E+00  0.00000000000E+00  0.16620567711E+04  0.16620567711E+04  0.50400001928E-02 0.  1.
       -1   -1    0    0    0  501  0.00000000000E+00  0.00000000000E+00 -0.20950523750E+04  0.20950523750E+04  0.50400001928E-02 0. -1.
    10030    2    1    2    0    0  0.00000000000E+00  0.00000000000E+00 -0.43299560392E+03  0.37571091461E+04  0.37320750184E+04 0.  0.
        2    1    3    3  502    0 -0.30684647066E+03  0.37554374852E+02 -0.20690948514E+04  0.20920608480E+04  0.25500000920E-02 0. -1.
       -2    1    3    3    0  502  0.30684647066E+03 -0.37554374852E+02  0.16360992475E+04  0.16650482981E+04  0.25500000920E-02 0.  1.
</event>
<event>
 5   0  0.1860500E-07  0.3762141E+04  0.7818609E-02  0.8054328E-01
       -1   -1    0    0    0  501  0.00000000000E+00  0.00000000000E+00  0.22379451413E+04  0.22379451413E+04  0.50400001928E-02 0. -1.
        1   -1    0    0  501    0  0.00000000000E+00  0.00000000000E+00 -0.15811052826E+04  0.15811052826E+04  0.50400001928E-02 0.  1.
    10030    2    1    2    0    0  0.00000000000E+00  0.00000000000E+00  0.65683985863E+03  0.38190504239E+04  0.37621413504E+04 0.  0.
        4    1    3    3  502    0 -0.18156875231E+04  0.38975667830E+03  0.63260893481E+03  0.19618427886E+04  0.12699999809E+01 0. -1.
       -4    1    3    3    0  502  0.18156875231E+04 -0.38975667830E+03  0.24230923816E+02  0.18572076353E+04  0.12699999809E+01 0.  1.
</event>
<event>
 5   0  0.6095665E-07  0.3931025E+04  0.7818609E-02  0.8018607E-01
       -2   -1    0    0    0  501  0.00000000000E+00  0.00000000000E+00  0.19674351683E+04  0.19674351683E+04  0.25500000920E-02 0. -1.
        2   -1    0    0  501    0  0.00000000000E+00  0.00000000000E+00 -0.19635919544E+04  0.19635919544E+04  0.25500000920E-02 0.  1.
    10030    2    1    2    0    0  0.00000000000E+00  0.00000000000E+00  0.38432139009E+01  0.39310271227E+04  0.39310252440E+04 0.  0.
        4    1    3    3  502    0  0.39201725452E+02  0.90715880864E+03  0.17451276417E+04  0.19672178268E+04  0.12699999809E+01 0. -1.
       -4    1    3    3    0  502 -0.39201725452E+02 -0.90715880864E+03 -0.17412844278E+04  0.19638092959E+04  0.12699999809E+01 0.  1.
</event>
<event>
 5   0  0.1860500E-07  0.3867917E+04  0.7818609E-02  0.8031735E-01
       -1   -1    0    0    0  501  0.00000000000E+00  0.00000000000E+00  0.18294831808E+04  0.18294831808E+04  0.50400001928E-02 0.  1.
        1   -1    0    0  501    0  0.00000000000E+00  0.00000000000E+00 -0.20444003776E+04  0.20444003776E+04  0.50400001928E-02 0. -1.
    10030    2    1    2    0    0  0.00000000000E+00  0.00000000000E+00 -0.21491719682E+03  0.38738835584E+04  0.38679173237E+04 0.  0.
        5    1    3    3  502    0 -0.54272690120E+03  0.46808244687E+03 -0.19064810538E+04  0.20367488223E+04  0.46999998093E+01 0. -1.
       -5    1    3    3    0  502  0.54272690120E+03 -0.46808244687E+03  0.16915638570E+04  0.18371347361E+04  0.46999998093E+01 0.  1.
</event>
<event>
 5   0  0.1860500E-07  0.3735347E+04  0.7818609E-02  0.8060173E-01
        1   -1    0    0  501    0  0.00000000000E+00  0.00000000000E+00  0.17383224110E+04  0.17383224110E+04  0.50400001928E-02 0.  1.
       -1   -1    0    0    0  501  0.00000000000E+00  0.00000000000E+00 -0.20066502233E+04  0.20066502233E+04  0.50400001928E-02 0. -1.
    10030    2    1    2    0    0  0.00000000000E+00  0.00000000000E+00 -0.26832781235E+03  0.37449726343E+04  0.37353474025E+04 0.  0.
        5    1    3    3  502    0 -0.16084398519E+04  0.88704155662E+03 -0.47306079317E+03  0.18967683265E+04  0.46999998093E+01 0. -1.
       -5    1    3    3    0  502  0.16084398519E+04 -0.88704155662E+03  0.20473298082E+03  0.18482043079E+04  0.46999998093E+01 0.  1.
</event>
<event>
 5   0  0.1860500E-07  0.3890076E+04  0.7818609E-02  0.8027096E-01
        1   -1    0    0  501    0  0.00000000000E+00  0.00000000000E+00  0.13792847765E+04  0.13792847765E+04  0.50400001928E-02 0.  1.
       -1   -1    0    0    0  501  0.00000000000E+00  0.00000000000E+00 -0.27428518110E+04  0.27428518110E+04  0.50400001928E-02 0. -1.
    10030    2    1    2    0    0  0.00000000000E+00  0.00000000000E+00 -0.13635670345E+04  0.41221365875E+04  0.38900764759E+04 0.  0.
        5    1    3    3  502    0 -0.93822829180E+02  0.99367531325E+03  0.10872231695E+04  0.14758962232E+04  0.46999998093E+01 0.  1.
       -5    1    3    3    0  502  0.93822829180E+02 -0.99367531325E+03 -0.24507902040E+04  0.26462403643E+04  0.46999998093E+01 0. -1.
</event>
<event>
 5   0  0.5872444E-07  0.3809790E+04  0.7818609E-02  0.8044057E-01
        2   -1    0    0  501    0  0.00000000000E+00  0.00000000000E+00  0.23171798633E+04  0.23171798633E+04  0.25500000920E-02 0. -1.
       -2   -1    0    0    0  501  0.00000000000E+00  0.00000000000E+00 -0.15659657188E+04  0.15659657188E+04  0.25500000920E-02 0.  1.
    10030    2    1    2    0    0  0.00000000000E+00  0.00000000000E+00  0.75121414449E+03  0.38831455820E+04  0.38097896163E+04 0.  0.
        3    1    3    3  502    0  0.17607920218E+04  0.67875746682E+03  0.11074993139E+03  0.18903348381E+04  0.10100000352E+00 0.  1.
       -3    1    3    3    0  502 -0.17607920218E+04 -0.67875746682E+03  0.64046421310E+03  0.19928107439E+04  0.10100000352E+00 0. -1.
</event>
<event>
 5   0  0.5805753E-07  0.3894652E+04  0.7818609E-02  0.8026142E-01
        2   -1    0    0  501    0  0.00000000000E+00  0.00000000000E+00  0.12781889858E+04  0.12781889858E+04  0.25500000920E-02 0.  1.
       -2   -1    0    0    0  501  0.00000000000E+00  0.00000000000E+00 -0.29667590478E+04  0.29667590478E+04  0.25500000920E-02 0. -1.
    10030    2    1    2    0    0  0.00000000000E+00  0.00000000000E+00 -0.16885700620E+04  0.42449480336E+04  0.38946520966E+04 0.  0.
        1    1    3    3  502    0  0.64385044816E+03 -0.55477433461E+02 -0.28464769145E+04  0.29189128062E+04  0.50400001928E-02 0. -1.
       -1    1    3    3    0  502 -0.64385044816E+03  0.55477433461E+02  0.11579068525E+04  0.13260352274E+04  0.50400001928E-02 0.  1.
</event>
<event>
 5   0  0.5735179E-07  0.3440981E+04  0.7818609E-02  0.8127921E-01
        2   -1    0    0  501    0  0.00000000000E+00  0.00000000000E+00  0.26245445133E+04  0.26245445133E+04  0.25500000920E-02 0.  1.
       -2   -1    0    0    0  501  0.00000000000E+00  0.00000000000E+00 -0.11278478524E+04  0.11278478525E+04  0.25500000920E-02 0. -1.
    10030    2    1    2    0    0  0.00000000000E+00  0.00000000000E+00  0.14966966608E+04  0.37523923657E+04  0.34409806120E+04 0.  0.
        5    1    3    3  502    0 -0.83878922972E+03 -0.14903349663E+04  0.95352229326E+03  0.19580328234E+04  0.46999998093E+01 0.  1.
       -5    1    3    3    0  502  0.83878922972E+03  0.14903349663E+04  0.54317436759E+03  0.17943595424E+04  0.46999998093E+01 0. -1.
</event>
<event>
 5   0  0.5735179E-07  0.3900265E+04  0.7818609E-02  0.8024974E-01
       -2   -1    0    0    0  501  0.00000000000E+00  0.00000000000E+00  0.24385672614E+04  0.24385672614E+04  0.25500000920E-02 0. -1.
        2   -1    0    0  501    0  0.00000000000E+00  0.00000000000E+00 -0.15595294930E+04  0.15595294930E+04  0.25500000920E-02 0.  1.
    10030    2    1    2    0    0  0.00000000000E+00  0.00000000000E+00  0.87903776838E+03  0.39980967544E+04  0.39002654089E+04 0.  0.
        5    1    3    3  502    0 -0.64331600160E+03 -0.13541201076E+04 -0.83896120609E+03  0.17179565592E+04  0.46999998093E+01 0.  1.
       -5    1    3    3    0  502  0.64331600160E+03  0.13541201076E+04  0.17179989745E+04  0.22801401953E+04  0.46999998093E+01 0. -1.
</event>
<event>
 5   0  0.5805753E-07  0.4609196E+04  0.7818609E-02  0.7891794E-01
        2   -1    0    0  501    0  0.00000000000E+00  0.00000000000E+00  0.25251954841E+04  0.25251954841E+04  0.25500000920E-02 0.  1.
       -2   -1    0    0    0  501  0.00000000000E+00  0.00000000000E+00 -0.21032716062E+04  0.21032716062E+04  0.25500000920E-02 0. -1.
    10030    2    1    2    0    0  0.00000000000E+00  0.00000000000E+00  0.42192387786E+03  0.46284670903E+04  0.46091960088E+04 0.  0.
        1    1    3    3  502    0  0.20446830682E+03  0.18391759522E+04  0.15903121091E+04  0.24399729663E+04  0.50400001928E-02 0.  1.
       -1    1    3    3    0  502 -0.20446830682E+03 -0.18391759522E+04 -0.11683882313E+04  0.21884941240E+04  0.50400001928E-02 0. -1.
</event>
<event>
 5   0  0.1860500E-07  0.3885868E+04  0.7818609E-02  0.8027975E-01
       -3   -1    0    0    0  501  0.00000000000E+00  0.00000000000E+00  0.22839521565E+04  0.22839521587E+04  0.10100000352E+00 0. -1.
        3   -1    0    0  501    0  0.00000000000E+00  0.00000000000E+00 -0.16528334730E+04  0.16528334761E+04  0.10100000352E+00 0.  1.
    10030    2    1    2    0    0  0.00000000000E+00  0.00000000000E+00  0.63111868347E+03  0.39367856348E+04  0.38858680294E+04 0.  0.
        5    1    3    3  502    0 -0.14938666064E+04  0.67791033141E+03 -0.73912478789E+03  0.17993130348E+04  0.46999998093E+01 0.  1.
       -5    1    3    3    0  502  0.14938666064E+04 -0.67791033141E+03  0.13702434714E+04  0.21374726000E+04  0.46999998093E+01 0. -1.
</event>
<event>
 5   0  0.5805753E-07  0.3921088E+04  0.7818609E-02  0.8020657E-01
       -2   -1    0    0    0  501  0.00000000000E+00  0.00000000000E+00  0.17218318345E+04  0.17218318345E+04  0.25500000920E-02 0.  1.
        2   -1    0    0  501    0  0.00000000000E+00  0.00000000000E+00 -0.22323513490E+04  0.22323513490E+04  0.25500000920E-02 0. -1.
    10030    2    1    2    0    0  0.00000000000E+00  0.00000000000E+00 -0.51051951449E+03  0.39541831836E+04  0.39210884298E+04 0.  0.
        1    1    3    3  502    0  0.14530369779E+04  0.12117061733E+04 -0.77358753029E+03  0.20440122251E+04  0.50400001928E-02 0.  1.
       -1    1    3    3    0  502 -0.14530369779E+04 -0.12117061733E+04  0.26306801580E+03  0.19101709584E+04  0.50400001928E-02 0. -1.
</event>
<event>
 5   0  0.5872444E-07  0.3340126E+04  0.7818609E-02  0.8152760E-01
       -2   -1    0    0    0  501  0.00000000000E+00  0.00000000000E+00  0.19714304962E+04  0.19714304962E+04  0.25500000920E-02 0. -1.
        2   -1    0    0  501    0  0.00000000000E+00  0.00000000000E+00 -0.14147647728E+04  0.14147647728E+04  0.25500000920E-02 0.  1.
    10030    2    1    2    0    0  0.00000000000E+00  0.00000000000E+00  0.55666572347E+03  0.33861952690E+04  0.33401259964E+04 0.  0.
        3    1    3    3  502    0 -0.16382053608E+04 -0.67115787970E+02  0.60034424051E+03  0.17460339488E+04  0.10100000352E+00 0. -1.
       -3    1    3    3    0  502  0.16382053608E+04  0.67115787970E+02 -0.43678517041E+02  0.16401613202E+04  0.10100000352E+00 0.  1.
</event>
<event>
 5   0  0.1860500E-07  0.3544912E+04  0.7818609E-02  0.8103228E-01
        1   -1    0    0  501    0  0.00000000000E+00  0.00000000000E+00  0.19318351759E+04  0.19318351760E+04  0.50400001928E-02 0. -1.
       -1   -1    0    0    0  501  0.00000000000E+00  0.00000000000E+00 -0.16262261646E+04  0.16262261646E+04  0.50400001928E-02 0.  1.
    10030    2    1    2    0    0  0.00000000000E+00  0.00000000000E+00  0.30560901139E+03  0.35580613405E+04  0.35449123593E+04 0.  0.
        4    1    3    3  502    0 -0.14589219854E+04  0.91031830477E+03 -0.27828426113E+03  0.17420035931E+04  0.12699999809E+01 0.  1.
       -4    1    3    3    0  502  0.14589219854E+04 -0.91031830477E+03  0.58389327252E+03  0.18160577474E+04  0.12699999809E+01 0. -1.
</event>
<event>
 5   0  0.1943459E-07  0.2877435E+04  0.7818609E-02  0.8279623E-01
       -1   -1    0    0    0  501  0.00000000000E+00  0.00000000000E+00  0.10667441234E+04  0.10667441234E+04  0.50400001928E-02 0.  1.
        1   -1    0    0  501    0  0.00000000000E+00  0.00000000000E+00 -0.19403975486E+04  0.19403975486E+04  0.50400001928E-02 0. -1.
    10030    2    1    2    0    0  0.00000000000E+00  0.00000000000E+00 -0.87365342524E+03  0.30071416720E+04  0.28774347478E+04 0.  0.
        2    1    3    3  502    0 -0.11729392790E+04  0.18946553081E+03 -0.12847083754E+04  0.17499026686E+04  0.25500000920E-02 0. -1.
       -2    1    3    3    0  502  0.11729392790E+04 -0.18946553081E+03  0.41105495017E+03  0.12572390034E+04  0.25500000920E-02 0.  1.
</event>
<event>
 5   0  0.2666813E-07  0.3821861E+04  0.7818609E-02  0.8041480E-01
        1   -1    0    0  501    0  0.00000000000E+00  0.00000000000E+00  0.14256406305E+04  0.14256406305E+04  0.50400001928E-02 0.  1.
       -1   -1    0    0    0  501  0.00000000000E+00  0.00000000000E+00 -0.25614131555E+04  0.25614131555E+04  0.50400001928E-02 0. -1.
    10030    2    1    2    0    0  0.00000000000E+00  0.00000000000E+00 -0.11357725251E+04  0.39870537860E+04  0.38218606285E+04 0.  0.
        1    1    3    3  502    0 -0.16574625030E+03  0.18567191675E+04 -0.12926482141E+03  0.18685789468E+04  0.50400001928E-02 0. -1.
       -1    1    3    3    0  502  0.16574625030E+03 -0.18567191675E+04 -0.10065077037E+04  0.21184748391E+04  0.50400001928E-02 0.  1.
</event>
<event>
 5   0  0.5872444E-07  0.3994460E+04  0.7818609E-02  0.8005665E-01
       -2   -1    0    0    0  501  0.00000000000E+00  0.00000000000E+00  0.17773514264E+04  0.17773514264E+04  0.25500000920E-02 0. -1.
        2   -1    0    0  501    0  0.00000000000E+00  0.00000000000E+00 -0.22443096474E+04  0.22443096474E+04  0.25500000920E-02 0.  1.
    10030    2    1    2    0    0  0.00000000000E+00  0.00000000000E+00 -0.46695822102E+03  0.40216610739E+04  0.39944596397E+04 0.  0.
        3    1    3    3  502    0 -0.31582391475E+03 -0.18366218253E+04  0.48974570601E+03  0.19268563364E+04  0.10100000352E+00 0. -1.
       -3    1    3    3    0  502  0.31582391475E+03  0.18366218253E+04 -0.95670392703E+03  0.20948047375E+04  0.10100000352E+00 0.  1.
</event>
<event>
 5   0  0.2666813E-07  0.3565002E+04  0.7818609E-02  0.8098556E-01
        1   -1    0    0  501    0  0.00000000000E+00  0.00000000000E+00  0.27887286500E+04  0.27887286500E+04  0.50400001928E-02 0. -1.
       -1   -1    0    0    0  501  0.00000000000E+00  0.00000000000E+00 -0.11393400444E+04  0.11393400444E+04  0.50400001928E-02 0.  1.
    10030    2    1    2    0    0  0.00000000000E+00  0.00000000000E+00  0.16493886056E+04  0.39280686945E+04  0.35650022295E+04 0.  0.
        1    1    3    3  502    0 -0.13136187964E+03 -0.14825898161E+04  0.19053881468E+04  0.24178156456E+04  0.50400001928E-02 0. -1.
       -1    1    3    3    0  502  0.13136187964E+03  0.14825898161E+04 -0.25599954118E+03  0.15102530488E+04  0.50400001928E-02 0.  1.
</event>
<event>
 5   0  0.5735179E-07  0.3789056E+04  0.7818609E-02  0.8048507E-01
        2   -1    0    0  501    0  0.00000000000E+00  0.00000000000E+00  0.28878340873E+04  0.28878340873E+04  0.25500000920E-02 0. -1.
       -2   -1    0    0    0  501  0.00000000000E+00  0.00000000000E+00 -0.12428818351E+04  0.12428818351E+04  0.25500000920E-02 0.  1.
    10030    2    1    2    0    0  0.00000000000E+00  0.00000000000E+00  0.16449522522E+04  0.41307159224E+04  0.37890560988E+04 0.  0.
        5    1    3    3  502    0  0.53489043565E+03 -0.95633115604E+03 -0.86237027560E+03  0.13944108578E+04  0.46999998093E+01 0.  1.
       -5    1    3    3    0  502 -0.53489043565E+03  0.95633115604E+03  0.25073225278E+04  0.27363050646E+04  0.46999998093E+01 0. -1.
</event>
<event>
 5   0  0.6095665E-07  0.3954261E+04  0.7818609E-02  0.8013838E-01
        2   -1    0    0  501    0  0.00000000000E+00  0.00000000000E+00  0.17548792619E+04  0.17548792619E+04  0.25500000920E-02 0. -1.
       -2   -1    0    0    0  501  0.00000000000E+00  0.00000000000E+00 -0.22275294412E+04  0.22275294412E+04  0.25500000920E-02 0.  1.
    10030    2    1    2    0    0  0.00000000000E+00  0.00000000000E+00 -0.47265017932E+03  0.39824087031E+04  0.39542611050E+04 0.  0.
        4    1    3    3  502    0 -0.98874056791E+02 -0.60310442674E+03 -0.21300108227E+04  0.22159554929E+04  0.12699999809E+01 0.  1.
       -4    1    3    3    0  502  0.98874056791E+02  0.60310442674E+03  0.16573606434E+04  0.17664532102E+04  0.12699999809E+01 0. -1.
</event>
<event>
 5   0  0.6095665E-07  0.3268968E+04  0.7818609E-02  0.8170837E-01
       -2   -1    0    0    0  501  0.00000000000E+00  0.00000000000E+00  0.12844171133E+04  0.12844171133E+04  0.25500000920E-02 0. -1.
        2   -1    0    0  501    0  0.00000000000E+00  0.00000000000E+00 -0.20799619192E+04  0.20799619192E+04  0.25500000920E-02 0.  1.
    10030    2    1    2    0    0  0.00000000000E+00  0.00000000000E+00 -0.79554480591E+03  0.33643790325E+04  0.32689684514E+04 0.  0.
        4    1    3    3  502    0 -0.11212139567E+04  0.39684230191E+02  0.82554994453E+03  0.13929213541E+04  0.12699999809E+01 0. -1.
       -4    1    3    3    0  502  0.11212139567E+04 -0.39684230191E+02 -0.16210947504E+04  0.19714576784E+04  0.12699999809E+01 0.  1.
</event>
<event>
 5   0  0.5735179E-07  0.3920584E+04  0.7818609E-02  0.8020762E-01
        2   -1    0    0  501    0  0.00000000000E+00  0.00000000000E+00  0.24642090806E+04  0.24642090806E+04  0.25500000920E-02 0. -1.
       -2   -1    0    0    0  501  0.00000000000E+00  0.00000000000E+00 -0.15594231561E+04  0.15594231561E+04  0.25500000920E-02 0.  1.
    10030    2    1    2    0    0  0.00000000000E+00  0.00000000000E+00  0.90478592450E+03  0.40236322368E+04  0.39205839881E+04 0.  0.
        5    1    3    3  502    0 -0.17949595226E+04 -0.25812819547E+03  0.12164148088E+04  0.21836201432E+04  0.46999998093E+01 0. -1.
       -5    1    3    3    0  502  0.17949595226E+04  0.25812819547E+03 -0.31162888427E+03  0.18400120936E+04  0.46999998093E+01 0.  1.
</event>
<event>
 5   0  0.1860500E-07  0.3903754E+04  0.7818609E-02  0.8024249E-01
        1   -1    0    0  501    0  0.00000000000E+00  0.00000000000E+00  0.14792421393E+04  0.14792421393E+04  0.50400001928E-02 0. -1.
       -1   -1    0    0    0  501  0.00000000000E+00  0.00000000000E+00 -0.25755236881E+04  0.25755236881E+04  0.50400001928E-02 0.  1.
    10030    2    1    2    0    0  0.00000000000E+00  0.00000000000E+00 -0.10962815488E+04  0.40547658274E+04  0.39037536655E+04 0.  0.
        4    1    3    3  502    0 -0.93199784923E+03 -0.19087181835E+03 -0.23184095602E+04  0.25060080893E+04  0.12699999809E+01 0.  1.
       -4    1    3    3    0  502  0.93199784923E+03  0.19087181835E+03  0.12221280115E+04  0.15487577381E+04  0.12699999809E+01 0. -1.
</event>
<event>
 5   0  0.6095665E-07  0.3880380E+04  0.7818609E-02  0.8029122E-01
        2   -1    0    0  501    0  0.00000000000E+00  0.00000000000E+00  0.26587741582E+04  0.26587741582E+04  0.25500000920E-02 0.  1.
       -2   -1    0    0    0  501  0.00000000000E+00  0.00000000000E+00 -0.14158168083E+04  0.14158168083E+04  0.25500000920E-02 0. -1.
    10030    2    1    2    0    0  0.00000000000E+00  0.00000000000E+00  0.12429573500E+04  0.40745909665E+04  0.38803799518E+04 0.  0.
        4    1    3    3  502    0  0.68062599706E+03 -0.27025030478E+03  0.25080785232E+04  0.26128043299E+04  0.12699999809E+01 0.  1.
       -4    1    3    3    0  502 -0.68062599706E+03  0.27025030478E+03 -0.12651211732E+04  0.14617866366E+04  0.12699999809E+01 0. -1.
</event>
<event>
 5   0  0.1860500E-07  0.2393418E+04  0.7818609E-02  0.8441972E-01
       -1   -1    0    0    0  501  0.00000000000E+00  0.00000000000E+00  0.13161811667E+04  0.13161811667E+04  0.50400001928E-02 0.  1.
        1   -1    0    0  501    0  0.00000000000E+00  0.00000000000E+00 -0.10880817300E+04  0.10880817300E+04  0.50400001928E-02 0. -1.
    10030    2    1    2    0    0  0.00000000000E+00  0.00000000000E+00  0.22809943673E+03  0.24042628967E+04  0.23934182090E+04 0.  0.
        4    1    3    3  502    0 -0.36125938585E+03  0.20394668361E+03 -0.10135373759E+04  0.10951539704E+04  0.12699999809E+01 0. -1.
       -4    1    3    3    0  502  0.36125938585E+03 -0.20394668361E+03  0.12416368126E+04  0.13091089263E+04  0.12699999809E+01 0.  1.
</event>
<event>
 5   0  0.1943459E-07  0.3071220E+04  0.7818609E-02  0.8223681E-01
        1   -1    0    0  501    0  0.00000000000E+00  0.00000000000E+00  0.15008775305E+04  0.15008775306E+04  0.50400001928E-02 0. -1.
       -1   -1    0    0    0  501  0.00000000000E+00  0.00000000000E+00 -0.15711466602E+04  0.15711466603E+04  0.50400001928E-02 0.  1.
    10030    2    1    2    0    0  0.00000000000E+00  0.00000000000E+00 -0.70269129705E+02  0.30720241908E+04  0.30712204216E+04 0.  0.
        2    1    3    3  502    0 -0.87362094613E+03 -0.82461696060E+02  0.12253877773E+04  0.15071790516E+04  0.25500000920E-02 0. -1.
       -2    1    3    3    0  502  0.87362094613E+03  0.82461696060E+02 -0.12956569070E+04  0.15648451392E+04  0.25500000920E-02 0.  1.
</event>
<event>
 5   0  0.5735179E-07  0.3897863E+04  0.7818609E-02  0.8025474E-01
       -2   -1    0    0    0  501  0.00000000000E+00  0.00000000000E+00  0.17533382032E+04  0.17533382032E+04  0.25500000920E-02 0. -1.
        2   -1    0    0  501    0  0.00000000000E+00  0.00000000000E+00 -0.21663444887E+04  0.21663444887E+04  0.25500000920E-02 0.  1.
    10030    2    1    2    0    0  0.00000000000E+00  0.00000000000E+00 -0.41300628548E+03  0.39196826919E+04  0.38978632882E+04 0.  0.
        5    1    3    3  502    0  0.13157335883E+04  0.87226434589E+03 -0.13558413643E+04  0.20809439828E+04  0.46999998093E+01 0.  1.
       -5    1    3    3    0  502 -0.13157335883E+04 -0.87226434589E+03  0.94283507879E+03  0.18387387091E+04  0.46999998093E+01 0. -1.
</event>
<event>
 5   0  0.1860500E-07  0.3947562E+04  0.7818609E-02  0.8015209E-01
        1   -1    0    0  501    0  0.00000000000E+00  0.00000000000E+00  0.16071716940E+04  0.16071716940E+04  0.50400001928E-02 0.  1.
       -1   -1    0    0    0  501  0.00000000000E+00  0.00000000000E+00 -0.24240173859E+04  0.24240173859E+04  0.50400001928E-02 0. -1.
    10030    2    1    2    0    0  0.00000000000E+00  0.00000000000E+00 -0.81684569198E+03  0.40311890799E+04  0.39475623508E+04 0.  0.
        4    1    3    3  502    0  0.39077073000E+02  0.14214136733E+03 -0.24183875235E+04  0.24228765988E+04  0.12699999809E+01 0. -1.
       -4    1    3    3    0  502 -0.39077073000E+02 -0.14214136733E+03  0.16015418315E+04  0.16083124812E+04  0.12699999809E+01 0.  1.
</event>
<event>
 5   0  0.1860500E-07  0.3866635E+04  0.7818609E-02  0.8032004E-01
       -1   -1    0    0    0  501  0.00000000000E+00  0.00000000000E+00  0.19266559026E+04  0.19266559026E+04  0.50400001928E-02 0.  1.
        1   -1    0    0  501    0  0.00000000000E+00  0.00000000000E+00 -0.19400022352E+04  0.19400022352E+04  0.50400001928E-02 0. -1.
    10030    2    1    2    0    0  0.00000000000E+00  0.00000000000E+00 -0.13346332563E+02  0.38666581378E+04  0.38666351044E+04 0.  0.
        4    1    3    3  502    0  0.40154097367E+02 -0.11674262638E+04 -0.15472078093E+04  0.19386464481E+04  0.12699999809E+01 0. -1.
       -4    1    3    3    0  502 -0.40154097367E+02  0.11674262638E+04  0.15338614767E+04  0.19280116897E+04  0.12699999809E+01 0.  1.
</event>
<event>
 5   0  0.6095665E-07  0.3868126E+04  0.7818609E-02  0.8031691E-01
       -2   -1    0    0    0  501  0.00000000000E+00  0.00000000000E+00  0.17286153889E+04  0.17286153889E+04  0.25500000920E-02 0. -1.
        2   -1    0    0  501    0  0.00000000000E+00  0.00000000000E+00 -0.21639279784E+04  0.21639279784E+04  0.25500000920E-02 0.  1.
    10030    2    1    2    0    0  0.00000000000E+00  0.00000000000E+00 -0.43531258953E+03  0.38925433673E+04  0.38681257498E+04 0.  0.
        4    1    3    3  502    0 -0.59042903206E+03  0.84987823066E+03  0.14265789576E+04  0.17623928574E+04  0.12699999809E+01 0. -1.
       -4    1    3    3    0  502  0.59042903206E+03 -0.84987823066E+03 -0.18618915471E+04  0.21301505099E+04  0.12699999809E+01 0.  1.
</event>
<event>
 5   0  0.3959190E-07  0.3903961E+04  0.7818609E-02  0.8024206E-01
        2   -1    0    0  501    0  0.00000000000E+00  0.00000000000E+00  0.20427944229E+04  0.20427944229E+04  0.25500000920E-02 0. -1.
       -2   -1    0    0    0  501  0.00000000000E+00  0.00000000000E+00 -0.18652037540E+04  0.18652037540E+04  0.25500000920E-02 0.  1.
    10030    2    1    2    0    0  0.00000000000E+00  0.00000000000E+00  0.17759066893E+03  0.39079981770E+04  0.39039609764E+04 0.  0.
        2    1    3    3  502    0 -0.17699085116E+04  0.64608404428E+03 -0.42185678762E+03  0.19307935884E+04  0.25500000920E-02 0. -1.
       -2    1    3    3    0  502  0.17699085116E+04 -0.64608404428E+03  0.59944745655E+03  0.19772045885E+04  0.25500000920E-02 0.  1.
</event>
<event>
 5   0  0.1860500E-07  0.3573606E+04  0.7818609E-02  0.8096565E-01
       -1   -1    0    0    0  501  0.00000000000E+00  0.00000000000E+00  0.14916389134E+04  0.14916389134E+04  0.50400001928E-02 0. -1.
        1   -1    0    0  501    0  0.00000000000E+00  0.00000000000E+00 -0.21403735019E+04  0.21403735019E+04  0.50400001928E-02 0.  1.
    10030    2    1    2    0    0  0.00000000000E+00  0.00000000000E+00 -0.64873458855E+03  0.36320124153E+04  0.35736056888E+04 0.  0.
        5    1    3    3  502    0 -0.10564421162E+04 -0.93509995923E+03  0.78998345408E+03  0.16169656231E+04  0.46999998093E+01 0. -1.
       -5    1    3    3    0  502  0.10564421162E+04  0.93509995923E+03 -0.14387180426E+04  0.20150467922E+04  0.46999998093E+01 0.  1.
</event>
<event>
 5   0  0.3959190E-07  0.3390495E+04  0.7818609E-02  0.8140243E-01
        2   -1    0    0  501    0  0.00000000000E+00  0.00000000000E+00  0.17885394763E+04  0.17885394763E+04  0.25500000920E-02 0.  1.
       -2   -1    0    0    0  501  0.00000000000E+00  0.00000000000E+00 -0.16068221362E+04  0.16068221362E+04  0.25500000920E-02 0. -1.
    10030    2    1    2    0    0  0.00000000000E+00  0.00000000000E+00  0.18171734003E+03  0.33953616125E+04  0.33904954340E+04 0.  0.
        2    1    3    3  502    0 -0.97486087585E+03 -0.10332529708E+04  0.10173347896E+04  0.17472651496E+04  0.25500000920E-02 0.  1.
       -2    1    3    3    0  502  0.97486087585E+03  0.10332529708E+04 -0.83561744962E+03  0.16480964629E+04  0.25500000920E-02 0. -1.
</event>
<event>
 5   0  0.1860500E-07  0.3655775E+04  0.7818609E-02  0.8077834E-01
        1   -1    0    0  501    0  0.00000000000E+00  0.00000000000E+00  0.23954385639E+04  0.23954385639E+04  0.50400001928E-02 0.  1.
       -1   -1    0    0    0  501  0.00000000000E+00  0.00000000000E+00 -0.13948066306E+04  0.13948066306E+04  0.50400001928E-02 0. -1.
    10030    2    1    2    0    0  0.00000000000E+00  0.00000000000E+00  0.10006319333E+04  0.37902451945E+04  0.36557754811E+04 0.  0.
        5    1    3    3  502    0 -0.96689690887E+02 -0.16205203376E+04 -0.37065345469E+03  0.16651850150E+04  0.46999998093E+01 0. -1.
       -5    1    3    3    0  502  0.96689690887E+02  0.16205203376E+04  0.13712853880E+04  0.21250601794E+04  0.46999998093E+01 0.  1.
</event>
<event>
 5   0  0.6095665E-07  0.3921913E+04  0.7818609E-02  0.8020487E-01
       -2   -1    0    0    0  501  0.00000000000E+00  0.00000000000E+00  0.13627435452E+04  0.13627435452E+04  0.25500000920E-02 0. -1.
        2   -1    0    0  501    0  0.00000000000E+00  0.00000000000E+00 -0.28217711732E+04  0.28217711732E+04  0.25500000920E-02 0.  1.
    10030    2    1    2    0    0  0.00000000000E+00  0.00000000000E+00 -0.14590276280E+04  0.41845147183E+04  0.39219130292E+04 0.  0.
        4    1    3    3  502    0 -0.15132045068E+03  0.40918296627E+03  0.13103070773E+04  0.13810267298E+04  0.12699999809E+01 0. -1.
       -4    1    3    3    0  502  0.15132045068E+03 -0.40918296627E+03 -0.27693347053E+04  0.28034879885E+04  0.12699999809E+01 0.  1.
</event>
<event>
 5   0  0.3959190E-07  0.3885008E+04  0.7818609E-02  0.8028154E-01
       -2   -1    0    0    0  501  0.00000000000E+00  0.00000000000E+00  0.18355571279E+04  0.18355571279E+04  0.25500000920E-02 0.  1.
        2   -1    0    0  501    0  0.00000000000E+00  0.00000000000E+00 -0.20556824451E+04  0.20556824451E+04  0.25500000920E-02 0. -1.
    10030    2    1    2    0    0  0.00000000000E+00  0.00000000000E+00 -0.22012531720E+03  0.38912395730E+04  0.38850083989E+04 0.  0.
        2    1    3    3  502    0  0.98093423962E+03 -0.47807253211E+03 -0.17196676273E+04  0.20366742687E+04  0.25500000920E-02 0. -1.
       -2    1    3    3    0  502 -0.98093423962E+03  0.47807253211E+03  0.14995423101E+04  0.18545653044E+04  0.25500000920E-02 0.  1.
</event>
<event>
 5   0  0.1876027E-07  0.3974875E+04  0.7818609E-02  0.8009634E-01
       -1   -1    0    0    0  501  0.00000000000E+00  0.00000000000E+00  0.17204850686E+04  0.17204850686E+04  0.50400001928E-02 0.  1.
        1   -1    0    0  501    0  0.00000000000E+00  0.00000000000E+00 -0.22958101126E+04  0.22958101126E+04  0.50400001928E-02 0. -1.
    10030    2    1    2    0    0  0.00000000000E+00  0.00000000000E+00 -0.57532504400E+03  0.40162951813E+04  0.39748745989E+04 0.  0.
        3    1    3    3  502    0 -0.81556517664E+03 -0.17783747158E+04 -0.64079522973E+03  0.20587330385E+04  0.10100000352E+00 0.  1.
       -3    1    3    3    0  502  0.81556517664E+03  0.17783747158E+04  0.65470185727E+02  0.19575621427E+04  0.10100000352E+00 0. -1.
</event>
<event>
 5   0  0.6095665E-07  0.3216530E+04  0.7818609E-02  0.8184465E-01
        2   -1    0    0  501    0  0.00000000000E+00  0.00000000000E+00  0.13655251464E+04  0.13655251464E+04  0.25500000920E-02 0. -1.
       -2   -1    0    0    0  501  0.00000000000E+00  0.00000000000E+00 -0.18941545269E+04  0.18941545269E+04  0.25500000920E-02 0.  1.
    10030    2    1    2    0    0  0.00000000000E+00  0.00000000000E+00 -0.52862938052E+03  0.32596796732E+04  0.32165295817E+04 0.  0.
        4    1    3    3  502    0 -0.65898858330E+03 -0.65966894725E+03  0.10636400255E+04  0.14144825165E+04  0.12699999809E+01 0. -1.
       -4    1    3    3    0  502  0.65898858330E+03  0.65966894725E+03 -0.15922694060E+04  0.18451971567E+04  0.12699999809E+01 0.  1.
</event>
<event>
 5   0  0.5735179E-07  0.3700723E+04  0.7818609E-02  0.8067802E-01
        2   -1    0    0  501    0  0.00000000000E+00  0.00000000000E+00  0.15080749526E+04  0.15080749526E+04  0.25500000920E-02 0.  1.
       -2   -1    0    0    0  501  0.00000000000E+00  0.00000000000E+00 -0.22703364690E+04  0.22703364690E+04  0.25500000920E-02 0. -1.
    10030    2    1    2    0    0  0.00000000000E+00  0.00000000000E+00 -0.76226151645E+03  0.37784114216E+04  0.37007229363E+04 0.  0.
        5    1    3    3  502    0 -0.75976342665E+03 -0.15225887656E+04 -0.11232306113E+04  0.20389178772E+04  0.46999998093E+01 0. -1.
       -5    1    3    3    0  502  0.75976342665E+03  0.15225887656E+04  0.36096909481E+03  0.17394935444E+04  0.46999998093E+01 0.  1.
</event>
<event>
 5   0  0.5805753E-07  0.2937206E+04  0.7818609E-02  0.8261893E-01
        2   -1    0    0  501    0  0.00000000000E+00  0.00000000000E+00  0.15467856116E+04  0.15467856116E+04  0.25500000920E-02 0. -1.
       -2   -1    0    0    0  501  0.00000000000E+00  0.00000000000E+00 -0.13943720739E+04  0.13943720739E+04  0.25500000920E-02 0.  1.
    10030    2    1    2    0    0  0.00000000000E+00  0.00000000000E+00  0.15241353773E+03  0.29411576855E+04  0.29372059247E+04 0.  0.
        1    1    3    3  502    0  0.10053301025E+04 -0.15018756939E+03  0.11376091690E+04  0.15255817062E+04  0.50400001928E-02 0. -1.
       -1    1    3    3    0  502 -0.10053301025E+04  0.15018756939E+03 -0.98519563127E+03  0.14155759792E+04  0.50400001928E-02 0.  1.
</event>
<event>
 5   0  0.1860500E-07  0.4098211E+04  0.7818609E-02  0.7985022E-01
       -1   -1    0    0    0  501  0.00000000000E+00  0.00000000000E+00  0.21572132306E+04  0.21572132306E+04  0.50400001928E-02 0. -1.
        1   -1    0    0  501    0  0.00000000000E+00  0.00000000000E+00 -0.19464159888E+04  0.19464159889E+04  0.50400001928E-02 0.  1.
    10030    2    1    2    0    0  0.00000000000E+00  0.00000000000E+00  0.21079724179E+03  0.41036292195E+04  0.40982114750E+04 0.  0.
        4    1    3    3  502    0  0.78682621136E+03  0.12683246874E+04 -0.13004124010E+04  0.19796002185E+04  0.12699999809E+01 0.  1.
       -4    1    3    3    0  502 -0.78682621136E+03 -0.12683246874E+04  0.15112096428E+04  0.21240290010E+04  0.12699999809E+01 0. -1.
</event>
<event>
 5   0  0.6095665E-07  0.2476263E+04  0.7818609E-02  0.8411491E-01
        2   -1    0    0  501    0  0.00000000000E+00  0.00000000000E+00  0.14116114942E+04  0.14116114942E+04  0.25500000920E-02 0.  1.
       -2   -1    0    0    0  501  0.00000000000E+00  0.00000000000E+00 -0.10859713710E+04  0.10859713710E+04  0.25500000920E-02 0. -1.
    10030    2    1    2    0    0  0.00000000000E+00  0.00000000000E+00  0.32564012316E+03  0.24975828652E+04  0.24762630471E+04 0.  0.
        4    1    3    3  502    0  0.24849699670E+03 -0.11891913741E+04 -0.78069156423E+02  0.12173837881E+04  0.12699999809E+01 0. -1.
       -4    1    3    3    0  502 -0.24849699670E+03  0.11891913741E+04  0.40370927959E+03  0.12801990770E+04  0.12699999809E+01 0.  1.
</event>
<event>
 5   0  0.1943459E-07  0.2997366E+04  0.7818609E-02  0.8244483E-01
       -1   -1    0    0    0  501  0.00000000000E+00  0.00000000000E+00  0.86018565438E+03  0.86018565439E+03  0.50400001928E-02 0.  1.
        1   -1    0    0  501    0  0.00000000000E+00  0.00000000000E+00 -0.26111232615E+04  0.26111232615E+04  0.50400001928E-02 0. -1.
    10030    2    1    2    0    0  0.00000000000E+00  0.00000000000E+00 -0.17509376072E+04  0.34713089159E+04  0.29973660246E+04 0.  0.
        2    1    3    3  502    0  0.13719600521E+02  0.68388433455E+03 -0.24197965814E+04  0.25146175666E+04  0.25500000920E-02 0. -1.
       -2    1    3    3    0  502 -0.13719600521E+02 -0.68388433455E+03  0.66885897428E+03  0.95669134937E+03  0.25500000920E-02 0.  1.
</event>
<event>
 5   0  0.5805753E-07  0.3973760E+04  0.7818609E-02  0.8009861E-01
       -2   -1    0    0    0  501  0.00000000000E+00  0.00000000000E+00  0.15748034841E+04  0.15748034841E+04  0.25500000920E-02 0.  1.
        2   -1    0    0  501    0  0.00000000000E+00  0.00000000000E+00 -0.25067836083E+04  0.25067836083E+04  0.25500000920E-02 0. -1.
    10030    2    1    2    0    0  0.00000000000E+00  0.00000000000E+00 -0.93198012416E+03  0.40815870924E+04  0.39737597110E+04 0.  0.
        1    1    3    3  502    0  0.15553168737E+04 -0.10203874417E+04  0.25116079612E+03  0.18770409836E+04  0.50400001928E-02 0. -1.
       -1    1    3    3    0  502 -0.15553168737E+04  0.10203874417E+04 -0.11831409203E+04  0.22045461088E+04  0.50400001928E-02 0.  1.
</event>
<event>
 5   0  0.1860500E-07  0.3906752E+04  0.7818609E-02  0.8023626E-01
       -1   -1    0    0    0  501  0.00000000000E+00  0.00000000000E+00  0.14949172366E+04  0.14949172366E+04  0.50400001928E-02 0. -1.
        1   -1    0    0  501    0  0.00000000000E+00  0.00000000000E+00 -0.25524344630E+04  0.25524344630E+04  0.50400001928E-02 0.  1.
    10030    2    1    2    0    0  0.00000000000E+00  0.00000000000E+00 -0.10575172264E+04  0.40473516996E+04  0.39067522440E+04 0.  0.
        4    1    3    3  502    0 -0.41386657919E+01  0.19316306495E+04 -0.22767493631E+03  0.19450068340E+04  0.12699999809E+01 0.  1.
       -4    1    3    3    0  502  0.41386657919E+01 -0.19316306495E+04 -0.82984229008E+03  0.21023448656E+04  0.12699999809E+01 0. -1.
</event>
<event>
 5   0  0.1860500E-07  0.3028722E+04  0.7818609E-02  0.8235577E-01
       -1   -1    0    0    0  501  0.00000000000E+00  0.00000000000E+00  0.15595357643E+04  0.15595357643E+04  0.50400001928E-02 0.  1.
        1   -1    0    0  501    0  0.00000000000E+00  0.00000000000E+00 -0.14704943228E+04  0.14704943228E+04  0.50400001928E-02 0. -1.
    10030    2    1    2    0    0  0.00000000000E+00  0.00000000000E+00  0.89041441506E+02  0.30300300870E+04  0.30287215042E+04 0.  0.
        4    1    3    3  502    0  0.20943347422E+03 -0.12034917573E+04  0.93991137211E+03  0.15413272820E+04  0.12699999809E+01 0.  1.
       -4    1    3    3    0  502 -0.20943347422E+03  0.12034917573E+04 -0.85086993060E+03  0.14887028050E+04  0.12699999809E+01 0. -1.
</event>
<event>
 5   0  0.5805753E-07  0.2492583E+04  0.7818609E-02  0.8405633E-01
        2   -1    0    0  501    0  0.00000000000E+00  0.00000000000E+00  0.19544666943E+04  0.19544666943E+04  0.25500000920E-02 0.  1.
       -2   -1    0    0    0  501  0.00000000000E+00  0.00000000000E+00 -0.79471400263E+03  0.79471400263E+03  0.25500000920E-02 0. -1.
    10030    2    1    2    0    0  0.00000000000E+00  0.00000000000E+00  0.11597526917E+04  0.27491806970E+04  0.24925826363E+04 0.  0.
        1    1    3    3  502    0 -0.60621208674E+03  0.10236102469E+03  0.17755778157E+04  0.18790017172E+04  0.50400001928E-02 0.  1.
       -1    1    3    3    0  502  0.60621208674E+03 -0.10236102469E+03 -0.61582512401E+03  0.87017897979E+03  0.50400001928E-02 0. -1.
</event>
<event>
 5   0  0.6095665E-07  0.3502165E+04  0.7818609E-02  0.8113277E-01
       -2   -1    0    0    0  501  0.00000000000E+00  0.00000000000E+00  0.24059260541E+04  0.24059260541E+04  0.25500000920E-02 0. -1.
        2   -1    0    0  501    0  0.00000000000E+00  0.00000000000E+00 -0.12744740081E+04  0.12744740081E+04  0.25500000920E-02 0.  1.
    10030    2    1    2    0    0  0.00000000000E+00  0.00000000000E+00  0.11314520460E+04  0.36804000622E+04  0.35021651711E+04 0.  0.
        4    1    3    3  502    0  0.16977860562E+04  0.16107734728E+03  0.14818263354E+03  0.17118361809E+04  0.12699999809E+01 0.  1.
       -4    1    3    3    0  502 -0.16977860562E+04 -0.16107734728E+03  0.98326941248E+03  0.19685638813E+04  0.12699999809E+01 0. -1.
</event>
<event>
 5   0  0.1860500E-07  0.3874783E+04  0.7818609E-02  0.8030294E-01
        1   -1    0    0  501    0  0.00000000000E+00  0.00000000000E+00  0.17040056753E+04  0.17040056753E+04  0.50400001928E-02 0.  1.
       -1   -1    0    0    0  501  0.00000000000E+00  0.00000000000E+00 -0.22027429170E+04  0.22027429170E+04  0.50400001928E-02 0. -1.
    10030    2    1    2    0    0  0.00000000000E+00  0.00000000000E+00 -0.49873724175E+03  0.39067485923E+04  0.38747833136E+04 0.  0.
        5    1    3    3  502    0 -0.18488580043E+03 -0.13705644428E+04 -0.16173350467E+04  0.21280094911E+04  0.46999998093E+01 0.  1.
       -5    1    3    3    0  502  0.18488580043E+03  0.13705644428E+04  0.11185978049E+04  0.17787391012E+04  0.46999998093E+01 0. -1.
</event>
<event>
 5   0  0.6095665E-07  0.4213991E+04  0.7818609E-02  0.7962716E-01
       -2   -1    0    0    0  501  0.00000000000E+00  0.00000000000E+00  0.30169441096E+04  0.30169441096E+04  0.25500000920E-02 0.  1.
        2   -1    0    0  501    0  0.00000000000E+00  0.00000000000E+00 -0.14714991786E+04  0.14714991786E+04  0.25500000920E-02 0. -1.
    10030    2    1    2    0    0  0.00000000000E+00  0.00000000000E+00  0.15454449310E+04  0.44884432882E+04  0.42139913523E+04 0.  0.
        4    1    3    3  502    0 -0.49685956340E+03  0.57904817539E+03  0.28646263440E+04  0.29644985949E+04  0.12699999809E+01 0.  1.
       -4    1    3    3    0  502  0.49685956340E+03 -0.57904817539E+03 -0.13191814130E+04  0.15239446934E+04  0.12699999809E+01 0. -1.
</event>
<event>
 5   0  0.5805753E-07  0.3273607E+04  0.7818609E-02  0.8169644E-01
        2   -1    0    0  501    0  0.00000000000E+00  0.00000000000E+00  0.16734386703E+04  0.16734386703E+04  0.25500000920E-02 0.  1.
       -2   -1    0    0    0  501  0.00000000000E+00  0.00000000000E+00 -0.16009706347E+04  0.16009706347E+04  0.25500000920E-02 0. -1.
    10030    2    1    2    0    0  0.00000000000E+00  0.00000000000E+00  0.72468035597E+02  0.32744093050E+04  0.32736072887E+04 0.  0.
        1    1    3    3  502    0 -0.71680835829E+03  0.13378811049E+04 -0.57660368873E+03  0.16236415513E+04  0.50400001928E-02 0. -1.
       -1    1    3    3    0  502  0.71680835829E+03 -0.13378811049E+04  0.64907172433E+03  0.16507677537E+04  0.50400001928E-02 0.  1.
</event>
<event>
 5   0  0.1860500E-07  0.3820265E+04  0.7818609E-02  0.8041820E-01
       -1   -1    0    0    0  501  0.00000000000E+00  0.00000000000E+00  0.16426180544E+04  0.16426180544E+04  0.50400001928E-02 0.  1.
        1   -1    0    0  501    0  0.00000000000E+00  0.00000000000E+00 -0.22212135168E+04  0.22212135169E+04  0.50400001928E-02 0. -1.
    10030    2    1    2    0    0  0.00000000000E+00  0.00000000000E+00 -0.57859546248E+03  0.38638315712E+04  0.38202646115E+04 0.  0.
        4    1    3    3  502    0  0.12920321399E+04  0.12919151290E+04  0.27402085575E+03  0.18475607685E+04  0.12699999809E+01 0. -1.
       -4    1    3    3    0  502 -0.12920321399E+04 -0.12919151290E+04 -0.85261631823E+03  0.20162708027E+04  0.12699999809E+01 0.  1.
</event>
<event>
 5   0  0.1860500E-07  0.3911694E+04  0.7818609E-02  0.8022601E-01
        1   -1    0    0  501    0  0.00000000000E+00  0.00000000000E+00  0.31878553499E+04  0.31878553499E+04  0.50400001928E-02 0. -1.
       -1   -1    0    0    0  501  0.00000000000E+00  0.00000000000E+00 -0.11999721227E+04  0.11999721227E+04  0.50400001928E-02 0.  1.
    10030    2    1    2    0    0  0.00000000000E+00  0.00000000000E+00  0.19878832272E+04  0.43878274725E+04  0.39116940325E+04 0.  0.
        4    1    3    3  502    0  0.77950991748E+03  0.37313739020E+03  0.29620637118E+04  0.30855615808E+04  0.12699999809E+01 0. -1.
       -4    1    3    3    0  502 -0.77950991748E+03 -0.37313739020E+03 -0.97418048455E+03  0.13022658917E+04  0.12699999809E+01 0.  1.
</event>
<event>
 5   0  0.1876027E-07  0.3028676E+04  0.7818609E-02  0.8235589E-01
       -1   -1    0    0    0  501  0.00000000000E+00  0.00000000000E+00  0.12635839323E+04  0.12635839323E+04  0.50400001928E-02 0. -1.
        1   -1    0    0  501    0  0.00000000000E+00  0.00000000000E+00 -0.18148531583E+04  0.18148531583E+04  0.50400001928E-02 0.  1.
    10030    2    1    2    0    0  0.00000000000E+00  0.00000000000E+00 -0.55126922595E+03  0.30784370906E+04  0.30286758098E+04 0.  0.
        3    1    3    3  502    0 -0.12890392203E+04 -0.74767516288E+03 -0.54946588395E+03  0.15882547115E+04  0.10100000352E+00 0. -1.
       -3    1    3    3    0  502  0.12890392203E+04  0.74767516288E+03 -0.18033420018E+01  0.14901823791E+04  0.10100000352E+00 0.  1.
</event>
<event>
 5   0  0.1860500E-07  0.3952461E+04  0.7818609E-02  0.8014206E-01
        1   -1    0    0  501    0  0.00000000000E+00  0.00000000000E+00  0.16103866090E+04  0.16103866090E+04  0.50400001928E-02 0.  1.
       -1   -1    0    0    0  501  0.00000000000E+00  0.00000000000E+00 -0.24251854115E+04  0.24251854115E+04  0.50400001928E-02 0. -1.
    10030    2    1    2    0    0  0.00000000000E+00  0.00000000000E+00 -0.81479880250E+03  0.40355720205E+04  0.39524605557E+04 0.  0.
        5    1    3    3  502    0  0.88616183535E+03 -0.11104826113E+04 -0.18099696156E+04  0.23009707794E+04  0.46999998093E+01 0. -1.
       -5    1    3    3    0  502 -0.88616183535E+03  0.11104826113E+04  0.99517081309E+03  0.17346012411E+04  0.46999998093E+01 0.  1.
</event>
<event>
 5   0  0.1876027E-07  0.2999311E+04  0.7818609E-02  0.8243928E-01
       -1   -1    0    0    0  501  0.00000000000E+00  0.00000000000E+00  0.10195907964E+04  0.10195907964E+04  0.50400001928E-02 0. -1.
        1   -1    0    0  501    0  0.00000000000E+00  0.00000000000E+00 -0.22057538204E+04  0.22057538204E+04  0.50400001928E-02 0.  1.
    10030    2    1    2    0    0  0.00000000000E+00  0.00000000000E+00 -0.11861630241E+04  0.32253446168E+04  0.29993107838E+04 0.  0.
        3    1    3    3  502    0  0.61873483964E+03 -0.81732540710E+03 -0.17701547459E+04  0.20455565154E+04  0.10100000352E+00 0.  1.
       -3    1    3    3    0  502 -0.61873483964E+03  0.81732540710E+03  0.58399172188E+03  0.11797881014E+04  0.10100000352E+00 0. -1.
</event>
<event>
 5   0  0.6095665E-07  0.3867965E+04  0.7818609E-02  0.8031725E-01
        2   -1    0    0  501    0  0.00000000000E+00  0.00000000000E+00  0.23339073400E+04  0.23339073400E+04  0.25500000920E-02 0. -1.
       -2   -1    0    0    0  501  0.00000000000E+00  0.00000000000E+00 -0.16025863666E+04  0.16025863666E+04  0.25500000920E-02 0.  1.
    10030    2    1    2    0    0  0.00000000000E+00  0.00000000000E+00  0.73132097338E+03  0.39364937067E+04  0.38679648831E+04 0.  0.
        4    1    3    3  502    0  0.14764857330E+04 -0.45968953479E+03 -0.81636510134E+03  0.17486503880E+04  0.12699999809E+01 0.  1.
       -4    1    3    3    0  502 -0.14764857330E+04  0.45968953479E+03  0.15476860747E+04  0.21878433186E+04  0.12699999809E+01 0. -1.
</event>
<event>
 5   0  0.5805753E-07  0.3098913E+04  0.7818609E-02  0.8216036E-01
       -2   -1    0    0    0  501  0.00000000000E+00  0.00000000000E+00  0.97639270057E+03  0.97639270057E+03  0.25500000920E-02 0. -1.
        2   -1    0    0  501    0  0.00000000000E+00  0.00000000000E+00 -0.24588632609E+04  0.24588632609E+04  0.25500000920E-02 0.  1.
    10030    2    1    2    0    0  0.00000000000E+00  0.00000000000E+00 -0.14824705604E+04  0.34352559615E+04  0.30989134481E+04 0.  0.
        1    1    3    3  502    0  0.69818366170E+03  0.70492447878E+03 -0.20605497217E+04  0.22869726937E+04  0.50400001928E-02 0.  1.
       -1    1    3    3    0  502 -0.69818366170E+03 -0.70492447878E+03  0.57807916134E+03  0.11482832678E+04  0.50400001928E-02 0. -1.
</event>
<event>
 5   0  0.1943459E-07  0.3832147E+04  0.7818609E-02  0.8039291E-01
        1   -1    0    0  501    0  0.00000000000E+00  0.00000000000E+00  0.12366597408E+04  0.12366597408E+04  0.50400001928E-02 0.  1.
       -1   -1    0    0    0  501  0.00000000000E+00  0.00000000000E+00 -0.29687531724E+04  0.29687531724E+04  0.50400001928E-02 0. -1.
    10030    2    1    2    0    0  0.00000000000E+00  0.00000000000E+00 -0.17320934317E+04  0.42054129132E+04  0.38321469328E+04 0.  0.
        2    1    3    3  502    0  0.17004592629E+04 -0.47399586706E+03 -0.16836705988E+04  0.24394631524E+04  0.25500000920E-02 0.  1.
       -2    1    3    3    0  502 -0.17004592629E+04  0.47399586706E+03 -0.48422832904E+02  0.17659497608E+04  0.25500000920E-02 0. -1.
</event>
<event>
 5   0  0.5872444E-07  0.3935515E+04  0.7818609E-02  0.8017683E-01
       -2   -1    0    0    0  501  0.00000000000E+00  0.00000000000E+00  0.13486441601E+04  0.13486441601E+04  0.25500000920E-02 0. -1.
        2   -1    0    0  501    0  0.00000000000E+00  0.00000000000E+00 -0.28710827228E+04  0.28710827228E+04  0.25500000920E-02 0.  1.
    10030    2    1    2    0    0  0.00000000000E+00  0.00000000000E+00 -0.15224385627E+04  0.42197268828E+04  0.39355146790E+04 0.  0.
        3    1    3    3  502    0 -0.10106634298E+04  0.47369346054E+03  0.97638248565E+03  0.14829527407E+04  0.10100000352E+00 0. -1.
       -3    1    3    3    0  502  0.10106634298E+04 -0.47369346054E+03 -0.24988210484E+04  0.27367741421E+04  0.10100000352E+00 0.  1.
</event>
<event>
 5   0  0.1943459E-07  0.3918443E+04  0.7818609E-02  0.8021204E-01
        1   -1    0    0  501    0  0.00000000000E+00  0.00000000000E+00  0.18538339783E+04  0.18538339783E+04  0.50400001928E-02 0. -1.
       -1   -1    0    0    0  501  0.00000000000E+00  0.00000000000E+00 -0.20706004882E+04  0.20706004882E+04  0.50400001928E-02 0.  1.
    10030    2    1    2    0    0  0.00000000000E+00  0.00000000000E+00 -0.21676650991E+03  0.39244344664E+04  0.39184433340E+04 0.  0.
        2    1    3    3  502    0 -0.44821395482E+01 -0.12161456270E+04  0.14300380102E+04  0.18772423887E+04  0.25500000920E-02 0. -1.
       -2    1    3    3    0  502  0.44821395482E+01  0.12161456270E+04 -0.16468045201E+04  0.20471920777E+04  0.25500000920E-02 0.  1.
</event>
<event>
 5   0  0.3959190E-07  0.3876975E+04  0.7818609E-02  0.8029835E-01
        2   -1    0    0  501    0  0.00000000000E+00  0.00000000000E+00  0.19049488138E+04  0.19049488138E+04  0.25500000920E-02 0.  1.
       -2   -1    0    0    0  501  0.00000000000E+00  0.00000000000E+00 -0.19726162101E+04  0.19726162101E+04  0.25500000920E-02 0. -1.
    10030    2    1    2    0    0  0.00000000000E+00  0.00000000000E+00 -0.67667396371E+02  0.38775650239E+04  0.38769745470E+04 0.  0.
        2    1    3    3  502    0 -0.10280597936E+04  0.60117586921E+02 -0.16764028743E+04  0.19674469905E+04  0.25500000920E-02 0. -1.
       -2    1    3    3    0  502  0.10280597936E+04 -0.60117586921E+02  0.16087354780E+04  0.19101180334E+04  0.25500000920E-02 0.  1.
</event>
<event>
 5   0  0.5805753E-07  0.3042885E+04  0.7818609E-02  0.8231590E-01
        2   -1    0    0  501    0  0.00000000000E+00  0.00000000000E+00  0.18537756978E+04  0.18537756978E+04  0.25500000920E-02 0.  1.
       -2   -1    0    0    0  501  0.00000000000E+00  0.00000000000E+00 -0.12486880917E+04  0.12486880917E+04  0.25500000920E-02 0. -1.
    10030    2    1    2    0    0  0.00000000000E+00  0.00000000000E+00  0.60508760613E+03  0.31024637895E+04  0.30428852351E+04 0.  0.
        1    1    3    3  502    0 -0.29569081486E+03 -0.22897144729E+03 -0.12010947642E+04  0.12579704345E+04  0.50400001928E-02 0. -1.
       -1    1    3    3    0  502  0.29569081486E+03  0.22897144729E+03  0.18061823703E+04  0.18444933549E+04  0.50400001928E-02 0.  1.
</event>
<event>
 5   0  0.1860500E-07  0.3759627E+04  0.7818609E-02  0.8054875E-01
       -3   -1    0    0    0  501  0.00000000000E+00  0.00000000000E+00  0.15216912698E+04  0.15216912732E+04  0.10100000352E+00 0.  1.
        3   -1    0    0  501    0  0.00000000000E+00  0.00000000000E+00 -0.23222180964E+04  0.23222180986E+04  0.10100000352E+00 0. -1.
    10030    2    1    2    0    0  0.00000000000E+00  0.00000000000E+00 -0.80052682657E+03  0.38439093718E+04  0.37596271169E+04 0.  0.
        5    1    3    3  502    0  0.42531511903E+02 -0.15526877939E+03  0.15146241449E+04  0.15231630621E+04  0.46999998093E+01 0.  1.
       -5    1    3    3    0  502 -0.42531511903E+02  0.15526877939E+03 -0.23151509715E+04  0.23207463097E+04  0.46999998093E+01 0. -1.
</event>
<event>
 5   0  0.6095665E-07  0.3692230E+04  0.7818609E-02  0.8069686E-01
       -2   -1    0    0    0  501  0.00000000000E+00  0.00000000000E+00  0.12639689431E+04  0.12639689431E+04  0.25500000920E-02 0.  1.
        2   -1    0    0  501    0  0.00000000000E+00  0.00000000000E+00 -0.26963795624E+04  0.26963795624E+04  0.25500000920E-02 0. -1.
    10030    2    1    2    0    0  0.00000000000E+00  0.00000000000E+00 -0.14324106192E+04  0.39603485055E+04  0.36922296926E+04 0.  0.
        4    1    3    3  502    0 -0.73081591684E+03  0.16943337934E+04 -0.65477978810E+03  0.19579573774E+04  0.12699999809E+01 0. -1.
       -4    1    3    3    0  502  0.73081591684E+03 -0.16943337934E+04 -0.77763083113E+03  0.20023911282E+04  0.12699999809E+01 0.  1.
</event>
<event>
 5   0  0.6095665E-07  0.4030492E+04  0.7818609E-02  0.7998423E-01
       -2   -1    0    0    0  501  0.00000000000E+00  0.00000000000E+00  0.14761247703E+04  0.14761247703E+04  0.25500000920E-02 0. -1.
        2   -1    0    0  501    0  0.00000000000E+00  0.00000000000E+00 -0.27512687988E+04  0.27512687988E+04  0.25500000920E-02 0.  1.
    10030    2    1    2    0    0  0.00000000000E+00  0.00000000000E+00 -0.12751440285E+04  0.42273935690E+04  0.40304917931E+04 0.  0.
        4    1    3    3  502    0 -0.10299963383E+04  0.73840988587E+01 -0.24543197385E+04  0.26616975737E+04  0.12699999809E+01 0.  1.
       -4    1    3    3    0  502  0.10299963383E+04 -0.73840988587E+01  0.11791757100E+04  0.15656959954E+04  0.12699999809E+01 0. -1.
</event>
<event>
 5   0  0.1860500E-07  0.2867185E+04  0.7818609E-02  0.8282708E-01
        1   -1    0    0  501    0  0.00000000000E+00  0.00000000000E+00  0.13942294044E+04  0.13942294044E+04  0.50400001928E-02 0.  1.
       -1   -1    0    0    0  501  0.00000000000E+00  0.00000000000E+00 -0.14740672126E+04  0.14740672126E+04  0.50400001928E-02 0. -1.
    10030    2    1    2    0    0  0.00000000000E+00  0.00000000000E+00 -0.79837808118E+02  0.28682966170E+04  0.28671852761E+04 0.  0.
        5    1    3    3  502    0  0.14317380995E+04 -0.71682282906E+02 -0.27527549965E+02  0.14338034005E+04  0.46999998093E+01 0. -1.
       -5    1    3    3    0  502 -0.14317380995E+04  0.71682282906E+02 -0.52310258153E+02  0.14344932165E+04  0.46999998093E+01 0.  1.
</event>
<event>
 5   0  0.1943459E-07  0.2804412E+04  0.7818609E-02  0.8301900E-01
        1   -1    0    0  501    0  0.00000000000E+00  0.00000000000E+00  0.15788760639E+04  0.15788760639E+04  0.50400001928E-02 0.  1.
       -1   -1    0    0    0  501  0.00000000000E+00  0.00000000000E+00 -0.12453048631E+04  0.12453048631E+04  0.50400001928E-02 0. -1.
    10030    2    1    2    0    0  0.00000000000E+00  0.00000000000E+00  0.33357120079E+03  0.28241809270E+04  0.28044122668E+04 0.  0.
        2    1    3    3  502    0  0.18139533625E+03 -0.53035168182E+03  0.14611492823E+04  0.15649710539E+04  0.25500000920E-02 0.  1.
       -2    1    3    3    0  502 -0.18139533625E+03  0.53035168182E+03 -0.11275780815E+04  0.12592098731E+04  0.25500000920E-02 0. -1.
</event>
<event>
 5   0  0.1860500E-07  0.3944075E+04  0.7818609E-02  0.8015924E-01
       -1   -1    0    0    0  501  0.00000000000E+00  0.00000000000E+00  0.29936394332E+04  0.29936394332E+04  0.50400001928E-02 0.  1.
        1   -1    0    0  501    0  0.00000000000E+00  0.00000000000E+00 -0.12990647811E+04  0.12990647812E+04  0.50400001928E-02 0. -1.
    10030    2    1    2    0    0  0.00000000000E+00  0.00000000000E+00  0.16945746520E+04  0.42927042143E+04  0.39440748244E+04 0.  0.
        5    1    3    3  502    0 -0.37038729427E+03  0.16135621574E+03  0.29481080648E+04  0.29756656109E+04  0.46999998093E+01 0.  1.
       -5    1    3    3    0  502  0.37038729427E+03 -0.16135621574E+03 -0.12535334128E+04  0.13170386035E+04  0.46999998093E+01 0. -1.
</event>
<event>
 5   0  0.5805753E-07  0.3682651E+04  0.7818609E-02  0.8071818E-01
        2   -1    0    0  501    0  0.00000000000E+00  0.00000000000E+00  0.29812175912E+04  0.29812175912E+04  0.25500000920E-02 0.  1.
       -2   -1    0    0    0  501  0.00000000000E+00  0.00000000000E+00 -0.11372798551E+04  0.11372798551E+04  0.25500000920E-02 0. -1.
    10030    2    1    2    0    0  0.00000000000E+00  0.00000000000E+00  0.18439377361E+04  0.41184974463E+04  0.36826505184E+04 0.  0.
        1    1    3    3  502    0  0.16344878961E+04  0.21773428121E+03  0.55211182779E+01  0.16489358333E+04  0.50400001928E-02 0. -1.
       -1    1    3    3    0  502 -0.16344878961E+04 -0.21773428121E+03  0.18384166178E+04  0.24695616129E+04  0.50400001928E-02 0.  1.
</event>
<event>
 5   0  0.3959190E-07  0.3928436E+04  0.7818609E-02  0.8019141E-01
        2   -1    0    0  501    0  0.00000000000E+00  0.00000000000E+00  0.14867950776E+04  0.14867950776E+04  0.25500000920E-02 0. -1.
       -2   -1    0    0    0  501  0.00000000000E+00  0.00000000000E+00 -0.25949458426E+04  0.25949458426E+04  0.25500000920E-02 0.  1.
    10030    2    1    2    0    0  0.00000000000E+00  0.00000000000E+00 -0.11081507650E+04  0.40817409202E+04  0.39284361802E+04 0.  0.
        2    1    3    3  502    0  0.57688323933E+03 -0.96940996141E+03  0.11166560162E+04  0.15872840337E+04  0.25500000920E-02 0. -1.
       -2    1    3    3    0  502 -0.57688323933E+03  0.96940996141E+03 -0.22248067812E+04  0.24944568865E+04  0.25500000920E-02 0.  1.
</event>
<event>
 5   0  0.5735179E-07  0.3909944E+04  0.7818609E-02  0.8022964E-01
        2   -1    0    0  501    0  0.00000000000E+00  0.00000000000E+00  0.19744395243E+04  0.19744395243E+04  0.25500000920E-02 0.  1.
       -2   -1    0    0    0  501  0.00000000000E+00  0.00000000000E+00 -0.19356967613E+04  0.19356967613E+04  0.25500000920E-02 0. -1.
    10030    2    1    2    0    0  0.00000000000E+00  0.00000000000E+00  0.38742762903E+02  0.39101362856E+04  0.39099443436E+04 0.  0.
        5    1    3    3  502    0  0.16177689911E+03 -0.45312708921E+03 -0.18755562419E+04  0.19362926510E+04  0.46999998093E+01 0. -1.
       -5    1    3    3    0  502 -0.16177689911E+03  0.45312708921E+03  0.19142990048E+04  0.19738436346E+04  0.46999998093E+01 0.  1.
</event>
<event>
 5   0  0.1860500E-07  0.3545496E+04  0.7818609E-02  0.8103092E-01
       -1   -1    0    0    0  501  0.00000000000E+00  0.00000000000E+00  0.17629812721E+04  0.17629812721E+04  0.50400001928E-02 0.  1.
        1   -1    0    0  501    0  0.00000000000E+00  0.00000000000E+00 -0.17825692972E+04  0.17825692972E+04  0.50400001928E-02 0. -1.
    10030    2    1    2    0    0  0.00000000000E+00  0.00000000000E+00 -0.19588025092E+02  0.35455505693E+04  0.35454964601E+04 0.  0.
        4    1    3    3  502    0 -0.13431381378E+03  0.94559454762E+03 -0.15032843892E+04  0.17810263380E+04  0.12699999809E+01 0. -1.
       -4    1    3    3    0  502  0.13431381378E+03 -0.94559454762E+03  0.14836963641E+04  0.17645242313E+04  0.12699999809E+01 0.  1.
</event>
<event>
 5   0  0.2666813E-07  0.3776501E+04  0.7818609E-02  0.8051217E-01
       -1   -1    0    0    0  501  0.00000000000E+00  0.00000000000E+00  0.30481927177E+04  0.30481927177E+04  0.50400001928E-02 0.  1.
        1   -1    0    0  501    0  0.00000000000E+00  0.00000000000E+00 -0.11697060502E+04  0.11697060502E+04  0.50400001928E-02 0. -1.
    10030    2    1    2    0    0  0.00000000000E+00  0.00000000000E+00  0.18784866675E+04  0.42178987680E+04  0.37765007423E+04 0.  0.
        1    1    3    3  502    0  0.16789173769E+04  0.81597617004E+01  0.19043333529E+04  0.25387626236E+04  0.50400001928E-02 0.  1.
       -1    1    3    3    0  502 -0.16789173769E+04 -0.81597617004E+01 -0.25846685410E+02  0.16791361443E+04  0.50400001928E-02 0. -1.
</event>
<event>
 5   0  0.3959190E-07  0.4172028E+04  0.7818609E-02  0.7970715E-01
       -2   -1    0    0    0  501  0.00000000000E+00  0.00000000000E+00  0.16597994760E+04  0.16597994760E+04  0.25500000920E-02 0.  1.
        2   -1    0    0  501    0  0.00000000000E+00  0.00000000000E+00 -0.26216744183E+04  0.26216744183E+04  0.25500000920E-02 0. -1.
    10030    2    1    2    0    0  0.00000000000E+00  0.00000000000E+00 -0.96187494228E+03  0.42814738942E+04  0.41720277207E+04 0.  0.
        2    1    3    3  502    0 -0.43061534622E+03 -0.14838658429E+04 -0.19191903590E+04  0.24638545108E+04  0.25500000920E-02 0. -1.
       -2    1    3    3    0  502  0.43061534622E+03  0.14838658429E+04  0.95731541668E+03  0.18176193835E+04  0.25500000920E-02 0.  1.
</event>
<event>
 5   0  0.1860500E-07  0.2401047E+04  0.7818609E-02  0.8439112E-01
       -3   -1    0    0    0  501  0.00000000000E+00  0.00000000000E+00  0.11580606376E+04  0.11580606420E+04  0.10100000352E+00 0. -1.
        3   -1    0    0  501    0  0.00000000000E+00  0.00000000000E+00 -0.12445437942E+04  0.12445437983E+04  0.10100000352E+00 0.  1.
    10030    2    1    2    0    0  0.00000000000E+00  0.00000000000E+00 -0.86483156682E+02  0.24026044403E+04  0.24010474298E+04 0.  0.
        3    1    3    3  502    0 -0.16192901394E+03 -0.21372591125E+03  0.11277127176E+04  0.11591530332E+04  0.10100000352E+00 0. -1.
       -3    1    3    3    0  502  0.16192901394E+03  0.21372591125E+03 -0.12141958743E+04  0.12434514072E+04  0.10100000352E+00 0.  1.
</event>
<event>
 5   0  0.1860500E-07  0.3973347E+04  0.7818609E-02  0.8009945E-01
       -1   -1    0    0    0  501  0.00000000000E+00  0.00000000000E+00  0.19760239800E+04  0.19760239800E+04  0.50400001928E-02 0.  1.
        1   -1    0    0  501    0  0.00000000000E+00  0.00000000000E+00 -0.19973806779E+04  0.19973806779E+04  0.50400001928E-02 0. -1.
    10030    2    1    2    0    0  0.00000000000E+00  0.00000000000E+00 -0.21356697933E+02  0.39734046578E+04  0.39733472623E+04 0.  0.
        4    1    3    3  502    0 -0.87013946442E+03  0.17835332387E+04  0.82794935643E+02  0.19861999183E+04  0.12699999809E+01 0.  1.
       -4    1    3    3    0  502  0.87013946442E+03 -0.17835332387E+04 -0.10415163358E+03  0.19872047395E+04  0.12699999809E+01 0. -1.
</event>
<event>
 5   0  0.3959190E-07  0.2592227E+04  0.7818609E-02  0.8370846E-01
        2   -1    0    0  501    0  0.00000000000E+00  0.00000000000E+00  0.16855262946E+04  0.16855262946E+04  0.25500000920E-02 0. -1.
       -2   -1    0    0    0  501  0.00000000000E+00  0.00000000000E+00 -0.99666809196E+03  0.99666809197E+03  0.25500000920E-02 0.  1.
    10030    2    1    2    0    0  0.00000000000E+00  0.00000000000E+00  0.68885820264E+03  0.26821943866E+04  0.25922270549E+04 0.  0.
        2    1    3    3  502    0  0.75597875424E+03 -0.47994294832E+03  0.13140000521E+04  0.15901085647E+04  0.25500000920E-02 0. -1.
       -2    1    3    3    0  502 -0.75597875424E+03  0.47994294832E+03 -0.62514184944E+03  0.10920858219E+04  0.25500000920E-02 0.  1.
</event>
<event>
 5   0  0.1860500E-07  0.3959045E+04  0.7818609E-02  0.8012860E-01
       -1   -1    0    0    0  501  0.00000000000E+00  0.00000000000E+00  0.24493205132E+04  0.24493205132E+04  0.50400001928E-02 0.  1.
        1   -1    0    0  501    0  0.00000000000E+00  0.00000000000E+00 -0.15998355991E+04  0.15998355991E+04  0.50400001928E-02 0. -1.
    10030    2    1    2    0    0  0.00000000000E+00  0.00000000000E+00  0.84948491408E+03  0.40491561122E+04  0.39590454155E+04 0.  0.
        5    1    3    3  502    0 -0.53112067936E+03  0.11560486320E+04  0.19758191665E+04  0.23499832094E+04  0.46999998093E+01 0.  1.
       -5    1    3    3    0  502  0.53112067936E+03 -0.11560486320E+04 -0.11263342525E+04  0.16991729029E+04  0.46999998093E+01 0. -1.
</event>
<event>
 5   0  0.5872444E-07  0.3385142E+04  0.7818609E-02  0.8141563E-01
        2   -1    0    0  501    0  0.00000000000E+00  0.00000000000E+00  0.23602988955E+04  0.23602988955E+04  0.25500000920E-02 0.  1.
       -2   -1    0    0    0  501  0.00000000000E+00  0.00000000000E+00 -0.12137427861E+04  0.12137427861E+04  0.25500000920E-02 0. -1.
    10030    2    1    2    0    0  0.00000000000E+00  0.00000000000E+00  0.11465561094E+04  0.35740416816E+04  0.33851415081E+04 0.  0.
        3    1    3    3  502    0  0.96639927494E+03  0.64673332164E+03 -0.72523235591E+03  0.13704574157E+04  0.10100000352E+00 0. -1.
       -3    1    3    3    0  502 -0.96639927494E+03 -0.64673332164E+03  0.18717884653E+04  0.22035842659E+04  0.10100000352E+00 0.  1.
</event>
<event>
 5   0  0.5805753E-07  0.3072724E+04  0.7818609E-02  0.8223264E-01
        2   -1    0    0  501    0  0.00000000000E+00  0.00000000000E+00  0.20662693644E+04  0.20662693644E+04  0.25500000920E-02 0.  1.
       -2   -1    0    0    0  501  0.00000000000E+00  0.00000000000E+00 -0.11423529052E+04  0.11423529052E+04  0.25500000920E-02 0. -1.
    10030    2    1    2    0    0  0.00000000000E+00  0.00000000000E+00  0.92391645921E+03  0.32086222695E+04  0.30727244011E+04 0.  0.
        1    1    3    3  502    0  0.56744232465E+03 -0.14253090866E+04  0.37514264400E+03  0.15793127580E+04  0.50400001928E-02 0. -1.
       -1    1    3    3    0  502 -0.56744232465E+03  0.14253090866E+04  0.54877381521E+03  0.16293095115E+04  0.50400001928E-02 0.  1.
</event>
<event>
 5   0  0.1876027E-07  0.3895414E+04  0.7818609E-02  0.8025984E-01
        1   -1    0    0  501    0  0.00000000000E+00  0.00000000000E+00  0.15083621685E+04  0.15083621685E+04  0.50400001928E-02 0. -1.
       -1   -1    0    0    0  501  0.00000000000E+00  0.00000000000E+00 -0.25150215776E+04  0.25150215776E+04  0.50400001928E-02 0.  1.
    10030    2    1    2    0    0  0.00000000000E+00  0.00000000000E+00 -0.10066594092E+04  0.40233837461E+04  0.38954144327E+04 0.  0.
        3    1    3    3  502    0  0.14765177493E+04 -0.87903004705E+03 -0.14503844295E+04  0.22486470357E+04  0.10100000352E+00 0. -1.
       -3    1    3    3    0  502 -0.14765177493E+04  0.87903004705E+03  0.44372502027E+03  0.17747367104E+04  0.10100000352E+00 0.  1.
</event>
<event>
 5   0  0.2119859E-07  0.2524395E+04  0.7818609E-02  0.8394346E-01
       -1   -1    0    0    0  501  0.00000000000E+00  0.00000000000E+00  0.80343003518E+03  0.80343003520E+03  0.50400001928E-02 0. -1.
        1   -1    0    0  501    0  0.00000000000E+00  0.00000000000E+00 -0.19829260535E+04  0.19829260535E+04  0.50400001928E-02 0.  1.
    10030    2    1    2    0    0  0.00000000000E+00  0.00000000000E+00 -0.11794960183E+04  0.27863560887E+04  0.25243948574E+04 0.  0.
        2    1    3    3  502    0 -0.12046987334E+03 -0.24664783672E+03  0.77008561438E+03  0.81754510532E+03  0.25500000920E-02 0. -1.
       -2    1    3    3    0  502  0.12046987334E+03  0.24664783672E+03 -0.19495816327E+04  0.19688109834E+04  0.25500000920E-02 0.  1.
</event>
<event>
 5   0  0.1860500E-07  0.3674511E+04  0.7818609E-02  0.8073634E-01
       -1   -1    0    0    0  501  0.00000000000E+00  0.00000000000E+00  0.18821378496E+04  0.18821378496E+04  0.50400001928E-02 0.  1.
        1   -1    0    0  501    0  0.00000000000E+00  0.00000000000E+00 -0.17934430266E+04  0.17934430266E+04  0.50400001928E-02 0. -1.
    10030    2    1    2    0    0  0.00000000000E+00  0.00000000000E+00  0.88694822990E+02  0.36755808762E+04  0.36745105805E+04 0.  0.
        4    1    3    3  502    0  0.66456228654E+03 -0.14863916664E+04 -0.80707744795E+03  0.18172448483E+04  0.12699999809E+01 0. -1.
       -4    1    3    3    0  502 -0.66456228654E+03  0.14863916664E+04  0.89577227094E+03  0.18583360280E+04  0.12699999809E+01 0.  1.
</event>
<event>
 5   0  0.1943459E-07  0.2566864E+04  0.7818609E-02  0.8379545E-01
        1   -1    0    0  501    0  0.00000000000E+00  0.00000000000E+00  0.24443661347E+04  0.24443661347E+04  0.50400001928E-02 0. -1.
       -1   -1    0    0    0  501  0.00000000000E+00  0.00000000000E+00 -0.67387515125E+03  0.67387515127E+03  0.50400001928E-02 0.  1.
    10030    2    1    2    0    0  0.00000000000E+00  0.00000000000E+00  0.17704909834E+04  0.31182412860E+04  0.25668639222E+04 0.  0.
        2    1    3    3  502    0  0.31011983124E+03 -0.12373566404E+04  0.10569239637E+04  0.16565971237E+04  0.25500000920E-02 0. -1.
       -2    1    3    3    0  502 -0.31011983124E+03  0.12373566404E+04  0.71356701974E+03  0.14616441622E+04  0.25500000920E-02 0.  1.
</event>
<event>
 5   0  0.2666813E-07  0.4005590E+04  0.7818609E-02  0.8003420E-01
        1   -1    0    0  501    0  0.00000000000E+00  0.00000000000E+00  0.18502223906E+04  0.18502223906E+04  0.50400001928E-02 0. -1.
       -1   -1    0    0    0  501  0.00000000000E+00  0.00000000000E+00 -0.21679493078E+04  0.21679493078E+04  0.50400001928E-02 0.  1.
    10030    2    1    2    0    0  0.00000000000E+00  0.00000000000E+00 -0.31772691720E+03  0.40181716984E+04  0.40055902691E+04 0.  0.
        1    1    3    3  502    0 -0.65739858047E+03  0.56659103313E+03  0.16517962785E+04  0.18659124411E+04  0.50400001928E-02 0. -1.
       -1    1    3    3    0  502  0.65739858047E+03 -0.56659103313E+03 -0.19695231957E+04  0.21522592573E+04  0.50400001928E-02 0.  1.
</event>
<event>
 5   0  0.5872444E-07  0.3900287E+04  0.7818609E-02  0.8024969E-01
       -2   -1    0    0    0  501  0.00000000000E+00  0.00000000000E+00  0.20822490011E+04  0.20822490011E+04  0.25500000920E-02 0. -1.
        2   -1    0    0  501    0  0.00000000000E+00  0.00000000000E+00 -0.18264196552E+04  0.18264196552E+04  0.25500000920E-02 0.  1.
    10030    2    1    2    0    0  0.00000000000E+00  0.00000000000E+00  0.25582934584E+03  0.39086686563E+04  0.39002874266E+04 0.  0.
        3    1    3    3  502    0  0.95632822857E+03  0.50732730956E+03 -0.14976424130E+04  0.18479387130E+04  0.10100000352E+00 0.  1.
       -3    1    3    3    0  502 -0.95632822857E+03 -0.50732730956E+03  0.17534717588E+04  0.20607299432E+04  0.10100000352E+00 0. -1.
</event>
<event>
 5   0  0.3959190E-07  0.3324775E+04  0.7818609E-02  0.8156620E-01
       -2   -1    0    0    0  501  0.00000000000E+00  0.00000000000E+00  0.18528200055E+04  0.18528200055E+04  0.25500000920E-02 0.  1.
        2   -1    0    0  501    0  0.00000000000E+00  0.00000000000E+00 -0.14915274574E+04  0.14915274574E+04  0.25500000920E-02 0. -1.
    10030    2    1    2    0    0  0.00000000000E+00  0.00000000000E+00  0.36129254810E+03  0.33443474629E+04  0.33247748266E+04 0.  0.
        2    1    3    3  502    0 -0.10494672790E+04 -0.12760243110E+04  0.36588328996E+03  0.16921850354E+04  0.25500000920E-02 0.  1.
       -2    1    3    3    0  502  0.10494672790E+04  0.12760243110E+04 -0.45907418648E+01  0.16521624275E+04  0.25500000920E-02 0. -1.
</event>
<event>
 5   0  0.1943459E-07  0.3875910E+04  0.7818609E-02  0.8030058E-01
        1   -1    0    0  501    0  0.00000000000E+00  0.00000000000E+00  0.23038997526E+04  0.23038997526E+04  0.50400001928E-02 0. -1.
       -1   -1    0    0    0  501  0.00000000000E+00  0.00000000000E+00 -0.16301359667E+04  0.16301359667E+04  0.50400001928E-02 0.  1.
    10030    2    1    2    0    0  0.00000000000E+00  0.00000000000E+00  0.67376378589E+03  0.39340357194E+04  0.38759101385E+04 0.  0.
        2    1    3    3  502    0 -0.16779219267E+04 -0.15541931398E+02  0.13209609356E+04  0.21355564467E+04  0.25500000920E-02 0. -1.
       -2    1    3    3    0  502  0.16779219267E+04  0.15541931398E+02 -0.64719714968E+03  0.17984792727E+04  0.25500000920E-02 0.  1.
</event>
<event>
 5   0  0.1860500E-07  0.2436726E+04  0.7818609E-02  0.8425881E-01
       -1   -1    0    0    0  501  0.00000000000E+00  0.00000000000E+00  0.51439233591E+03  0.51439233594E+03  0.50400001928E-02 0.  1.
        1   -1    0    0  501    0  0.00000000000E+00  0.00000000000E+00 -0.28857503937E+04  0.28857503937E+04  0.50400001928E-02 0. -1.
    10030    2    1    2    0    0  0.00000000000E+00  0.00000000000E+00 -0.23713580578E+04  0.34001427296E+04  0.24367255782E+04 0.  0.
        4    1    3    3  502    0  0.77411607006E+03  0.93225452490E+03 -0.13624684348E+04  0.18233694189E+04  0.12699999809E+01 0. -1.
       -4    1    3    3    0  502 -0.77411607006E+03 -0.93225452490E+03 -0.10088896230E+04  0.15767733107E+04  0.12699999809E+01 0.  1.
</event>
<event>
 5   0  0.1876027E-07  0.3924501E+04  0.7818609E-02  0.8019953E-01
        1   -1    0    0  501    0  0.00000000000E+00  0.00000000000E+00  0.15371392155E+04  0.15371392155E+04  0.50400001928E-02 0. -1.
       -1   -1    0    0    0  501  0.00000000000E+00  0.00000000000E+00 -0.25049308492E+04  0.25049308492E+04  0.50400001928E-02 0.  1.
    10030    2    1    2    0    0  0.00000000000E+00  0.00000000000E+00 -0.96779163366E+03  0.40420700647E+04  0.39245012118E+04 0.  0.
        3    1    3    3  502    0 -0.15022156345E+03 -0.19499353018E+04 -0.64873162182E+03  0.20605016201E+04  0.10100000352E+00 0.  1.
       -3    1    3    3    0  502  0.15022156345E+03  0.19499353018E+04 -0.31906001184E+03  0.19815684446E+04  0.10100000352E+00 0. -1.
</event>
<event>
 5   0  0.2666813E-07  0.2766230E+04  0.7818609E-02  0.8313830E-01
       -1   -1    0    0    0  501  0.00000000000E+00  0.00000000000E+00  0.90628252833E+03  0.90628252834E+03  0.50400001928E-02 0.  1.
        1   -1    0    0  501    0  0.00000000000E+00  0.00000000000E+00 -0.21108287156E+04  0.21108287156E+04  0.50400001928E-02 0. -1.
    10030    2    1    2    0    0  0.00000000000E+00  0.00000000000E+00 -0.12045461872E+04  0.30171112439E+04  0.27662300593E+04 0.  0.
        1    1    3    3  502    0 -0.34712482402E+03 -0.91092632545E+03 -0.16724463662E+04  0.19358097173E+04  0.50400001928E-02 0. -1.
       -1    1    3    3    0  502  0.34712482402E+03  0.91092632545E+03  0.46790017898E+03  0.10813015266E+04  0.50400001928E-02 0.  1.
</event>
<event>
 5   0  0.2196906E-07  0.2441979E+04  0.7818609E-02  0.8423953E-01
       -1   -1    0    0    0  501  0.00000000000E+00  0.00000000000E+00  0.98594663590E+03  0.98594663591E+03  0.50400001928E-02 0. -1.
        1   -1    0    0  501    0  0.00000000000E+00  0.00000000000E+00 -0.15120645702E+04  0.15120645703E+04  0.50400001928E-02 0.  1.
    10030    2    1    2    0    0  0.00000000000E+00  0.00000000000E+00 -0.52611793435E+03  0.24980112062E+04  0.24419786865E+04 0.  0.
        2    1    3    3  502    0 -0.51540737640E+03  0.25013451799E+03 -0.13660404484E+04  0.14813097405E+04  0.25500000920E-02 0.  1.
       -2    1    3    3    0  502  0.51540737640E+03 -0.25013451799E+03  0.83992251401E+03  0.10167014657E+04  0.25500000920E-02 0. -1.
</event>
<event>
 5   0  0.1860500E-07  0.3957415E+04  0.7818609E-02  0.8013193E-01
        1   -1    0    0  501    0  0.00000000000E+00  0.00000000000E+00  0.24424576876E+04  0.24424576876E+04  0.50400001928E-02 0.  1.
       -1   -1    0    0    0  501  0.00000000000E+00  0.00000000000E+00 -0.16030100603E+04  0.16030100603E+04  0.50400001928E-02 0. -1.
    10030    2    1    2    0    0  0.00000000000E+00  0.00000000000E+00  0.83944762733E+03  0.40454677479E+04  0.39574154419E+04 0.  0.
        4    1    3    3  502    0 -0.14143612594E+04  0.78968303155E+03  0.15813459637E+04  0.22637742229E+04  0.12699999809E+01 0.  1.
       -4    1    3    3    0  502  0.14143612594E+04 -0.78968303155E+03 -0.74189833638E+03  0.17816935250E+04  0.12699999809E+01 0. -1.
</event>
<event>
 5   0  0.1876027E-07  0.2631281E+04  0.7818609E-02  0.8357653E-01
       -1   -1    0    0    0  501  0.00000000000E+00  0.00000000000E+00  0.10367446680E+04  0.10367446680E+04  0.50400001928E-02 0.  1.
        1   -1    0    0  501    0  0.00000000000E+00  0.00000000000E+00 -0.16695623122E+04  0.16695623123E+04  0.50400001928E-02 0. -1.
    10030    2    1    2    0    0  0.00000000000E+00  0.00000000000E+00 -0.63281764429E+03  0.27063069802E+04  0.26312809239E+04 0.  0.
        3    1    3    3  502    0  0.12949075279E+04 -0.93747924282E+02 -0.97416093301E+02  0.13019462679E+04  0.10100000352E+00 0. -1.
       -3    1    3    3    0  502 -0.12949075279E+04  0.93747924282E+02 -0.53540155099E+03  0.14043607123E+04  0.10100000352E+00 0.  1.
</event>
<event>
 5   0  0.3959190E-07  0.3840260E+04  0.7818609E-02  0.8037570E-01
        2   -1    0    0  501    0  0.00000000000E+00  0.00000000000E+00  0.21721446997E+04  0.21721446997E+04  0.25500000920E-02 0. -1.
       -2   -1    0    0    0  501  0.00000000000E+00  0.00000000000E+00 -0.16973542659E+04  0.16973542659E+04  0.25500000920E-02 0.  1.
    10030    2    1    2    0    0  0.00000000000E+00  0.00000000000E+00  0.47479043383E+03  0.38694989656E+04  0.38402599246E+04 0.  0.
        2    1    3    3  502    0  0.69784864703E+03 -0.47266892433E+02 -0.15644234582E+04  0.17136649760E+04  0.25500000920E-02 0.  1.
       -2    1    3    3    0  502 -0.69784864703E+03  0.47266892433E+02  0.20392138920E+04  0.21558339896E+04  0.25500000920E-02 0. -1.
</event>
<event>
 5   0  0.1860500E-07  0.2488785E+04  0.7818609E-02  0.8406992E-01
       -1   -1    0    0    0  501  0.00000000000E+00  0.00000000000E+00  0.15193114407E+04  0.15193114407E+04  0.50400001928E-02 0. -1.
        1   -1    0    0  501    0  0.00000000000E+00  0.00000000000E+00 -0.10192204130E+04  0.10192204130E+04  0.50400001928E-02 0.  1.
    10030    2    1    2    0    0  0.00000000000E+00  0.00000000000E+00  0.50009102769E+03  0.25385318537E+04  0.24887854340E+04 0.  0.
        5    1    3    3  502    0 -0.41003434215E+03 -0.57859656165E+03  0.12930247539E+04  0.14747329409E+04  0.46999998093E+01 0. -1.
       -5    1    3    3    0  502  0.41003434215E+03  0.57859656165E+03 -0.79293372616E+03  0.10637989128E+04  0.46999998093E+01 0.  1.
</event>
<event>
 5   0  0.5805753E-07  0.3964446E+04  0.7818609E-02  0.8011758E-01
        2   -1    0    0  501    0  0.00000000000E+00  0.00000000000E+00  0.24454755074E+04  0.24454755074E+04  0.25500000920E-02 0.  1.
       -2   -1    0    0    0  501  0.00000000000E+00  0.00000000000E+00 -0.16067256531E+04  0.16067256531E+04  0.25500000920E-02 0. -1.
    10030    2    1    2    0    0  0.00000000000E+00  0.00000000000E+00  0.83874985426E+03  0.40522011605E+04  0.39644461060E+04 0.  0.
        1    1    3    3  502    0  0.15231312564E+04  0.90477461016E+03  0.13282495919E+04  0.22142251236E+04  0.50400001928E-02 0.  1.
       -1    1    3    3    0  502 -0.15231312564E+04 -0.90477461016E+03 -0.48949973768E+03  0.18379760370E+04  0.50400001928E-02 0. -1.
</event>
<event>
 5   0  0.1876027E-07  0.2587714E+04  0.7818609E-02  0.8372386E-01
       -1   -1    0    0    0  501  0.00000000000E+00  0.00000000000E+00  0.12473750473E+04  0.12473750474E+04  0.50400001928E-02 0. -1.
        1   -1    0    0  501    0  0.00000000000E+00  0.00000000000E+00 -0.13420713529E+04  0.13420713529E+04  0.50400001928E-02 0.  1.
    10030    2    1    2    0    0  0.00000000000E+00  0.00000000000E+00 -0.94696305525E+02  0.25894464002E+04  0.25877142944E+04 0.  0.
        3    1    3    3  502    0  0.53662917563E+03 -0.23427532596E+03  0.11072051004E+04  0.12525010759E+04  0.10100000352E+00 0. -1.
       -3    1    3    3    0  502 -0.53662917563E+03  0.23427532596E+03 -0.12019014060E+04  0.13369453244E+04  0.10100000352E+00 0.  1.
</event>
<event>
 5   0  0.5805753E-07  0.3854293E+04  0.7818609E-02  0.8034603E-01
        2   -1    0    0  501    0  0.00000000000E+00  0.00000000000E+00  0.13257075323E+04  0.13257075323E+04  0.25500000920E-02 0.  1.
       -2   -1    0    0    0  501  0.00000000000E+00  0.00000000000E+00 -0.28014427902E+04  0.28014427902E+04  0.25500000920E-02 0. -1.
    10030    2    1    2    0    0  0.00000000000E+00  0.00000000000E+00 -0.14757352579E+04  0.41271503225E+04  0.38542930912E+04 0.  0.
        1    1    3    3  502    0  0.11093451870E+04  0.39871051169E+02 -0.24247176097E+04  0.26667380695E+04  0.50400001928E-02 0. -1.
       -1    1    3    3    0  502 -0.11093451870E+04 -0.39871051169E+02  0.94898235182E+03  0.14604122530E+04  0.50400001928E-02 0.  1.
</event>
<event>
 5   0  0.2666813E-07  0.2768845E+04  0.7818609E-02  0.8313007E-01
       -1   -1    0    0    0  501  0.00000000000E+00  0.00000000000E+00  0.14474705415E+04  0.14474705415E+04  0.50400001928E-02 0.  1.
        1   -1    0    0  501    0  0.00000000000E+00  0.00000000000E+00 -0.13241202911E+04  0.13241202911E+04  0.50400001928E-02 0. -1.
    10030    2    1    2    0    0  0.00000000000E+00  0.00000000000E+00  0.12335025038E+03  0.27715908326E+04  0.27688446073E+04 0.  0.
        1    1    3    3  502    0  0.89454594076E+02 -0.91985256268E+03 -0.97012084669E+03  0.13398751131E+04  0.50400001928E-02 0. -1.
       -1    1    3    3    0  502 -0.89454594076E+02  0.91985256268E+03  0.10934710971E+04  0.14317157196E+04  0.50400001928E-02 0.  1.
</event>
<event>
 5   0  0.5735179E-07  0.3851375E+04  0.7818609E-02  0.8035219E-01
       -2   -1    0    0    0  501  0.00000000000E+00  0.00000000000E+00  0.13061231334E+04  0.13061231334E+04  0.25500000920E-02 0.  1.
        2   -1    0    0  501    0  0.00000000000E+00  0.00000000000E+00 -0.28391443329E+04  0.28391443329E+04  0.25500000920E-02 0. -1.
    10030    2    1    2    0    0  0.00000000000E+00  0.00000000000E+00 -0.15330211994E+04  0.41452674663E+04  0.38513748674E+04 0.  0.
        5    1    3    3  502    0 -0.13552095925E+04 -0.12783829501E+04 -0.12909214040E+04  0.22665736626E+04  0.46999998093E+01 0. -1.
       -5    1    3    3    0  502  0.13552095925E+04  0.12783829501E+04 -0.24209979543E+03  0.18786938036E+04  0.46999998093E+01 0.  1.
</event>
<event>
 5   0  0.5735179E-07  0.2729751E+04  0.7818609E-02  0.8325416E-01
        2   -1    0    0  501    0  0.00000000000E+00  0.00000000000E+00  0.18405706569E+04  0.18405706569E+04  0.25500000920E-02 0. -1.
       -2   -1    0    0    0  501  0.00000000000E+00  0.00000000000E+00 -0.10121235073E+04  0.10121235073E+04  0.25500000920E-02 0.  1.
    10030    2    1    2    0    0  0.00000000000E+00  0.00000000000E+00  0.82844714961E+03  0.28526941642E+04  0.27297507788E+04 0.  0.
        5    1    3    3  502    0  0.36965299278E+03 -0.82433582912E+03 -0.65493277671E+03  0.11158547962E+04  0.46999998093E+01 0.  1.
       -5    1    3    3    0  502 -0.36965299278E+03  0.82433582912E+03  0.14833799263E+04  0.17368393679E+04  0.46999998093E+01 0. -1.
</event>
<event>
 5   0  0.5805753E-07  0.3886488E+04  0.7818609E-02  0.8027845E-01
        2   -1    0    0  501    0  0.00000000000E+00  0.00000000000E+00  0.19320499775E+04  0.19320499775E+04  0.25500000920E-02 0.  1.
       -2   -1    0    0    0  501  0.00000000000E+00  0.00000000000E+00 -0.19545028653E+04  0.19545028653E+04  0.25500000920E-02 0. -1.
    10030    2    1    2    0    0  0.00000000000E+00  0.00000000000E+00 -0.22452887787E+02  0.38865528427E+04  0.38864879862E+04 0.  0.
        1    1    3    3  502    0 -0.61558997853E+03 -0.17566306042E+04  0.54690034435E+03  0.19400520838E+04  0.50400001928E-02 0.  1.
       -1    1    3    3    0  502  0.61558997853E+03  0.17566306042E+04 -0.56935323213E+03  0.19465007589E+04  0.50400001928E-02 0. -1.
</event>
<event>
 5   0  0.3959190E-07  0.4164036E+04  0.7818609E-02  0.7972249E-01
       -2   -1    0    0    0  501  0.00000000000E+00  0.00000000000E+00  0.29467391799E+04  0.29467391799E+04  0.25500000920E-02 0. -1.
        2   -1    0    0  501    0  0.00000000000E+00  0.00000000000E+00 -0.14710495874E+04  0.14710495874E+04  0.25500000920E-02 0.  1.
    10030    2    1    2    0    0  0.00000000000E+00  0.00000000000E+00  0.14756895925E+04  0.44177887672E+04  0.41640362412E+04 0.  0.
        2    1    3    3  502    0 -0.96991787646E+03  0.11363102791E+04  0.22763373203E+04  0.27228024778E+04  0.25500000920E-02 0. -1.
       -2    1    3    3    0  502  0.96991787646E+03 -0.11363102791E+04 -0.80064772776E+03  0.16949862894E+04  0.25500000920E-02 0.  1.
</event>
<event>
 5   0  0.5735179E-07  0.3910688E+04  0.7818609E-02  0.8022810E-01
       -2   -1    0    0    0  501  0.00000000000E+00  0.00000000000E+00  0.21618463722E+04  0.21618463722E+04  0.25500000920E-02 0.  1.
        2   -1    0    0  501    0  0.00000000000E+00  0.00000000000E+00 -0.17685669128E+04  0.17685669128E+04  0.25500000920E-02 0. -1.
    10030    2    1    2    0    0  0.00000000000E+00  0.00000000000E+00  0.39327945944E+03  0.39304132850E+04  0.39106879008E+04 0.  0.
        5    1    3    3  502    0 -0.78790358048E+03 -0.15807326614E+04  0.10398231474E+04  0.20495760700E+04  0.46999998093E+01 0.  1.
       -5    1    3    3    0  502  0.78790358048E+03  0.15807326614E+04 -0.64654368793E+03  0.18808372150E+04  0.46999998093E+01 0. -1.
</event>
<event>
 5   0  0.5735179E-07  0.3954606E+04  0.7818609E-02  0.8013767E-01
       -2   -1    0    0    0  501  0.00000000000E+00  0.00000000000E+00  0.13207059737E+04  0.13207059737E+04  0.25500000920E-02 0. -1.
        2   -1    0    0  501    0  0.00000000000E+00  0.00000000000E+00 -0.29603316185E+04  0.29603316185E+04  0.25500000920E-02 0.  1.
    10030    2    1    2    0    0  0.00000000000E+00  0.00000000000E+00 -0.16396256448E+04  0.42810375921E+04  0.39546062522E+04 0.  0.
        5    1    3    3  502    0  0.10242465454E+03 -0.70815973085E+03 -0.28152583500E+04  0.29047689549E+04  0.46999998093E+01 0.  1.
       -5    1    3    3    0  502 -0.10242465454E+03  0.70815973085E+03  0.11756327052E+04  0.13762686372E+04  0.46999998093E+01 0. -1.
</event>
<event>
 5   0  0.5872444E-07  0.2783292E+04  0.7818609E-02  0.8308474E-01
        2   -1    0    0  501    0  0.00000000000E+00  0.00000000000E+00  0.10408875049E+04  0.10408875050E+04  0.25500000920E-02 0.  1.
       -2   -1    0    0    0  501  0.00000000000E+00  0.00000000000E+00 -0.18606027823E+04  0.18606027823E+04  0.25500000920E-02 0. -1.
    10030    2    1    2    0    0  0.00000000000E+00  0.00000000000E+00 -0.81971527739E+03  0.29014902873E+04  0.27832917115E+04 0.  0.
        3    1    3    3  502    0 -0.66933855737E+03  0.10702958941E+04 -0.10205074520E+04  0.16232630333E+04  0.10100000352E+00 0. -1.
       -3    1    3    3    0  502  0.66933855737E+03 -0.10702958941E+04  0.20079217466E+03  0.12782272540E+04  0.10100000352E+00 0.  1.
</event>
<event>
 5   0  0.5872444E-07  0.3875709E+04  0.7818609E-02  0.8030100E-01
        2   -1    0    0  501    0  0.00000000000E+00  0.00000000000E+00  0.26367138601E+04  0.26367138601E+04  0.25500000920E-02 0. -1.
       -2   -1    0    0    0  501  0.00000000000E+00  0.00000000000E+00 -0.14242271580E+04  0.14242271580E+04  0.25500000920E-02 0.  1.
    10030    2    1    2    0    0  0.00000000000E+00  0.00000000000E+00  0.12124867021E+04  0.40609410182E+04  0.38757087030E+04 0.  0.
        3    1    3    3  502    0 -0.14324672687E+04  0.11479460670E+04 -0.44348304613E+02  0.18362215093E+04  0.10100000352E+00 0.  1.
       -3    1    3    3    0  502  0.14324672687E+04 -0.11479460670E+04  0.12568350067E+04  0.22247195089E+04  0.10100000352E+00 0. -1.
</event>
<event>
 5   0  0.6095665E-07  0.3857175E+04  0.7818609E-02  0.8033995E-01
       -2   -1    0    0    0  501  0.00000000000E+00  0.00000000000E+00  0.19302976808E+04  0.19302976808E+04  0.25500000920E-02 0. -1.
        2   -1    0    0  501    0  0.00000000000E+00  0.00000000000E+00 -0.19268788028E+04  0.19268788028E+04  0.25500000920E-02 0.  1.
    10030    2    1    2    0    0  0.00000000000E+00  0.00000000000E+00  0.34188779876E+01  0.38571764836E+04  0.38571749684E+04 0.  0.
        4    1    3    3  502    0 -0.14160948081E+04  0.41446748911E+03 -0.12402009757E+04  0.19274874521E+04  0.12699999809E+01 0.  1.
       -4    1    3    3    0  502  0.14160948081E+04 -0.41446748911E+03  0.12436198537E+04  0.19296890315E+04  0.12699999809E+01 0. -1.
</event>
<event>
 5   0  0.1860500E-07  0.2591913E+04  0.7818609E-02  0.8370953E-01
        1   -1    0    0  501    0  0.00000000000E+00  0.00000000000E+00  0.13127242379E+04  0.13127242380E+04  0.50400001928E-02 0. -1.
       -1   -1    0    0    0  501  0.00000000000E+00  0.00000000000E+00 -0.12794030977E+04  0.12794030977E+04  0.50400001928E-02 0.  1.
    10030    2    1    2    0    0  0.00000000000E+00  0.00000000000E+00  0.33321140292E+02  0.25921273356E+04  0.25919131594E+04 0.  0.
        5    1    3    3  502    0  0.93702622931E+03  0.74589379077E+03  0.51178295296E+03  0.13024283406E+04  0.46999998093E+01 0. -1.
       -5    1    3    3    0  502 -0.93702622931E+03 -0.74589379077E+03 -0.47846181266E+03  0.12896989950E+04  0.46999998093E+01 0.  1.
</event>
<event>
 5   0  0.2666813E-07  0.3833836E+04  0.7818609E-02  0.8038933E-01
        1   -1    0    0  501    0  0.00000000000E+00  0.00000000000E+00  0.21802890138E+04  0.21802890138E+04  0.50400001928E-02 0. -1.
       -1   -1    0    0    0  501  0.00000000000E+00  0.00000000000E+00 -0.16853611075E+04  0.16853611075E+04  0.50400001928E-02 0.  1.
    10030    2    1    2    0    0  0.00000000000E+00  0.00000000000E+00  0.49492790629E+03  0.38656501214E+04  0.38338358374E+04 0.  0.
        1    1    3    3  502    0  0.15781430248E+04  0.22418135504E+03  0.13210917254E+04  0.20702840466E+04  0.50400001928E-02 0. -1.
       -1    1    3    3    0  502 -0.15781430248E+04 -0.22418135504E+03 -0.82616381911E+03  0.17953660748E+04  0.50400001928E-02 0.  1.
</event>
<event>
 5   0  0.3959190E-07  0.3903324E+04  0.7818609E-02  0.8024338E-01
       -2   -1    0    0    0  501  0.00000000000E+00  0.00000000000E+00  0.16150016488E+04  0.16150016488E+04  0.25500000920E-02 0.  1.
        2   -1    0    0  501    0  0.00000000000E+00  0.00000000000E+00 -0.23585015225E+04  0.23585015225E+04  0.25500000920E-02 0. -1.
    10030    2    1    2    0    0  0.00000000000E+00  0.00000000000E+00 -0.74349987368E+03  0.39735031712E+04  0.39033236337E+04 0.  0.
        2    1    3    3  502    0 -0.10433359990E+04  0.37781169717E+02  0.13068380847E+04  0.16726635056E+04  0.25500000920E-02 0.  1.
       -2    1    3    3    0  502  0.10433359990E+04 -0.37781169717E+02 -0.20503379583E+04  0.23008396656E+04  0.25500000920E-02 0. -1.
</event>
<event>
 5   0  0.5735179E-07  0.3936472E+04  0.7818609E-02  0.8017486E-01
        2   -1    0    0  501    0  0.00000000000E+00  0.00000000000E+00  0.20743321555E+04  0.20743321555E+04  0.25500000920E-02 0. -1.
       -2   -1    0    0    0  501  0.00000000000E+00  0.00000000000E+00 -0.18675665574E+04  0.18675665574E+04  0.25500000920E-02 0.  1.
    10030    2    1    2    0    0  0.00000000000E+00  0.00000000000E+00  0.20676559811E+03  0.39418987129E+04  0.39364722088E+04 0.  0.
        5    1    3    3  502    0  0.13922282639E+04 -0.85586744839E+03  0.12017643298E+04  0.20285630931E+04  0.46999998093E+01 0. -1.
       -5    1    3    3    0  502 -0.13922282639E+04  0.85586744839E+03 -0.99499873170E+03  0.19133356199E+04  0.46999998093E+01 0.  1.
</event>
<event>
 5   0  0.5805753E-07  0.3832602E+04  0.7818609E-02  0.8039194E-01
       -2   -1    0    0    0  501  0.00000000000E+00  0.00000000000E+00  0.17600676836E+04  0.17600676836E+04  0.25500000920E-02 0.  1.
        2   -1    0    0  501    0  0.00000000000E+00  0.00000000000E+00 -0.20864028278E+04  0.20864028278E+04  0.25500000920E-02 0. -1.
    10030    2    1    2    0    0  0.00000000000E+00  0.00000000000E+00 -0.32633514420E+03  0.38464705114E+04  0.38326023494E+04 0.  0.
        1    1    3    3  502    0  0.17046568097E+04  0.40487882397E+02 -0.10408123201E+04  0.19976947698E+04  0.50400001928E-02 0. -1.
       -1    1    3    3    0  502 -0.17046568097E+04 -0.40487882397E+02  0.71447717593E+03  0.18487757415E+04  0.50400001928E-02 0.  1.
</event>
<event>
 5   0  0.5735179E-07  0.3921686E+04  0.7818609E-02  0.8020534E-01
       -2   -1    0    0    0  501  0.00000000000E+00  0.00000000000E+00  0.19717303079E+04  0.19717303079E+04  0.25500000920E-02 0. -1.
        2   -1    0    0  501    0  0.00000000000E+00  0.00000000000E+00 -0.19500155697E+04  0.19500155697E+04  0.25500000920E-02 0.  1.
    10030    2    1    2    0    0  0.00000000000E+00  0.00000000000E+00  0.21714738204E+02  0.39217458775E+04  0.39216857597E+04 0.  0.
        5    1    3    3  502    0 -0.14065667237E+04  0.13380148806E+04 -0.26513407245E+03  0.19593447719E+04  0.46999998093E+01 0.  1.
       -5    1    3    3    0  502  0.14065667237E+04 -0.13380148806E+04  0.28684881066E+03  0.19624011056E+04  0.46999998093E+01 0. -1.
</event>
<event>
 5   0  0.1876027E-07  0.3960158E+04  0.7818609E-02  0.8012632E-01
        1   -1    0    0  501    0  0.00000000000E+00  0.00000000000E+00  0.27271674241E+04  0.27271674241E+04  0.50400001928E-02 0.  1.
       -1   -1    0    0    0  501  0.00000000000E+00  0.00000000000E+00 -0.14376505182E+04  0.14376505182E+04  0.50400001928E-02 0. -1.
    10030    2    1    2    0    0  0.00000000000E+00  0.00000000000E+00  0.12895169060E+04  0.41648179423E+04  0.39601584112E+04 0.  0.
        3    1    3    3  502    0  0.13366575876E+04 -0.62672006620E+03  0.20325301668E+04  0.25120928400E+04  0.10100000352E+00 0.  1.
       -3    1    3    3    0  502 -0.13366575876E+04  0.62672006620E+03 -0.74301326082E+03  0.16527251023E+04  0.10100000352E+00 0. -1.
</event>
<event>
 5   0  0.1860500E-07  0.3888511E+04  0.7818609E-02  0.8027423E-01
       -1   -1    0    0    0  501  0.00000000000E+00  0.00000000000E+00  0.29133191884E+04  0.29133191884E+04  0.50400001928E-02 0.  1.
        1   -1    0    0  501    0  0.00000000000E+00  0.00000000000E+00 -0.12975333023E+04  0.12975333023E+04  0.50400001928E-02 0. -1.
    10030    2    1    2    0    0  0.00000000000E+00  0.00000000000E+00  0.16157858861E+04  0.42108524907E+04  0.38885105977E+04 0.  0.
        5    1    3    3  502    0 -0.10402245863E+04 -0.23642642217E+03  0.25681042770E+04  0.27808535219E+04  0.46999998093E+01 0.  1.
       -5    1    3    3    0  502  0.10402245863E+04  0.23642642217E+03 -0.95231839088E+03  0.14299989687E+04  0.46999998093E+01 0. -1.
</event>
<event>
 5   0  0.6095665E-07  0.2645889E+04  0.7818609E-02  0.8352779E-01
       -2   -1    0    0    0  501  0.00000000000E+00  0.00000000000E+00  0.93486856546E+03  0.93486856546E+03  0.25500000920E-02 0. -1.
        2   -1    0    0  501    0  0.00000000000E+00  0.00000000000E+00 -0.18721153441E+04  0.18721153441E+04  0.25500000920E-02 0.  1.
    10030    2    1    2    0    0  0.00000000000E+00  0.00000000000E+00 -0.93724677865E+03  0.28069839096E+04  0.26458887249E+04 0.  0.
        4    1    3    3  502    0  0.13011187426E+04 -0.61196754647E+02 -0.71406448822E+03  0.14854442875E+04  0.12699999809E+01 0.  1.
       -4    1    3    3    0  502 -0.13011187426E+04  0.61196754647E+02 -0.22318229043E+03  0.13215396221E+04  0.12699999809E+01 0. -1.
</event>
<event>
 5   0  0.6095665E-07  0.4010452E+04  0.7818609E-02  0.8002441E-01
       -2   -1    0    0    0  501  0.00000000000E+00  0.00000000000E+00  0.27718975158E+04  0.27718975158E+04  0.25500000920E-02 0.  1.
        2   -1    0    0  501    0  0.00000000000E+00  0.00000000000E+00 -0.14506057095E+04  0.14506057095E+04  0.25500000920E-02 0. -1.
    10030    2    1    2    0    0  0.00000000000E+00  0.00000000000E+00  0.13212918063E+04  0.42225032252E+04  0.40104515269E+04 0.  0.
        4    1    3    3  502    0 -0.59934985723E+03 -0.76816507963E+03 -0.11846296707E+04  0.15338340558E+04  0.12699999809E+01 0. -1.
       -4    1    3    3    0  502  0.59934985723E+03  0.76816507963E+03  0.25059214770E+04  0.26886691695E+04  0.12699999809E+01 0.  1.
</event>
<event>
 5   0  0.5735179E-07  0.3506321E+04  0.7818609E-02  0.8112294E-01
       -2   -1    0    0    0  501  0.00000000000E+00  0.00000000000E+00  0.15136686672E+04  0.15136686672E+04  0.25500000920E-02 0. -1.
        2   -1    0    0  501    0  0.00000000000E+00  0.00000000000E+00 -0.20305442768E+04  0.20305442768E+04  0.25500000920E-02 0.  1.
    10030    2    1    2    0    0  0.00000000000E+00  0.00000000000E+00 -0.51687560960E+03  0.35442129440E+04  0.35063207207E+04 0.  0.
        5    1    3    3  502    0  0.11770441845E+04 -0.60128987335E+03  0.90577589147E+03  0.16023216218E+04  0.46999998093E+01 0. -1.
       -5    1    3    3    0  502 -0.11770441845E+04  0.60128987335E+03 -0.14226515011E+04  0.19418913223E+04  0.46999998093E+01 0.  1.
</event>
<event>
 5   0  0.1943459E-07  0.3898020E+04  0.7818609E-02  0.8025441E-01
       -1   -1    0    0    0  501  0.00000000000E+00  0.00000000000E+00  0.20639447182E+04  0.20639447182E+04  0.50400001928E-02 0.  1.
        1   -1    0    0  501    0  0.00000000000E+00  0.00000000000E+00 -0.18404753098E+04  0.18404753098E+04  0.50400001928E-02 0. -1.
    10030    2    1    2    0    0  0.00000000000E+00  0.00000000000E+00  0.22346940838E+03  0.39044200280E+04  0.38980196483E+04 0.  0.
        2    1    3    3  502    0  0.77016969084E+03  0.17086346920E+04  0.64744502779E+03  0.19828713845E+04  0.25500000920E-02 0.  1.
       -2    1    3    3    0  502 -0.77016969084E+03 -0.17086346920E+04 -0.42397561941E+03  0.19215486435E+04  0.25500000920E-02 0. -1.
</event>
<event>
 5   0  0.5872444E-07  0.3931013E+04  0.7818609E-02  0.8018610E-01
        2   -1    0    0  501    0  0.00000000000E+00  0.00000000000E+00  0.21492217098E+04  0.21492217098E+04  0.25500000920E-02 0. -1.
       -2   -1    0    0    0  501  0.00000000000E+00  0.00000000000E+00 -0.17974955081E+04  0.17974955081E+04  0.25500000920E-02 0.  1.
    10030    2    1    2    0    0  0.00000000000E+00  0.00000000000E+00  0.35172620173E+03  0.39467172179E+04  0.39310132889E+04 0.  0.
        3    1    3    3  502    0 -0.15495850908E+04  0.87856897642E+03 -0.65818957057E+03  0.18990289415E+04  0.10100000352E+00 0.  1.
       -3    1    3    3    0  502  0.15495850908E+04 -0.87856897642E+03  0.10099157723E+04  0.20476882764E+04  0.10100000352E+00 0. -1.
</event>
<event>
 5   0  0.1860500E-07  0.4053078E+04  0.7818609E-02  0.7993924E-01
        1   -1    0    0  501    0  0.00000000000E+00  0.00000000000E+00  0.23607411095E+04  0.23607411095E+04  0.50400001928E-02 0.  1.
       -1   -1    0    0    0  501  0.00000000000E+00  0.00000000000E+00 -0.17396491406E+04  0.17396491406E+04  0.50400001928E-02 0. -1.
    10030    2    1    2    0    0  0.00000000000E+00  0.00000000000E+00  0.62109196889E+03  0.41003902502E+04  0.40530784559E+04 0.  0.
        4    1    3    3  502    0 -0.81174876040E+03  0.18508663815E+04  0.46134031479E+03  0.20730361577E+04  0.12699999809E+01 0.  1.
       -4    1    3    3    0  502  0.81174876040E+03 -0.18508663815E+04  0.15975165410E+03  0.20273540924E+04  0.12699999809E+01 0. -1.
</event>
<event>
 5   0  0.5872444E-07  0.3856825E+04  0.7818609E-02  0.8034069E-01
        2   -1    0    0  501    0  0.00000000000E+00  0.00000000000E+00  0.21515741513E+04  0.21515741513E+04  0.25500000920E-02 0.  1.
       -2   -1    0    0    0  501  0.00000000000E+00  0.00000000000E+00 -0.17283971125E+04  0.17283971125E+04  0.25500000920E-02 0. -1.
    10030    2    1    2    0    0  0.00000000000E+00  0.00000000000E+00  0.42317703880E+03  0.38799712637E+04  0.38568248860E+04 0.  0.
        3    1    3    3  502    0 -0.24227719338E+03 -0.13436515035E+04 -0.11584498314E+04  0.17905595838E+04  0.10100000352E+00 0. -1.
       -3    1    3    3    0  502  0.24227719338E+03  0.13436515035E+04  0.15816268702E+04  0.20894116799E+04  0.10100000352E+00 0.  1.
</event>
<event>
 5   0  0.1943459E-07  0.3832494E+04  0.7818609E-02  0.8039218E-01
        1   -1    0    0  501    0  0.00000000000E+00  0.00000000000E+00  0.11946332854E+04  0.11946332854E+04  0.50400001928E-02 0.  1.
       -1   -1    0    0    0  501  0.00000000000E+00  0.00000000000E+00 -0.30737483394E+04  0.30737483394E+04  0.50400001928E-02 0. -1.
    10030    2    1    2    0    0  0.00000000000E+00  0.00000000000E+00 -0.18791150540E+04  0.42683816248E+04  0.38324937454E+04 0.  0.
        2    1    3    3  502    0  0.17899943029E+04 -0.59344157465E+03 -0.56064280395E+03  0.19673771526E+04  0.25500000920E-02 0.  1.
       -2    1    3    3    0  502 -0.17899943029E+04  0.59344157465E+03 -0.13184722501E+04  0.23010044722E+04  0.25500000920E-02 0. -1.
</event>
<event>
 5   0  0.5805753E-07  0.3879562E+04  0.7818609E-02  0.8029293E-01
        2   -1    0    0  501    0  0.00000000000E+00  0.00000000000E+00  0.32323537775E+04  0.32323537775E+04  0.25500000920E-02 0. -1.
       -2   -1    0    0    0  501  0.00000000000E+00  0.00000000000E+00 -0.11640899876E+04  0.11640899876E+04  0.25500000920E-02 0.  1.
    10030    2    1    2    0    0  0.00000000000E+00  0.00000000000E+00  0.20682637899E+04  0.43964437651E+04  0.38795621757E+04 0.  0.
        1    1    3    3  502    0 -0.13811757976E+04 -0.67565944089E+03  0.23743138550E+04  0.28286973231E+04  0.50400001928E-02 0. -1.
       -1    1    3    3    0  502  0.13811757976E+04  0.67565944089E+03 -0.30605006511E+03  0.15677464420E+04  0.50400001928E-02 0.  1.
</event>
<event>
 5   0  0.3959190E-07  0.3762338E+04  0.7818609E-02  0.8054286E-01
       -2   -1    0    0    0  501  0.00000000000E+00  0.00000000000E+00  0.17090995356E+04  0.17090995356E+04  0.25500000920E-02 0.  1.
        2   -1    0    0  501    0  0.00000000000E+00  0.00000000000E+00 -0.20705621098E+04  0.20705621098E+04  0.25500000920E-02 0. -1.
    10030    2    1    2    0    0  0.00000000000E+00  0.00000000000E+00 -0.36146257420E+03  0.37796616455E+04  0.37623379649E+04 0.  0.
        2    1    3    3  502    0  0.11912433971E+04 -0.74658559226E+03  0.10749623961E+04  0.17697443405E+04  0.25500000920E-02 0.  1.
       -2    1    3    3    0  502 -0.11912433971E+04  0.74658559226E+03 -0.14364249703E+04  0.20099173050E+04  0.25500000920E-02 0. -1.
</event>
<event>
 5   0  0.1860500E-07  0.4032917E+04  0.7818609E-02  0.7997939E-01
        3   -1    0    0  501    0  0.00000000000E+00  0.00000000000E+00  0.22640264738E+04  0.22640264761E+04  0.10100000352E+00 0.  1.
       -3   -1    0    0    0  501  0.00000000000E+00  0.00000000000E+00 -0.17959613783E+04  0.17959613812E+04  0.10100000352E+00 0. -1.
    10030    2    1    2    0    0  0.00000000000E+00  0.00000000000E+00  0.46806509552E+03  0.40599878573E+04  0.40329166204E+04 0.  0.
        4    1    3    3  502    0  0.41292569657E+03  0.13418614905E+04 -0.12230956952E+04  0.18620055271E+04  0.12699999809E+01 0. -1.
       -4    1    3    3    0  502 -0.41292569657E+03 -0.13418614905E+04  0.16911607907E+04  0.21979823301E+04  0.12699999809E+01 0.  1.
</event>
<event>
 5   0  0.1860500E-07  0.3313695E+04  0.7818609E-02  0.8159419E-01
       -1   -1    0    0    0  501  0.00000000000E+00  0.00000000000E+00  0.15977275411E+04  0.15977275411E+04  0.50400001928E-02 0.  1.
        1   -1    0    0  501    0  0.00000000000E+00  0.00000000000E+00 -0.17181551348E+04  0.17181551348E+04  0.50400001928E-02 0. -1.
    10030    2    1    2    0    0  0.00000000000E+00  0.00000000000E+00 -0.12042759369E+03  0.33158826759E+04  0.33136950848E+04 0.  0.
        4    1    3    3  502    0 -0.66794396226E+03 -0.77511722929E+03 -0.13642188667E+04  0.17053007315E+04  0.12699999809E+01 0. -1.
       -4    1    3    3    0  502  0.66794396226E+03  0.77511722929E+03  0.12437912730E+04  0.16105819444E+04  0.12699999809E+01 0.  1.
</event>
<event>
 5   0  0.3959190E-07  0.3913947E+04  0.7818609E-02  0.8022135E-01
        2   -1    0    0  501    0  0.00000000000E+00  0.00000000000E+00  0.13511178864E+04  0.13511178864E+04  0.25500000920E-02 0. -1.
       -2   -1    0    0    0  501  0.00000000000E+00  0.00000000000E+00 -0.28345006055E+04  0.28345006055E+04  0.25500000920E-02 0.  1.
    10030    2    1    2    0    0  0.00000000000E+00  0.00000000000E+00 -0.14833827191E+04  0.41856184918E+04  0.39139465847E+04 0.  0.
        2    1    3    3  502    0  0.13112557619E+03  0.12421470657E+04  0.86940470959E+03  0.15218369817E+04  0.25500000920E-02 0. -1.
       -2    1    3    3    0  502 -0.13112557619E+03 -0.12421470657E+04 -0.23527874286E+04  0.26637815102E+04  0.25500000920E-02 0.  1.
</event>
<event>
 5   0  0.5735179E-07  0.3503110E+04  0.7818609E-02  0.8113053E-01
       -2   -1    0    0    0  501  0.00000000000E+00  0.00000000000E+00  0.21095483022E+04  0.21095483022E+04  0.25500000920E-02 0.  1.
        2   -1    0    0  501    0  0.00000000000E+00  0.00000000000E+00 -0.14543140120E+04  0.14543140120E+04  0.25500000920E-02 0. -1.
    10030    2    1    2    0    0  0.00000000000E+00  0.00000000000E+00  0.65523429026E+03  0.35638623142E+04  0.35031104207E+04 0.  0.
        5    1    3    3  502    0 -0.11324868904E+04 -0.12530793089E+04 -0.14431263122E+03  0.16951644572E+04  0.46999998093E+01 0. -1.
       -5    1    3    3    0  502  0.11324868904E+04  0.12530793089E+04  0.79954692148E+03  0.18686978571E+04  0.46999998093E+01 0.  1.
</event>
<event>
 5   0  0.1860500E-07  0.2642676E+04  0.7818609E-02  0.8353848E-01
       -1   -1    0    0    0  501  0.00000000000E+00  0.00000000000E+00  0.13074274755E+04  0.13074274755E+04  0.50400001928E-02 0.  1.
        1   -1    0    0  501    0  0.00000000000E+00  0.00000000000E+00 -0.13353970178E+04  0.13353970178E+04  0.50400001928E-02 0. -1.
    10030    2    1    2    0    0  0.00000000000E+00  0.00000000000E+00 -0.27969542332E+02  0.26428244933E+04  0.26426764855E+04 0.  0.
        4    1    3    3  502    0  0.72816687081E+03 -0.41663231198E+03 -0.10348865289E+04  0.13322166550E+04  0.12699999809E+01 0. -1.
       -4    1    3    3    0  502 -0.72816687081E+03  0.41663231198E+03  0.10069169866E+04  0.13106078384E+04  0.12699999809E+01 0.  1.
</event>
<event>
 5   0  0.6095665E-07  0.3955669E+04  0.7818609E-02  0.8013550E-01
        2   -1    0    0  501    0  0.00000000000E+00  0.00000000000E+00  0.19967111076E+04  0.19967111076E+04  0.25500000920E-02 0.  1.
       -2   -1    0    0    0  501  0.00000000000E+00  0.00000000000E+00 -0.19591364680E+04  0.19591364680E+04  0.25500000920E-02 0. -1.
    10030    2    1    2    0    0  0.00000000000E+00  0.00000000000E+00  0.37574639652E+02  0.39558475756E+04  0.39556691201E+04 0.  0.
        4    1    3    3  502    0 -0.17475062734E+04  0.84683440962E+03  0.39419903582E+03  0.19814896380E+04  0.12699999809E+01 0.  1.
       -4    1    3    3    0  502  0.17475062734E+04 -0.84683440962E+03 -0.35662439617E+03  0.19743579376E+04  0.12699999809E+01 0. -1.
</event>
<event>
 5   0  0.1876027E-07  0.2537517E+04  0.7818609E-02  0.8389741E-01
        1   -1    0    0  501    0  0.00000000000E+00  0.00000000000E+00  0.19185624866E+04  0.19185624866E+04  0.50400001928E-02 0.  1.
       -1   -1    0    0    0  501  0.00000000000E+00  0.00000000000E+00 -0.83903855838E+03  0.83903855839E+03  0.50400001928E-02 0. -1.
    10030    2    1    2    0    0  0.00000000000E+00  0.00000000000E+00  0.10795239282E+04  0.27576010450E+04  0.25375168200E+04 0.  0.
        3    1    3    3  502    0  0.34885353753E+03 -0.63369840900E+03  0.16725077620E+04  0.18222389218E+04  0.10100000352E+00 0.  1.
       -3    1    3    3    0  502 -0.34885353753E+03  0.63369840900E+03 -0.59298383373E+03  0.93536212318E+03  0.10100000352E+00 0. -1.
</event>
<event>
 5   0  0.1943459E-07  0.3878834E+04  0.7818609E-02  0.8029446E-01
        1   -1    0    0  501    0  0.00000000000E+00  0.00000000000E+00  0.19763412061E+04  0.19763412061E+04  0.50400001928E-02 0. -1.
       -1   -1    0    0    0  501  0.00000000000E+00  0.00000000000E+00 -0.19031824959E+04  0.19031824959E+04  0.50400001928E-02 0.  1.
    10030    2    1    2    0    0  0.00000000000E+00  0.00000000000E+00  0.73158710242E+02  0.38795237020E+04  0.38788338399E+04 0.  0.
        2    1    3    3  502    0 -0.51083028273E+03  0.17980911016E+04 -0.48048338389E+03  0.19300112615E+04  0.25500000920E-02 0.  1.
       -2    1    3    3    0  502  0.51083028273E+03 -0.17980911016E+04  0.55364209414E+03  0.19495124405E+04  0.25500000920E-02 0. -1.
</event>
<event>
 5   0  0.1943459E-07  0.3682673E+04  0.7818609E-02  0.8071813E-01
        1   -1    0    0  501    0  0.00000000000E+00  0.00000000000E+00  0.19132400751E+04  0.19132400751E+04  0.50400001928E-02 0. -1.
       -1   -1    0    0    0  501  0.00000000000E+00  0.00000000000E+00 -0.17721350069E+04  0.17721350069E+04  0.50400001928E-02 0.  1.
    10030    2    1    2    0    0  0.00000000000E+00  0.00000000000E+00  0.14110506819E+03  0.36853750819E+04  0.36826727867E+04 0.  0.
        2    1    3    3  502    0 -0.15987229814E+04  0.91183384799E+03  0.14265588058E+02  0.18405324351E+04  0.25500000920E-02 0.  1.
       -2    1    3    3    0  502  0.15987229814E+04 -0.91183384799E+03  0.12683948013E+03  0.18448426468E+04  0.25500000920E-02 0. -1.
</event>
<event>
 5   0  0.2666813E-07  0.2634186E+04  0.7818609E-02  0.8356681E-01
       -1   -1    0    0    0  501  0.00000000000E+00  0.00000000000E+00  0.10221463900E+04  0.10221463900E+04  0.50400001928E-02 0. -1.
        1   -1    0    0  501    0  0.00000000000E+00  0.00000000000E+00 -0.16971488214E+04  0.16971488215E+04  0.50400001928E-02 0.  1.
    10030    2    1    2    0    0  0.00000000000E+00  0.00000000000E+00 -0.67500243147E+03  0.27192952114E+04  0.26341864331E+04 0.  0.
        1    1    3    3  502    0  0.11729415944E+04  0.49818565467E+03  0.60478689786E+01  0.12743694548E+04  0.50400001928E-02 0. -1.
       -1    1    3    3    0  502 -0.11729415944E+04 -0.49818565467E+03 -0.68105030045E+03  0.14449257567E+04  0.50400001928E-02 0.  1.
</event>
<event>
 5   0  0.1860500E-07  0.3829334E+04  0.7818609E-02  0.8039889E-01
        1   -1    0    0  501    0  0.00000000000E+00  0.00000000000E+00  0.14657193303E+04  0.14657193303E+04  0.50400001928E-02 0. -1.
       -1   -1    0    0    0  501  0.00000000000E+00  0.00000000000E+00 -0.25011272090E+04  0.25011272090E+04  0.50400001928E-02 0.  1.
    10030    2    1    2    0    0  0.00000000000E+00  0.00000000000E+00 -0.10354078786E+04  0.39668465393E+04  0.38293344058E+04 0.  0.
        5    1    3    3  502    0 -0.21540075745E+02  0.62395384182E+03 -0.23927145606E+04  0.24728298425E+04  0.46999998093E+01 0.  1.
       -5    1    3    3    0  502  0.21540075745E+02 -0.62395384182E+03  0.13573066819E+04  0.14940166968E+04  0.46999998093E+01 0. -1.
</event>
<event>
 5   0  0.1943459E-07  0.2681668E+04  0.7818609E-02  0.8340978E-01
       -1   -1    0    0    0  501  0.00000000000E+00  0.00000000000E+00  0.99795810363E+03  0.99795810364E+03  0.50400001928E-02 0. -1.
        1   -1    0    0  501    0  0.00000000000E+00  0.00000000000E+00 -0.18015140127E+04  0.18015140127E+04  0.50400001928E-02 0.  1.
    10030    2    1    2    0    0  0.00000000000E+00  0.00000000000E+00 -0.80355590904E+03  0.27994721163E+04  0.26816677704E+04 0.  0.
        2    1    3    3  502    0 -0.16922685987E+02  0.90068401254E+03 -0.14385410504E+04  0.16973268457E+04  0.25500000920E-02 0.  1.
       -2    1    3    3    0  502  0.16922685987E+02 -0.90068401254E+03  0.63498514131E+03  0.11021452706E+04  0.25500000920E-02 0. -1.
</event>
<event>
 5   0  0.3959190E-07  0.3783340E+04  0.7818609E-02  0.8049740E-01
        2   -1    0    0  501    0  0.00000000000E+00  0.00000000000E+00  0.26460160498E+04  0.26460160498E+04  0.25500000920E-02 0.  1.
       -2   -1    0    0    0  501  0.00000000000E+00  0.00000000000E+00 -0.13523786094E+04  0.13523786094E+04  0.25500000920E-02 0. -1.
    10030    2    1    2    0    0  0.00000000000E+00  0.00000000000E+00  0.12936374404E+04  0.39983946593E+04  0.37833400619E+04 0.  0.
        2    1    3    3  502    0  0.43928816274E+03 -0.17964589872E+04  0.10671399173E+04  0.21351877168E+04  0.25500000920E-02 0.  1.
       -2    1    3    3    0  502 -0.43928816274E+03  0.17964589872E+04  0.22649752303E+03  0.18632069425E+04  0.25500000920E-02 0. -1.
</event>
<event>
 5   0  0.3959190E-07  0.3962541E+04  0.7818609E-02  0.8012146E-01
       -2   -1    0    0    0  501  0.00000000000E+00  0.00000000000E+00  0.15547261675E+04  0.15547261675E+04  0.25500000920E-02 0.  1.
        2   -1    0    0  501    0  0.00000000000E+00  0.00000000000E+00 -0.25248391409E+04  0.25248391409E+04  0.25500000920E-02 0. -1.
    10030    2    1    2    0    0  0.00000000000E+00  0.00000000000E+00 -0.97011297342E+03  0.40795653084E+04  0.39625413467E+04 0.  0.
        2    1    3    3  502    0 -0.11507764904E+04 -0.68773635881E+03  0.10168496708E+04  0.16826321889E+04  0.25500000920E-02 0.  1.
       -2    1    3    3    0  502  0.11507764904E+04  0.68773635881E+03 -0.19869626442E+04  0.23969331195E+04  0.25500000920E-02 0. -1.
</event>
<event>
 5   0  0.6095665E-07  0.2869807E+04  0.7818609E-02  0.8281918E-01
        2   -1    0    0  501    0  0.00000000000E+00  0.00000000000E+00  0.99066804007E+03  0.99066804008E+03  0.25500000920E-02 0. -1.
       -2   -1    0    0    0  501  0.00000000000E+00  0.00000000000E+00 -0.20783424058E+04  0.20783424058E+04  0.25500000920E-02 0.  1.
    10030    2    1    2    0    0  0.00000000000E+00  0.00000000000E+00 -0.10876743657E+04  0.30690104459E+04  0.28698065424E+04 0.  0.
        4    1    3    3  502    0 -0.10779802121E+04  0.76965076681E+03  0.46322376249E+02  0.13253493939E+04  0.12699999809E+01 0. -1.
       -4    1    3    3    0  502  0.10779802121E+04 -0.76965076681E+03 -0.11339967420E+04  0.17436610520E+04  0.12699999809E+01 0.  1.
</event>
<event>
 5   0  0.1860500E-07  0.3953312E+04  0.7818609E-02  0.8014032E-01
        1   -1    0    0  501    0  0.00000000000E+00  0.00000000000E+00  0.23503099405E+04  0.23503099405E+04  0.50400001928E-02 0. -1.
       -1   -1    0    0    0  501  0.00000000000E+00  0.00000000000E+00 -0.16624056893E+04  0.16624056893E+04  0.50400001928E-02 0.  1.
    10030    2    1    2    0    0  0.00000000000E+00  0.00000000000E+00  0.68790425118E+03  0.40127156299E+04  0.39533118353E+04 0.  0.
        4    1    3    3  502    0  0.42792933244E+03  0.11101031956E+04 -0.12582837092E+04  0.17316847646E+04  0.12699999809E+01 0.  1.
       -4    1    3    3    0  502 -0.42792933244E+03 -0.11101031956E+04  0.19461879603E+04  0.22810308653E+04  0.12699999809E+01 0. -1.
</event>
<event>
 5   0  0.1860500E-07  0.2638985E+04  0.7818609E-02  0.8355078E-01
        1   -1    0    0  501    0  0.00000000000E+00  0.00000000000E+00  0.18223204644E+04  0.18223204644E+04  0.50400001928E-02 0. -1.
       -1   -1    0    0    0  501  0.00000000000E+00  0.00000000000E+00 -0.95540885820E+03  0.95540885821E+03  0.50400001928E-02 0.  1.
    10030    2    1    2    0    0  0.00000000000E+00  0.00000000000E+00  0.86691160618E+03  0.27777293226E+04  0.26389854976E+04 0.  0.
        4    1    3    3  502    0  0.76088908852E+03  0.12489137994E+03 -0.69359044390E+03  0.10371207155E+04  0.12699999809E+01 0.  1.
       -4    1    3    3    0  502 -0.76088908852E+03 -0.12489137994E+03  0.15605020501E+04  0.17406086071E+04  0.12699999809E+01 0. -1.
</event>
<event>
 5   0  0.5872444E-07  0.4129702E+04  0.7818609E-02  0.7978881E-01
        2   -1    0    0  501    0  0.00000000000E+00  0.00000000000E+00  0.32339849636E+04  0.32339849636E+04  0.25500000920E-02 0.  1.
       -2   -1    0    0    0  501  0.00000000000E+00  0.00000000000E+00 -0.13183763704E+04  0.13183763704E+04  0.25500000920E-02 0. -1.
    10030    2    1    2    0    0  0.00000000000E+00  0.00000000000E+00  0.19156085932E+04  0.45523613340E+04  0.41297018576E+04 0.  0.
        3    1    3    3  502    0 -0.20501705392E+04  0.95391475655E+02  0.70810261560E+03  0.21711075740E+04  0.10100000352E+00 0.  1.
       -3    1    3    3    0  502  0.20501705392E+04 -0.95391475655E+02  0.12075059776E+04  0.23812537600E+04  0.10100000352E+00 0. -1.
</event>
<event>
 5   0  0.1860500E-07  0.2684828E+04  0.7818609E-02  0.8339945E-01
        1   -1    0    0  501    0  0.00000000000E+00  0.00000000000E+00  0.17083055613E+04  0.17083055613E+04  0.50400001928E-02 0. -1.
       -1   -1    0    0    0  501  0.00000000000E+00  0.00000000000E+00 -0.10548904309E+04  0.10548904309E+04  0.50400001928E-02 0.  1.
    10030    2    1    2    0    0  0.00000000000E+00  0.00000000000E+00  0.65341513046E+03  0.27631959922E+04  0.26848278825E+04 0.  0.
        5    1    3    3  502    0  0.35632182842E+01  0.94839634079E+03 -0.65106814591E+03  0.11503826043E+04  0.46999998093E+01 0.  1.
       -5    1    3    3    0  502 -0.35632182842E+01 -0.94839634079E+03  0.13044832764E+04  0.16128133879E+04  0.46999998093E+01 0. -1.
</event>
<event>
 5   0  0.1860500E-07  0.3868079E+04  0.7818609E-02  0.8031701E-01
       -1   -1    0    0    0  501  0.00000000000E+00  0.00000000000E+00  0.13172338140E+04  0.13172338140E+04  0.50400001928E-02 0. -1.
        1   -1    0    0  501    0  0.00000000000E+00  0.00000000000E+00 -0.28396688839E+04  0.28396688839E+04  0.50400001928E-02 0.  1.
    10030    2    1    2    0    0  0.00000000000E+00  0.00000000000E+00 -0.15224350699E+04  0.41569026979E+04  0.38680785279E+04 0.  0.
        5    1    3    3  502    0  0.26174566682E+03  0.11484660949E+04 -0.24097048033E+04  0.26821976986E+04  0.46999998093E+01 0.  1.
       -5    1    3    3    0  502 -0.26174566682E+03 -0.11484660949E+04  0.88726973344E+03  0.14747049993E+04  0.46999998093E+01 0. -1.
</event>
<event>
 5   0  0.3959190E-07  0.3255932E+04  0.7818609E-02  0.8174200E-01
        2   -1    0    0  501    0  0.00000000000E+00  0.00000000000E+00  0.20488701768E+04  0.20488701768E+04  0.25500000920E-02 0.  1.
       -2   -1    0    0    0  501  0.00000000000E+00  0.00000000000E+00 -0.12935288629E+04  0.12935288629E+04  0.25500000920E-02 0. -1.
    10030    2    1    2    0    0  0.00000000000E+00  0.00000000000E+00  0.75534131389E+03  0.33423990397E+04  0.32559316393E+04 0.  0.
        2    1    3    3  502    0  0.12714123632E+04  0.32333672705E+03 -0.61189859106E+03  0.14475689697E+04  0.25500000920E-02 0. -1.
       -2    1    3    3    0  502 -0.12714123632E+04 -0.32333672705E+03  0.13672399050E+04  0.18948300700E+04  0.25500000920E-02 0.  1.
</event>
<event>
 5   0  0.1876027E-07  0.3199909E+04  0.7818609E-02  0.8188841E-01
        1   -1    0    0  501    0  0.00000000000E+00  0.00000000000E+00  0.21415218117E+04  0.21415218117E+04  0.50400001928E-02 0. -1.
       -1   -1    0    0    0  501  0.00000000000E+00  0.00000000000E+00 -0.11953438508E+04  0.11953438508E+04  0.50400001928E-02 0.  1.
    10030    2    1    2    0    0  0.00000000000E+00  0.00000000000E+00  0.94617796084E+03  0.33368656625E+04  0.31999093293E+04 0.  0.
        3    1    3    3  502    0  0.64770699569E+03 -0.99440284444E+03  0.15920934084E+04  0.19857297904E+04  0.10100000352E+00 0. -1.
       -3    1    3    3    0  502 -0.64770699569E+03  0.99440284444E+03 -0.64591544752E+03  0.13511358721E+04  0.10100000352E+00 0.  1.
</event>
<event>
 5   0  0.5872444E-07  0.3873113E+04  0.7818609E-02  0.8030645E-01
       -2   -1    0    0    0  501  0.00000000000E+00  0.00000000000E+00  0.20427345943E+04  0.20427345943E+04  0.25500000920E-02 0.  1.
        2   -1    0    0  501    0  0.00000000000E+00  0.00000000000E+00 -0.18358974595E+04  0.18358974595E+04  0.25500000920E-02 0. -1.
    10030    2    1    2    0    0  0.00000000000E+00  0.00000000000E+00  0.20683713472E+03  0.38786320538E+04  0.38731130901E+04 0.  0.
        3    1    3    3  502    0 -0.39476659988E+03 -0.14388440193E+04  0.13397377720E+04  0.20052456429E+04  0.10100000352E+00 0.  1.
       -3    1    3    3    0  502  0.39476659988E+03  0.14388440193E+04 -0.11329006373E+04  0.18733864109E+04  0.10100000352E+00 0. -1.
</event>
<event>
 5   0  0.6095665E-07  0.3389649E+04  0.7818609E-02  0.8140451E-01
        2   -1    0    0  501    0  0.00000000000E+00  0.00000000000E+00  0.29022932711E+04  0.29022932711E+04  0.25500000920E-02 0. -1.
       -2   -1    0    0    0  501  0.00000000000E+00  0.00000000000E+00 -0.98971067360E+03  0.98971067360E+03  0.25500000920E-02 0.  1.
    10030    2    1    2    0    0  0.00000000000E+00  0.00000000000E+00  0.19125825975E+04  0.38920039447E+04  0.33896493201E+04 0.  0.
        4    1    3    3  502    0 -0.49753685515E+03 -0.13283392645E+03  0.28102886538E+04  0.28570809762E+04  0.12699999809E+01 0. -1.
       -4    1    3    3    0  502  0.49753685515E+03  0.13283392645E+03 -0.89770605629E+03  0.10349229685E+04  0.12699999809E+01 0.  1.
</event>
<event>
 5   0  0.3959190E-07  0.3722597E+04  0.7818609E-02  0.8062972E-01
        2   -1    0    0  501    0  0.00000000000E+00  0.00000000000E+00  0.13974570115E+04  0.13974570115E+04  0.25500000920E-02 0.  1.
       -2   -1    0    0    0  501  0.00000000000E+00  0.00000000000E+00 -0.24790974338E+04  0.24790974338E+04  0.25500000920E-02 0. -1.
    10030    2    1    2    0    0  0.00000000000E+00  0.00000000000E+00 -0.10816404224E+04  0.38765544453E+04  0.37225969919E+04 0.  0.
        2    1    3    3  502    0  0.17993851281E+04  0.46758514336E+03 -0.44762374086E+03  0.19122734425E+04  0.25500000920E-02 0.  1.
       -2    1    3    3    0  502 -0.17993851281E+04 -0.46758514336E+03 -0.63401668149E+03  0.19642810028E+04  0.25500000920E-02 0. -1.
</event>
<event>
 5   0  0.1943459E-07  0.3384644E+04  0.7818609E-02  0.8141685E-01
        1   -1    0    0  501    0  0.00000000000E+00  0.00000000000E+00  0.17463625443E+04  0.17463625443E+04  0.50400001928E-02 0.  1.
       -1   -1    0    0    0  501  0.00000000000E+00  0.00000000000E+00 -0.16399538801E+04  0.16399538801E+04  0.50400001928E-02 0. -1.
    10030    2    1    2    0    0  0.00000000000E+00  0.00000000000E+00  0.10640866426E+03  0.33863164244E+04  0.33846441648E+04 0.  0.
        2    1    3    3  502    0  0.16633595297E+04 -0.29610608798E+03 -0.44364566138E+02  0.16900922919E+04  0.25500000920E-02 0. -1.
       -2    1    3    3    0  502 -0.16633595297E+04  0.29610608798E+03  0.15077323040E+03  0.16962241325E+04  0.25500000920E-02 0.  1.
</event>
<event>
 5   0  0.6095665E-07  0.3667161E+04  0.7818609E-02  0.8075278E-01
        2   -1    0    0  501    0  0.00000000000E+00  0.00000000000E+00  0.12617731043E+04  0.12617731043E+04  0.25500000920E-02 0. -1.
       -2   -1    0    0    0  501  0.00000000000E+00  0.00000000000E+00 -0.26645187486E+04  0.26645187486E+04  0.25500000920E-02 0.  1.
    10030    2    1    2    0    0  0.00000000000E+00  0.00000000000E+00 -0.14027456443E+04  0.39262918528E+04  0.36671613505E+04 0.  0.
        4    1    3    3  502    0  0.50933791480E+03 -0.61687771883E+03 -0.24678208667E+04  0.25942445287E+04  0.12699999809E+01 0.  1.
       -4    1    3    3    0  502 -0.50933791480E+03  0.61687771883E+03  0.10650752224E+04  0.13320473241E+04  0.12699999809E+01 0. -1.
</event>
<event>
 5   0  0.2666813E-07  0.3895915E+04  0.7818609E-02  0.8025879E-01
        1   -1    0    0  501    0  0.00000000000E+00  0.00000000000E+00  0.23477957757E+04  0.23477957757E+04  0.50400001928E-02 0.  1.
       -1   -1    0    0    0  501  0.00000000000E+00  0.00000000000E+00 -0.16162132900E+04  0.16162132900E+04  0.50400001928E-02 0. -1.
    10030    2    1    2    0    0  0.00000000000E+00  0.00000000000E+00  0.73158248568E+03  0.39640090657E+04  0.38959151607E+04 0.  0.
        1    1    3    3  502    0  0.13724790574E+04  0.30514389018E+03  0.17375871365E+04  0.22351779825E+04  0.50400001928E-02 0.  1.
       -1    1    3    3    0  502 -0.13724790574E+04 -0.30514389018E+03 -0.10060046508E+04  0.17288310831E+04  0.50400001928E-02 0. -1.
</event>
<event>
 5   0  0.1860500E-07  0.3239895E+04  0.7818609E-02  0.8178360E-01
        1   -1    0    0  501    0  0.00000000000E+00  0.00000000000E+00  0.16735167314E+04  0.16735167314E+04  0.50400001928E-02 0.  1.
       -1   -1    0    0    0  501  0.00000000000E+00  0.00000000000E+00 -0.15680931107E+04  0.15680931107E+04  0.50400001928E-02 0. -1.
    10030    2    1    2    0    0  0.00000000000E+00  0.00000000000E+00  0.10542362069E+03  0.32416098421E+04  0.32398950953E+04 0.  0.
        5    1    3    3  502    0  0.14537481039E+04 -0.63282250544E+03  0.38509253109E+03  0.16316146054E+04  0.46999998093E+01 0.  1.
       -5    1    3    3    0  502 -0.14537481039E+04  0.63282250544E+03 -0.27966891040E+03  0.16099952368E+04  0.46999998093E+01 0. -1.
</event>
<event>
 5   0  0.6095665E-07  0.3780802E+04  0.7818609E-02  0.8050287E-01
       -2   -1    0    0    0  501  0.00000000000E+00  0.00000000000E+00  0.22762801223E+04  0.22762801223E+04  0.25500000920E-02 0.  1.
        2   -1    0    0  501    0  0.00000000000E+00  0.00000000000E+00 -0.15699372143E+04  0.15699372143E+04  0.25500000920E-02 0. -1.
    10030    2    1    2    0    0  0.00000000000E+00  0.00000000000E+00  0.70634290806E+03  0.38462173366E+04  0.37808024938E+04 0.  0.
        4    1    3    3  502    0 -0.29886506799E+03 -0.10885548752E+04 -0.11894228781E+04  0.16398171975E+04  0.12699999809E+01 0. -1.
       -4    1    3    3    0  502  0.29886506799E+03  0.10885548752E+04  0.18957657862E+04  0.22064001392E+04  0.12699999809E+01 0.  1.
</event>
<event>
 5   0  0.1860500E-07  0.3902098E+04  0.7818609E-02  0.8024593E-01
        1   -1    0    0  501    0  0.00000000000E+00  0.00000000000E+00  0.17167512674E+04  0.17167512674E+04  0.50400001928E-02 0.  1.
       -1   -1    0    0    0  501  0.00000000000E+00  0.00000000000E+00 -0.22173226194E+04  0.22173226194E+04  0.50400001928E-02 0. -1.
    10030    2    1    2    0    0  0.00000000000E+00  0.00000000000E+00 -0.50057135202E+03  0.39340738868E+04  0.39020975985E+04 0.  0.
        5    1    3    3  502    0 -0.36729550773E+03  0.99557795859E+03 -0.19009216554E+04  0.21770637776E+04  0.46999998093E+01 0. -1.
       -5    1    3    3    0  502  0.36729550773E+03 -0.99557795859E+03  0.14003503034E+04  0.17570101092E+04  0.46999998093E+01 0.  1.
</event>
<event>
 5   0  0.1876027E-07  0.3005184E+04  0.7818609E-02  0.8242252E-01
        1   -1    0    0  501    0  0.00000000000E+00  0.00000000000E+00  0.19934158247E+04  0.19934158247E+04  0.50400001928E-02 0.  1.
       -1   -1    0    0    0  501  0.00000000000E+00  0.00000000000E+00 -0.11326197615E+04  0.11326197616E+04  0.50400001928E-02 0. -1.
    10030    2    1    2    0    0  0.00000000000E+00  0.00000000000E+00  0.86079606318E+03  0.31260355863E+04  0.30051836257E+04 0.  0.
        3    1    3    3  502    0 -0.10504250215E+04 -0.94213698705E+03  0.96766385462E+03  0.17109611842E+04  0.10100000352E+00 0.  1.
       -3    1    3    3    0  502  0.10504250215E+04  0.94213698705E+03 -0.10686779145E+03  0.14150744020E+04  0.10100000352E+00 0. -1.
</event>
<event>
 5   0  0.1860500E-07  0.3932763E+04  0.7818609E-02  0.8018249E-01
       -1   -1    0    0    0  501  0.00000000000E+00  0.00000000000E+00  0.13526157652E+04  0.13526157652E+04  0.50400001928E-02 0.  1.
        1   -1    0    0  501    0  0.00000000000E+00  0.00000000000E+00 -0.28586509270E+04  0.28586509270E+04  0.50400001928E-02 0. -1.
    10030    2    1    2    0    0  0.00000000000E+00  0.00000000000E+00 -0.15060351618E+04  0.42112666921E+04  0.39327630546E+04 0.  0.
        4    1    3    3  502    0 -0.11716852176E+03  0.85125533961E+03 -0.26469675729E+04  0.27829486270E+04  0.12699999809E+01 0. -1.
       -4    1    3    3    0  502  0.11716852176E+03 -0.85125533961E+03  0.11409324111E+04  0.14283180652E+04  0.12699999809E+01 0.  1.
</event>
<event>
 5   0  0.5872444E-07  0.4103619E+04  0.7818609E-02  0.7983964E-01
        2   -1    0    0  501    0  0.00000000000E+00  0.00000000000E+00  0.23813631337E+04  0.23813631337E+04  0.25500000920E-02 0.  1.
       -2   -1    0    0    0  501  0.00000000000E+00  0.00000000000E+00 -0.17678619486E+04  0.17678619486E+04  0.25500000920E-02 0. -1.
    10030    2    1    2    0    0  0.00000000000E+00  0.00000000000E+00  0.61350118506E+03  0.41492250823E+04  0.41036185348E+04 0.  0.
        3    1    3    3  502    0  0.34703424397E+03 -0.15029692051E+04 -0.10612724947E+04  0.18723377143E+04  0.10100000352E+00 0. -1.
       -3    1    3    3    0  502 -0.34703424397E+03  0.15029692051E+04  0.16747736797E+04  0.22768873680E+04  0.10100000352E+00 0.  1.
</event>
<event>
 5   0  0.5805753E-07  0.3998827E+04  0.7818609E-02  0.8004783E-01
        2   -1    0    0  501    0  0.00000000000E+00  0.00000000000E+00  0.26595782894E+04  0.26595782894E+04  0.25500000920E-02 0.  1.
       -2   -1    0    0    0  501  0.00000000000E+00  0.00000000000E+00 -0.15031157884E+04  0.15031157884E+04  0.25500000920E-02 0. -1.
    10030    2    1    2    0    0  0.00000000000E+00  0.00000000000E+00  0.11564625010E+04  0.41626940778E+04  0.39988268866E+04 0.  0.
        1    1    3    3  502    0 -0.52745153792E+03 -0.53345509310E+03 -0.13510579731E+04  0.15453598636E+04  0.50400001928E-02 0. -1.
       -1    1    3    3    0  502  0.52745153792E+03  0.53345509310E+03  0.25075204741E+04  0.26173342143E+04  0.50400001928E-02 0.  1.
</event>
<event>
 5   0  0.1943459E-07  0.3966950E+04  0.7818609E-02  0.8011247E-01
       -1   -1    0    0    0  501  0.00000000000E+00  0.00000000000E+00  0.21585139333E+04  0.21585139334E+04  0.50400001928E-02 0.  1.
        1   -1    0    0  501    0  0.00000000000E+00  0.00000000000E+00 -0.18226304961E+04  0.18226304961E+04  0.50400001928E-02 0. -1.
    10030    2    1    2    0    0  0.00000000000E+00  0.00000000000E+00  0.33588343728E+03  0.39811444294E+04  0.39669501238E+04 0.  0.
        2    1    3    3  502    0  0.33540949963E+03  0.81918937017E+03  0.19492865759E+04  0.21408617217E+04  0.25500000920E-02 0.  1.
       -2    1    3    3    0  502 -0.33540949963E+03 -0.81918937017E+03 -0.16134031386E+04  0.18402827077E+04  0.25500000920E-02 0. -1.
</event>
<event>
 5   0  0.1860500E-07  0.2638601E+04  0.7818609E-02  0.8355206E-01
       -1   -1    0    0    0  501  0.00000000000E+00  0.00000000000E+00  0.15761246993E+04  0.15761246993E+04  0.50400001928E-02 0.  1.
        1   -1    0    0  501    0  0.00000000000E+00  0.00000000000E+00 -0.11043249789E+04  0.11043249789E+04  0.50400001928E-02 0. -1.
    10030    2    1    2    0    0  0.00000000000E+00  0.00000000000E+00  0.47179972040E+03  0.26804496783E+04  0.26386010501E+04 0.  0.
        5    1    3    3  502    0 -0.12840980919E+04  0.25521386552E+03  0.40123795464E+03  0.13693268467E+04  0.46999998093E+01 0.  1.
       -5    1    3    3    0  502  0.12840980919E+04 -0.25521386552E+03  0.70561765765E+02  0.13111228316E+04  0.46999998093E+01 0. -1.
</event>
<event>
 5   0  0.5872444E-07  0.3842494E+04  0.7818609E-02  0.8037097E-01
       -2   -1    0    0    0  501  0.00000000000E+00  0.00000000000E+00  0.28895101688E+04  0.28895101688E+04  0.25500000920E-02 0.  1.
        2   -1    0    0  501    0  0.00000000000E+00  0.00000000000E+00 -0.12774448105E+04  0.12774448105E+04  0.25500000920E-02 0. -1.
    10030    2    1    2    0    0  0.00000000000E+00  0.00000000000E+00  0.16120653583E+04  0.41669549793E+04  0.38424938621E+04 0.  0.
        3    1    3    3  502    0 -0.67464374913E+03  0.75688874002E+03  0.25757531058E+04  0.27681273138E+04  0.10100000352E+00 0.  1.
       -3    1    3    3    0  502  0.67464374913E+03 -0.75688874002E+03 -0.96368774753E+03  0.13988276656E+04  0.10100000352E+00 0. -1.
</event>
<event>
 5   0  0.5805753E-07  0.3929937E+04  0.7818609E-02  0.8018832E-01
       -2   -1    0    0    0  501  0.00000000000E+00  0.00000000000E+00  0.18808911709E+04  0.18808911709E+04  0.25500000920E-02 0. -1.
        2   -1    0    0  501    0  0.00000000000E+00  0.00000000000E+00 -0.20528038848E+04  0.20528038849E+04  0.25500000920E-02 0.  1.
    10030    2    1    2    0    0  0.00000000000E+00  0.00000000000E+00 -0.17191271395E+03  0.39336950558E+04  0.39299367438E+04 0.  0.
        1    1    3    3  502    0  0.18553232037E+04  0.40129122736E+03 -0.59422327727E+03  0.19890601154E+04  0.50400001928E-02 0.  1.
       -1    1    3    3    0  502 -0.18553232037E+04 -0.40129122736E+03  0.42231056332E+03  0.19446349404E+04  0.50400001928E-02 0. -1.
</event>
<event>
 5   0  0.1860500E-07  0.3676817E+04  0.7818609E-02  0.8073119E-01
       -1   -1    0    0    0  501  0.00000000000E+00  0.00000000000E+00  0.18661095001E+04  0.18661095001E+04  0.50400001928E-02 0. -1.
        1   -1    0    0  501    0  0.00000000000E+00  0.00000000000E+00 -0.18111188656E+04  0.18111188656E+04  0.50400001928E-02 0.  1.
    10030    2    1    2    0    0  0.00000000000E+00  0.00000000000E+00  0.54990634449E+02  0.36772283657E+04  0.36768171676E+04 0.  0.
        5    1    3    3  502    0  0.72304415217E+02  0.61818497616E+03 -0.17025372763E+04  0.18127426349E+04  0.46999998093E+01 0.  1.
       -5    1    3    3    0  502 -0.72304415217E+02 -0.61818497616E+03  0.17575279108E+04  0.18644857308E+04  0.46999998093E+01 0. -1.
</event>
<event>
 5   0  0.1943459E-07  0.2945054E+04  0.7818609E-02  0.8259597E-01
        1   -1    0    0  501    0  0.00000000000E+00  0.00000000000E+00  0.26665880088E+04  0.26665880088E+04  0.50400001928E-02 0. -1.
       -1   -1    0    0    0  501  0.00000000000E+00  0.00000000000E+00 -0.81314977340E+03  0.81314977342E+03  0.50400001928E-02 0.  1.
    10030    2    1    2    0    0  0.00000000000E+00  0.00000000000E+00  0.18534382354E+04  0.34797377823E+04  0.29450537755E+04 0.  0.
        2    1    3    3  502    0  0.11605325925E+04 -0.65997447349E+03  0.16607416257E+04  0.21308366786E+04  0.25500000920E-02 0. -1.
       -2    1    3    3    0  502 -0.11605325925E+04  0.65997447349E+03  0.19269660979E+03  0.13489011036E+04  0.25500000920E-02 0.  1.
</event>
<event>
 5   0  0.1860500E-07  0.2496780E+04  0.7818609E-02  0.8404133E-01
       -1   -1    0    0    0  501  0.00000000000E+00  0.00000000000E+00  0.13356615953E+04  0.13356615953E+04  0.50400001928E-02 0.  1.
        1   -1    0    0  501    0  0.00000000000E+00  0.00000000000E+00 -0.11668210374E+04  0.11668210375E+04  0.50400001928E-02 0. -1.
    10030    2    1    2    0    0  0.00000000000E+00  0.00000000000E+00  0.16884055786E+03  0.25024826328E+04  0.24967803655E+04 0.  0.
        5    1    3    3  502    0  0.72394405274E+03  0.43431252875E+03  0.10061583436E+04  0.13134302671E+04  0.46999998093E+01 0.  1.
       -5    1    3    3    0  502 -0.72394405274E+03 -0.43431252875E+03 -0.83731778570E+03  0.11890523657E+04  0.46999998093E+01 0. -1.
</event>
<event>
 5   0  0.1943459E-07  0.3806343E+04  0.7818609E-02  0.8044795E-01
       -1   -1    0    0    0  501  0.00000000000E+00  0.00000000000E+00  0.19893634014E+04  0.19893634014E+04  0.50400001928E-02 0.  1.
        1   -1    0    0  501    0  0.00000000000E+00  0.00000000000E+00 -0.18207140401E+04  0.18207140401E+04  0.50400001928E-02 0. -1.
    10030    2    1    2    0    0  0.00000000000E+00  0.00000000000E+00  0.16864936132E+03  0.38100774415E+04  0.38063430617E+04 0.  0.
        2    1    3    3  502    0  0.13096404964E+04  0.74673463761E+03  0.12470541798E+04  0.19565058078E+04  0.25500000920E-02 0.  1.
       -2    1    3    3    0  502 -0.13096404964E+04 -0.74673463761E+03 -0.10784048184E+04  0.18535716337E+04  0.25500000920E-02 0. -1.
</event>
<event>
 5   0  0.1860500E-07  0.3912057E+04  0.7818609E-02  0.8022526E-01
        1   -1    0    0  501    0  0.00000000000E+00  0.00000000000E+00  0.18694225458E+04  0.18694225459E+04  0.50400001928E-02 0.  1.
       -1   -1    0    0    0  501  0.00000000000E+00  0.00000000000E+00 -0.20466470847E+04  0.20466470847E+04  0.50400001928E-02 0. -1.
    10030    2    1    2    0    0  0.00000000000E+00  0.00000000000E+00 -0.17722453881E+03  0.39160696305E+04  0.39120573633E+04 0.  0.
        5    1    3    3  502    0 -0.12941703000E+04  0.80718668613E+03 -0.13144493726E+04  0.20135109522E+04  0.46999998093E+01 0. -1.
       -5    1    3    3    0  502  0.12941703000E+04 -0.80718668613E+03  0.11372248338E+04  0.19025586783E+04  0.46999998093E+01 0.  1.
</event>
<event>
 5   0  0.5735179E-07  0.3975514E+04  0.7818609E-02  0.8009505E-01
        2   -1    0    0  501    0  0.00000000000E+00  0.00000000000E+00  0.26864438552E+04  0.26864438552E+04  0.25500000920E-02 0. -1.
       -2   -1    0    0    0  501  0.00000000000E+00  0.00000000000E+00 -0.14707833685E+04  0.14707833685E+04  0.25500000920E-02 0.  1.
    10030    2    1    2    0    0  0.00000000000E+00  0.00000000000E+00  0.12156604867E+04  0.41572272237E+04  0.39755135229E+04 0.  0.
        5    1    3    3  502    0  0.22444893587E+03  0.17883359308E+04 -0.26871538706E+03  0.18222932737E+04  0.46999998093E+01 0.  1.
       -5    1    3    3    0  502 -0.22444893587E+03 -0.17883359308E+04  0.14843758737E+04  0.23349339500E+04  0.46999998093E+01 0. -1.
</event>
<event>
 5   0  0.5872444E-07  0.3897314E+04  0.7818609E-02  0.8025588E-01
       -2   -1    0    0    0  501  0.00000000000E+00  0.00000000000E+00  0.12782149026E+04  0.12782149026E+04  0.25500000920E-02 0.  1.
        2   -1    0    0  501    0  0.00000000000E+00  0.00000000000E+00 -0.29707559734E+04  0.29707559734E+04  0.25500000920E-02 0. -1.
    10030    2    1    2    0    0  0.00000000000E+00  0.00000000000E+00 -0.16925410708E+04  0.42489708760E+04  0.38973142328E+04 0.  0.
        3    1    3    3  502    0  0.94560844078E+02  0.11388597330E+04 -0.25670816464E+04  0.28099557708E+04  0.10100000352E+00 0. -1.
       -3    1    3    3    0  502 -0.94560844078E+02 -0.11388597330E+04  0.87454057556E+03  0.14390151052E+04  0.10100000352E+00 0.  1.
</event>
<event>
 5   0  0.3959190E-07  0.2562941E+04  0.7818609E-02  0.8380899E-01
       -2   -1    0    0    0  501  0.00000000000E+00  0.00000000000E+00  0.79310565605E+03  0.79310565605E+03  0.25500000920E-02 0. -1.
        2   -1    0    0  501    0  0.00000000000E+00  0.00000000000E+00 -0.20705527403E+04  0.20705527403E+04  0.25500000920E-02 0.  1.
    10030    2    1    2    0    0  0.00000000000E+00  0.00000000000E+00 -0.12774470843E+04  0.28636583964E+04  0.25629413489E+04 0.  0.
        2    1    3    3  502    0 -0.14403230592E+03  0.29293867763E+02  0.78365630172E+03  0.79732091097E+03  0.25500000920E-02 0. -1.
       -2    1    3    3    0  502  0.14403230592E+03 -0.29293867763E+02 -0.20611033860E+04  0.20663374854E+04  0.25500000920E-02 0.  1.
</event>
<event>
 5   0  0.6095665E-07  0.3851427E+04  0.7818609E-02  0.8035208E-01
       -2   -1    0    0    0  501  0.00000000000E+00  0.00000000000E+00  0.30255494493E+04  0.30255494493E+04  0.25500000920E-02 0.  1.
        2   -1    0    0  501    0  0.00000000000E+00  0.00000000000E+00 -0.12256853972E+04  0.12256853972E+04  0.25500000920E-02 0. -1.
    10030    2    1    2    0    0  0.00000000000E+00  0.00000000000E+00  0.17998640521E+04  0.42512348466E+04  0.38514266337E+04 0.  0.
        4    1    3    3  502    0 -0.18080179155E+04 -0.50427295242E+03  0.13748903768E+04  0.23267026356E+04  0.12699999809E+01 0.  1.
       -4    1    3    3    0  502  0.18080179155E+04  0.50427295242E+03  0.42497367535E+03  0.19245322110E+04  0.12699999809E+01 0. -1.
</event>
<event>
 5   0  0.1943459E-07  0.3148049E+04  0.7818609E-02  0.8202674E-01
        1   -1    0    0  501    0  0.00000000000E+00  0.00000000000E+00  0.12949648707E+04  0.12949648707E+04  0.50400001928E-02 0.  1.
       -1   -1    0    0    0  501  0.00000000000E+00  0.00000000000E+00 -0.19132198782E+04  0.19132198782E+04  0.50400001928E-02 0. -1.
    10030    2    1    2    0    0  0.00000000000E+00  0.00000000000E+00 -0.61825500751E+03  0.32081847489E+04  0.31480486224E+04 0.  0.
        2    1    3    3  502    0 -0.53168664608E+02  0.98097068136E+03  0.94417080220E+03  0.13625670216E+04  0.25500000920E-02 0.  1.
       -2    1    3    3    0  502  0.53168664608E+02 -0.98097068136E+03 -0.15624258097E+04  0.18456177273E+04  0.25500000920E-02 0. -1.
</event>
<event>
 5   0  0.6095665E-07  0.3864719E+04  0.7818609E-02  0.8032407E-01
       -2   -1    0    0    0  501  0.00000000000E+00  0.00000000000E+00  0.15085405191E+04  0.15085405191E+04  0.25500000920E-02 0. -1.
        2   -1    0    0  501    0  0.00000000000E+00  0.00000000000E+00 -0.24752485035E+04  0.24752485035E+04  0.25500000920E-02 0.  1.
    10030    2    1    2    0    0  0.00000000000E+00  0.00000000000E+00 -0.96670798441E+03  0.39837890227E+04  0.38647187026E+04 0.  0.
        4    1    3    3  502    0  0.11206778048E+04 -0.15739253334E+04 -0.51343089350E+03  0.19991929853E+04  0.12699999809E+01 0. -1.
       -4    1    3    3    0  502 -0.11206778048E+04  0.15739253334E+04 -0.45327709091E+03  0.19845960373E+04  0.12699999809E+01 0.  1.
</event>
<event>
 5   0  0.1860500E-07  0.4093055E+04  0.7818609E-02  0.7986033E-01
       -1   -1    0    0    0  501  0.00000000000E+00  0.00000000000E+00  0.20253685896E+04  0.20253685896E+04  0.50400001928E-02 0. -1.
        1   -1    0    0  501    0  0.00000000000E+00  0.00000000000E+00 -0.20679074147E+04  0.20679074147E+04  0.50400001928E-02 0.  1.
    10030    2    1    2    0    0  0.00000000000E+00  0.00000000000E+00 -0.42538825174E+02  0.40932760043E+04  0.40930549588E+04 0.  0.
        4    1    3    3  502    0 -0.13624943241E+04 -0.13691836482E+04  0.65494641893E+03  0.20396105193E+04  0.12699999809E+01 0. -1.
       -4    1    3    3    0  502  0.13624943241E+04  0.13691836482E+04 -0.69748524410E+03  0.20536654850E+04  0.12699999809E+01 0.  1.
</event>
<event>
 5   0  0.1943459E-07  0.3772126E+04  0.7818609E-02  0.8052163E-01
       -1   -1    0    0    0  501  0.00000000000E+00  0.00000000000E+00  0.14665467104E+04  0.14665467104E+04  0.50400001928E-02 0. -1.
        1   -1    0    0  501    0  0.00000000000E+00  0.00000000000E+00 -0.24255855840E+04  0.24255855840E+04  0.50400001928E-02 0.  1.
    10030    2    1    2    0    0  0.00000000000E+00  0.00000000000E+00 -0.95903887360E+03  0.38921322945E+04  0.37721264873E+04 0.  0.
        2    1    3    3  502    0  0.15607989447E+04 -0.25508629117E+03 -0.15398667767E+04  0.22073404929E+04  0.25500000920E-02 0.  1.
       -2    1    3    3    0  502 -0.15607989447E+04  0.25508629117E+03  0.58082790308E+03  0.16847918016E+04  0.25500000920E-02 0. -1.
</event>
<event>
 5   0  0.5872444E-07  0.3929316E+04  0.7818609E-02  0.8018960E-01
        2   -1    0    0  501    0  0.00000000000E+00  0.00000000000E+00  0.19018440820E+04  0.19018440820E+04  0.25500000920E-02 0.  1.
       -2   -1    0    0    0  501  0.00000000000E+00  0.00000000000E+00 -0.20295463213E+04  0.20295463213E+04  0.25500000920E-02 0. -1.
    10030    2    1    2    0    0  0.00000000000E+00  0.00000000000E+00 -0.12770223932E+03  0.39313904033E+04  0.39293157981E+04 0.  0.
        3    1    3    3  502    0  0.11168950908E+04  0.10509574070E+04  0.11647689422E+04  0.19257862847E+04  0.10100000352E+00 0.  1.
       -3    1    3    3    0  502 -0.11168950908E+04 -0.10509574070E+04 -0.12924711816E+04  0.20056041186E+04  0.10100000352E+00 0. -1.
</event>
<event>
 5   0  0.1860500E-07  0.3925310E+04  0.7818609E-02  0.8019786E-01
       -1   -1    0    0    0  501  0.00000000000E+00  0.00000000000E+00  0.20245061932E+04  0.20245061932E+04  0.50400001928E-02 0.  1.
        1   -1    0    0  501    0  0.00000000000E+00  0.00000000000E+00 -0.19026934267E+04  0.19026934267E+04  0.50400001928E-02 0. -1.
    10030    2    1    2    0    0  0.00000000000E+00  0.00000000000E+00  0.12181276653E+03  0.39271996200E+04  0.39253099884E+04 0.  0.
        5    1    3    3  502    0  0.19229776299E+04  0.36471344878E+03  0.20635061245E+03  0.19681111579E+04  0.46999998093E+01 0.  1.
       -5    1    3    3    0  502 -0.19229776299E+04 -0.36471344878E+03 -0.84537845912E+02  0.19590884620E+04  0.46999998093E+01 0. -1.
</event>
<event>
 5   0  0.5872444E-07  0.3876037E+04  0.7818609E-02  0.8030032E-01
       -2   -1    0    0    0  501  0.00000000000E+00  0.00000000000E+00  0.18351429569E+04  0.18351429569E+04  0.25500000920E-02 0. -1.
        2   -1    0    0  501    0  0.00000000000E+00  0.00000000000E+00 -0.20466607694E+04  0.20466607694E+04  0.25500000920E-02 0.  1.
    10030    2    1    2    0    0  0.00000000000E+00  0.00000000000E+00 -0.21151781245E+03  0.38818037263E+04  0.38760366852E+04 0.  0.
        3    1    3    3  502    0  0.19243327159E+04  0.18992537932E+03  0.23998659631E+02  0.19338314293E+04  0.10100000352E+00 0. -1.
       -3    1    3    3    0  502 -0.19243327159E+04 -0.18992537932E+03 -0.23551647208E+03  0.19479722970E+04  0.10100000352E+00 0.  1.
</event>
<event>
 5   0  0.1860500E-07  0.2479723E+04  0.7818609E-02  0.8410245E-01
        1   -1    0    0  501    0  0.00000000000E+00  0.00000000000E+00  0.23960676961E+04  0.23960676961E+04  0.50400001928E-02 0.  1.
       -1   -1    0    0    0  501  0.00000000000E+00  0.00000000000E+00 -0.64157472298E+03  0.64157472300E+03  0.50400001928E-02 0. -1.
    10030    2    1    2    0    0  0.00000000000E+00  0.00000000000E+00  0.17544929731E+04  0.30376424191E+04  0.24797229429E+04 0.  0.
        4    1    3    3  502    0 -0.85787844527E+03 -0.85635701493E+03  0.11965729441E+04  0.17032589901E+04  0.12699999809E+01 0.  1.
       -4    1    3    3    0  502  0.85787844527E+03  0.85635701493E+03  0.55792002896E+03  0.13343834290E+04  0.12699999809E+01 0. -1.
</event>
<event>
 5   0  0.1860500E-07  0.3902289E+04  0.7818609E-02  0.8024553E-01
        1   -1    0    0  501    0  0.00000000000E+00  0.00000000000E+00  0.12956187817E+04  0.12956187817E+04  0.50400001928E-02 0. -1.
       -1   -1    0    0    0  501  0.00000000000E+00  0.00000000000E+00 -0.29383374688E+04  0.29383374688E+04  0.50400001928E-02 0.  1.
    10030    2    1    2    0    0  0.00000000000E+00  0.00000000000E+00 -0.16427186871E+04  0.42339562505E+04  0.39022891803E+04 0.  0.
        5    1    3    3  502    0 -0.57123875634E+02  0.24356622985E+03  0.12781385952E+04  0.13024008615E+04  0.46999998093E+01 0. -1.
       -5    1    3    3    0  502  0.57123875634E+02 -0.24356622985E+03 -0.29208572823E+04  0.29315553890E+04  0.46999998093E+01 0.  1.
</event>
<event>
 5   0  0.5872444E-07  0.2724821E+04  0.7818609E-02  0.8326996E-01
       -2   -1    0    0    0  501  0.00000000000E+00  0.00000000000E+00  0.15750804345E+04  0.15750804345E+04  0.25500000920E-02 0. -1.
        2   -1    0    0  501    0  0.00000000000E+00  0.00000000000E+00 -0.11784557860E+04  0.11784557860E+04  0.25500000920E-02 0.  1.
    10030    2    1    2    0    0  0.00000000000E+00  0.00000000000E+00  0.39662464845E+03  0.27535362205E+04  0.27248212062E+04 0.  0.
        3    1    3    3  502    0  0.12540568702E+04  0.53005907857E+03  0.14736895668E+03  0.13694301297E+04  0.10100000352E+00 0. -1.
       -3    1    3    3    0  502 -0.12540568702E+04 -0.53005907857E+03  0.24925569177E+03  0.13841060908E+04  0.10100000352E+00 0.  1.
</event>
<event>
 5   0  0.2666813E-07  0.4061946E+04  0.7818609E-02  0.7992165E-01
       -1   -1    0    0    0  501  0.00000000000E+00  0.00000000000E+00  0.23712424444E+04  0.23712424444E+04  0.50400001928E-02 0. -1.
        1   -1    0    0  501    0  0.00000000000E+00  0.00000000000E+00 -0.17395317204E+04  0.17395317205E+04  0.50400001928E-02 0.  1.
    10030    2    1    2    0    0  0.00000000000E+00  0.00000000000E+00  0.63171072398E+03  0.41107741649E+04  0.40619460602E+04 0.  0.
        1    1    3    3  502    0  0.40013264059E+03  0.10217236395E+04  0.20454419885E+04  0.23211760497E+04  0.50400001928E-02 0. -1.
       -1    1    3    3    0  502 -0.40013264059E+03 -0.10217236395E+04 -0.14137312645E+04  0.17895981152E+04  0.50400001928E-02 0.  1.
</event>
<event>
 5   0  0.5735179E-07  0.3926505E+04  0.7818609E-02  0.8019539E-01
       -2   -1    0    0    0  501  0.00000000000E+00  0.00000000000E+00  0.34319127558E+04  0.34319127558E+04  0.25500000920E-02 0.  1.
        2   -1    0    0  501    0  0.00000000000E+00  0.00000000000E+00 -0.11230941421E+04  0.11230941421E+04  0.25500000920E-02 0. -1.
    10030    2    1    2    0    0  0.00000000000E+00  0.00000000000E+00  0.23088186137E+04  0.45550068979E+04  0.39265053736E+04 0.  0.
        5    1    3    3  502    0  0.81603438454E+03  0.16299335287E+04  0.20003384314E+04  0.27062836797E+04  0.46999998093E+01 0. -1.
       -5    1    3    3    0  502 -0.81603438454E+03 -0.16299335287E+04  0.30848018228E+03  0.18487232182E+04  0.46999998093E+01 0.  1.
</event>
<event>
 5   0  0.1943459E-07  0.3881746E+04  0.7818609E-02  0.8028836E-01
       -1   -1    0    0    0  501  0.00000000000E+00  0.00000000000E+00  0.17160564364E+04  0.17160564364E+04  0.50400001928E-02 0.  1.
        1   -1    0    0  501    0  0.00000000000E+00  0.00000000000E+00 -0.21951426198E+04  0.21951426198E+04  0.50400001928E-02 0. -1.
    10030    2    1    2    0    0  0.00000000000E+00  0.00000000000E+00 -0.47908618332E+03  0.39111990562E+04  0.38817463191E+04 0.  0.
        2    1    3    3  502    0  0.13187355110E+04  0.46833903810E+02 -0.16736243125E+04  0.21312613875E+04  0.25500000920E-02 0. -1.
       -2    1    3    3    0  502 -0.13187355110E+04 -0.46833903810E+02  0.11945381291E+04  0.17799376687E+04  0.25500000920E-02 0.  1.
</event>
<event>
 5   0  0.1876027E-07  0.3634992E+04  0.7818609E-02  0.8082523E-01
       -1   -1    0    0    0  501  0.00000000000E+00  0.00000000000E+00  0.17155204936E+04  0.17155204936E+04  0.50400001928E-02 0. -1.
        1   -1    0    0  501    0  0.00000000000E+00  0.00000000000E+00 -0.19255336460E+04  0.19255336460E+04  0.50400001928E-02 0.  1.
    10030    2    1    2    0    0  0.00000000000E+00  0.00000000000E+00 -0.21001315242E+03  0.36410541396E+04  0.36349923966E+04 0.  0.
        3    1    3    3  502    0  0.49561284773E+02 -0.24322341484E+03 -0.19084752297E+04  0.19245497299E+04  0.10100000352E+00 0.  1.
       -3    1    3    3    0  502 -0.49561284773E+02  0.24322341484E+03  0.16984620772E+04  0.17165044097E+04  0.10100000352E+00 0. -1.
</event>
<event>
 5   0  0.1860500E-07  0.3925638E+04  0.7818609E-02  0.8019718E-01
       -1   -1    0    0    0  501  0.00000000000E+00  0.00000000000E+00  0.23254215267E+04  0.23254215267E+04  0.50400001928E-02 0. -1.
        1   -1    0    0  501    0  0.00000000000E+00  0.00000000000E+00 -0.16567566522E+04  0.16567566522E+04  0.50400001928E-02 0.  1.
    10030    2    1    2    0    0  0.00000000000E+00  0.00000000000E+00  0.66866487449E+03  0.39821781788E+04  0.39256375703E+04 0.  0.
        5    1    3    3  502    0 -0.13133079654E+04  0.35245544288E+03  0.17702171034E+04  0.22321947349E+04  0.46999998093E+01 0. -1.
       -5    1    3    3    0  502  0.13133079654E+04 -0.35245544288E+03 -0.11015522289E+04  0.17499834440E+04  0.46999998093E+01 0.  1.
</event>
<event>
 5   0  0.3959190E-07  0.3880998E+04  0.7818609E-02  0.8028993E-01
        2   -1    0    0  501    0  0.00000000000E+00  0.00000000000E+00  0.11583628283E+04  0.11583628283E+04  0.25500000920E-02 0. -1.
       -2   -1    0    0    0  501  0.00000000000E+00  0.00000000000E+00 -0.32507395093E+04  0.32507395093E+04  0.25500000920E-02 0.  1.
    10030    2    1    2    0    0  0.00000000000E+00  0.00000000000E+00 -0.20923766810E+04  0.44091023376E+04  0.38809977130E+04 0.  0.
        2    1    3    3  502    0  0.11393277169E+04  0.14171070272E+04 -0.27627190275E+03  0.18391808332E+04  0.25500000920E-02 0. -1.
       -2    1    3    3    0  502 -0.11393277169E+04 -0.14171070272E+04 -0.18161047782E+04  0.25699215044E+04  0.25500000920E-02 0.  1.
</event>
<event>
 5   0  0.5805753E-07  0.2448879E+04  0.7818609E-02  0.8421427E-01
        2   -1    0    0  501    0  0.00000000000E+00  0.00000000000E+00  0.11093512859E+04  0.11093512859E+04  0.25500000920E-02 0. -1.
       -2   -1    0    0    0  501  0.00000000000E+00  0.00000000000E+00 -0.13514675833E+04  0.13514675833E+04  0.25500000920E-02 0.  1.
    10030    2    1    2    0    0  0.00000000000E+00  0.00000000000E+00 -0.24211629741E+03  0.24608188692E+04  0.24488791733E+04 0.  0.
        1    1    3    3  502    0  0.14891295959E+03 -0.10305253424E+04 -0.76847784995E+03  0.12941080932E+04  0.50400001928E-02 0.  1.
       -1    1    3    3    0  502 -0.14891295959E+03  0.10305253424E+04  0.52636155255E+03  0.11667107760E+04  0.50400001928E-02 0. -1.
</event>
<event>
 5   0  0.1860500E-07  0.3862519E+04  0.7818609E-02  0.8032870E-01
        1   -1    0    0  501    0  0.00000000000E+00  0.00000000000E+00  0.27890928675E+04  0.27890928675E+04  0.50400001928E-02 0.  1.
       -1   -1    0    0    0  501  0.00000000000E+00  0.00000000000E+00 -0.13372676032E+04  0.13372676032E+04  0.50400001928E-02 0. -1.
    10030    2    1    2    0    0  0.00000000000E+00  0.00000000000E+00  0.14518252643E+04  0.41263604707E+04  0.38625191438E+04 0.  0.
        4    1    3    3  502    0  0.12721684709E+03 -0.19121671146E+04  0.47042228817E+03  0.19732881043E+04  0.12699999809E+01 0. -1.
       -4    1    3    3    0  502 -0.12721684709E+03  0.19121671146E+04  0.98140297610E+03  0.21530723664E+04  0.12699999809E+01 0.  1.
</event>
<event>
 5   0  0.1876027E-07  0.3880112E+04  0.7818609E-02  0.8029178E-01
        1   -1    0    0  501    0  0.00000000000E+00  0.00000000000E+00  0.13762378288E+04  0.13762378288E+04  0.50400001928E-02 0. -1.
       -1   -1    0    0    0  501  0.00000000000E+00  0.00000000000E+00 -0.27348602026E+04  0.27348602027E+04  0.50400001928E-02 0.  1.
    10030    2    1    2    0    0  0.00000000000E+00  0.00000000000E+00 -0.13586223738E+04  0.41110980315E+04  0.38801124043E+04 0.  0.
        3    1    3    3  502    0  0.19353901242E+04  0.12438758384E+03 -0.73344950705E+03  0.20734404726E+04  0.10100000352E+00 0.  1.
       -3    1    3    3    0  502 -0.19353901242E+04 -0.12438758384E+03 -0.62517286679E+03  0.20376575589E+04  0.10100000352E+00 0. -1.
</event>
<event>
 5   0  0.1876027E-07  0.3934037E+04  0.7818609E-02  0.8017987E-01
       -1   -1    0    0    0  501  0.00000000000E+00  0.00000000000E+00  0.20622117045E+04  0.20622117045E+04  0.50400001928E-02 0. -1.
        1   -1    0    0  501    0  0.00000000000E+00  0.00000000000E+00 -0.18762196813E+04  0.18762196813E+04  0.50400001928E-02 0.  1.
    10030    2    1    2    0    0  0.00000000000E+00  0.00000000000E+00  0.18599202317E+03  0.39384313858E+04  0.39340372072E+04 0.  0.
        3    1    3    3  502    0 -0.18199166448E+03 -0.18446141758E+04  0.75209279303E+03  0.20003414716E+04  0.10100000352E+00 0. -1.
       -3    1    3    3    0  502  0.18199166448E+03  0.18446141758E+04 -0.56610076985E+03  0.19380899142E+04  0.10100000352E+00 0.  1.
</event>
<event>
 5   0  0.1943459E-07  0.4061770E+04  0.7818609E-02  0.7992200E-01
       -1   -1    0    0    0  501  0.00000000000E+00  0.00000000000E+00  0.13077214355E+04  0.13077214355E+04  0.50400001928E-02 0.  1.
        1   -1    0    0  501    0  0.00000000000E+00  0.00000000000E+00 -0.31539538392E+04  0.31539538392E+04  0.50400001928E-02 0. -1.
    10030    2    1    2    0    0  0.00000000000E+00  0.00000000000E+00 -0.18462324037E+04  0.44616752748E+04  0.40617695859E+04 0.  0.
        2    1    3    3  502    0 -0.73180003095E+03  0.18937655241E+04 -0.97927617296E+03  0.22540765223E+04  0.25500000920E-02 0.  1.
       -2    1    3    3    0  502  0.73180003095E+03 -0.18937655241E+04 -0.86695623075E+03  0.22075987524E+04  0.25500000920E-02 0. -1.
</event>
<event>
 5   0  0.5805753E-07  0.3976698E+04  0.7818609E-02  0.8009264E-01
       -2   -1    0    0    0  501  0.00000000000E+00  0.00000000000E+00  0.22000744253E+04  0.22000744253E+04  0.25500000920E-02 0.  1.
        2   -1    0    0  501    0  0.00000000000E+00  0.00000000000E+00 -0.17969991535E+04  0.17969991535E+04  0.25500000920E-02 0. -1.
    10030    2    1    2    0    0  0.00000000000E+00  0.00000000000E+00  0.40307527181E+03  0.39970735788E+04  0.39766980674E+04 0.  0.
        1    1    3    3  502    0 -0.26999298130E+03 -0.15565553417E+04 -0.10120305937E+04  0.18761574200E+04  0.50400001928E-02 0. -1.
       -1    1    3    3    0  502  0.26999298130E+03  0.15565553417E+04  0.14151058655E+04  0.21209161588E+04  0.50400001928E-02 0.  1.
</event>
<event>
 5   0  0.5805753E-07  0.2984608E+04  0.7818609E-02  0.8248140E-01
        2   -1    0    0  501    0  0.00000000000E+00  0.00000000000E+00  0.10300882120E+04  0.10300882120E+04  0.25500000920E-02 0.  1.
       -2   -1    0    0    0  501  0.00000000000E+00  0.00000000000E+00 -0.21619229981E+04  0.21619229981E+04  0.25500000920E-02 0. -1.
    10030    2    1    2    0    0  0.00000000000E+00  0.00000000000E+00 -0.11318347860E+04  0.31920112101E+04  0.29846081121E+04 0.  0.
        1    1    3    3  502    0  0.52630086336E+03 -0.71213499742E+03 -0.18505725433E+04  0.20515232369E+04  0.50400001928E-02 0. -1.
       -1    1    3    3    0  502 -0.52630086336E+03  0.71213499742E+03  0.71873775728E+03  0.11404879732E+04  0.50400001928E-02 0.  1.
</event>
<event>
 5   0  0.1876027E-07  0.3887396E+04  0.7818609E-02  0.8027656E-01
       -1   -1    0    0    0  501  0.00000000000E+00  0.00000000000E+00  0.29056453879E+04  0.29056453879E+04  0.50400001928E-02 0.  1.
        1   -1    0    0  501    0  0.00000000000E+00  0.00000000000E+00 -0.13002146588E+04  0.13002146588E+04  0.50400001928E-02 0. -1.
    10030    2    1    2    0    0  0.00000000000E+00  0.00000000000E+00  0.16054307291E+04  0.42058600468E+04  0.38873964176E+04 0.  0.
        3    1    3    3  502    0  0.18602962738E+04  0.91182676424E+02  0.20135136901E+03  0.18733816725E+04  0.10100000352E+00 0.  1.
       -3    1    3    3    0  502 -0.18602962738E+04 -0.91182676424E+02  0.14040793601E+04  0.23324783743E+04  0.10100000352E+00 0. -1.
</event>
<event>
 5   0  0.6095665E-07  0.3880758E+04  0.7818609E-02  0.8029043E-01
       -2   -1    0    0    0  501  0.00000000000E+00  0.00000000000E+00  0.27976050312E+04  0.27976050312E+04  0.25500000920E-02 0.  1.
        2   -1    0    0  501    0  0.00000000000E+00  0.00000000000E+00 -0.13458192319E+04  0.13458192319E+04  0.25500000920E-02 0. -1.
    10030    2    1    2    0    0  0.00000000000E+00  0.00000000000E+00  0.14517857993E+04  0.41434242631E+04  0.38807579952E+04 0.  0.
        4    1    3    3  502    0  0.18078516015E+04 -0.47968748559E+02 -0.24865013412E+02  0.18086592536E+04  0.12699999809E+01 0. -1.
       -4    1    3    3    0  502 -0.18078516015E+04  0.47968748559E+02  0.14766508127E+04  0.23347650095E+04  0.12699999809E+01 0.  1.
</event>
<event>
 5   0  0.1876027E-07  0.4026949E+04  0.7818609E-02  0.7999132E-01
       -1   -1    0    0    0  501  0.00000000000E+00  0.00000000000E+00  0.17460577913E+04  0.17460577913E+04  0.50400001928E-02 0.  1.
        1   -1    0    0  501    0  0.00000000000E+00  0.00000000000E+00 -0.23218477158E+04  0.23218477158E+04  0.50400001928E-02 0. -1.
    10030    2    1    2    0    0  0.00000000000E+00  0.00000000000E+00 -0.57578992449E+03  0.40679055072E+04  0.40269493637E+04 0.  0.
        3    1    3    3  502    0  0.54235025290E+03 -0.25289609564E+03  0.16541509675E+04  0.17590667029E+04  0.10100000352E+00 0.  1.
       -3    1    3    3    0  502 -0.54235025290E+03  0.25289609564E+03 -0.22299408920E+04  0.23088388042E+04  0.10100000352E+00 0. -1.
</event>
<event>
 5   0  0.1876027E-07  0.3892285E+04  0.7818609E-02  0.8026636E-01
       -1   -1    0    0    0  501  0.00000000000E+00  0.00000000000E+00  0.21482676078E+04  0.21482676078E+04  0.50400001928E-02 0. -1.
        1   -1    0    0  501    0  0.00000000000E+00  0.00000000000E+00 -0.17630349472E+04  0.17630349472E+04  0.50400001928E-02 0.  1.
    10030    2    1    2    0    0  0.00000000000E+00  0.00000000000E+00  0.38523266056E+03  0.39113025551E+04  0.38922851224E+04 0.  0.
        3    1    3    3  502    0 -0.72392211503E+03  0.18042304808E+04  0.10184224231E+03  0.19467107410E+04  0.10100000352E+00 0.  1.
       -3    1    3    3    0  502  0.72392211503E+03 -0.18042304808E+04  0.28339041825E+03  0.19645918141E+04  0.10100000352E+00 0. -1.
</event>
<event>
 5   0  0.5872444E-07  0.3803524E+04  0.7818609E-02  0.8045399E-01
       -2   -1    0    0    0  501  0.00000000000E+00  0.00000000000E+00  0.13082428754E+04  0.13082428754E+04  0.25500000920E-02 0.  1.
        2   -1    0    0  501    0  0.00000000000E+00  0.00000000000E+00 -0.27645470718E+04  0.27645470718E+04  0.25500000920E-02 0. -1.
    10030    2    1    2    0    0  0.00000000000E+00  0.00000000000E+00 -0.14563041964E+04  0.40727899472E+04  0.38035241608E+04 0.  0.
        3    1    3    3  502    0 -0.64463077545E+03 -0.16899322008E+04 -0.98948617070E+02  0.18114111954E+04  0.10100000352E+00 0.  1.
       -3    1    3    3    0  502  0.64463077545E+03  0.16899322008E+04 -0.13573555793E+04  0.22613787517E+04  0.10100000352E+00 0. -1.
</event>
<event>
 5   0  0.1860500E-07  0.3969782E+04  0.7818609E-02  0.8010670E-01
        1   -1    0    0  501    0  0.00000000000E+00  0.00000000000E+00  0.16579756900E+04  0.16579756900E+04  0.50400001928E-02 0.  1.
       -1   -1    0    0    0  501  0.00000000000E+00  0.00000000000E+00 -0.23762670207E+04  0.23762670207E+04  0.50400001928E-02 0. -1.
    10030    2    1    2    0    0  0.00000000000E+00  0.00000000000E+00 -0.71829133073E+03  0.40342427107E+04  0.39697823382E+04 0.  0.
        4    1    3    3  502    0  0.33532751348E+03 -0.11774250749E+04  0.12285992442E+04  0.17344255718E+04  0.12699999809E+01 0.  1.
       -4    1    3    3    0  502 -0.33532751348E+03  0.11774250749E+04 -0.19468905750E+04  0.22998171388E+04  0.12699999809E+01 0. -1.
</event>
<event>
 5   0  0.1876027E-07  0.2699976E+04  0.7818609E-02  0.8335013E-01
        1   -1    0    0  501    0  0.00000000000E+00  0.00000000000E+00  0.19326004340E+04  0.19326004340E+04  0.50400001928E-02 0. -1.
       -1   -1    0    0    0  501  0.00000000000E+00  0.00000000000E+00 -0.94301341671E+03  0.94301341673E+03  0.50400001928E-02 0.  1.
    10030    2    1    2    0    0  0.00000000000E+00  0.00000000000E+00  0.98958701727E+03  0.28756138507E+04  0.26999763987E+04 0.  0.
        3    1    3    3  502    0  0.69280010644E+03  0.11291707141E+04  0.21814725553E+03  0.13426044557E+04  0.10100000352E+00 0.  1.
       -3    1    3    3    0  502 -0.69280010644E+03 -0.11291707141E+04  0.77143976173E+03  0.15330093950E+04  0.10100000352E+00 0. -1.
</event>
<event>
 5   0  0.3959190E-07  0.3125720E+04  0.7818609E-02  0.8208714E-01
        2   -1    0    0  501    0  0.00000000000E+00  0.00000000000E+00  0.17504245171E+04  0.17504245171E+04  0.25500000920E-02 0. -1.
       -2   -1    0    0    0  501  0.00000000000E+00  0.00000000000E+00 -0.13953939932E+04  0.13953939932E+04  0.25500000920E-02 0.  1.
    10030    2    1    2    0    0  0.00000000000E+00  0.00000000000E+00  0.35503052398E+03  0.31458185103E+04  0.31257203053E+04 0.  0.
        2    1    3    3  502    0 -0.71015473354E+03  0.11641839662E+04  0.94589522942E+03  0.16596270177E+04  0.25500000920E-02 0. -1.
       -2    1    3    3    0  502  0.71015473354E+03 -0.11641839662E+04 -0.59086470544E+03  0.14861914927E+04  0.25500000920E-02 0.  1.
</event>
<event>
 5   0  0.1860500E-07  0.4016074E+04  0.7818609E-02  0.8001312E-01
        1   -1    0    0  501    0  0.00000000000E+00  0.00000000000E+00  0.16741643537E+04  0.16741643537E+04  0.50400001928E-02 0. -1.
       -1   -1    0    0    0  501  0.00000000000E+00  0.00000000000E+00 -0.24084932658E+04  0.24084932658E+04  0.50400001928E-02 0.  1.
    10030    2    1    2    0    0  0.00000000000E+00  0.00000000000E+00 -0.73432891211E+03  0.40826576195E+04  0.40160744872E+04 0.  0.
        4    1    3    3  502    0  0.13588551455E+04 -0.72969251932E+03  0.93994979898E+03  0.18062241602E+04  0.12699999809E+01 0. -1.
       -4    1    3    3    0  502 -0.13588551455E+04  0.72969251932E+03 -0.16742787111E+04  0.22764334593E+04  0.12699999809E+01 0.  1.
</event>
<event>
 5   0  0.5805753E-07  0.3819724E+04  0.7818609E-02  0.8041935E-01
       -2   -1    0    0    0  501  0.00000000000E+00  0.00000000000E+00  0.18923352924E+04  0.18923352924E+04  0.25500000920E-02 0.  1.
        2   -1    0    0  501    0  0.00000000000E+00  0.00000000000E+00 -0.19275509340E+04  0.19275509340E+04  0.25500000920E-02 0. -1.
    10030    2    1    2    0    0  0.00000000000E+00  0.00000000000E+00 -0.35215641687E+02  0.38198862264E+04  0.38197238959E+04 0.  0.
        1    1    3    3  502    0  0.79083981548E+03  0.89574674889E+03  0.14723490526E+04  0.18962071577E+04  0.50400001928E-02 0.  1.
       -1    1    3    3    0  502 -0.79083981548E+03 -0.89574674889E+03 -0.15075646943E+04  0.19236790687E+04  0.50400001928E-02 0. -1.
</event>
<event>
 5   0  0.5735179E-07  0.3551228E+04  0.7818609E-02  0.8101756E-01
        2   -1    0    0  501    0  0.00000000000E+00  0.00000000000E+00  0.18309015833E+04  0.18309015833E+04  0.25500000920E-02 0. -1.
       -2   -1    0    0    0  501  0.00000000000E+00  0.00000000000E+00 -0.17219957801E+04  0.17219957801E+04  0.25500000920E-02 0.  1.
    10030    2    1    2    0    0  0.00000000000E+00  0.00000000000E+00  0.10890580320E+03  0.35528973634E+04  0.35512278441E+04 0.  0.
        5    1    3    3  502    0 -0.13913281687E+04 -0.92448108719E+03 -0.54776309866E+03  0.17579891512E+04  0.46999998093E+01 0.  1.
       -5    1    3    3    0  502  0.13913281687E+04  0.92448108719E+03  0.65666890186E+03  0.17949082122E+04  0.46999998093E+01 0. -1.
</event>
<event>
 5   0  0.1860500E-07  0.3685273E+04  0.7818609E-02  0.8071233E-01
       -1   -1    0    0    0  501  0.00000000000E+00  0.00000000000E+00  0.17984330775E+04  0.17984330775E+04  0.50400001928E-02 0.  1.
        1   -1    0    0  501    0  0.00000000000E+00  0.00000000000E+00 -0.18879264258E+04  0.18879264258E+04  0.50400001928E-02 0. -1.
    10030    2    1    2    0    0  0.00000000000E+00  0.00000000000E+00 -0.89493348326E+02  0.36863595033E+04  0.36852730330E+04 0.  0.
        4    1    3    3  502    0  0.72634103646E+03  0.37771065419E+03  0.16065189298E+04  0.18030921563E+04  0.12699999809E+01 0.  1.
       -4    1    3    3    0  502 -0.72634103646E+03 -0.37771065419E+03 -0.16960122781E+04  0.18832673469E+04  0.12699999809E+01 0. -1.
</event>
<event>
 5   0  0.5805753E-07  0.3786123E+04  0.7818609E-02  0.8049139E-01
       -2   -1    0    0    0  501  0.00000000000E+00  0.00000000000E+00  0.24010993722E+04  0.24010993722E+04  0.25500000920E-02 0.  1.
        2   -1    0    0  501    0  0.00000000000E+00  0.00000000000E+00 -0.14925170942E+04  0.14925170942E+04  0.25500000920E-02 0. -1.
    10030    2    1    2    0    0  0.00000000000E+00  0.00000000000E+00  0.90858227799E+03  0.38936164665E+04  0.37861230081E+04 0.  0.
        1    1    3    3  502    0  0.95654122558E+03 -0.15796299192E+04  0.25956465172E+02  0.18468555807E+04  0.50400001928E-02 0. -1.
       -1    1    3    3    0  502 -0.95654122558E+03  0.15796299192E+04  0.88262581281E+03  0.20467608858E+04  0.50400001928E-02 0.  1.
</event>
<event>
 5   0  0.1876027E-07  0.3875793E+04  0.7818609E-02  0.8030083E-01
       -1   -1    0    0    0  501  0.00000000000E+00  0.00000000000E+00  0.19034948402E+04  0.19034948402E+04  0.50400001928E-02 0.  1.
        1   -1    0    0  501    0  0.00000000000E+00  0.00000000000E+00 -0.19729197159E+04  0.19729197159E+04  0.50400001928E-02 0. -1.
    10030    2    1    2    0    0  0.00000000000E+00  0.00000000000E+00 -0.69424875709E+02  0.38764145561E+04  0.38757928218E+04 0.  0.
        3    1    3    3  502    0 -0.14044661022E+04  0.12795457058E+04 -0.41645447919E+03  0.19450441097E+04  0.10100000352E+00 0. -1.
       -3    1    3    3    0  502  0.14044661022E+04 -0.12795457058E+04  0.34702960348E+03  0.19313704464E+04  0.10100000352E+00 0.  1.
</event>
<event>
 5   0  0.3959190E-07  0.3851109E+04  0.7818609E-02  0.8035275E-01
       -2   -1    0    0    0  501  0.00000000000E+00  0.00000000000E+00  0.26313394600E+04  0.26313394600E+04  0.25500000920E-02 0. -1.
        2   -1    0    0  501    0  0.00000000000E+00  0.00000000000E+00 -0.14090773093E+04  0.14090773093E+04  0.25500000920E-02 0.  1.
    10030    2    1    2    0    0  0.00000000000E+00  0.00000000000E+00  0.12222621506E+04  0.40404167693E+04  0.38511093083E+04 0.  0.
        2    1    3    3  502    0  0.15476016228E+03  0.62805423103E+03 -0.12916809360E+04  0.14445907605E+04  0.25500000920E-02 0.  1.
       -2    1    3    3    0  502 -0.15476016228E+03 -0.62805423103E+03  0.25139430866E+04  0.25958260088E+04  0.25500000920E-02 0. -1.
</event>
<event>
 5   0  0.5805753E-07  0.3821710E+04  0.7818609E-02  0.8041512E-01
       -2   -1    0    0    0  501  0.00000000000E+00  0.00000000000E+00  0.15666014434E+04  0.15666014434E+04  0.25500000920E-02 0.  1.
        2   -1    0    0  501    0  0.00000000000E+00  0.00000000000E+00 -0.23307567312E+04  0.23307567312E+04  0.25500000920E-02 0. -1.
    10030    2    1    2    0    0  0.00000000000E+00  0.00000000000E+00 -0.76415528776E+03  0.38973581747E+04  0.38217100149E+04 0.  0.
        1    1    3    3  502    0  0.17958567999E+04  0.64713263095E+03 -0.29385175099E+03  0.19313806304E+04  0.50400001928E-02 0.  1.
       -1    1    3    3    0  502 -0.17958567999E+04 -0.64713263095E+03 -0.47030353677E+03  0.19659775443E+04  0.50400001928E-02 0. -1.
</event>
<event>
 5   0  0.3959190E-07  0.4021399E+04  0.7818609E-02  0.8000244E-01
        2   -1    0    0  501    0  0.00000000000E+00  0.00000000000E+00  0.15778076288E+04  0.15778076288E+04  0.25500000920E-02 0. -1.
       -2   -1    0    0    0  501  0.00000000000E+00  0.00000000000E+00 -0.25623607787E+04  0.25623607787E+04  0.25500000920E-02 0.  1.
    10030    2    1    2    0    0  0.00000000000E+00  0.00000000000E+00 -0.98455314985E+03  0.41401684075E+04  0.40213989528E+04 0.  0.
        2    1    3    3  502    0 -0.17106053320E+04  0.88234713272E+03 -0.10910066362E+04  0.22124652641E+04  0.25500000920E-02 0. -1.
       -2    1    3    3    0  502  0.17106053320E+04 -0.88234713272E+03  0.10645348638E+03  0.19277031434E+04  0.25500000920E-02 0.  1.
</event>
<event>
 5   0  0.3959190E-07  0.4061414E+04  0.7818609E-02  0.7992271E-01
       -2   -1    0    0    0  501  0.00000000000E+00  0.00000000000E+00  0.20722196307E+04  0.20722196307E+04  0.25500000920E-02 0. -1.
        2   -1    0    0  501    0  0.00000000000E+00  0.00000000000E+00 -0.19900263074E+04  0.19900263074E+04  0.25500000920E-02 0.  1.
    10030    2    1    2    0    0  0.00000000000E+00  0.00000000000E+00  0.82193323275E+02  0.40622459381E+04  0.40614143250E+04 0.  0.
        2    1    3    3  502    0  0.29852254824E+03  0.19944105259E+04  0.27985566164E+03  0.20359538916E+04  0.25500000920E-02 0. -1.
       -2    1    3    3    0  502 -0.29852254824E+03 -0.19944105259E+04 -0.19766233836E+03  0.20262920464E+04  0.25500000920E-02 0.  1.
</event>
<event>
 5   0  0.1860500E-07  0.3883111E+04  0.7818609E-02  0.8028551E-01
        1   -1    0    0  501    0  0.00000000000E+00  0.00000000000E+00  0.22588812062E+04  0.22588812063E+04  0.50400001928E-02 0.  1.
       -1   -1    0    0    0  501  0.00000000000E+00  0.00000000000E+00 -0.16688076144E+04  0.16688076145E+04  0.50400001928E-02 0. -1.
    10030    2    1    2    0    0  0.00000000000E+00  0.00000000000E+00  0.59007359180E+03  0.39276888207E+04  0.38831112048E+04 0.  0.
        5    1    3    3  502    0 -0.18627924342E+03 -0.34938683195E+03 -0.16275320763E+04  0.16750086162E+04  0.46999998093E+01 0. -1.
       -5    1    3    3    0  502  0.18627924342E+03  0.34938683195E+03  0.22176056681E+04  0.22526802046E+04  0.46999998093E+01 0.  1.
</event>
<event>
 5   0  0.1860500E-07  0.3902962E+04  0.7818609E-02  0.8024413E-01
        1   -1    0    0  501    0  0.00000000000E+00  0.00000000000E+00  0.28214614843E+04  0.28214614843E+04  0.50400001928E-02 0.  1.
       -1   -1    0    0    0  501  0.00000000000E+00  0.00000000000E+00 -0.13497538172E+04  0.13497538172E+04  0.50400001928E-02 0. -1.
    10030    2    1    2    0    0  0.00000000000E+00  0.00000000000E+00  0.14717076671E+04  0.41712153015E+04  0.39029621615E+04 0.  0.
        4    1    3    3  502    0  0.12286154375E+03  0.18144370453E+04  0.14923158895E+04  0.23525061269E+04  0.12699999809E+01 0. -1.
       -4    1    3    3    0  502 -0.12286154375E+03 -0.18144370453E+04 -0.20608222360E+02  0.18187091746E+04  0.12699999809E+01 0.  1.
</event>
<event>
 5   0  0.3959190E-07  0.2796193E+04  0.7818609E-02  0.8304451E-01
       -2   -1    0    0    0  501  0.00000000000E+00  0.00000000000E+00  0.11688545375E+04  0.11688545375E+04  0.25500000920E-02 0.  1.
        2   -1    0    0  501    0  0.00000000000E+00  0.00000000000E+00 -0.16722990726E+04  0.16722990726E+04  0.25500000920E-02 0. -1.
    10030    2    1    2    0    0  0.00000000000E+00  0.00000000000E+00 -0.50344453508E+03  0.28411536100E+04  0.27961933832E+04 0.  0.
        2    1    3    3  502    0  0.11824683338E+04  0.74327055942E+03 -0.18752509218E+03  0.14092012437E+04  0.25500000920E-02 0. -1.
       -2    1    3    3    0  502 -0.11824683338E+04 -0.74327055942E+03 -0.31591944290E+03  0.14319523663E+04  0.25500000920E-02 0.  1.
</event>
<event>
 5   0  0.3959190E-07  0.3825624E+04  0.7818609E-02  0.8040678E-01
        2   -1    0    0  501    0  0.00000000000E+00  0.00000000000E+00  0.24087311124E+04  0.24087311125E+04  0.25500000920E-02 0.  1.
       -2   -1    0    0    0  501  0.00000000000E+00  0.00000000000E+00 -0.15189949643E+04  0.15189949643E+04  0.25500000920E-02 0. -1.
    10030    2    1    2    0    0  0.00000000000E+00  0.00000000000E+00  0.88973614815E+03  0.39277260767E+04  0.38256243570E+04 0.  0.
        2    1    3    3  502    0 -0.13990123534E+04 -0.83187395103E+01  0.17841150442E+04  0.22672386856E+04  0.25500000920E-02 0.  1.
       -2    1    3    3    0  502  0.13990123534E+04  0.83187395103E+01 -0.89437889605E+03  0.16604873912E+04  0.25500000920E-02 0. -1.
</event>
<event>
 5   0  0.1860500E-07  0.3866020E+04  0.7818609E-02  0.8032134E-01
        3   -1    0    0  501    0  0.00000000000E+00  0.00000000000E+00  0.19324703359E+04  0.19324703385E+04  0.10100000352E+00 0. -1.
       -3   -1    0    0    0  501  0.00000000000E+00  0.00000000000E+00 -0.19335493401E+04  0.19335493427E+04  0.10100000352E+00 0.  1.
    10030    2    1    2    0    0  0.00000000000E+00  0.00000000000E+00 -0.10790041637E+01  0.38660196812E+04  0.38660195307E+04 0.  0.
        3    1    3    3  502    0 -0.19251054725E+03  0.18074135675E+04 -0.65835608859E+03  0.19331934369E+04  0.10100000352E+00 0. -1.
       -3    1    3    3    0  502  0.19251054725E+03 -0.18074135675E+04  0.65727708443E+03  0.19328262443E+04  0.10100000352E+00 0.  1.
</event>
<event>
 5   0  0.5805753E-07  0.4080327E+04  0.7818609E-02  0.7988535E-01
       -2   -1    0    0    0  501  0.00000000000E+00  0.00000000000E+00  0.20949687857E+04  0.20949687857E+04  0.25500000920E-02 0.  1.
        2   -1    0    0  501    0  0.00000000000E+00  0.00000000000E+00 -0.19867919367E+04  0.19867919367E+04  0.25500000920E-02 0. -1.
    10030    2    1    2    0    0  0.00000000000E+00  0.00000000000E+00  0.10817684904E+03  0.40817607225E+04  0.40803269924E+04 0.  0.
        1    1    3    3  502    0 -0.83836449349E+03  0.58953644807E+03  0.18187544254E+04  0.20876484156E+04  0.50400001928E-02 0.  1.
       -1    1    3    3    0  502  0.83836449349E+03 -0.58953644807E+03 -0.17105775763E+04  0.19941123068E+04  0.50400001928E-02 0. -1.
</event>
<event>
 5   0  0.5735179E-07  0.3801169E+04  0.7818609E-02  0.8045904E-01
        2   -1    0    0  501    0  0.00000000000E+00  0.00000000000E+00  0.24447895816E+04  0.24447895816E+04  0.25500000920E-02 0.  1.
       -2   -1    0    0    0  501  0.00000000000E+00  0.00000000000E+00 -0.14775181630E+04  0.14775181630E+04  0.25500000920E-02 0. -1.
    10030    2    1    2    0    0  0.00000000000E+00  0.00000000000E+00  0.96727141861E+03  0.39223077446E+04  0.38011687737E+04 0.  0.
        5    1    3    3  502    0 -0.13385395344E+03 -0.18870382977E+04  0.29514372857E+03  0.19146702924E+04  0.46999998093E+01 0.  1.
       -5    1    3    3    0  502  0.13385395344E+03  0.18870382977E+04  0.67212769003E+03  0.20076374523E+04  0.46999998093E+01 0. -1.
</event>
<event>
 5   0  0.1860500E-07  0.4085774E+04  0.7818609E-02  0.7987463E-01
       -1   -1    0    0    0  501  0.00000000000E+00  0.00000000000E+00  0.18408069443E+04  0.18408069443E+04  0.50400001928E-02 0. -1.
        1   -1    0    0  501    0  0.00000000000E+00  0.00000000000E+00 -0.22671509514E+04  0.22671509514E+04  0.50400001928E-02 0.  1.
    10030    2    1    2    0    0  0.00000000000E+00  0.00000000000E+00 -0.42634400709E+03  0.41079578957E+04  0.40857739610E+04 0.  0.
        4    1    3    3  502    0 -0.63013778405E+02 -0.24093722037E+03  0.18254871344E+04  0.18423969093E+04  0.12699999809E+01 0. -1.
       -4    1    3    3    0  502  0.63013778405E+02  0.24093722037E+03 -0.22518311415E+04  0.22655609864E+04  0.12699999809E+01 0.  1.
</event>
<event>
 5   0  0.3959190E-07  0.3832721E+04  0.7818609E-02  0.8039169E-01
        2   -1    0    0  501    0  0.00000000000E+00  0.00000000000E+00  0.26624897247E+04  0.26624897247E+04  0.25500000920E-02 0.  1.
       -2   -1    0    0    0  501  0.00000000000E+00  0.00000000000E+00 -0.13793246052E+04  0.13793246052E+04  0.25500000920E-02 0. -1.
    10030    2    1    2    0    0  0.00000000000E+00  0.00000000000E+00  0.12831651195E+04  0.40418143299E+04  0.38327210117E+04 0.  0.
        2    1    3    3  502    0 -0.16802849956E+04 -0.52708432150E+03  0.14386348882E+04  0.22739494036E+04  0.25500000920E-02 0. -1.
       -2    1    3    3    0  502  0.16802849956E+04  0.52708432150E+03 -0.15546976870E+03  0.17678649263E+04  0.25500000920E-02 0.  1.
</event>
<event>
 5   0  0.5872444E-07  0.3892739E+04  0.7818609E-02  0.8026541E-01
        2   -1    0    0  501    0  0.00000000000E+00  0.00000000000E+00  0.12376427742E+04  0.12376427742E+04  0.25500000920E-02 0.  1.
       -2   -1    0    0    0  501  0.00000000000E+00  0.00000000000E+00 -0.30609425879E+04  0.30609425879E+04  0.25500000920E-02 0. -1.
    10030    2    1    2    0    0  0.00000000000E+00  0.00000000000E+00 -0.18232998138E+04  0.42985853621E+04  0.38927386124E+04 0.  0.
        3    1    3    3  502    0 -0.63481142838E+03  0.18347872622E+04 -0.10635550260E+04  0.22137251750E+04  0.10100000352E+00 0. -1.
       -3    1    3    3    0  502  0.63481142838E+03 -0.18347872622E+04 -0.75974478780E+03  0.20848601871E+04  0.10100000352E+00 0.  1.
</event>
<event>
 5   0  0.5735179E-07  0.3918734E+04  0.7818609E-02  0.8021144E-01
        2   -1    0    0  501    0  0.00000000000E+00  0.00000000000E+00  0.20737860641E+04  0.20737860641E+04  0.25500000920E-02 0. -1.
       -2   -1    0    0    0  501  0.00000000000E+00  0.00000000000E+00 -0.18512611945E+04  0.18512611945E+04  0.25500000920E-02 0.  1.
    10030    2    1    2    0    0  0.00000000000E+00  0.00000000000E+00  0.22252486957E+03  0.39250472586E+04  0.39187343193E+04 0.  0.
        5    1    3    3  502    0  0.10568106058E+04 -0.10632895611E+04  0.13749066042E+04  0.20341641053E+04  0.46999998093E+01 0. -1.
       -5    1    3    3    0  502 -0.10568106058E+04  0.10632895611E+04 -0.11523817346E+04  0.18908831533E+04  0.46999998093E+01 0.  1.
</event>
<event>
 5   0  0.1860500E-07  0.3941673E+04  0.7818609E-02  0.8016417E-01
        1   -1    0    0  501    0  0.00000000000E+00  0.00000000000E+00  0.26007877751E+04  0.26007877752E+04  0.50400001928E-02 0. -1.
       -1   -1    0    0    0  501  0.00000000000E+00  0.00000000000E+00 -0.14934694968E+04  0.14934694968E+04  0.50400001928E-02 0.  1.
    10030    2    1    2    0    0  0.00000000000E+00  0.00000000000E+00  0.11073182784E+04  0.40942572719E+04  0.39416733552E+04 0.  0.
        5    1    3    3  502    0  0.69860474192E+03 -0.15047466190E+04 -0.55141559391E+03  0.17482540490E+04  0.46999998093E+01 0.  1.
       -5    1    3    3    0  502 -0.69860474192E+03  0.15047466190E+04  0.16587338723E+04  0.23460032229E+04  0.46999998093E+01 0. -1.
</event>
<event>
 5   0  0.6095665E-07  0.3905651E+04  0.7818609E-02  0.8023855E-01
        2   -1    0    0  501    0  0.00000000000E+00  0.00000000000E+00  0.23307730795E+04  0.23307730795E+04  0.25500000920E-02 0. -1.
       -2   -1    0    0    0  501  0.00000000000E+00  0.00000000000E+00 -0.16361643260E+04  0.16361643260E+04  0.25500000920E-02 0.  1.
    10030    2    1    2    0    0  0.00000000000E+00  0.00000000000E+00  0.69460875349E+03  0.39669374056E+04  0.39056511697E+04 0.  0.
        4    1    3    3  502    0 -0.13397702164E+03 -0.36817663514E+03  0.22904428919E+04  0.23237112839E+04  0.12699999809E+01 0. -1.
       -4    1    3    3    0  502  0.13397702164E+03  0.36817663514E+03 -0.15958341384E+04  0.16432261217E+04  0.12699999809E+01 0.  1.
</event>
<event>
 5   0  0.1876027E-07  0.3676475E+04  0.7818609E-02  0.8073195E-01
       -1   -1    0    0    0  501  0.00000000000E+00  0.00000000000E+00  0.33968118061E+04  0.33968118061E+04  0.50400001928E-02 0. -1.
        1   -1    0    0  501    0  0.00000000000E+00  0.00000000000E+00 -0.99479095043E+03  0.99479095044E+03  0.50400001928E-02 0.  1.
    10030    2    1    2    0    0  0.00000000000E+00  0.00000000000E+00  0.24020208557E+04  0.43916027566E+04  0.36764752930E+04 0.  0.
        3    1    3    3  502    0  0.17828285662E+04  0.41428028815E+03  0.14044702185E+04  0.23070852734E+04  0.10100000352E+00 0.  1.
       -3    1    3    3    0  502 -0.17828285662E+04 -0.41428028815E+03  0.99755063716E+03  0.20845174832E+04  0.10100000352E+00 0. -1.
</event>
<event>
 5   0  0.1860500E-07  0.3905504E+04  0.7818609E-02  0.8023885E-01
       -4   -1    0    0    0  501  0.00000000000E+00  0.00000000000E+00  0.22735819940E+04  0.22735823487E+04  0.12699999809E+01 0. -1.
        4   -1    0    0  501    0  0.00000000000E+00  0.00000000000E+00 -0.16771946031E+04  0.16771950840E+04  0.12699999809E+01 0.  1.
    10030    2    1    2    0    0  0.00000000000E+00  0.00000000000E+00  0.59638739085E+03  0.39507774327E+04  0.39055043724E+04 0.  0.
        4    1    3    3  502    0 -0.11427825968E+04  0.15641115334E+04  0.54771583600E+03  0.20130551911E+04  0.12699999809E+01 0. -1.
       -4    1    3    3    0  502  0.11427825968E+04 -0.15641115334E+04  0.48671554853E+02  0.19377222416E+04  0.12699999809E+01 0.  1.
</event>
<event>
 5   0  0.3959190E-07  0.3378740E+04  0.7818609E-02  0.8143144E-01
       -2   -1    0    0    0  501  0.00000000000E+00  0.00000000000E+00  0.14679282697E+04  0.14679282697E+04  0.25500000920E-02 0. -1.
        2   -1    0    0  501    0  0.00000000000E+00  0.00000000000E+00 -0.19442166594E+04  0.19442166594E+04  0.25500000920E-02 0.  1.
    10030    2    1    2    0    0  0.00000000000E+00  0.00000000000E+00 -0.47628838971E+03  0.34121449291E+04  0.33787397632E+04 0.  0.
        2    1    3    3  502    0  0.26679653408E+03 -0.30624504931E+03  0.14178868146E+04  0.14749133669E+04  0.25500000920E-02 0. -1.
       -2    1    3    3    0  502 -0.26679653408E+03  0.30624504931E+03 -0.18941752043E+04  0.19372315622E+04  0.25500000920E-02 0.  1.
</event>
<event>
 5   0  0.5872444E-07  0.3685015E+04  0.7818609E-02  0.8071291E-01
        2   -1    0    0  501    0  0.00000000000E+00  0.00000000000E+00  0.18998721340E+04  0.18998721340E+04  0.25500000920E-02 0. -1.
       -2   -1    0    0    0  501  0.00000000000E+00  0.00000000000E+00 -0.17868752174E+04  0.17868752174E+04  0.25500000920E-02 0.  1.
    10030    2    1    2    0    0  0.00000000000E+00  0.00000000000E+00  0.11299691652E+03  0.36867473514E+04  0.36850152958E+04 0.  0.
        3    1    3    3  502    0  0.33535639100E+03  0.62478806987E+03 -0.16448920508E+04  0.17912269287E+04  0.10100000352E+00 0.  1.
       -3    1    3    3    0  502 -0.33535639100E+03 -0.62478806987E+03  0.17578889673E+04  0.18955204227E+04  0.10100000352E+00 0. -1.
</event>
<event>
 5   0  0.1860500E-07  0.3834473E+04  0.7818609E-02  0.8038797E-01
        1   -1    0    0  501    0  0.00000000000E+00  0.00000000000E+00  0.20112151497E+04  0.20112151497E+04  0.50400001928E-02 0.  1.
       -1   -1    0    0    0  501  0.00000000000E+00  0.00000000000E+00 -0.18276492404E+04  0.18276492404E+04  0.50400001928E-02 0. -1.
    10030    2    1    2    0    0  0.00000000000E+00  0.00000000000E+00  0.18356590933E+03  0.38388643901E+04  0.38344730228E+04 0.  0.
        4    1    3    3  502    0 -0.11601288890E+03  0.16171235820E+04 -0.93273967328E+03  0.18704418144E+04  0.12699999809E+01 0. -1.
       -4    1    3    3    0  502  0.11601288890E+03 -0.16171235820E+04  0.11163055826E+04  0.19684225757E+04  0.12699999809E+01 0.  1.
</event>
<event>
 5   0  0.5872444E-07  0.3853921E+04  0.7818609E-02  0.8034682E-01
       -2   -1    0    0    0  501  0.00000000000E+00  0.00000000000E+00  0.18654870248E+04  0.18654870248E+04  0.25500000920E-02 0.  1.
        2   -1    0    0  501    0  0.00000000000E+00  0.00000000000E+00 -0.19904600184E+04  0.19904600184E+04  0.25500000920E-02 0. -1.
    10030    2    1    2    0    0  0.00000000000E+00  0.00000000000E+00 -0.12497299362E+03  0.38559470433E+04  0.38539212954E+04 0.  0.
        3    1    3    3  502    0 -0.65300471700E+03 -0.17906385345E+04  0.22116879525E+03  0.19187801249E+04  0.10100000352E+00 0. -1.
       -3    1    3    3    0  502  0.65300471700E+03  0.17906385345E+04 -0.34614178886E+03  0.19371669184E+04  0.10100000352E+00 0.  1.
</event>
<event>
 5   0  0.1876027E-07  0.3928379E+04  0.7818609E-02  0.8019153E-01
        1   -1    0    0  501    0  0.00000000000E+00  0.00000000000E+00  0.20846960683E+04  0.20846960683E+04  0.50400001928E-02 0.  1.
       -1   -1    0    0    0  501  0.00000000000E+00  0.00000000000E+00 -0.18506487794E+04  0.18506487794E+04  0.50400001928E-02 0. -1.
    10030    2    1    2    0    0  0.00000000000E+00  0.00000000000E+00  0.23404728894E+03  0.39353448477E+04  0.39283789197E+04 0.  0.
        3    1    3    3  502    0  0.10090977546E+04 -0.10737145168E+04  0.14181335222E+04  0.20450535051E+04  0.10100000352E+00 0.  1.
       -3    1    3    3    0  502 -0.10090977546E+04  0.10737145168E+04 -0.11840862332E+04  0.18902913426E+04  0.10100000352E+00 0. -1.
</event>
<event>
 5   0  0.3959190E-07  0.3939671E+04  0.7818609E-02  0.8016829E-01
        2   -1    0    0  501    0  0.00000000000E+00  0.00000000000E+00  0.26392154883E+04  0.26392154883E+04  0.25500000920E-02 0. -1.
       -2   -1    0    0    0  501  0.00000000000E+00  0.00000000000E+00 -0.14702291566E+04  0.14702291566E+04  0.25500000920E-02 0.  1.
    10030    2    1    2    0    0  0.00000000000E+00  0.00000000000E+00  0.11689863318E+04  0.41094446449E+04  0.39396708297E+04 0.  0.
        2    1    3    3  502    0  0.18744236640E+04 -0.58113865838E+03  0.40666073291E+03  0.20041355154E+04  0.25500000920E-02 0.  1.
       -2    1    3    3    0  502 -0.18744236640E+04  0.58113865838E+03  0.76232559884E+03  0.21053091296E+04  0.25500000920E-02 0. -1.
</event>
<event>
 5   0  0.5872444E-07  0.3006458E+04  0.7818609E-02  0.8241889E-01
        2   -1    0    0  501    0  0.00000000000E+00  0.00000000000E+00  0.24153971644E+04  0.24153971644E+04  0.25500000920E-02 0. -1.
       -2   -1    0    0    0  501  0.00000000000E+00  0.00000000000E+00 -0.93553885264E+03  0.93553885264E+03  0.25500000920E-02 0.  1.
    10030    2    1    2    0    0  0.00000000000E+00  0.00000000000E+00  0.14798583117E+04  0.33509360170E+04  0.30064583096E+04 0.  0.
        3    1    3    3  502    0 -0.85158756417E+03  0.89486132926E+03 -0.21479088821E+03  0.12538394291E+04  0.10100000352E+00 0.  1.
       -3    1    3    3    0  502  0.85158756417E+03 -0.89486132926E+03  0.16946491999E+04  0.20970965879E+04  0.10100000352E+00 0. -1.
</event>
<event>
 5   0  0.5805753E-07  0.3705762E+04  0.7818609E-02  0.8066686E-01
       -2   -1    0    0    0  501  0.00000000000E+00  0.00000000000E+00  0.11411794710E+04  0.11411794710E+04  0.25500000920E-02 0. -1.
        2   -1    0    0  501    0  0.00000000000E+00  0.00000000000E+00 -0.30084379157E+04  0.30084379157E+04  0.25500000920E-02 0.  1.
    10030    2    1    2    0    0  0.00000000000E+00  0.00000000000E+00 -0.18672584448E+04  0.41496173867E+04  0.37057617781E+04 0.  0.
        1    1    3    3  502    0 -0.31387178205E+03  0.76978744287E+03 -0.27878889627E+04  0.29091945743E+04  0.50400001928E-02 0.  1.
       -1    1    3    3    0  502  0.31387178205E+03 -0.76978744287E+03  0.92063051797E+03  0.12404228124E+04  0.50400001928E-02 0. -1.
</event>
<event>
 5   0  0.1860500E-07  0.3875604E+04  0.7818609E-02  0.8030122E-01
        1   -1    0    0  501    0  0.00000000000E+00  0.00000000000E+00  0.17211341484E+04  0.17211341485E+04  0.50400001928E-02 0.  1.
       -1   -1    0    0    0  501  0.00000000000E+00  0.00000000000E+00 -0.21817451829E+04  0.21817451829E+04  0.50400001928E-02 0. -1.
    10030    2    1    2    0    0  0.00000000000E+00  0.00000000000E+00 -0.46061103445E+03  0.39028793314E+04  0.38756037659E+04 0.  0.
        4    1    3    3  502    0  0.16409405038E+04 -0.19343983236E+03  0.78922749685E+03  0.18311161516E+04  0.12699999809E+01 0.  1.
       -4    1    3    3    0  502 -0.16409405038E+04  0.19343983236E+03 -0.12498385313E+04  0.20717631798E+04  0.12699999809E+01 0. -1.
</event>
<event>
 5   0  0.5805753E-07  0.4009780E+04  0.7818609E-02  0.8002577E-01
        2   -1    0    0  501    0  0.00000000000E+00  0.00000000000E+00  0.16363558978E+04  0.16363558978E+04  0.25500000920E-02 0.  1.
       -2   -1    0    0    0  501  0.00000000000E+00  0.00000000000E+00 -0.24564238800E+04  0.24564238800E+04  0.25500000920E-02 0. -1.
    10030    2    1    2    0    0  0.00000000000E+00  0.00000000000E+00 -0.82006798216E+03  0.40927797778E+04  0.40097798960E+04 0.  0.
        1    1    3    3  502    0 -0.90348487256E+03 -0.99322565851E+03  0.11096778734E+04  0.17418860774E+04  0.50400001928E-02 0.  1.
       -1    1    3    3    0  502  0.90348487256E+03  0.99322565851E+03 -0.19297458556E+04  0.23508937005E+04  0.50400001928E-02 0. -1.
</event>
<event>
 5   0  0.1860500E-07  0.3902299E+04  0.7818609E-02  0.8024551E-01
        1   -1    0    0  501    0  0.00000000000E+00  0.00000000000E+00  0.19469209985E+04  0.19469209985E+04  0.50400001928E-02 0. -1.
       -1   -1    0    0    0  501  0.00000000000E+00  0.00000000000E+00 -0.19553871907E+04  0.19553871908E+04  0.50400001928E-02 0.  1.
    10030    2    1    2    0    0  0.00000000000E+00  0.00000000000E+00 -0.84661922686E+01  0.39023081892E+04  0.39022990054E+04 0.  0.
        4    1    3    3  502    0  0.18874492464E+04 -0.20810219396E+03  0.44433410645E+03  0.19501809126E+04  0.12699999809E+01 0. -1.
       -4    1    3    3    0  502 -0.18874492464E+04  0.20810219396E+03 -0.45280029872E+03  0.19521272766E+04  0.12699999809E+01 0.  1.
</event>
<event>
 5   0  0.5872444E-07  0.3865337E+04  0.7818609E-02  0.8032277E-01
       -2   -1    0    0    0  501  0.00000000000E+00  0.00000000000E+00  0.14217081179E+04  0.14217081179E+04  0.25500000920E-02 0. -1.
        2   -1    0    0  501    0  0.00000000000E+00  0.00000000000E+00 -0.26272670680E+04  0.26272670680E+04  0.25500000920E-02 0.  1.
    10030    2    1    2    0    0  0.00000000000E+00  0.00000000000E+00 -0.12055589501E+04  0.40489751859E+04  0.38653366832E+04 0.  0.
        3    1    3    3  502    0  0.17382152752E+04  0.20189329413E+03 -0.14621543118E+04  0.22803614816E+04  0.10100000352E+00 0.  1.
       -3    1    3    3    0  502 -0.17382152752E+04 -0.20189329413E+03  0.25659536176E+03  0.17686137043E+04  0.10100000352E+00 0. -1.
</event>
<event>
 5   0  0.1943459E-07  0.3618093E+04  0.7818609E-02  0.8086360E-01
        1   -1    0    0  501    0  0.00000000000E+00  0.00000000000E+00  0.19356154135E+04  0.19356154135E+04  0.50400001928E-02 0. -1.
       -1   -1    0    0    0  501  0.00000000000E+00  0.00000000000E+00 -0.16907541488E+04  0.16907541488E+04  0.50400001928E-02 0.  1.
    10030    2    1    2    0    0  0.00000000000E+00  0.00000000000E+00  0.24486126475E+03  0.36263695623E+04  0.36180933050E+04 0.  0.
        2    1    3    3  502    0  0.13164360247E+04  0.10695244414E+04 -0.50810573691E+03  0.17706094368E+04  0.25500000920E-02 0.  1.
       -2    1    3    3    0  502 -0.13164360247E+04 -0.10695244414E+04  0.75296700165E+03  0.18557601255E+04  0.25500000920E-02 0. -1.
</event>
<event>
 5   0  0.1876027E-07  0.2736350E+04  0.7818609E-02  0.8323306E-01
        1   -1    0    0  501    0  0.00000000000E+00  0.00000000000E+00  0.14928512635E+04  0.14928512635E+04  0.50400001928E-02 0.  1.
       -1   -1    0    0    0  501  0.00000000000E+00  0.00000000000E+00 -0.12539108132E+04  0.12539108132E+04  0.50400001928E-02 0. -1.
    10030    2    1    2    0    0  0.00000000000E+00  0.00000000000E+00  0.23894045026E+03  0.27467620767E+04  0.27363496428E+04 0.  0.
        3    1    3    3  502    0 -0.17824895055E+02 -0.40392691089E+03 -0.11925718116E+04  0.12592466844E+04  0.10100000352E+00 0. -1.
       -3    1    3    3    0  502  0.17824895055E+02  0.40392691089E+03  0.14315122619E+04  0.14875153923E+04  0.10100000352E+00 0.  1.
</event>
<event>
 5   0  0.5805753E-07  0.3294406E+04  0.7818609E-02  0.8164320E-01
        2   -1    0    0  501    0  0.00000000000E+00  0.00000000000E+00  0.13226098160E+04  0.13226098160E+04  0.25500000920E-02 0.  1.
       -2   -1    0    0    0  501  0.00000000000E+00  0.00000000000E+00 -0.20514577876E+04  0.20514577876E+04  0.25500000920E-02 0. -1.
    10030    2    1    2    0    0  0.00000000000E+00  0.00000000000E+00 -0.72884797158E+03  0.33740676036E+04  0.32944062937E+04 0.  0.
        1    1    3    3  502    0 -0.29413289603E+03  0.12962979105E+04  0.63191799144E+03  0.14718093563E+04  0.50400001928E-02 0.  1.
       -1    1    3    3    0  502  0.29413289603E+03 -0.12962979105E+04 -0.13607659630E+04  0.19022582473E+04  0.50400001928E-02 0. -1.
</event>
<event>
 5   0  0.3959190E-07  0.4052339E+04  0.7818609E-02  0.7994071E-01
        2   -1    0    0  501    0  0.00000000000E+00  0.00000000000E+00  0.14782193958E+04  0.14782193958E+04  0.25500000920E-02 0.  1.
       -2   -1    0    0    0  501  0.00000000000E+00  0.00000000000E+00 -0.27772351018E+04  0.27772351018E+04  0.25500000920E-02 0. -1.
    10030    2    1    2    0    0  0.00000000000E+00  0.00000000000E+00 -0.12990157060E+04  0.42554544976E+04  0.40523389760E+04 0.  0.
        2    1    3    3  502    0 -0.93823259563E+03 -0.10687366322E+04 -0.21650665748E+04  0.25903651607E+04  0.25500000920E-02 0. -1.
       -2    1    3    3    0  502  0.93823259563E+03  0.10687366322E+04  0.86605086879E+03  0.16650893369E+04  0.25500000920E-02 0.  1.
</event>
<event>
 5   0  0.5805753E-07  0.3549062E+04  0.7818609E-02  0.8102260E-01
       -2   -1    0    0    0  501  0.00000000000E+00  0.00000000000E+00  0.17155356800E+04  0.17155356800E+04  0.25500000920E-02 0. -1.
        2   -1    0    0  501    0  0.00000000000E+00  0.00000000000E+00 -0.18355552090E+04  0.18355552090E+04  0.25500000920E-02 0.  1.
    10030    2    1    2    0    0  0.00000000000E+00  0.00000000000E+00 -0.12001952897E+03  0.35510908890E+04  0.35490621035E+04 0.  0.
        1    1    3    3  502    0  0.86929281070E+03 -0.41787370476E+02 -0.16073556419E+04  0.18278425355E+04  0.50400001928E-02 0.  1.
       -1    1    3    3    0  502 -0.86929281070E+03  0.41787370476E+02  0.14873361129E+04  0.17232483535E+04  0.50400001928E-02 0. -1.
</event>
<event>
 5   0  0.1943459E-07  0.3833494E+04  0.7818609E-02  0.8039005E-01
       -1   -1    0    0    0  501  0.00000000000E+00  0.00000000000E+00  0.22133537107E+04  0.22133537107E+04  0.50400001928E-02 0. -1.
        1   -1    0    0  501    0  0.00000000000E+00  0.00000000000E+00 -0.16598875206E+04  0.16598875206E+04  0.50400001928E-02 0.  1.
    10030    2    1    2    0    0  0.00000000000E+00  0.00000000000E+00  0.55346619015E+03  0.38732412313E+04  0.38334935519E+04 0.  0.
        2    1    3    3  502    0 -0.12704126413E+04  0.10417307217E+04  0.12742728770E+04  0.20791639043E+04  0.25500000920E-02 0. -1.
       -2    1    3    3    0  502  0.12704126413E+04 -0.10417307217E+04 -0.72080668687E+03  0.17940773271E+04  0.25500000920E-02 0.  1.
</event>
<event>
 5   0  0.1943459E-07  0.3862234E+04  0.7818609E-02  0.8032930E-01
        1   -1    0    0  501    0  0.00000000000E+00  0.00000000000E+00  0.15042311935E+04  0.15042311935E+04  0.50400001928E-02 0. -1.
       -1   -1    0    0    0  501  0.00000000000E+00  0.00000000000E+00 -0.24791488664E+04  0.24791488664E+04  0.50400001928E-02 0.  1.
    10030    2    1    2    0    0  0.00000000000E+00  0.00000000000E+00 -0.97491767294E+03  0.39833800599E+04  0.38622340986E+04 0.  0.
        2    1    3    3  502    0 -0.28662229793E+02 -0.18311770045E+04  0.14427527729E+03  0.18370754205E+04  0.25500000920E-02 0. -1.
       -2    1    3    3    0  502  0.28662229793E+02  0.18311770045E+04 -0.11191929502E+04  0.21463046394E+04  0.25500000920E-02 0.  1.
</event>
<event>
 5   0  0.5735179E-07  0.3717034E+04  0.7818609E-02  0.8064197E-01
       -2   -1    0    0    0  501  0.00000000000E+00  0.00000000000E+00  0.14002717304E+04  0.14002717304E+04  0.25500000920E-02 0. -1.
        2   -1    0    0  501    0  0.00000000000E+00  0.00000000000E+00 -0.24667245510E+04  0.24667245510E+04  0.25500000920E-02 0.  1.
    10030    2    1    2    0    0  0.00000000000E+00  0.00000000000E+00 -0.10664528206E+04  0.38669962815E+04  0.37170335783E+04 0.  0.
        5    1    3    3  502    0 -0.11493962318E+04  0.13742392914E+04 -0.10475579846E+04  0.20753421763E+04  0.46999998093E+01 0.  1.
       -5    1    3    3    0  502  0.11493962318E+04 -0.13742392914E+04 -0.18894836007E+02  0.17916541052E+04  0.46999998093E+01 0. -1.
</event>
<event>
 5   0  0.2666813E-07  0.2543732E+04  0.7818609E-02  0.8387569E-01
       -1   -1    0    0    0  501  0.00000000000E+00  0.00000000000E+00  0.11560370609E+04  0.11560370610E+04  0.50400001928E-02 0. -1.
        1   -1    0    0  501    0  0.00000000000E+00  0.00000000000E+00 -0.13993008445E+04  0.13993008445E+04  0.50400001928E-02 0.  1.
    10030    2    1    2    0    0  0.00000000000E+00  0.00000000000E+00 -0.24326378358E+03  0.25553379055E+04  0.25437324039E+04 0.  0.
        1    1    3    3  502    0 -0.50641479436E+03  0.34356538565E+03  0.99842162095E+03  0.11710417804E+04  0.50400001928E-02 0. -1.
       -1    1    3    3    0  502  0.50641479436E+03 -0.34356538565E+03 -0.12416854045E+04  0.13842961251E+04  0.50400001928E-02 0.  1.
</event>
<event>
 5   0  0.5805753E-07  0.3582050E+04  0.7818609E-02  0.8094616E-01
       -2   -1    0    0    0  501  0.00000000000E+00  0.00000000000E+00  0.12423758428E+04  0.12423758428E+04  0.25500000920E-02 0.  1.
        2   -1    0    0  501    0  0.00000000000E+00  0.00000000000E+00 -0.25819641633E+04  0.25819641633E+04  0.25500000920E-02 0. -1.
    10030    2    1    2    0    0  0.00000000000E+00  0.00000000000E+00 -0.13395883204E+04  0.38243400061E+04  0.35820496387E+04 0.  0.
        1    1    3    3  502    0  0.41066935111E+03  0.76661711876E+03 -0.23413991208E+04  0.24976991344E+04  0.50400001928E-02 0. -1.
       -1    1    3    3    0  502 -0.41066935111E+03 -0.76661711876E+03  0.10018108004E+04  0.13266408717E+04  0.50400001928E-02 0.  1.
</event>
<event>
 5   0  0.5735179E-07  0.4094678E+04  0.7818609E-02  0.7985715E-01
        2   -1    0    0  501    0  0.00000000000E+00  0.00000000000E+00  0.23795031402E+04  0.23795031402E+04  0.25500000920E-02 0. -1.
       -2   -1    0    0    0  501  0.00000000000E+00  0.00000000000E+00 -0.17615425790E+04  0.17615425790E+04  0.25500000920E-02 0.  1.
    10030    2    1    2    0    0  0.00000000000E+00  0.00000000000E+00  0.61796056112E+03  0.41410457192E+04  0.40946775689E+04 0.  0.
        5    1    3    3  502    0 -0.16527676535E+04  0.21418124613E+03  0.15115884665E+04  0.22499858455E+04  0.46999998093E+01 0. -1.
       -5    1    3    3    0  502  0.16527676535E+04 -0.21418124613E+03 -0.89362790541E+03  0.18910598737E+04  0.46999998093E+01 0.  1.
</event>
<event>
 5   0  0.1860500E-07  0.3768769E+04  0.7818609E-02  0.8052890E-01
        1   -1    0    0  501    0  0.00000000000E+00  0.00000000000E+00  0.20128573429E+04  0.20128573429E+04  0.50400001928E-02 0.  1.
       -1   -1    0    0    0  501  0.00000000000E+00  0.00000000000E+00 -0.17641114844E+04  0.17641114844E+04  0.50400001928E-02 0. -1.
    10030    2    1    2    0    0  0.00000000000E+00  0.00000000000E+00  0.24874585847E+03  0.37769688274E+04  0.37687688999E+04 0.  0.
        4    1    3    3  502    0  0.10449976493E+03  0.30787703868E+03 -0.17357891058E+04  0.17659767565E+04  0.12699999809E+01 0. -1.
       -4    1    3    3    0  502 -0.10449976493E+03 -0.30787703868E+03  0.19845349643E+04  0.20109920709E+04  0.12699999809E+01 0.  1.
</event>
<event>
 5   0  0.1860500E-07  0.4064481E+04  0.7818609E-02  0.7991664E-01
       -3   -1    0    0    0  501  0.00000000000E+00  0.00000000000E+00  0.17772127112E+04  0.17772127141E+04  0.10100000352E+00 0.  1.
        3   -1    0    0  501    0  0.00000000000E+00  0.00000000000E+00 -0.23238641127E+04  0.23238641149E+04  0.10100000352E+00 0. -1.
    10030    2    1    2    0    0  0.00000000000E+00  0.00000000000E+00 -0.54665140151E+03  0.41010768290E+04  0.40644807051E+04 0.  0.
        2    1    3    3  502    0  0.77331690637E+03 -0.17463993728E+04  0.42723917925E+03  0.19571568980E+04  0.25500000920E-02 0.  1.
       -2    1    3    3    0  502 -0.77331690637E+03  0.17463993728E+04 -0.97389058076E+03  0.21439199310E+04  0.25500000920E-02 0. -1.
</event>
<event>
 5   0  0.3959190E-07  0.3950429E+04  0.7818609E-02  0.8014622E-01
       -2   -1    0    0    0  501  0.00000000000E+00  0.00000000000E+00  0.19949824232E+04  0.19949824232E+04  0.25500000920E-02 0. -1.
        2   -1    0    0  501    0  0.00000000000E+00  0.00000000000E+00 -0.19556428249E+04  0.19556428249E+04  0.25500000920E-02 0.  1.
    10030    2    1    2    0    0  0.00000000000E+00  0.00000000000E+00  0.39339598323E+02  0.39506252481E+04  0.39504293750E+04 0.  0.
        2    1    3    3  502    0  0.12544161888E+04  0.33141528757E+03  0.15090646280E+04  0.19901437433E+04  0.25500000920E-02 0. -1.
       -2    1    3    3    0  502 -0.12544161888E+04 -0.33141528757E+03 -0.14697250297E+04  0.19604815048E+04  0.25500000920E-02 0.  1.
</event>
<event>
 5   0  0.1860500E-07  0.3852469E+04  0.7818609E-02  0.8034988E-01
        1   -1    0    0  501    0  0.00000000000E+00  0.00000000000E+00  0.13013799622E+04  0.13013799622E+04  0.50400001928E-02 0. -1.
       -1   -1    0    0    0  501  0.00000000000E+00  0.00000000000E+00 -0.28511121295E+04  0.28511121295E+04  0.50400001928E-02 0.  1.
    10030    2    1    2    0    0  0.00000000000E+00  0.00000000000E+00 -0.15497321673E+04  0.41524920917E+04  0.38524694394E+04 0.  0.
        5    1    3    3  502    0  0.96479768649E+03  0.12358938008E+04  0.43124523387E+03  0.16261188777E+04  0.46999998093E+01 0. -1.
       -5    1    3    3    0  502 -0.96479768649E+03 -0.12358938008E+04 -0.19809774011E+04  0.25263732140E+04  0.46999998093E+01 0.  1.
</event>
<event>
 5   0  0.3959190E-07  0.3490706E+04  0.7818609E-02  0.8115996E-01
       -2   -1    0    0    0  501  0.00000000000E+00  0.00000000000E+00  0.17873827744E+04  0.17873827744E+04  0.25500000920E-02 0.  1.
        2   -1    0    0  501    0  0.00000000000E+00  0.00000000000E+00 -0.17043113687E+04  0.17043113687E+04  0.25500000920E-02 0. -1.
    10030    2    1    2    0    0  0.00000000000E+00  0.00000000000E+00  0.83071405747E+02  0.34916941431E+04  0.34907058212E+04 0.  0.
        2    1    3    3  502    0 -0.10379037731E+04  0.43630634949E+03 -0.12925020134E+04  0.17141087852E+04  0.25500000920E-02 0. -1.
       -2    1    3    3    0  502  0.10379037731E+04 -0.43630634949E+03  0.13755734192E+04  0.17775853578E+04  0.25500000920E-02 0.  1.
</event>
<event>
 5   0  0.1943459E-07  0.3947412E+04  0.7818609E-02  0.8015240E-01
       -1   -1    0    0    0  501  0.00000000000E+00  0.00000000000E+00  0.23858617627E+04  0.23858617627E+04  0.50400001928E-02 0.  1.
        1   -1    0    0  501    0  0.00000000000E+00  0.00000000000E+00 -0.16327495338E+04  0.16327495339E+04  0.50400001928E-02 0. -1.
    10030    2    1    2    0    0  0.00000000000E+00  0.00000000000E+00  0.75311222890E+03  0.40186112966E+04  0.39474116486E+04 0.  0.
        2    1    3    3  502    0 -0.13689038963E+04 -0.20337338650E+03  0.18091538451E+04  0.22777831870E+04  0.25500000920E-02 0.  1.
       -2    1    3    3    0  502  0.13689038963E+04  0.20337338650E+03 -0.10560416162E+04  0.17408281096E+04  0.25500000920E-02 0. -1.
</event>
<event>
 5   0  0.1860500E-07  0.3610322E+04  0.7818609E-02  0.8088131E-01
        1   -1    0    0  501    0  0.00000000000E+00  0.00000000000E+00  0.21995292113E+04  0.21995292113E+04  0.50400001928E-02 0. -1.
       -1   -1    0    0    0  501  0.00000000000E+00  0.00000000000E+00 -0.14815015885E+04  0.14815015885E+04  0.50400001928E-02 0.  1.
    10030    2    1    2    0    0  0.00000000000E+00  0.00000000000E+00  0.71802762283E+03  0.36810307998E+04  0.36103218807E+04 0.  0.
        4    1    3    3  502    0 -0.13056516916E+04  0.66160744105E+03  0.14361869677E+04  0.20506304799E+04  0.12699999809E+01 0. -1.
       -4    1    3    3    0  502  0.13056516916E+04 -0.66160744105E+03 -0.71815934487E+03  0.16304003200E+04  0.12699999809E+01 0.  1.
</event>
<event>
 5   0  0.3959190E-07  0.3518927E+04  0.7818609E-02  0.8109319E-01
        2   -1    0    0  501    0  0.00000000000E+00  0.00000000000E+00  0.21095237279E+04  0.21095237279E+04  0.25500000920E-02 0.  1.
       -2   -1    0    0    0  501  0.00000000000E+00  0.00000000000E+00 -0.14674935120E+04  0.14674935120E+04  0.25500000920E-02 0. -1.
    10030    2    1    2    0    0  0.00000000000E+00  0.00000000000E+00  0.64203021595E+03  0.35770172399E+04  0.35189273275E+04 0.  0.
        2    1    3    3  502    0  0.10637940734E+04  0.44376377683E+03  0.16722933127E+04  0.20310462929E+04  0.25500000920E-02 0.  1.
       -2    1    3    3    0  502 -0.10637940734E+04 -0.44376377683E+03 -0.10302630968E+04  0.15459709469E+04  0.25500000920E-02 0. -1.
</event>
<event>
 5   0  0.6095665E-07  0.3883985E+04  0.7818609E-02  0.8028368E-01
       -2   -1    0    0    0  501  0.00000000000E+00  0.00000000000E+00  0.19755516596E+04  0.19755516596E+04  0.25500000920E-02 0.  1.
        2   -1    0    0  501    0  0.00000000000E+00  0.00000000000E+00 -0.19090036336E+04  0.19090036336E+04  0.25500000920E-02 0. -1.
    10030    2    1    2    0    0  0.00000000000E+00  0.00000000000E+00  0.66548026034E+02  0.38845552932E+04  0.38839852196E+04 0.  0.
        4    1    3    3  502    0  0.26197028596E+03 -0.37155842464E+03  0.19215790924E+04  0.19746270318E+04  0.12699999809E+01 0.  1.
       -4    1    3    3    0  502 -0.26197028596E+03  0.37155842464E+03 -0.18550310663E+04  0.19099282614E+04  0.12699999809E+01 0. -1.
</event>
<event>
 5   0  0.5735179E-07  0.4059751E+04  0.7818609E-02  0.7992600E-01
        2   -1    0    0  501    0  0.00000000000E+00  0.00000000000E+00  0.21403256684E+04  0.21403256684E+04  0.25500000920E-02 0.  1.
       -2   -1    0    0    0  501  0.00000000000E+00  0.00000000000E+00 -0.19251247198E+04  0.19251247198E+04  0.25500000920E-02 0. -1.
    10030    2    1    2    0    0  0.00000000000E+00  0.00000000000E+00  0.21520094864E+03  0.40654503882E+04  0.40597506587E+04 0.  0.
        5    1    3    3  502    0  0.16834296340E+04  0.61588000970E+03 -0.84616950638E+03  0.19822382406E+04  0.46999998093E+01 0.  1.
       -5    1    3    3    0  502 -0.16834296340E+04 -0.61588000970E+03  0.10613704550E+04  0.20832121476E+04  0.46999998093E+01 0. -1.
</event>
<event>
 5   0  0.2666813E-07  0.3605433E+04  0.7818609E-02  0.8089248E-01
        1   -1    0    0  501    0  0.00000000000E+00  0.00000000000E+00  0.22768503550E+04  0.22768503550E+04  0.50400001928E-02 0.  1.
       -1   -1    0    0    0  501  0.00000000000E+00  0.00000000000E+00 -0.14273171433E+04  0.14273171433E+04  0.50400001928E-02 0. -1.
    10030    2    1    2    0    0  0.00000000000E+00  0.00000000000E+00  0.84953321166E+03  0.37041674983E+04  0.36054334244E+04 0.  0.
        1    1    3    3  502    0 -0.17708171055E+04 -0.12072171173E+03  0.74871162545E+03  0.19263789998E+04  0.50400001928E-02 0. -1.
       -1    1    3    3    0  502  0.17708171055E+04  0.12072171173E+03  0.10082158622E+03  0.17777884985E+04  0.50400001928E-02 0.  1.
</event>
<event>
 5   0  0.1860500E-07  0.2807584E+04  0.7818609E-02  0.8300918E-01
        1   -1    0    0  501    0  0.00000000000E+00  0.00000000000E+00  0.18457190430E+04  0.18457190430E+04  0.50400001928E-02 0. -1.
       -1   -1    0    0    0  501  0.00000000000E+00  0.00000000000E+00 -0.10676768905E+04  0.10676768906E+04  0.50400001928E-02 0.  1.
    10030    2    1    2    0    0  0.00000000000E+00  0.00000000000E+00  0.77804215245E+03  0.29133959336E+04  0.28075837075E+04 0.  0.
        4    1    3    3  502    0  0.59598709481E+03  0.12575139007E+04  0.58060910688E+03  0.15078628504E+04  0.12699999809E+01 0. -1.
       -4    1    3    3    0  502 -0.59598709481E+03 -0.12575139007E+04  0.19743304557E+03  0.14055330832E+04  0.12699999809E+01 0.  1.
</event>
<event>
 5   0  0.3959190E-07  0.3900319E+04  0.7818609E-02  0.8024963E-01
       -2   -1    0    0    0  501  0.00000000000E+00  0.00000000000E+00  0.19332421399E+04  0.19332421399E+04  0.25500000920E-02 0.  1.
        2   -1    0    0  501    0  0.00000000000E+00  0.00000000000E+00 -0.19672252147E+04  0.19672252147E+04  0.25500000920E-02 0. -1.
    10030    2    1    2    0    0  0.00000000000E+00  0.00000000000E+00 -0.33983074801E+02  0.39004673546E+04  0.39003193119E+04 0.  0.
        2    1    3    3  502    0 -0.51541949580E+03  0.12920460866E+04 -0.13838215018E+04  0.19621422720E+04  0.25500000920E-02 0. -1.
       -2    1    3    3    0  502  0.51541949580E+03 -0.12920460866E+04  0.13498384270E+04  0.19383250826E+04  0.25500000920E-02 0.  1.
</event>
<event>
 5   0  0.1876027E-07  0.3899339E+04  0.7818609E-02  0.8025167E-01
        1   -1    0    0  501    0  0.00000000000E+00  0.00000000000E+00  0.16215460721E+04  0.16215460721E+04  0.50400001928E-02 0. -1.
       -1   -1    0    0    0  501  0.00000000000E+00  0.00000000000E+00 -0.23441892351E+04  0.23441892351E+04  0.50400001928E-02 0.  1.
    10030    2    1    2    0    0  0.00000000000E+00  0.00000000000E+00 -0.72264316296E+03  0.39657353072E+04  0.38993388396E+04 0.  0.
        3    1    3    3  502    0  0.23051314177E+03  0.39828574390E+03 -0.22881643549E+04  0.23339802843E+04  0.10100000352E+00 0.  1.
       -3    1    3    3    0  502 -0.23051314177E+03 -0.39828574390E+03  0.15655211919E+04  0.16317550229E+04  0.10100000352E+00 0. -1.
</event>
<event>
 5   0  0.2666813E-07  0.3914517E+04  0.7818609E-02  0.8022017E-01
       -1   -1    0    0    0  501  0.00000000000E+00  0.00000000000E+00  0.17813120653E+04  0.17813120653E+04  0.50400001928E-02 0. -1.
        1   -1    0    0  501    0  0.00000000000E+00  0.00000000000E+00 -0.21505841656E+04  0.21505841657E+04  0.50400001928E-02 0.  1.
    10030    2    1    2    0    0  0.00000000000E+00  0.00000000000E+00 -0.36927210033E+03  0.39318962310E+04  0.39145173505E+04 0.  0.
        1    1    3    3  502    0  0.29436999146E+03  0.13954758464E+03 -0.21231613547E+04  0.21480086961E+04  0.50400001928E-02 0.  1.
       -1    1    3    3    0  502 -0.29436999146E+03 -0.13954758464E+03  0.17538892544E+04  0.17838875349E+04  0.50400001928E-02 0. -1.
</event>
<event>
 5   0  0.2666813E-07  0.3991710E+04  0.7818609E-02  0.8006221E-01
       -1   -1    0    0    0  501  0.00000000000E+00  0.00000000000E+00  0.13627121205E+04  0.13627121205E+04  0.50400001928E-02 0. -1.
        1   -1    0    0  501    0  0.00000000000E+00  0.00000000000E+00 -0.29231678244E+04  0.29231678244E+04  0.50400001928E-02 0.  1.
    10030    2    1    2    0    0  0.00000000000E+00  0.00000000000E+00 -0.15604557039E+04  0.42858799450E+04  0.39917095208E+04 0.  0.
        1    1    3    3  502    0  0.14297439671E+04 -0.13840191576E+04 -0.94572810665E+03  0.22031973338E+04  0.50400001928E-02 0. -1.
       -1    1    3    3    0  502 -0.14297439671E+04  0.13840191576E+04 -0.61472759728E+03  0.20826826112E+04  0.50400001928E-02 0.  1.
</event>
<event>
 5   0  0.6095665E-07  0.2614412E+04  0.7818609E-02  0.8363322E-01
       -2   -1    0    0    0  501  0.00000000000E+00  0.00000000000E+00  0.70196536843E+03  0.70196536844E+03  0.25500000920E-02 0.  1.
        2   -1    0    0  501    0  0.00000000000E+00  0.00000000000E+00 -0.24342899209E+04  0.24342899209E+04  0.25500000920E-02 0. -1.
    10030    2    1    2    0    0  0.00000000000E+00  0.00000000000E+00 -0.17323245524E+04  0.31362552893E+04  0.26144117665E+04 0.  0.
        4    1    3    3  502    0  0.55237617510E+03 -0.34580572358E+02  0.55447845472E+03  0.78343042094E+03  0.12699999809E+01 0.  1.
       -4    1    3    3    0  502 -0.55237617510E+03  0.34580572358E+02 -0.22868030072E+04  0.23528248684E+04  0.12699999809E+01 0. -1.
</event>
<event>
 5   0  0.5805753E-07  0.3897437E+04  0.7818609E-02  0.8025563E-01
        2   -1    0    0  501    0  0.00000000000E+00  0.00000000000E+00  0.28816659616E+04  0.28816659616E+04  0.25500000920E-02 0. -1.
       -2   -1    0    0    0  501  0.00000000000E+00  0.00000000000E+00 -0.13178151629E+04  0.13178151629E+04  0.25500000920E-02 0.  1.
    10030    2    1    2    0    0  0.00000000000E+00  0.00000000000E+00  0.15638507987E+04  0.41994811244E+04  0.38974366440E+04 0.  0.
        1    1    3    3  502    0 -0.20194075092E+03 -0.30900380173E+03  0.28436499851E+04  0.28675091376E+04  0.50400001928E-02 0. -1.
       -1    1    3    3    0  502  0.20194075092E+03  0.30900380173E+03 -0.12797991864E+04  0.13319719869E+04  0.50400001928E-02 0.  1.
</event>
<event>
 5   0  0.5735179E-07  0.3877240E+04  0.7818609E-02  0.8029780E-01
       -2   -1    0    0    0  501  0.00000000000E+00  0.00000000000E+00  0.14629888986E+04  0.14629888986E+04  0.25500000920E-02 0. -1.
        2   -1    0    0  501    0  0.00000000000E+00  0.00000000000E+00 -0.25688830317E+04  0.25688830317E+04  0.25500000920E-02 0.  1.
    10030    2    1    2    0    0  0.00000000000E+00  0.00000000000E+00 -0.11058941331E+04  0.40318719302E+04  0.38772399240E+04 0.  0.
        5    1    3    3  502    0  0.42259637457E+03 -0.52710539965E+03  0.13366067591E+04  0.14976540043E+04  0.46999998093E+01 0. -1.
       -5    1    3    3    0  502 -0.42259637457E+03  0.52710539965E+03 -0.24425008921E+04  0.25342179260E+04  0.46999998093E+01 0.  1.
</event>
<event>
 5   0  0.5872444E-07  0.2425910E+04  0.7818609E-02  0.8429866E-01
        2   -1    0    0  501    0  0.00000000000E+00  0.00000000000E+00  0.13627172705E+04  0.13627172705E+04  0.25500000920E-02 0. -1.
       -2   -1    0    0    0  501  0.00000000000E+00  0.00000000000E+00 -0.10796517922E+04  0.10796517922E+04  0.25500000920E-02 0.  1.
    10030    2    1    2    0    0  0.00000000000E+00  0.00000000000E+00  0.28306547839E+03  0.24423690627E+04  0.24259102567E+04 0.  0.
        3    1    3    3  502    0  0.76916218790E+01  0.44216031533E+03  0.12786624972E+04  0.13529754977E+04  0.10100000352E+00 0. -1.
       -3    1    3    3    0  502 -0.76916218790E+01 -0.44216031533E+03 -0.99559701877E+03  0.10893935650E+04  0.10100000352E+00 0.  1.
</event>
<event>
 5   0  0.1860500E-07  0.3182224E+04  0.7818609E-02  0.8193528E-01
       -1   -1    0    0    0  501  0.00000000000E+00  0.00000000000E+00  0.12180410729E+04  0.12180410730E+04  0.50400001928E-02 0.  1.
        1   -1    0    0  501    0  0.00000000000E+00  0.00000000000E+00 -0.20784495536E+04  0.20784495536E+04  0.50400001928E-02 0. -1.
    10030    2    1    2    0    0  0.00000000000E+00  0.00000000000E+00 -0.86040848063E+03  0.32964906265E+04  0.31822237032E+04 0.  0.
        5    1    3    3  502    0 -0.41048323655E+03 -0.46957841416E+03 -0.19465322404E+04  0.20440181573E+04  0.46999998093E+01 0. -1.
       -5    1    3    3    0  502  0.41048323655E+03  0.46957841416E+03  0.10861237598E+04  0.12524724692E+04  0.46999998093E+01 0.  1.
</event>
<event>
 5   0  0.5735179E-07  0.3902384E+04  0.7818609E-02  0.8024534E-01
       -2   -1    0    0    0  501  0.00000000000E+00  0.00000000000E+00  0.13053086389E+04  0.13053086389E+04  0.25500000920E-02 0.  1.
        2   -1    0    0  501    0  0.00000000000E+00  0.00000000000E+00 -0.29166670217E+04  0.29166670217E+04  0.25500000920E-02 0. -1.
    10030    2    1    2    0    0  0.00000000000E+00  0.00000000000E+00 -0.16113583828E+04  0.42219756605E+04  0.39023842251E+04 0.  0.
        5    1    3    3  502    0  0.17992104562E+04  0.45617263848E+03 -0.15485140620E+03  0.18625930285E+04  0.46999998093E+01 0. -1.
       -5    1    3    3    0  502 -0.17992104562E+04 -0.45617263848E+03 -0.14565069766E+04  0.23593826321E+04  0.46999998093E+01 0.  1.
</event>
<event>
 5   0  0.3959190E-07  0.3909284E+04  0.7818609E-02  0.8023101E-01
       -2   -1    0    0    0  501  0.00000000000E+00  0.00000000000E+00  0.19750557848E+04  0.19750557848E+04  0.25500000920E-02 0. -1.
        2   -1    0    0  501    0  0.00000000000E+00  0.00000000000E+00 -0.19344389011E+04  0.19344389011E+04  0.25500000920E-02 0.  1.
    10030    2    1    2    0    0  0.00000000000E+00  0.00000000000E+00  0.40616883651E+02  0.39094946859E+04  0.39092836898E+04 0.  0.
        2    1    3    3  502    0  0.55150062660E+03  0.47100463263E+03 -0.17949001105E+04  0.19358886104E+04  0.25500000920E-02 0.  1.
       -2    1    3    3    0  502 -0.55150062660E+03 -0.47100463263E+03  0.18355169942E+04  0.19736060755E+04  0.25500000920E-02 0. -1.
</event>
<event>
 5   0  0.5872444E-07  0.3180436E+04  0.7818609E-02  0.8194003E-01
       -2   -1    0    0    0  501  0.00000000000E+00  0.00000000000E+00  0.11465905344E+04  0.11465905344E+04  0.25500000920E-02 0. -1.
        2   -1    0    0  501    0  0.00000000000E+00  0.00000000000E+00 -0.22054892366E+04  0.22054892366E+04  0.25500000920E-02 0.  1.
    10030    2    1    2    0    0  0.00000000000E+00  0.00000000000E+00 -0.10588987022E+04  0.33520797711E+04  0.31804358711E+04 0.  0.
        3    1    3    3  502    0 -0.74517736925E+03  0.13952190893E+04 -0.70220845973E+03  0.17306132873E+04  0.10100000352E+00 0.  1.
       -3    1    3    3    0  502  0.74517736925E+03 -0.13952190893E+04 -0.35669024247E+03  0.16214664838E+04  0.10100000352E+00 0. -1.
</event>
<event>
 5   0  0.1860500E-07  0.3899130E+04  0.7818609E-02  0.8025210E-01
       -1   -1    0    0    0  501  0.00000000000E+00  0.00000000000E+00  0.20819054141E+04  0.20819054141E+04  0.50400001928E-02 0.  1.
        1   -1    0    0  501    0  0.00000000000E+00  0.00000000000E+00 -0.18256366854E+04  0.18256366854E+04  0.50400001928E-02 0. -1.
    10030    2    1    2    0    0  0.00000000000E+00  0.00000000000E+00  0.25626872875E+03  0.39075420995E+04  0.38991295950E+04 0.  0.
        4    1    3    3  502    0 -0.77060611940E+03  0.62889601274E+03 -0.15522233407E+04  0.18435679804E+04  0.12699999809E+01 0. -1.
       -4    1    3    3    0  502  0.77060611940E+03 -0.62889601274E+03  0.18084920695E+04  0.20639741191E+04  0.12699999809E+01 0.  1.
</event>
<event>
 5   0  0.3959190E-07  0.3816485E+04  0.7818609E-02  0.8042627E-01
       -2   -1    0    0    0  501  0.00000000000E+00  0.00000000000E+00  0.14207260558E+04  0.14207260558E+04  0.25500000920E-02 0. -1.
        2   -1    0    0  501    0  0.00000000000E+00  0.00000000000E+00 -0.25630480666E+04  0.25630480666E+04  0.25500000920E-02 0.  1.
    10030    2    1    2    0    0  0.00000000000E+00  0.00000000000E+00 -0.11423220108E+04  0.39837741224E+04  0.38164848594E+04 0.  0.
        2    1    3    3  502    0 -0.13666255011E+04 -0.57759088018E+03  0.68148800710E+03  0.16326978866E+04  0.25500000920E-02 0.  1.
       -2    1    3    3    0  502  0.13666255011E+04  0.57759088018E+03 -0.18238100179E+04  0.23510762358E+04  0.25500000920E-02 0. -1.
</event>
<event>
 5   0  0.1860500E-07  0.3879101E+04  0.7818609E-02  0.8029390E-01
       -1   -1    0    0    0  501  0.00000000000E+00  0.00000000000E+00  0.20386593533E+04  0.20386593533E+04  0.50400001928E-02 0.  1.
        1   -1    0    0  501    0  0.00000000000E+00  0.00000000000E+00 -0.18452597290E+04  0.18452597290E+04  0.50400001928E-02 0. -1.
    10030    2    1    2    0    0  0.00000000000E+00  0.00000000000E+00  0.19339962436E+03  0.38839190823E+04  0.38791009298E+04 0.  0.
        5    1    3    3  502    0  0.23273411048E+03  0.12826775040E+04  0.15345919154E+04  0.20135593317E+04  0.46999998093E+01 0.  1.
       -5    1    3    3    0  502 -0.23273411048E+03 -0.12826775040E+04 -0.13411922910E+04  0.18703597507E+04  0.46999998093E+01 0. -1.
</event>
<event>
 5   0  0.1876027E-07  0.2591371E+04  0.7818609E-02  0.8371138E-01
       -1   -1    0    0    0  501  0.00000000000E+00  0.00000000000E+00  0.71176299384E+03  0.71176299385E+03  0.50400001928E-02 0.  1.
        1   -1    0    0  501    0  0.00000000000E+00  0.00000000000E+00 -0.23586510452E+04  0.23586510452E+04  0.50400001928E-02 0. -1.
    10030    2    1    2    0    0  0.00000000000E+00  0.00000000000E+00 -0.16468880514E+04  0.30704140391E+04  0.25913707024E+04 0.  0.
        3    1    3    3  502    0 -0.55846702632E+03  0.56061632794E+03 -0.20390816184E+04  0.21872425433E+04  0.10100000352E+00 0. -1.
       -3    1    3    3    0  502  0.55846702632E+03 -0.56061632794E+03  0.39219356703E+03  0.88317149573E+03  0.10100000352E+00 0.  1.
</event>
<event>
 5   0  0.3959190E-07  0.3901937E+04  0.7818609E-02  0.8024626E-01
        2   -1    0    0  501    0  0.00000000000E+00  0.00000000000E+00  0.11539246483E+04  0.11539246483E+04  0.25500000920E-02 0.  1.
       -2   -1    0    0    0  501  0.00000000000E+00  0.00000000000E+00 -0.32985500106E+04  0.32985500106E+04  0.25500000920E-02 0. -1.
    10030    2    1    2    0    0  0.00000000000E+00  0.00000000000E+00 -0.21446253622E+04  0.44524746589E+04  0.39019370374E+04 0.  0.
        2    1    3    3  502    0  0.14418889839E+04  0.12760966498E+04 -0.14310076582E+04  0.23990100916E+04  0.25500000920E-02 0. -1.
       -2    1    3    3    0  502 -0.14418889839E+04 -0.12760966498E+04 -0.71361770405E+03  0.20534645673E+04  0.25500000920E-02 0.  1.
</event>
<event>
 5   0  0.1876027E-07  0.3587734E+04  0.7818609E-02  0.8093307E-01
        1   -1    0    0  501    0  0.00000000000E+00  0.00000000000E+00  0.24608485904E+04  0.24608485904E+04  0.50400001928E-02 0.  1.
       -1   -1    0    0    0  501  0.00000000000E+00  0.00000000000E+00 -0.13076623092E+04  0.13076623092E+04  0.50400001928E-02 0. -1.
    10030    2    1    2    0    0  0.00000000000E+00  0.00000000000E+00  0.11531862813E+04  0.37685108996E+04  0.35877340762E+04 0.  0.
        3    1    3    3  502    0 -0.17274270974E+04 -0.20150416875E+03  0.10384658796E+04  0.20255911977E+04  0.10100000352E+00 0. -1.
       -3    1    3    3    0  502  0.17274270974E+04  0.20150416875E+03  0.11472040168E+03  0.17429197020E+04  0.10100000352E+00 0.  1.
</event>
<event>
 5   0  0.1860500E-07  0.4055000E+04  0.7818609E-02  0.7993542E-01
        1   -1    0    0  501    0  0.00000000000E+00  0.00000000000E+00  0.23494385179E+04  0.23494385179E+04  0.50400001928E-02 0. -1.
       -1   -1    0    0    0  501  0.00000000000E+00  0.00000000000E+00 -0.17496763984E+04  0.17496763984E+04  0.50400001928E-02 0.  1.
    10030    2    1    2    0    0  0.00000000000E+00  0.00000000000E+00  0.59976211949E+03  0.40991149164E+04  0.40550004313E+04 0.  0.
        4    1    3    3  502    0  0.14430444941E+04 -0.96717005638E+03 -0.75693975657E+03  0.18949286894E+04  0.12699999809E+01 0.  1.
       -4    1    3    3    0  502 -0.14430444941E+04  0.96717005638E+03  0.13567018761E+04  0.22041862270E+04  0.12699999809E+01 0. -1.
</event>
<event>
 5   0  0.1876027E-07  0.3921543E+04  0.7818609E-02  0.8020564E-01
       -1   -1    0    0    0  501  0.00000000000E+00  0.00000000000E+00  0.16217549673E+04  0.16217549673E+04  0.50400001928E-02 0.  1.
        1   -1    0    0  501    0  0.00000000000E+00  0.00000000000E+00 -0.23706569697E+04  0.23706569697E+04  0.50400001928E-02 0. -1.
    10030    2    1    2    0    0  0.00000000000E+00  0.00000000000E+00 -0.74890200237E+03  0.39924119370E+04  0.39215429190E+04 0.  0.
        3    1    3    3  502    0 -0.11110432444E+04 -0.57883342710E+03 -0.19100728940E+04  0.22842599891E+04  0.10100000352E+00 0. -1.
       -3    1    3    3    0  502  0.11110432444E+04  0.57883342710E+03  0.11611708917E+04  0.17081519479E+04  0.10100000352E+00 0.  1.
</event>
<event>
 5   0  0.5872444E-07  0.3908899E+04  0.7818609E-02  0.8023181E-01
       -2   -1    0    0    0  501  0.00000000000E+00  0.00000000000E+00  0.23250003088E+04  0.23250003088E+04  0.25500000920E-02 0.  1.
        2   -1    0    0  501    0  0.00000000000E+00  0.00000000000E+00 -0.16429560578E+04  0.16429560578E+04  0.25500000920E-02 0. -1.
    10030    2    1    2    0    0  0.00000000000E+00  0.00000000000E+00  0.68204425091E+03  0.39679563666E+04  0.39088992526E+04 0.  0.
        3    1    3    3  502    0 -0.13720513362E+04  0.13595720405E+04  0.64370887112E+03  0.20360064154E+04  0.10100000352E+00 0.  1.
       -3    1    3    3    0  502  0.13720513362E+04 -0.13595720405E+04  0.38335379790E+02  0.19319499512E+04  0.10100000352E+00 0. -1.
</event>
<event>
 5   0  0.1860500E-07  0.3911043E+04  0.7818609E-02  0.8022736E-01
       -1   -1    0    0    0  501  0.00000000000E+00  0.00000000000E+00  0.18483174186E+04  0.18483174186E+04  0.50400001928E-02 0. -1.
        1   -1    0    0  501    0  0.00000000000E+00  0.00000000000E+00 -0.20689434158E+04  0.20689434158E+04  0.50400001928E-02 0.  1.
    10030    2    1    2    0    0  0.00000000000E+00  0.00000000000E+00 -0.22062599712E+03  0.39172608344E+04  0.39110429062E+04 0.  0.
        4    1    3    3  502    0  0.16205769875E+04 -0.10916625299E+04 -0.18831935286E+03  0.19630238519E+04  0.12699999809E+01 0.  1.
       -4    1    3    3    0  502 -0.16205769875E+04  0.10916625299E+04 -0.32306644252E+02  0.19542369825E+04  0.12699999809E+01 0. -1.
</event>
<event>
 5   0  0.1860500E-07  0.3882297E+04  0.7818609E-02  0.8028721E-01
        1   -1    0    0  501    0  0.00000000000E+00  0.00000000000E+00  0.15182595558E+04  0.15182595559E+04  0.50400001928E-02 0. -1.
       -1   -1    0    0    0  501  0.00000000000E+00  0.00000000000E+00 -0.24818269862E+04  0.24818269862E+04  0.50400001928E-02 0.  1.
    10030    2    1    2    0    0  0.00000000000E+00  0.00000000000E+00 -0.96356743033E+03  0.40000865420E+04  0.38822970199E+04 0.  0.
        5    1    3    3  502    0 -0.17695522968E+04 -0.28116676900E+03  0.28764336091E+03  0.18146985634E+04  0.46999998093E+01 0. -1.
       -5    1    3    3    0  502  0.17695522968E+04  0.28116676900E+03 -0.12512107912E+04  0.21853879786E+04  0.46999998093E+01 0.  1.
</event>
<event>
 5   0  0.5735179E-07  0.3794597E+04  0.7818609E-02  0.8047315E-01
        2   -1    0    0  501    0  0.00000000000E+00  0.00000000000E+00  0.25838096348E+04  0.25838096348E+04  0.25500000920E-02 0.  1.
       -2   -1    0    0    0  501  0.00000000000E+00  0.00000000000E+00 -0.13931913094E+04  0.13931913094E+04  0.25500000920E-02 0. -1.
    10030    2    1    2    0    0  0.00000000000E+00  0.00000000000E+00  0.11906183254E+04  0.39770009443E+04  0.37945967525E+04 0.  0.
        5    1    3    3  502    0 -0.15415883236E+04  0.10725908325E+04  0.87804206526E+03  0.20731438956E+04  0.46999998093E+01 0.  1.
       -5    1    3    3    0  502  0.15415883236E+04 -0.10725908325E+04  0.31257626012E+03  0.19038570487E+04  0.46999998093E+01 0. -1.
</event>
<event>
 5   0  0.1860500E-07  0.2886281E+04  0.7818609E-02  0.8276971E-01
        1   -1    0    0  501    0  0.00000000000E+00  0.00000000000E+00  0.10336620311E+04  0.10336620311E+04  0.50400001928E-02 0. -1.
       -1   -1    0    0    0  501  0.00000000000E+00  0.00000000000E+00 -0.20148310221E+04  0.20148310221E+04  0.50400001928E-02 0.  1.
    10030    2    1    2    0    0  0.00000000000E+00  0.00000000000E+00 -0.98116899096E+03  0.30484930533E+04  0.28862808780E+04 0.  0.
        5    1    3    3  502    0  0.85139850099E+03 -0.81064199133E+03  0.39348320654E+03  0.12397060012E+04  0.46999998093E+01 0. -1.
       -5    1    3    3    0  502 -0.85139850099E+03  0.81064199133E+03 -0.13746521975E+04  0.18087870521E+04  0.46999998093E+01 0.  1.
</event>
<event>
 5   0  0.6095665E-07  0.3610933E+04  0.7818609E-02  0.8087992E-01
       -2   -1    0    0    0  501  0.00000000000E+00  0.00000000000E+00  0.13415898101E+04  0.13415898101E+04  0.25500000920E-02 0.  1.
        2   -1    0    0  501    0  0.00000000000E+00  0.00000000000E+00 -0.24297357896E+04  0.24297357896E+04  0.25500000920E-02 0. -1.
    10030    2    1    2    0    0  0.00000000000E+00  0.00000000000E+00 -0.10881459796E+04  0.37713255997E+04  0.36109327197E+04 0.  0.
        4    1    3    3  502    0 -0.80419123877E+03  0.10841032897E+04  0.70822972937E+03  0.15243341017E+04  0.12699999809E+01 0.  1.
       -4    1    3    3    0  502  0.80419123877E+03 -0.10841032897E+04 -0.17963757089E+04  0.22469914979E+04  0.12699999809E+01 0. -1.
</event>
<event>
 5   0  0.1943459E-07  0.3879360E+04  0.7818609E-02  0.8029336E-01
       -1   -1    0    0    0  501  0.00000000000E+00  0.00000000000E+00  0.16790002340E+04  0.16790002340E+04  0.50400001928E-02 0. -1.
        1   -1    0    0  501    0  0.00000000000E+00  0.00000000000E+00 -0.22408320944E+04  0.22408320944E+04  0.50400001928E-02 0.  1.
    10030    2    1    2    0    0  0.00000000000E+00  0.00000000000E+00 -0.56183186044E+03  0.39198323284E+04  0.38793595404E+04 0.  0.
        2    1    3    3  502    0  0.84924948703E+03 -0.80827174953E+03  0.12804659427E+04  0.17361223871E+04  0.25500000920E-02 0. -1.
       -2    1    3    3    0  502 -0.84924948703E+03  0.80827174953E+03 -0.18422978032E+04  0.21837099414E+04  0.25500000920E-02 0.  1.
</event>
<event>
 5   0  0.5735179E-07  0.3974178E+04  0.7818609E-02  0.8009776E-01
        2   -1    0    0  501    0  0.00000000000E+00  0.00000000000E+00  0.33884873697E+04  0.33884873697E+04  0.25500000920E-02 0. -1.
       -2   -1    0    0    0  501  0.00000000000E+00  0.00000000000E+00 -0.11652756820E+04  0.11652756820E+04  0.25500000920E-02 0.  1.
    10030    2    1    2    0    0  0.00000000000E+00  0.00000000000E+00  0.22232116877E+04  0.45537630517E+04  0.39741776159E+04 0.  0.
        5    1    3    3  502    0  0.11223512246E+04 -0.15184268345E+04  0.18209225133E+04  0.26231799810E+04  0.46999998093E+01 0. -1.
       -5    1    3    3    0  502 -0.11223512246E+04  0.15184268345E+04  0.40228917435E+03  0.19305830707E+04  0.46999998093E+01 0.  1.
</event>
<event>
 5   0  0.1876027E-07  0.3927779E+04  0.7818609E-02  0.8019276E-01
        1   -1    0    0  501    0  0.00000000000E+00  0.00000000000E+00  0.10822159069E+04  0.10822159069E+04  0.50400001928E-02 0.  1.
       -1   -1    0    0    0  501  0.00000000000E+00  0.00000000000E+00 -0.35638564760E+04  0.35638564760E+04  0.50400001928E-02 0. -1.
    10030    2    1    2    0    0  0.00000000000E+00  0.00000000000E+00 -0.24816405691E+04  0.46460723828E+04  0.39277791018E+04 0.  0.
        3    1    3    3  502    0  0.33233359260E+03 -0.11583925222E+04  0.59341573676E+03  0.13433023111E+04  0.10100000352E+00 0.  1.
       -3    1    3    3    0  502 -0.33233359260E+03  0.11583925222E+04 -0.30750563058E+04  0.33027700717E+04  0.10100000352E+00 0. -1.
</event>
<event>
 5   0  0.5805753E-07  0.3933072E+04  0.7818609E-02  0.8018186E-01
       -2   -1    0    0    0  501  0.00000000000E+00  0.00000000000E+00  0.25597433799E+04  0.25597433799E+04  0.25500000920E-02 0.  1.
        2   -1    0    0  501    0  0.00000000000E+00  0.00000000000E+00 -0.15108016078E+04  0.15108016078E+04  0.25500000920E-02 0. -1.
    10030    2    1    2    0    0  0.00000000000E+00  0.00000000000E+00  0.10489417722E+04  0.40705449877E+04  0.39330722922E+04 0.  0.
        1    1    3    3  502    0 -0.45447131241E+03  0.18764435484E+04  0.13766995634E+03  0.19355974739E+04  0.50400001928E-02 0. -1.
       -1    1    3    3    0  502  0.45447131241E+03 -0.18764435484E+04  0.91127181584E+03  0.21349475138E+04  0.50400001928E-02 0.  1.
</event>
<event>
 5   0  0.1943459E-07  0.2605030E+04  0.7818609E-02  0.8366495E-01
        1   -1    0    0  501    0  0.00000000000E+00  0.00000000000E+00  0.12568805664E+04  0.12568805664E+04  0.50400001928E-02 0.  1.
       -1   -1    0    0    0  501  0.00000000000E+00  0.00000000000E+00 -0.13498058572E+04  0.13498058573E+04  0.50400001928E-02 0. -1.
    10030    2    1    2    0    0  0.00000000000E+00  0.00000000000E+00 -0.92925290848E+02  0.26066864237E+04  0.26050295587E+04 0.  0.
        2    1    3    3  502    0  0.11572610548E+04  0.50557673825E+03  0.27261908582E+03  0.12919683252E+04  0.25500000920E-02 0.  1.
       -2    1    3    3    0  502 -0.11572610548E+04 -0.50557673825E+03 -0.36554437666E+03  0.13147180985E+04  0.25500000920E-02 0. -1.
</event>
<event>
 5   0  0.1943459E-07  0.2498047E+04  0.7818609E-02  0.8403682E-01
       -1   -1    0    0    0  501  0.00000000000E+00  0.00000000000E+00  0.18037180491E+04  0.18037180491E+04  0.50400001928E-02 0.  1.
        1   -1    0    0  501    0  0.00000000000E+00  0.00000000000E+00 -0.86491325656E+03  0.86491325657E+03  0.50400001928E-02 0. -1.
    10030    2    1    2    0    0  0.00000000000E+00  0.00000000000E+00  0.93880479258E+03  0.26686313057E+04  0.24980469586E+04 0.  0.
        2    1    3    3  502    0  0.63391475749E+03  0.25572199140E+03 -0.64736286812E+03  0.94144587719E+03  0.25500000920E-02 0. -1.
       -2    1    3    3    0  502 -0.63391475749E+03 -0.25572199140E+03  0.15861676607E+04  0.17271854285E+04  0.25500000920E-02 0.  1.
</event>
<event>
 5   0  0.5735179E-07  0.3890166E+04  0.7818609E-02  0.8027078E-01
        2   -1    0    0  501    0  0.00000000000E+00  0.00000000000E+00  0.28073871028E+04  0.28073871028E+04  0.25500000920E-02 0.  1.
       -2   -1    0    0    0  501  0.00000000000E+00  0.00000000000E+00 -0.13476402136E+04  0.13476402136E+04  0.25500000920E-02 0. -1.
    10030    2    1    2    0    0  0.00000000000E+00  0.00000000000E+00  0.14597468892E+04  0.41550273164E+04  0.38901659373E+04 0.  0.
        5    1    3    3  502    0  0.15536315677E+03  0.93868837698E+03 -0.10821135705E+04  0.14409252059E+04  0.46999998093E+01 0. -1.
       -5    1    3    3    0  502 -0.15536315677E+03 -0.93868837698E+03  0.25418604597E+04  0.27141021105E+04  0.46999998093E+01 0.  1.
</event>
<event>
 5   0  0.6095665E-07  0.3977785E+04  0.7818609E-02  0.8009043E-01
        2   -1    0    0  501    0  0.00000000000E+00  0.00000000000E+00  0.18993432275E+04  0.18993432275E+04  0.25500000920E-02 0.  1.
       -2   -1    0    0    0  501  0.00000000000E+00  0.00000000000E+00 -0.20826636424E+04  0.20826636424E+04  0.25500000920E-02 0. -1.
    10030    2    1    2    0    0  0.00000000000E+00  0.00000000000E+00 -0.18332041493E+03  0.39820068699E+04  0.39777848531E+04 0.  0.
        4    1    3    3  502    0 -0.75650267090E+03  0.10368854011E+04 -0.16125699430E+04  0.20610218485E+04  0.12699999809E+01 0. -1.
       -4    1    3    3    0  502  0.75650267090E+03 -0.10368854011E+04  0.14292495280E+04  0.19209850214E+04  0.12699999809E+01 0.  1.
</event>
<event>
 5   0  0.1860500E-07  0.3632834E+04  0.7818609E-02  0.8083012E-01
        4   -1    0    0  501    0  0.00000000000E+00  0.00000000000E+00  0.19655708705E+04  0.19655712808E+04  0.12699999809E+01 0. -1.
       -4   -1    0    0    0  501  0.00000000000E+00  0.00000000000E+00 -0.16785802362E+04  0.16785807167E+04  0.12699999809E+01 0.  1.
    10030    2    1    2    0    0  0.00000000000E+00  0.00000000000E+00  0.28699063424E+03  0.36441519974E+04  0.36328336263E+04 0.  0.
        3    1    3    3  502    0 -0.99179719824E+03 -0.61991017309E+03  0.15375804808E+04  0.19318654328E+04  0.10100000352E+00 0. -1.
       -3    1    3    3    0  502  0.99179719824E+03  0.61991017309E+03 -0.12505898466E+04  0.17122865647E+04  0.10100000352E+00 0.  1.
</event>
<event>
 5   0  0.2666813E-07  0.3881568E+04  0.7818609E-02  0.8028874E-01
        1   -1    0    0  501    0  0.00000000000E+00  0.00000000000E+00  0.19407772371E+04  0.19407772371E+04  0.50400001928E-02 0. -1.
       -1   -1    0    0    0  501  0.00000000000E+00  0.00000000000E+00 -0.19407909509E+04  0.19407909509E+04  0.50400001928E-02 0.  1.
    10030    2    1    2    0    0  0.00000000000E+00  0.00000000000E+00 -0.13713768486E-01  0.38815681880E+04  0.38815681880E+04 0.  0.
        1    1    3    3  502    0 -0.17701182846E+04  0.48671179253E+03  0.62962461391E+03  0.19407818695E+04  0.50400001928E-02 0. -1.
       -1    1    3    3    0  502  0.17701182846E+04 -0.48671179253E+03 -0.62963832768E+03  0.19407863185E+04  0.50400001928E-02 0.  1.
</event>
<event>
 5   0  0.1876027E-07  0.3964467E+04  0.7818609E-02  0.8011753E-01
       -1   -1    0    0    0  501  0.00000000000E+00  0.00000000000E+00  0.23764323019E+04  0.23764323019E+04  0.50400001928E-02 0.  1.
        1   -1    0    0  501    0  0.00000000000E+00  0.00000000000E+00 -0.16534240230E+04  0.16534240231E+04  0.50400001928E-02 0. -1.
    10030    2    1    2    0    0  0.00000000000E+00  0.00000000000E+00  0.72300827882E+03  0.40298563249E+04  0.39644673070E+04 0.  0.
        3    1    3    3  502    0 -0.11162334127E+04  0.13751806358E+03 -0.12977057866E+04  0.17172444695E+04  0.10100000352E+00 0. -1.
       -3    1    3    3    0  502  0.11162334127E+04 -0.13751806358E+03  0.20207140654E+04  0.23126118554E+04  0.10100000352E+00 0.  1.
</event>
<event>
 5   0  0.3959190E-07  0.3924173E+04  0.7818609E-02  0.8020020E-01
       -2   -1    0    0    0  501  0.00000000000E+00  0.00000000000E+00  0.16741124543E+04  0.16741124543E+04  0.25500000920E-02 0.  1.
        2   -1    0    0  501    0  0.00000000000E+00  0.00000000000E+00 -0.22995960970E+04  0.22995960970E+04  0.25500000920E-02 0. -1.
    10030    2    1    2    0    0  0.00000000000E+00  0.00000000000E+00 -0.62548364273E+03  0.39737085514E+04  0.39241725069E+04 0.  0.
        2    1    3    3  502    0 -0.19401420587E+03  0.41067171287E+03 -0.22456298361E+04  0.22911015099E+04  0.25500000920E-02 0. -1.
       -2    1    3    3    0  502  0.19401420587E+03 -0.41067171287E+03  0.16201461934E+04  0.16826070414E+04  0.25500000920E-02 0.  1.
</event>
<event>
 5   0  0.2666813E-07  0.3966163E+04  0.7818609E-02  0.8011408E-01
       -1   -1    0    0    0  501  0.00000000000E+00  0.00000000000E+00  0.17632938197E+04  0.17632938197E+04  0.50400001928E-02 0. -1.
        1   -1    0    0  501    0  0.00000000000E+00  0.00000000000E+00 -0.22302644979E+04  0.22302644980E+04  0.50400001928E-02 0.  1.
    10030    2    1    2    0    0  0.00000000000E+00  0.00000000000E+00 -0.46697067823E+03  0.39935583177E+04  0.39661626823E+04 0.  0.
        1    1    3    3  502    0 -0.16037495533E+04  0.96829223699E+03 -0.88836932719E+03  0.20733553838E+04  0.50400001928E-02 0.  1.
       -1    1    3    3    0  502  0.16037495533E+04 -0.96829223699E+03  0.42139864897E+03  0.19202029339E+04  0.50400001928E-02 0. -1.
</event>
<event>
 5   0  0.5735179E-07  0.2995750E+04  0.7818609E-02  0.8244945E-01
        2   -1    0    0  501    0  0.00000000000E+00  0.00000000000E+00  0.98455636570E+03  0.98455636571E+03  0.25500000920E-02 0.  1.
       -2   -1    0    0    0  501  0.00000000000E+00  0.00000000000E+00 -0.22788231656E+04  0.22788231656E+04  0.25500000920E-02 0. -1.
    10030    2    1    2    0    0  0.00000000000E+00  0.00000000000E+00 -0.12942667999E+04  0.32633795313E+04  0.29957502259E+04 0.  0.
        5    1    3    3  502    0  0.87905212175E+03 -0.68885326928E+02  0.67187698905E+03  0.11085660104E+04  0.46999998093E+01 0.  1.
       -5    1    3    3    0  502 -0.87905212175E+03  0.68885326928E+02 -0.19661437890E+04  0.21548135209E+04  0.46999998093E+01 0. -1.
</event>
<event>
 5   0  0.1876027E-07  0.3871510E+04  0.7818609E-02  0.8030981E-01
        1   -1    0    0  501    0  0.00000000000E+00  0.00000000000E+00  0.20939281733E+04  0.20939281733E+04  0.50400001928E-02 0. -1.
       -1   -1    0    0    0  501  0.00000000000E+00  0.00000000000E+00 -0.17895300594E+04  0.17895300594E+04  0.50400001928E-02 0.  1.
    10030    2    1    2    0    0  0.00000000000E+00  0.00000000000E+00  0.30439811393E+03  0.38834582327E+04  0.38715099940E+04 0.  0.
        3    1    3    3  502    0  0.19749673152E+03 -0.17028384286E+04  0.10541312630E+04  0.20124255024E+04  0.10100000352E+00 0. -1.
       -3    1    3    3    0  502 -0.19749673152E+03  0.17028384286E+04 -0.74973314909E+03  0.18710327303E+04  0.10100000352E+00 0.  1.
</event>
<event>
 5   0  0.3959190E-07  0.3672479E+04  0.7818609E-02  0.8074088E-01
       -2   -1    0    0    0  501  0.00000000000E+00  0.00000000000E+00  0.15685889291E+04  0.15685889291E+04  0.25500000920E-02 0. -1.
        2   -1    0    0  501    0  0.00000000000E+00  0.00000000000E+00 -0.21495598234E+04  0.21495598234E+04  0.25500000920E-02 0.  1.
    10030    2    1    2    0    0  0.00000000000E+00  0.00000000000E+00 -0.58097089424E+03  0.37181487525E+04  0.36724791307E+04 0.  0.
        2    1    3    3  502    0  0.12798278505E+04 -0.13028607717E+04 -0.97404059360E+02  0.18289048822E+04  0.25500000920E-02 0. -1.
       -2    1    3    3    0  502 -0.12798278505E+04  0.13028607717E+04 -0.48356683488E+03  0.18892438702E+04  0.25500000920E-02 0.  1.
</event>
<event>
 5   0  0.1860500E-07  0.2885092E+04  0.7818609E-02  0.8277327E-01
        3   -1    0    0  501    0  0.00000000000E+00  0.00000000000E+00  0.99605458672E+03  0.99605459184E+03  0.10100000352E+00 0. -1.
       -3   -1    0    0    0  501  0.00000000000E+00  0.00000000000E+00 -0.20891817605E+04  0.20891817630E+04  0.10100000352E+00 0.  1.
    10030    2    1    2    0    0  0.00000000000E+00  0.00000000000E+00 -0.10931271738E+04  0.30852363548E+04  0.28850920864E+04 0.  0.
        3    1    3    3  502    0  0.97170542288E+03 -0.57604752131E+03  0.41283458876E+03  0.12026947175E+04  0.10100000352E+00 0. -1.
       -3    1    3    3    0  502 -0.97170542288E+03  0.57604752131E+03 -0.15059617625E+04  0.18825416373E+04  0.10100000352E+00 0.  1.
</event>
<event>
 5   0  0.5872444E-07  0.3832850E+04  0.7818609E-02  0.8039142E-01
       -2   -1    0    0    0  501  0.00000000000E+00  0.00000000000E+00  0.20341659137E+04  0.20341659137E+04  0.25500000920E-02 0.  1.
        2   -1    0    0  501    0  0.00000000000E+00  0.00000000000E+00 -0.18054988653E+04  0.18054988653E+04  0.25500000920E-02 0. -1.
    10030    2    1    2    0    0  0.00000000000E+00  0.00000000000E+00  0.22866704835E+03  0.38396647790E+04  0.38328497226E+04 0.  0.
        3    1    3    3  502    0  0.54371870243E+03  0.17461161002E+04  0.68818080020E+03  0.19540072382E+04  0.10100000352E+00 0.  1.
       -3    1    3    3    0  502 -0.54371870243E+03 -0.17461161002E+04 -0.45951375185E+03  0.18856575408E+04  0.10100000352E+00 0. -1.
</event>
<event>
 5   0  0.2666813E-07  0.2742663E+04  0.7818609E-02  0.8321293E-01
        1   -1    0    0  501    0  0.00000000000E+00  0.00000000000E+00  0.12873382328E+04  0.12873382328E+04  0.50400001928E-02 0.  1.
       -1   -1    0    0    0  501  0.00000000000E+00  0.00000000000E+00 -0.14608054099E+04  0.14608054099E+04  0.50400001928E-02 0. -1.
    10030    2    1    2    0    0  0.00000000000E+00  0.00000000000E+00 -0.17346717712E+03  0.27481436428E+04  0.27426634171E+04 0.  0.
        1    1    3    3  502    0 -0.99331299788E+02 -0.10438046510E+04 -0.97232979144E+03  0.14299720556E+04  0.50400001928E-02 0. -1.
       -1    1    3    3    0  502  0.99331299788E+02  0.10438046510E+04  0.79886261432E+03  0.13181715871E+04  0.50400001928E-02 0.  1.
</event>
<event>
 5   0  0.1943459E-07  0.3925617E+04  0.7818609E-02  0.8019722E-01
       -1   -1    0    0    0  501  0.00000000000E+00  0.00000000000E+00  0.13820331169E+04  0.13820331169E+04  0.50400001928E-02 0.  1.
        1   -1    0    0  501    0  0.00000000000E+00  0.00000000000E+00 -0.27876444565E+04  0.27876444565E+04  0.50400001928E-02 0. -1.
    10030    2    1    2    0    0  0.00000000000E+00  0.00000000000E+00 -0.14056113395E+04  0.41696775734E+04  0.39256168723E+04 0.  0.
        2    1    3    3  502    0  0.44937309979E+03  0.18374032402E+04 -0.12594382668E+04  0.22724813745E+04  0.25500000920E-02 0. -1.
       -2    1    3    3    0  502 -0.44937309979E+03 -0.18374032402E+04 -0.14617307275E+03  0.18971961989E+04  0.25500000920E-02 0.  1.
</event>
<event>
 5   0  0.5872444E-07  0.3886583E+04  0.7818609E-02  0.8027826E-01
        2   -1    0    0  501    0  0.00000000000E+00  0.00000000000E+00  0.25185506872E+04  0.25185506872E+04  0.25500000920E-02 0.  1.
       -2   -1    0    0    0  501  0.00000000000E+00  0.00000000000E+00 -0.14994265059E+04  0.14994265059E+04  0.25500000920E-02 0. -1.
    10030    2    1    2    0    0  0.00000000000E+00  0.00000000000E+00  0.10191241813E+04  0.40179771931E+04  0.38865828986E+04 0.  0.
        3    1    3    3  502    0  0.51120297195E+03 -0.15365861056E+04  0.16201021134E+04  0.22906671968E+04  0.10100000352E+00 0.  1.
       -3    1    3    3    0  502 -0.51120297195E+03  0.15365861056E+04 -0.60097793206E+03  0.17273099964E+04  0.10100000352E+00 0. -1.
</event>
<event>
 5   0  0.1860500E-07  0.2613907E+04  0.7818609E-02  0.8363493E-01
        1   -1    0    0  501    0  0.00000000000E+00  0.00000000000E+00  0.24828870417E+04  0.24828870417E+04  0.50400001928E-02 0. -1.
       -1   -1    0    0    0  501  0.00000000000E+00  0.00000000000E+00 -0.68796007119E+03  0.68796007121E+03  0.50400001928E-02 0.  1.
    10030    2    1    2    0    0  0.00000000000E+00  0.00000000000E+00  0.17949269705E+04  0.31708471129E+04  0.26139067665E+04 0.  0.
        5    1    3    3  502    0 -0.14788810210E+03 -0.78121630580E+03  0.21557463350E+04  0.22977019297E+04  0.46999998093E+01 0. -1.
       -5    1    3    3    0  502  0.14788810210E+03  0.78121630580E+03 -0.36081936444E+03  0.87314518319E+03  0.46999998093E+01 0.  1.
</event>
<event>
 5   0  0.6095665E-07  0.3760617E+04  0.7818609E-02  0.8054660E-01
        2   -1    0    0  501    0  0.00000000000E+00  0.00000000000E+00  0.21802394599E+04  0.21802394599E+04  0.25500000920E-02 0. -1.
       -2   -1    0    0    0  501  0.00000000000E+00  0.00000000000E+00 -0.16216383136E+04  0.16216383136E+04  0.25500000920E-02 0.  1.
    10030    2    1    2    0    0  0.00000000000E+00  0.00000000000E+00  0.55860114628E+03  0.38018777735E+04  0.37606168861E+04 0.  0.
        4    1    3    3  502    0  0.15340002180E+04  0.10759767350E+04  0.43810885245E+03  0.19242722215E+04  0.12699999809E+01 0.  1.
       -4    1    3    3    0  502 -0.15340002180E+04 -0.10759767350E+04  0.12049229383E+03  0.18776055520E+04  0.12699999809E+01 0. -1.
</event>
<event>
 5   0  0.2666813E-07  0.3250731E+04  0.7818609E-02  0.8175546E-01
        1   -1    0    0  501    0  0.00000000000E+00  0.00000000000E+00  0.14648995296E+04  0.14648995297E+04  0.50400001928E-02 0. -1.
       -1   -1    0    0    0  501  0.00000000000E+00  0.00000000000E+00 -0.18034086896E+04  0.18034086896E+04  0.50400001928E-02 0.  1.
    10030    2    1    2    0    0  0.00000000000E+00  0.00000000000E+00 -0.33850915996E+03  0.32683082193E+04  0.32507307124E+04 0.  0.
        1    1    3    3  502    0 -0.41673286490E+03  0.12505657944E+04  0.78679808579E+03  0.15351326701E+04  0.50400001928E-02 0. -1.
       -1    1    3    3    0  502  0.41673286490E+03 -0.12505657944E+04 -0.11253072458E+04  0.17331755492E+04  0.50400001928E-02 0.  1.
</event>
<event>
 5   0  0.3959190E-07  0.3962769E+04  0.7818609E-02  0.8012100E-01
        2   -1    0    0  501    0  0.00000000000E+00  0.00000000000E+00  0.15694569136E+04  0.15694569136E+04  0.25500000920E-02 0.  1.
       -2   -1    0    0    0  501  0.00000000000E+00  0.00000000000E+00 -0.25014287378E+04  0.25014287378E+04  0.25500000920E-02 0. -1.
    10030    2    1    2    0    0  0.00000000000E+00  0.00000000000E+00 -0.93197182423E+03  0.40708856514E+04  0.39627690452E+04 0.  0.
        2    1    3    3  502    0  0.14482531115E+04 -0.13451276310E+04 -0.32408986102E+03  0.20029577271E+04  0.25500000920E-02 0. -1.
       -2    1    3    3    0  502 -0.14482531115E+04  0.13451276310E+04 -0.60788196321E+03  0.20679279243E+04  0.25500000920E-02 0.  1.
</event>
<event>
 5   0  0.1876027E-07  0.3889634E+04  0.7818609E-02  0.8027189E-01
        1   -1    0    0  501    0  0.00000000000E+00  0.00000000000E+00  0.25774981716E+04  0.25774981716E+04  0.50400001928E-02 0.  1.
       -1   -1    0    0    0  501  0.00000000000E+00  0.00000000000E+00 -0.14674358202E+04  0.14674358202E+04  0.50400001928E-02 0. -1.
    10030    2    1    2    0    0  0.00000000000E+00  0.00000000000E+00  0.11100623514E+04  0.40449339918E+04  0.38896339898E+04 0.  0.
        3    1    3    3  502    0  0.16806598172E+04 -0.33575281218E+03  0.15109527380E+04  0.22848031773E+04  0.10100000352E+00 0.  1.
       -3    1    3    3    0  502 -0.16806598172E+04  0.33575281218E+03 -0.40089038660E+03  0.17601308146E+04  0.10100000352E+00 0. -1.
</event>
<event>
 5   0  0.3959190E-07  0.3803501E+04  0.7818609E-02  0.8045404E-01
        2   -1    0    0  501    0  0.00000000000E+00  0.00000000000E+00  0.27143042985E+04  0.27143042985E+04  0.25500000920E-02 0.  1.
       -2   -1    0    0    0  501  0.00000000000E+00  0.00000000000E+00 -0.13324427813E+04  0.13324427813E+04  0.25500000920E-02 0. -1.
    10030    2    1    2    0    0  0.00000000000E+00  0.00000000000E+00  0.13818615172E+04  0.40467470798E+04  0.38035011076E+04 0.  0.
        2    1    3    3  502    0 -0.60905763736E+03  0.15019221405E+04  0.17495154317E+04  0.23848533640E+04  0.25500000920E-02 0.  1.
       -2    1    3    3    0  502  0.60905763736E+03 -0.15019221405E+04 -0.36765391454E+03  0.16618937158E+04  0.25500000920E-02 0. -1.
</event>
<event>
 5   0  0.5805753E-07  0.3805643E+04  0.7818609E-02  0.8044945E-01
       -2   -1    0    0    0  501  0.00000000000E+00  0.00000000000E+00  0.18443535680E+04  0.18443535680E+04  0.25500000920E-02 0.  1.
        2   -1    0    0  501    0  0.00000000000E+00  0.00000000000E+00 -0.19631432907E+04  0.19631432907E+04  0.25500000920E-02 0. -1.
    10030    2    1    2    0    0  0.00000000000E+00  0.00000000000E+00 -0.11878972273E+03  0.38074968587E+04  0.38056433531E+04 0.  0.
        1    1    3    3  502    0 -0.47107144873E+03  0.14098373314E+04  0.11291149885E+04  0.18666682266E+04  0.50400001928E-02 0.  1.
       -1    1    3    3    0  502  0.47107144873E+03 -0.14098373314E+04 -0.12479047112E+04  0.19408286321E+04  0.50400001928E-02 0. -1.
</event>
<event>
 5   0  0.1876027E-07  0.2453564E+04  0.7818609E-02  0.8419718E-01
       -1   -1    0    0    0  501  0.00000000000E+00  0.00000000000E+00  0.62386190946E+03  0.62386190948E+03  0.50400001928E-02 0. -1.
        1   -1    0    0  501    0  0.00000000000E+00  0.00000000000E+00 -0.24123835758E+04  0.24123835758E+04  0.50400001928E-02 0.  1.
    10030    2    1    2    0    0  0.00000000000E+00  0.00000000000E+00 -0.17885216664E+04  0.30362454853E+04  0.24535641210E+04 0.  0.
        3    1    3    3  502    0 -0.82063176008E+03  0.64587530925E+02  0.23136383151E+03  0.85506565101E+03  0.10100000352E+00 0. -1.
       -3    1    3    3    0  502  0.82063176008E+03 -0.64587530925E+02 -0.20198854979E+04  0.21811798343E+04  0.10100000352E+00 0.  1.
</event>
<event>
 5   0  0.1860500E-07  0.2960618E+04  0.7818609E-02  0.8255067E-01
        1   -1    0    0  501    0  0.00000000000E+00  0.00000000000E+00  0.92919292544E+03  0.92919292546E+03  0.50400001928E-02 0. -1.
       -1   -1    0    0    0  501  0.00000000000E+00  0.00000000000E+00 -0.23582983141E+04  0.23582983142E+04  0.50400001928E-02 0.  1.
    10030    2    1    2    0    0  0.00000000000E+00  0.00000000000E+00 -0.14291053887E+04  0.32874912396E+04  0.29606175772E+04 0.  0.
        5    1    3    3  502    0  0.13070979122E+03 -0.17868923887E+03  0.91069708715E+03  0.93723325173E+03  0.46999998093E+01 0. -1.
       -5    1    3    3    0  502 -0.13070979122E+03  0.17868923887E+03 -0.23398024759E+04  0.23502579879E+04  0.46999998093E+01 0.  1.
</event>
<event>
 5   0  0.1876027E-07  0.3898968E+04  0.7818609E-02  0.8025244E-01
        1   -1    0    0  501    0  0.00000000000E+00  0.00000000000E+00  0.11940096065E+04  0.11940096065E+04  0.50400001928E-02 0. -1.
       -1   -1    0    0    0  501  0.00000000000E+00  0.00000000000E+00 -0.31829623646E+04  0.31829623646E+04  0.50400001928E-02 0.  1.
    10030    2    1    2    0    0  0.00000000000E+00  0.00000000000E+00 -0.19889527581E+04  0.43769719711E+04  0.38989678841E+04 0.  0.
        3    1    3    3  502    0  0.18059640607E+04  0.71818207938E+03 -0.11654503972E+04  0.22661787940E+04  0.10100000352E+00 0.  1.
       -3    1    3    3    0  502 -0.18059640607E+04 -0.71818207938E+03 -0.82350236098E+03  0.21107931771E+04  0.10100000352E+00 0. -1.
</event>
<event>
 5   0  0.1860500E-07  0.3957891E+04  0.7818609E-02  0.8013096E-01
        1   -1    0    0  501    0  0.00000000000E+00  0.00000000000E+00  0.19740107491E+04  0.19740107491E+04  0.50400001928E-02 0. -1.
       -1   -1    0    0    0  501  0.00000000000E+00  0.00000000000E+00 -0.19838925693E+04  0.19838925693E+04  0.50400001928E-02 0.  1.
    10030    2    1    2    0    0  0.00000000000E+00  0.00000000000E+00 -0.98818202018E+01  0.39579033184E+04  0.39578909823E+04 0.  0.
        5    1    3    3  502    0  0.96997050759E+03 -0.15517047581E+04 -0.75831748456E+03  0.19808326379E+04  0.46999998093E+01 0.  1.
       -5    1    3    3    0  502 -0.96997050759E+03  0.15517047581E+04  0.74843566436E+03  0.19770706805E+04  0.46999998093E+01 0. -1.
</event>
<event>
 5   0  0.3959190E-07  0.2588606E+04  0.7818609E-02  0.8372082E-01
        2   -1    0    0  501    0  0.00000000000E+00  0.00000000000E+00  0.19782493403E+04  0.19782493403E+04  0.25500000920E-02 0. -1.
       -2   -1    0    0    0  501  0.00000000000E+00  0.00000000000E+00 -0.84681946658E+03  0.84681946659E+03  0.25500000920E-02 0.  1.
    10030    2    1    2    0    0  0.00000000000E+00  0.00000000000E+00  0.11314298738E+04  0.28250688069E+04  0.25886058419E+04 0.  0.
        2    1    3    3  502    0  0.30417834330E+03 -0.61710238170E+03  0.17621625839E+04  0.18917073733E+04  0.25500000920E-02 0. -1.
       -2    1    3    3    0  502 -0.30417834330E+03  0.61710238170E+03 -0.63073271019E+03  0.93336143360E+03  0.25500000920E-02 0.  1.
</event>
<event>
 5   0  0.1876027E-07  0.3946340E+04  0.7818609E-02  0.8015460E-01
        1   -1    0    0  501    0  0.00000000000E+00  0.00000000000E+00  0.23728502351E+04  0.23728502351E+04  0.50400001928E-02 0. -1.
       -1   -1    0    0    0  501  0.00000000000E+00  0.00000000000E+00 -0.16408117488E+04  0.16408117488E+04  0.50400001928E-02 0.  1.
    10030    2    1    2    0    0  0.00000000000E+00  0.00000000000E+00  0.73203848631E+03  0.40136619839E+04  0.39463403522E+04 0.  0.
        3    1    3    3  502    0  0.16249347544E+04  0.47539993394E+03 -0.66467007277E+03  0.18188469889E+04  0.10100000352E+00 0.  1.
       -3    1    3    3    0  502 -0.16249347544E+04 -0.47539993394E+03  0.13967085591E+04  0.21948149950E+04  0.10100000352E+00 0. -1.
</event>
<event>
 5   0  0.5805753E-07  0.3887971E+04  0.7818609E-02  0.8027536E-01
       -2   -1    0    0    0  501  0.00000000000E+00  0.00000000000E+00  0.14396978502E+04  0.14396978502E+04  0.25500000920E-02 0. -1.
        2   -1    0    0  501    0  0.00000000000E+00  0.00000000000E+00 -0.26249111660E+04  0.26249111660E+04  0.25500000920E-02 0.  1.
    10030    2    1    2    0    0  0.00000000000E+00  0.00000000000E+00 -0.11852133158E+04  0.40646090161E+04  0.38879706596E+04 0.  0.
        1    1    3    3  502    0 -0.48065851790E+03  0.20984522194E+03  0.13643380198E+04  0.14616722821E+04  0.50400001928E-02 0. -1.
       -1    1    3    3    0  502  0.48065851790E+03 -0.20984522194E+03 -0.25495513357E+04  0.26029367340E+04  0.50400001928E-02 0.  1.
</event>
<event>
 5   0  0.6095665E-07  0.3932933E+04  0.7818609E-02  0.8018214E-01
       -2   -1    0    0    0  501  0.00000000000E+00  0.00000000000E+00  0.29798138963E+04  0.29798138963E+04  0.25500000920E-02 0. -1.
        2   -1    0    0  501    0  0.00000000000E+00  0.00000000000E+00 -0.12977287773E+04  0.12977287773E+04  0.25500000920E-02 0.  1.
    10030    2    1    2    0    0  0.00000000000E+00  0.00000000000E+00  0.16820851191E+04  0.42775426736E+04  0.39329328721E+04 0.  0.
        4    1    3    3  502    0 -0.28732656222E+03 -0.14317073539E+04  0.22735050639E+04  0.27020676137E+04  0.12699999809E+01 0. -1.
       -4    1    3    3    0  502  0.28732656222E+03  0.14317073539E+04 -0.59141994482E+03  0.15754750599E+04  0.12699999809E+01 0.  1.
</event>
<event>
 5   0  0.1876027E-07  0.3763045E+04  0.7818609E-02  0.8054132E-01
        1   -1    0    0  501    0  0.00000000000E+00  0.00000000000E+00  0.12589692813E+04  0.12589692813E+04  0.50400001928E-02 0. -1.
       -1   -1    0    0    0  501  0.00000000000E+00  0.00000000000E+00 -0.28119248820E+04  0.28119248820E+04  0.50400001928E-02 0.  1.
    10030    2    1    2    0    0  0.00000000000E+00  0.00000000000E+00 -0.15529556007E+04  0.40708941634E+04  0.37630450690E+04 0.  0.
        3    1    3    3  502    0 -0.21362838243E+03  0.78314276893E+03  0.10597873338E+04  0.13349527652E+04  0.10100000352E+00 0. -1.
       -3    1    3    3    0  502  0.21362838243E+03 -0.78314276893E+03 -0.26127429345E+04  0.27359413982E+04  0.10100000352E+00 0.  1.
</event>
<event>
 5   0  0.5805753E-07  0.3985872E+04  0.7818609E-02  0.8007403E-01
       -2   -1    0    0    0  501  0.00000000000E+00  0.00000000000E+00  0.19977213447E+04  0.19977213447E+04  0.25500000920E-02 0. -1.
        2   -1    0    0  501    0  0.00000000000E+00  0.00000000000E+00 -0.19881619799E+04  0.19881619799E+04  0.25500000920E-02 0.  1.
    10030    2    1    2    0    0  0.00000000000E+00  0.00000000000E+00  0.95593648046E+01  0.39858833246E+04  0.39858718615E+04 0.  0.
        1    1    3    3  502    0 -0.35482287891E+03 -0.12770954385E+04 -0.14834858617E+04  0.19893723473E+04  0.50400001928E-02 0.  1.
       -1    1    3    3    0  502  0.35482287891E+03  0.12770954385E+04  0.14930452265E+04  0.19965109774E+04  0.50400001928E-02 0. -1.
</event>
<event>
 5   0  0.5805753E-07  0.3853292E+04  0.7818609E-02  0.8034814E-01
       -2   -1    0    0    0  501  0.00000000000E+00  0.00000000000E+00  0.19390761056E+04  0.19390761056E+04  0.25500000920E-02 0.  1.
        2   -1    0    0  501    0  0.00000000000E+00  0.00000000000E+00 -0.19142957365E+04  0.19142957365E+04  0.25500000920E-02 0. -1.
    10030    2    1    2    0    0  0.00000000000E+00  0.00000000000E+00  0.24780369029E+02  0.38533718421E+04  0.38532921622E+04 0.  0.
        1    1    3    3  502    0  0.45364542940E+02 -0.11523057178E+04 -0.15310466395E+04  0.19167603453E+04  0.50400001928E-02 0. -1.
       -1    1    3    3    0  502 -0.45364542940E+02  0.11523057178E+04  0.15558270085E+04  0.19366114968E+04  0.50400001928E-02 0.  1.
</event>
<event>
 5   0  0.1943459E-07  0.3848992E+04  0.7818609E-02  0.8035722E-01
        1   -1    0    0  501    0  0.00000000000E+00  0.00000000000E+00  0.10162989036E+04  0.10162989036E+04  0.50400001928E-02 0.  1.
       -1   -1    0    0    0  501  0.00000000000E+00  0.00000000000E+00 -0.36442877794E+04  0.36442877795E+04  0.50400001928E-02 0. -1.
    10030    2    1    2    0    0  0.00000000000E+00  0.00000000000E+00 -0.26279888759E+04  0.46605866830E+04  0.38489924264E+04 0.  0.
        2    1    3    3  502    0  0.88977677206E+03  0.13668199592E+04 -0.25510787583E+04  0.30278544113E+04  0.25500000920E-02 0. -1.
       -2    1    3    3    0  502 -0.88977677206E+03 -0.13668199592E+04 -0.76910117619E+02  0.16327322718E+04  0.25500000920E-02 0.  1.
</event>
<event>
 5   0  0.1860500E-07  0.3578055E+04  0.7818609E-02  0.8095537E-01
        1   -1    0    0  501    0  0.00000000000E+00  0.00000000000E+00  0.21337668775E+04  0.21337668775E+04  0.50400001928E-02 0.  1.
       -1   -1    0    0    0  501  0.00000000000E+00  0.00000000000E+00 -0.14999852370E+04  0.14999852370E+04  0.50400001928E-02 0. -1.
    10030    2    1    2    0    0  0.00000000000E+00  0.00000000000E+00  0.63378164045E+03  0.36337521145E+04  0.35780546756E+04 0.  0.
        5    1    3    3  502    0 -0.60086146110E+02 -0.14635814103E+03 -0.14928603842E+04  0.15012279197E+04  0.46999998093E+01 0. -1.
       -5    1    3    3    0  502  0.60086146110E+02  0.14635814103E+03  0.21266420246E+04  0.21325241948E+04  0.46999998093E+01 0.  1.
</event>
<event>
 5   0  0.1860500E-07  0.3966166E+04  0.7818609E-02  0.8011407E-01
        1   -1    0    0  501    0  0.00000000000E+00  0.00000000000E+00  0.16549605561E+04  0.16549605561E+04  0.50400001928E-02 0.  1.
       -1   -1    0    0    0  501  0.00000000000E+00  0.00000000000E+00 -0.23762610605E+04  0.23762610605E+04  0.50400001928E-02 0. -1.
    10030    2    1    2    0    0  0.00000000000E+00  0.00000000000E+00 -0.72130050442E+03  0.40312216167E+04  0.39661660713E+04 0.  0.
        4    1    3    3  502    0 -0.21843289367E+02  0.18391179822E+04  0.39298651337E+03  0.18807636997E+04  0.12699999809E+01 0.  1.
       -4    1    3    3    0  502  0.21843289367E+02 -0.18391179822E+04 -0.11142870178E+04  0.21504579169E+04  0.12699999809E+01 0. -1.
</event>
<event>
 5   0  0.5872444E-07  0.3868309E+04  0.7818609E-02  0.8031653E-01
       -2   -1    0    0    0  501  0.00000000000E+00  0.00000000000E+00  0.22498949949E+04  0.22498949949E+04  0.25500000920E-02 0. -1.
        2   -1    0    0  501    0  0.00000000000E+00  0.00000000000E+00 -0.16627240819E+04  0.16627240819E+04  0.25500000920E-02 0.  1.
    10030    2    1    2    0    0  0.00000000000E+00  0.00000000000E+00  0.58717091302E+03  0.39126190767E+04  0.38683094962E+04 0.  0.
        3    1    3    3  502    0  0.15378597530E+04 -0.10728054554E+04  0.77339288127E+03  0.20283147497E+04  0.10100000352E+00 0.  1.
       -3    1    3    3    0  502 -0.15378597530E+04  0.10728054554E+04 -0.18622196825E+03  0.18843043270E+04  0.10100000352E+00 0. -1.
</event>
<event>
 5   0  0.5872444E-07  0.3873173E+04  0.7818609E-02  0.8030632E-01
       -2   -1    0    0    0  501  0.00000000000E+00  0.00000000000E+00  0.12448840990E+04  0.12448840990E+04  0.25500000920E-02 0. -1.
        2   -1    0    0  501    0  0.00000000000E+00  0.00000000000E+00 -0.30126233009E+04  0.30126233009E+04  0.25500000920E-02 0.  1.
    10030    2    1    2    0    0  0.00000000000E+00  0.00000000000E+00 -0.17677392019E+04  0.42575074000E+04  0.38731727788E+04 0.  0.
        3    1    3    3  502    0 -0.14186050537E+04  0.83425771820E+02 -0.23300847087E+04  0.27292297298E+04  0.10100000352E+00 0.  1.
       -3    1    3    3    0  502  0.14186050537E+04 -0.83425771820E+02  0.56234550683E+03  0.15282776702E+04  0.10100000352E+00 0. -1.
</event>
<event>
 5   0  0.3959190E-07  0.3864872E+04  0.7818609E-02  0.8032375E-01
       -2   -1    0    0    0  501  0.00000000000E+00  0.00000000000E+00  0.18018372993E+04  0.18018372993E+04  0.25500000920E-02 0. -1.
        2   -1    0    0  501    0  0.00000000000E+00  0.00000000000E+00 -0.20725003397E+04  0.20725003397E+04  0.25500000920E-02 0.  1.
    10030    2    1    2    0    0  0.00000000000E+00  0.00000000000E+00 -0.27066304035E+03  0.38743376390E+04  0.38648717520E+04 0.  0.
        2    1    3    3  502    0 -0.16219842247E+04 -0.31661738864E+03  0.86873485024E+03  0.18670242730E+04  0.25500000920E-02 0. -1.
       -2    1    3    3    0  502  0.16219842247E+04  0.31661738864E+03 -0.11393978906E+04  0.20073133659E+04  0.25500000920E-02 0.  1.
</event>
<event>
 5   0  0.5872444E-07  0.3888230E+04  0.7818609E-02  0.8027482E-01
       -2   -1    0    0    0  501  0.00000000000E+00  0.00000000000E+00  0.15645925924E+04  0.15645925924E+04  0.25500000920E-02 0. -1.
        2   -1    0    0  501    0  0.00000000000E+00  0.00000000000E+00 -0.24156977411E+04  0.24156977411E+04  0.25500000920E-02 0.  1.
    10030    2    1    2    0    0  0.00000000000E+00  0.00000000000E+00 -0.85110514869E+03  0.39802903336E+04  0.38882298241E+04 0.  0.
        3    1    3    3  502    0  0.35417125253E+03 -0.18449550069E+04  0.86579010645E+02  0.18806361129E+04  0.10100000352E+00 0. -1.
       -3    1    3    3    0  502 -0.35417125253E+03  0.18449550069E+04 -0.93768415933E+03  0.20996542207E+04  0.10100000352E+00 0.  1.
</event>
<event>
 5   0  0.1860500E-07  0.3560619E+04  0.7818609E-02  0.8099572E-01
       -1   -1    0    0    0  501  0.00000000000E+00  0.00000000000E+00  0.13309440523E+04  0.13309440524E+04  0.50400001928E-02 0.  1.
        1   -1    0    0  501    0  0.00000000000E+00  0.00000000000E+00 -0.23813938840E+04  0.23813938840E+04  0.50400001928E-02 0. -1.
    10030    2    1    2    0    0  0.00000000000E+00  0.00000000000E+00 -0.10504498316E+04  0.37123379363E+04  0.35606190620E+04 0.  0.
        5    1    3    3  502    0  0.98320586116E+01  0.71785497685E+02 -0.23798495339E+04  0.23809568919E+04  0.46999998093E+01 0. -1.
       -5    1    3    3    0  502 -0.98320586116E+01 -0.71785497685E+02  0.13293997023E+04  0.13313810444E+04  0.46999998093E+01 0.  1.
</event>
<event>
 5   0  0.1860500E-07  0.3240356E+04  0.7818609E-02  0.8178240E-01
        1   -1    0    0  501    0  0.00000000000E+00  0.00000000000E+00  0.14988965531E+04  0.14988965531E+04  0.50400001928E-02 0.  1.
       -1   -1    0    0    0  501  0.00000000000E+00  0.00000000000E+00 -0.17512723095E+04  0.17512723095E+04  0.50400001928E-02 0. -1.
    10030    2    1    2    0    0  0.00000000000E+00  0.00000000000E+00 -0.25237575637E+03  0.32501688626E+04  0.32403555535E+04 0.  0.
        4    1    3    3  502    0  0.83523113226E+03 -0.10716178855E+04  0.75909397817E+03  0.15563422559E+04  0.12699999809E+01 0.  1.
       -4    1    3    3    0  502 -0.83523113226E+03  0.10716178855E+04 -0.10114697345E+04  0.16938266067E+04  0.12699999809E+01 0. -1.
</event>
<event>
 5   0  0.1860500E-07  0.3945116E+04  0.7818609E-02  0.8015711E-01
        1   -1    0    0  501    0  0.00000000000E+00  0.00000000000E+00  0.14696383747E+04  0.14696383747E+04  0.50400001928E-02 0. -1.
       -1   -1    0    0    0  501  0.00000000000E+00  0.00000000000E+00 -0.26475800749E+04  0.26475800749E+04  0.50400001928E-02 0.  1.
    10030    2    1    2    0    0  0.00000000000E+00  0.00000000000E+00 -0.11779417002E+04  0.41172184496E+04  0.39451161089E+04 0.  0.
        5    1    3    3  502    0  0.23562021388E+03  0.19305773617E+04 -0.24549742491E+03  0.19603410189E+04  0.46999998093E+01 0. -1.
       -5    1    3    3    0  502 -0.23562021388E+03 -0.19305773617E+04 -0.93244427530E+03  0.21568774307E+04  0.46999998093E+01 0.  1.
</event>
<event>
 5   0  0.1860500E-07  0.3756427E+04  0.7818609E-02  0.8055571E-01
        1   -1    0    0  501    0  0.00000000000E+00  0.00000000000E+00  0.19045552671E+04  0.19045552671E+04  0.50400001928E-02 0. -1.
       -1   -1    0    0    0  501  0.00000000000E+00  0.00000000000E+00 -0.18522363833E+04  0.18522363833E+04  0.50400001928E-02 0.  1.
    10030    2    1    2    0    0  0.00000000000E+00  0.00000000000E+00  0.52318883857E+02  0.37567916504E+04  0.37564273238E+04 0.  0.
        4    1    3    3  502    0 -0.41790298348E+03  0.15939463238E+04 -0.87524765180E+03  0.18658423973E+04  0.12699999809E+01 0.  1.
       -4    1    3    3    0  502  0.41790298348E+03 -0.15939463238E+04  0.92756653565E+03  0.18909492531E+04  0.12699999809E+01 0. -1.
</event>
<event>
 5   0  0.5872444E-07  0.3584780E+04  0.7818609E-02  0.8093987E-01
       -2   -1    0    0    0  501  0.00000000000E+00  0.00000000000E+00  0.15355838502E+04  0.15355838502E+04  0.25500000920E-02 0.  1.
        2   -1    0    0  501    0  0.00000000000E+00  0.00000000000E+00 -0.20921431982E+04  0.20921431982E+04  0.25500000920E-02 0. -1.
    10030    2    1    2    0    0  0.00000000000E+00  0.00000000000E+00 -0.55655934803E+03  0.36277270484E+04  0.35847796627E+04 0.  0.
        3    1    3    3  502    0 -0.14170705893E+04 -0.15969508438E+03 -0.13771384466E+04  0.19824484574E+04  0.10100000352E+00 0. -1.
       -3    1    3    3    0  502  0.14170705893E+04  0.15969508438E+03  0.82057909852E+03  0.16452785910E+04  0.10100000352E+00 0.  1.
</event>
<event>
 5   0  0.1876027E-07  0.3925137E+04  0.7818609E-02  0.8019821E-01
        1   -1    0    0  501    0  0.00000000000E+00  0.00000000000E+00  0.17807223485E+04  0.17807223485E+04  0.50400001928E-02 0. -1.
       -1   -1    0    0    0  501  0.00000000000E+00  0.00000000000E+00 -0.21629850474E+04  0.21629850474E+04  0.50400001928E-02 0.  1.
    10030    2    1    2    0    0  0.00000000000E+00  0.00000000000E+00 -0.38226269883E+03  0.39437073959E+04  0.39251373547E+04 0.  0.
        3    1    3    3  502    0 -0.15598543503E+04  0.71388115903E+03 -0.11490062851E+04  0.20647003068E+04  0.10100000352E+00 0.  1.
       -3    1    3    3    0  502  0.15598543503E+04 -0.71388115903E+03  0.76674358631E+03  0.18790070891E+04  0.10100000352E+00 0. -1.
</event>
<event>
 5   0  0.5735179E-07  0.3879384E+04  0.7818609E-02  0.8029331E-01
        2   -1    0    0  501    0  0.00000000000E+00  0.00000000000E+00  0.17541390938E+04  0.17541390938E+04  0.25500000920E-02 0.  1.
       -2   -1    0    0    0  501  0.00000000000E+00  0.00000000000E+00 -0.21448723569E+04  0.21448723569E+04  0.25500000920E-02 0. -1.
    10030    2    1    2    0    0  0.00000000000E+00  0.00000000000E+00 -0.39073326311E+03  0.38990114507E+04  0.38793836894E+04 0.  0.
        5    1    3    3  502    0 -0.19274188395E+04 -0.14787036144E+03 -0.35609238329E+03  0.19656126022E+04  0.46999998093E+01 0.  1.
       -5    1    3    3    0  502  0.19274188395E+04  0.14787036144E+03 -0.34640879822E+02  0.19333988484E+04  0.46999998093E+01 0. -1.
</event>
<event>
 5   0  0.5872444E-07  0.3910449E+04  0.7818609E-02  0.8022860E-01
        2   -1    0    0  501    0  0.00000000000E+00  0.00000000000E+00  0.21713458706E+04  0.21713458706E+04  0.25500000920E-02 0.  1.
       -2   -1    0    0    0  501  0.00000000000E+00  0.00000000000E+00 -0.17606143125E+04  0.17606143125E+04  0.25500000920E-02 0. -1.
    10030    2    1    2    0    0  0.00000000000E+00  0.00000000000E+00  0.41073155806E+03  0.39319601830E+04  0.39104488832E+04 0.  0.
        3    1    3    3  502    0  0.85618999885E+03 -0.15421825753E+04 -0.64278737840E+03  0.18773822290E+04  0.10100000352E+00 0. -1.
       -3    1    3    3    0  502 -0.85618999885E+03  0.15421825753E+04  0.10535189365E+04  0.20545779541E+04  0.10100000352E+00 0.  1.
</event>
<event>
 5   0  0.2974493E-07  0.2455017E+04  0.7818609E-02  0.8419189E-01
        1   -1    0    0  501    0  0.00000000000E+00  0.00000000000E+00  0.13686967871E+04  0.13686967871E+04  0.50400001928E-02 0.  1.
       -1   -1    0    0    0  501  0.00000000000E+00  0.00000000000E+00 -0.11008845005E+04  0.11008845005E+04  0.50400001928E-02 0. -1.
    10030    2    1    2    0    0  0.00000000000E+00  0.00000000000E+00  0.26781228657E+03  0.24695812876E+04  0.24550169684E+04 0.  0.
        3    1    3    3  502    0 -0.73953255912E+03  0.36136458239E+03 -0.78214674756E+03  0.11354498282E+04  0.10100000352E+00 0. -1.
       -3    1    3    3    0  502  0.73953255912E+03 -0.36136458239E+03  0.10499590341E+04  0.13341314594E+04  0.10100000352E+00 0.  1.
</event>
<event>
 5   0  0.6095665E-07  0.3748235E+04  0.7818609E-02  0.8057356E-01
        2   -1    0    0  501    0  0.00000000000E+00  0.00000000000E+00  0.20242811918E+04  0.20242811918E+04  0.25500000920E-02 0. -1.
       -2   -1    0    0    0  501  0.00000000000E+00  0.00000000000E+00 -0.17350932784E+04  0.17350932784E+04  0.25500000920E-02 0.  1.
    10030    2    1    2    0    0  0.00000000000E+00  0.00000000000E+00  0.28918791341E+03  0.37593744702E+04  0.37482351525E+04 0.  0.
        4    1    3    3  502    0  0.50513181910E+03 -0.43137018350E+02  0.19541998783E+04  0.20188902235E+04  0.12699999809E+01 0. -1.
       -4    1    3    3    0  502 -0.50513181910E+03  0.43137018350E+02 -0.16650119649E+04  0.17404842468E+04  0.12699999809E+01 0.  1.
</event>
<event>
 5   0  0.5735179E-07  0.3838358E+04  0.7818609E-02  0.8037973E-01
       -2   -1    0    0    0  501  0.00000000000E+00  0.00000000000E+00  0.17262951009E+04  0.17262951009E+04  0.25500000920E-02 0. -1.
        2   -1    0    0  501    0  0.00000000000E+00  0.00000000000E+00 -0.21336148251E+04  0.21336148251E+04  0.25500000920E-02 0.  1.
    10030    2    1    2    0    0  0.00000000000E+00  0.00000000000E+00 -0.40731972418E+03  0.38599099260E+04  0.38383584094E+04 0.  0.
        5    1    3    3  502    0 -0.86589825099E+02 -0.93071962492E+03 -0.18892243927E+04  0.21078253519E+04  0.46999998093E+01 0.  1.
       -5    1    3    3    0  502  0.86589825099E+02  0.93071962492E+03  0.14819046685E+04  0.17520845741E+04  0.46999998093E+01 0. -1.
</event>
<event>
 5   0  0.1943459E-07  0.3916471E+04  0.7818609E-02  0.8021612E-01
       -1   -1    0    0    0  501  0.00000000000E+00  0.00000000000E+00  0.23497078851E+04  0.23497078851E+04  0.50400001928E-02 0.  1.
        1   -1    0    0  501    0  0.00000000000E+00  0.00000000000E+00 -0.16319844665E+04  0.16319844665E+04  0.50400001928E-02 0. -1.
    10030    2    1    2    0    0  0.00000000000E+00  0.00000000000E+00  0.71772341857E+03  0.39816923516E+04  0.39164712532E+04 0.  0.
        2    1    3    3  502    0 -0.11497692434E+04 -0.94594972286E+03 -0.93428600332E+03  0.17577487099E+04  0.25500000920E-02 0. -1.
       -2    1    3    3    0  502  0.11497692434E+04  0.94594972286E+03  0.16520094219E+04  0.22239436417E+04  0.25500000920E-02 0.  1.
</event>
<event>
 5   0  0.1860500E-07  0.3997385E+04  0.7818609E-02  0.8005074E-01
       -1   -1    0    0    0  501  0.00000000000E+00  0.00000000000E+00  0.18630422133E+04  0.18630422133E+04  0.50400001928E-02 0. -1.
        1   -1    0    0  501    0  0.00000000000E+00  0.00000000000E+00 -0.21442193193E+04  0.21442193193E+04  0.50400001928E-02 0.  1.
    10030    2    1    2    0    0  0.00000000000E+00  0.00000000000E+00 -0.28117710604E+03  0.40072615326E+04  0.39973846982E+04 0.  0.
        4    1    3    3  502    0  0.13541332509E+04 -0.27282796312E+01  0.13331067020E+04  0.19002261435E+04  0.12699999809E+01 0. -1.
       -4    1    3    3    0  502 -0.13541332509E+04  0.27282796312E+01 -0.16142838080E+04  0.21070353890E+04  0.12699999809E+01 0.  1.
</event>
<event>
 5   0  0.1876027E-07  0.3918249E+04  0.7818609E-02  0.8021244E-01
        1   -1    0    0  501    0  0.00000000000E+00  0.00000000000E+00  0.30293513639E+04  0.30293513639E+04  0.50400001928E-02 0.  1.
       -1   -1    0    0    0  501  0.00000000000E+00  0.00000000000E+00 -0.12669938835E+04  0.12669938835E+04  0.50400001928E-02 0. -1.
    10030    2    1    2    0    0  0.00000000000E+00  0.00000000000E+00  0.17623574804E+04  0.42963452474E+04  0.39182494301E+04 0.  0.
        3    1    3    3  502    0 -0.97679393433E+03 -0.14725588582E+04 -0.46390641791E+02  0.17676843844E+04  0.10100000352E+00 0. -1.
       -3    1    3    3    0  502  0.97679393433E+03  0.14725588582E+04  0.18087481222E+04  0.25286608631E+04  0.10100000352E+00 0.  1.
</event>
<event>
 5   0  0.1860500E-07  0.3850169E+04  0.7818609E-02  0.8035474E-01
       -1   -1    0    0    0  501  0.00000000000E+00  0.00000000000E+00  0.18055032099E+04  0.18055032099E+04  0.50400001928E-02 0. -1.
        1   -1    0    0  501    0  0.00000000000E+00  0.00000000000E+00 -0.20525854294E+04  0.20525854295E+04  0.50400001928E-02 0.  1.
    10030    2    1    2    0    0  0.00000000000E+00  0.00000000000E+00 -0.24708221954E+03  0.38580886394E+04  0.38501686101E+04 0.  0.
        5    1    3    3  502    0 -0.39573958120E+03 -0.54160226458E+03  0.16846054424E+04  0.18132458233E+04  0.46999998093E+01 0. -1.
       -5    1    3    3    0  502  0.39573958120E+03  0.54160226458E+03 -0.19316876619E+04  0.20448428161E+04  0.46999998093E+01 0.  1.
</event>
<event>
 5   0  0.5805753E-07  0.2534796E+04  0.7818609E-02  0.8390693E-01
        2   -1    0    0  501    0  0.00000000000E+00  0.00000000000E+00  0.23360784365E+04  0.23360784365E+04  0.25500000920E-02 0.  1.
       -2   -1    0    0    0  501  0.00000000000E+00  0.00000000000E+00 -0.68760445773E+03  0.68760445773E+03  0.25500000920E-02 0. -1.
    10030    2    1    2    0    0  0.00000000000E+00  0.00000000000E+00  0.16484739788E+04  0.30236828942E+04  0.25347962021E+04 0.  0.
        1    1    3    3  502    0 -0.51168930806E+03 -0.11261840764E+04  0.49499308710E+03  0.13323418023E+04  0.50400001928E-02 0.  1.
       -1    1    3    3    0  502  0.51168930806E+03  0.11261840764E+04  0.11534808917E+04  0.16913410919E+04  0.50400001928E-02 0. -1.
</event>
<event>
 5   0  0.1860500E-07  0.2761721E+04  0.7818609E-02  0.8315252E-01
        1   -1    0    0  501    0  0.00000000000E+00  0.00000000000E+00  0.13569878857E+04  0.13569878857E+04  0.50400001928E-02 0. -1.
       -1   -1    0    0    0  501  0.00000000000E+00  0.00000000000E+00 -0.14051525847E+04  0.14051525847E+04  0.50400001928E-02 0.  1.
    10030    2    1    2    0    0  0.00000000000E+00  0.00000000000E+00 -0.48164699011E+02  0.27621404704E+04  0.27617205036E+04 0.  0.
        4    1    3    3  502    0 -0.11736520835E+04  0.11898328282E+02  0.70347080355E+03  0.13683835601E+04  0.12699999809E+01 0. -1.
       -4    1    3    3    0  502  0.11736520835E+04 -0.11898328282E+02 -0.75163550256E+03  0.13937569103E+04  0.12699999809E+01 0.  1.
</event>
<event>
 5   0  0.5805753E-07  0.3843564E+04  0.7818609E-02  0.8036870E-01
       -2   -1    0    0    0  501  0.00000000000E+00  0.00000000000E+00  0.23738079294E+04  0.23738079294E+04  0.25500000920E-02 0. -1.
        2   -1    0    0  501    0  0.00000000000E+00  0.00000000000E+00 -0.15558322198E+04  0.15558322198E+04  0.25500000920E-02 0.  1.
    10030    2    1    2    0    0  0.00000000000E+00  0.00000000000E+00  0.81797570953E+03  0.39296401492E+04  0.38435644187E+04 0.  0.
        1    1    3    3  502    0 -0.30780168228E+03 -0.16303347210E+04 -0.58253145597E+03  0.17584300030E+04  0.50400001928E-02 0.  1.
       -1    1    3    3    0  502  0.30780168228E+03  0.16303347210E+04  0.14005071655E+04  0.21712101462E+04  0.50400001928E-02 0. -1.
</event>
<event>
 5   0  0.2751484E-07  0.2472182E+04  0.7818609E-02  0.8412963E-01
       -1   -1    0    0    0  501  0.00000000000E+00  0.00000000000E+00  0.10621033881E+04  0.10621033882E+04  0.50400001928E-02 0. -1.
        1   -1    0    0  501    0  0.00000000000E+00  0.00000000000E+00 -0.14385799633E+04  0.14385799633E+04  0.50400001928E-02 0.  1.
    10030    2    1    2    0    0  0.00000000000E+00  0.00000000000E+00 -0.37647657515E+03  0.25006833515E+04  0.24721817515E+04 0.  0.
        3    1    3    3  502    0 -0.37879386545E+02  0.74770604676E+03 -0.11831537157E+04  0.14001256749E+04  0.10100000352E+00 0.  1.
       -3    1    3    3    0  502  0.37879386545E+02 -0.74770604676E+03  0.80667714052E+03  0.11005576766E+04  0.10100000352E+00 0. -1.
</event>
<event>
 5   0  0.5735179E-07  0.2573512E+04  0.7818609E-02  0.8377255E-01
       -2   -1    0    0    0  501  0.00000000000E+00  0.00000000000E+00  0.10804830964E+04  0.10804830964E+04  0.25500000920E-02 0.  1.
        2   -1    0    0  501    0  0.00000000000E+00  0.00000000000E+00 -0.15324083580E+04  0.15324083580E+04  0.25500000920E-02 0. -1.
    10030    2    1    2    0    0  0.00000000000E+00  0.00000000000E+00 -0.45192526164E+03  0.26128914544E+04  0.25735122518E+04 0.  0.
        5    1    3    3  502    0  0.10943069535E+04 -0.10031808971E+02  0.46123307524E+03  0.11875884747E+04  0.46999998093E+01 0.  1.
       -5    1    3    3    0  502 -0.10943069535E+04  0.10031808971E+02 -0.91315833687E+03  0.14253029797E+04  0.46999998093E+01 0. -1.
</event>
<event>
 5   0  0.1860500E-07  0.3663642E+04  0.7818609E-02  0.8076067E-01
        1   -1    0    0  501    0  0.00000000000E+00  0.00000000000E+00  0.15954907889E+04  0.15954907889E+04  0.50400001928E-02 0. -1.
       -1   -1    0    0    0  501  0.00000000000E+00  0.00000000000E+00 -0.21031574852E+04  0.21031574853E+04  0.50400001928E-02 0.  1.
    10030    2    1    2    0    0  0.00000000000E+00  0.00000000000E+00 -0.50766669635E+03  0.36986482742E+04  0.36636421197E+04 0.  0.
        5    1    3    3  502    0 -0.21141589082E+03  0.17869180471E+04 -0.60029391930E+03  0.18968784003E+04  0.46999998093E+01 0.  1.
       -5    1    3    3    0  502  0.21141589082E+03 -0.17869180471E+04  0.92627222957E+02  0.18017698739E+04  0.46999998093E+01 0. -1.
</event>
<event>
 5   0  0.5872444E-07  0.3366035E+04  0.7818609E-02  0.8146293E-01
        2   -1    0    0  501    0  0.00000000000E+00  0.00000000000E+00  0.27828398554E+04  0.27828398554E+04  0.25500000920E-02 0. -1.
       -2   -1    0    0    0  501  0.00000000000E+00  0.00000000000E+00 -0.10178621966E+04  0.10178621966E+04  0.25500000920E-02 0.  1.
    10030    2    1    2    0    0  0.00000000000E+00  0.00000000000E+00  0.17649776589E+04  0.38007020520E+04  0.33660347520E+04 0.  0.
        3    1    3    3  502    0 -0.14666884687E+03 -0.94743374794E+03 -0.67939484129E+03  0.11750403474E+04  0.10100000352E+00 0.  1.
       -3    1    3    3    0  502  0.14666884687E+03  0.94743374794E+03  0.24443725002E+04  0.26256617046E+04  0.10100000352E+00 0. -1.
</event>
<event>
 5   0  0.5872444E-07  0.3646633E+04  0.7818609E-02  0.8079893E-01
       -2   -1    0    0    0  501  0.00000000000E+00  0.00000000000E+00  0.20272686400E+04  0.20272686400E+04  0.25500000920E-02 0.  1.
        2   -1    0    0  501    0  0.00000000000E+00  0.00000000000E+00 -0.16398827653E+04  0.16398827653E+04  0.25500000920E-02 0. -1.
    10030    2    1    2    0    0  0.00000000000E+00  0.00000000000E+00  0.38738587463E+03  0.36671514053E+04  0.36466329146E+04 0.  0.
        3    1    3    3  502    0  0.59133578569E+03 -0.33779381629E+03 -0.15071842960E+04  0.16539005974E+04  0.10100000352E+00 0. -1.
       -3    1    3    3    0  502 -0.59133578569E+03  0.33779381629E+03  0.18945701707E+04  0.20132508079E+04  0.10100000352E+00 0.  1.
</event>
<event>
 5   0  0.5735179E-07  0.3672246E+04  0.7818609E-02  0.8074140E-01
       -2   -1    0    0    0  501  0.00000000000E+00  0.00000000000E+00  0.14144020621E+04  0.14144020621E+04  0.25500000920E-02 0.  1.
        2   -1    0    0  501    0  0.00000000000E+00  0.00000000000E+00 -0.23835852170E+04  0.23835852170E+04  0.25500000920E-02 0. -1.
    10030    2    1    2    0    0  0.00000000000E+00  0.00000000000E+00 -0.96918315490E+03  0.37979872791E+04  0.36722460953E+04 0.  0.
        5    1    3    3  502    0  0.62981973561E+03 -0.17221500373E+04 -0.58189878838E+03  0.19238248206E+04  0.46999998093E+01 0. -1.
       -5    1    3    3    0  502 -0.62981973561E+03  0.17221500373E+04 -0.38728436653E+03  0.18741624585E+04  0.46999998093E+01 0.  1.
</event>
<event>
 5   0  0.1860500E-07  0.2442321E+04  0.7818609E-02  0.8423827E-01
        1   -1    0    0  501    0  0.00000000000E+00  0.00000000000E+00  0.92399281109E+03  0.92399281111E+03  0.50400001928E-02 0.  1.
       -1   -1    0    0    0  501  0.00000000000E+00  0.00000000000E+00 -0.16139005597E+04  0.16139005597E+04  0.50400001928E-02 0. -1.
    10030    2    1    2    0    0  0.00000000000E+00  0.00000000000E+00 -0.68990774862E+03  0.25378933708E+04  0.24423206301E+04 0.  0.
        4    1    3    3  502    0 -0.38841705213E+03 -0.84995381875E+03  0.47190007014E+03  0.10468909158E+04  0.12699999809E+01 0.  1.
       -4    1    3    3    0  502  0.38841705213E+03  0.84995381875E+03 -0.11618078188E+04  0.14910024551E+04  0.12699999809E+01 0. -1.
</event>
<event>
 5   0  0.3959190E-07  0.3692537E+04  0.7818609E-02  0.8069618E-01
        2   -1    0    0  501    0  0.00000000000E+00  0.00000000000E+00  0.19176075314E+04  0.19176075314E+04  0.25500000920E-02 0.  1.
       -2   -1    0    0    0  501  0.00000000000E+00  0.00000000000E+00 -0.17775834715E+04  0.17775834715E+04  0.25500000920E-02 0. -1.
    10030    2    1    2    0    0  0.00000000000E+00  0.00000000000E+00  0.14002405990E+03  0.36951910030E+04  0.36925370426E+04 0.  0.
        2    1    3    3  502    0 -0.35715697297E+03  0.40964070244E+03  0.18357463799E+04  0.19145055184E+04  0.25500000920E-02 0.  1.
       -2    1    3    3    0  502  0.35715697297E+03 -0.40964070244E+03 -0.16957223200E+04  0.17806854846E+04  0.25500000920E-02 0. -1.
</event>
<event>
 5   0  0.5805753E-07  0.3965417E+04  0.7818609E-02  0.8011560E-01
        2   -1    0    0  501    0  0.00000000000E+00  0.00000000000E+00  0.20866575812E+04  0.20866575812E+04  0.25500000920E-02 0. -1.
       -2   -1    0    0    0  501  0.00000000000E+00  0.00000000000E+00 -0.18839379966E+04  0.18839379966E+04  0.25500000920E-02 0.  1.
    10030    2    1    2    0    0  0.00000000000E+00  0.00000000000E+00  0.20271958469E+03  0.39705955778E+04  0.39654172558E+04 0.  0.
        1    1    3    3  502    0 -0.16059667169E+04 -0.10193070619E+04  0.66157008827E+03  0.20138994423E+04  0.50400001928E-02 0.  1.
       -1    1    3    3    0  502  0.16059667169E+04  0.10193070619E+04 -0.45885050358E+03  0.19566961355E+04  0.50400001928E-02 0. -1.
</event>
<event>
 5   0  0.3053844E-07  0.2451175E+04  0.7818609E-02  0.8420589E-01
        1   -1    0    0  501    0  0.00000000000E+00  0.00000000000E+00  0.17167838484E+04  0.17167838484E+04  0.50400001928E-02 0. -1.
       -1   -1    0    0    0  501  0.00000000000E+00  0.00000000000E+00 -0.87492915387E+03  0.87492915388E+03  0.50400001928E-02 0.  1.
    10030    2    1    2    0    0  0.00000000000E+00  0.00000000000E+00  0.84185469453E+03  0.25917130023E+04  0.24511746081E+04 0.  0.
        1    1    3    3  502    0 -0.24874238258E+03 -0.10502447900E+04  0.10348898584E+04  0.14952872336E+04  0.50400001928E-02 0. -1.
       -1    1    3    3    0  502  0.24874238258E+03  0.10502447900E+04 -0.19303516391E+03  0.10964257687E+04  0.50400001928E-02 0.  1.
</event>
<event>
 5   0  0.5805753E-07  0.3869597E+04  0.7818609E-02  0.8031382E-01
        2   -1    0    0  501    0  0.00000000000E+00  0.00000000000E+00  0.24753156537E+04  0.24753156537E+04  0.25500000920E-02 0.  1.
       -2   -1    0    0    0  501  0.00000000000E+00  0.00000000000E+00 -0.15123102473E+04  0.15123102473E+04  0.25500000920E-02 0. -1.
    10030    2    1    2    0    0  0.00000000000E+00  0.00000000000E+00  0.96300540640E+03  0.39876259010E+04  0.38695969963E+04 0.  0.
        1    1    3    3  502    0  0.17553867132E+04  0.69683849837E+03  0.48595342741E+02  0.18892665013E+04  0.50400001928E-02 0. -1.
       -1    1    3    3    0  502 -0.17553867132E+04 -0.69683849837E+03  0.91441006366E+03  0.20983593997E+04  0.50400001928E-02 0.  1.
</event>
<event>
 5   0  0.1869420E-07  0.2442344E+04  0.7818609E-02  0.8423819E-01
       -1   -1    0    0    0  501  0.00000000000E+00  0.00000000000E+00  0.11310506587E+04  0.11310506588E+04  0.50400001928E-02 0. -1.
        1   -1    0    0  501    0  0.00000000000E+00  0.00000000000E+00 -0.13184737268E+04  0.13184737268E+04  0.50400001928E-02 0.  1.
    10030    2    1    2    0    0  0.00000000000E+00  0.00000000000E+00 -0.18742306809E+03  0.24495243856E+04  0.24423436100E+04 0.  0.
        4    1    3    3  502    0  0.28323140849E+03  0.10559995513E+04 -0.63928134917E+03  0.12665059571E+04  0.12699999809E+01 0.  1.
       -4    1    3    3    0  502 -0.28323140849E+03 -0.10559995513E+04  0.45185828108E+03  0.11830184285E+04  0.12699999809E+01 0. -1.
</event>
<event>
 5   0  0.5872444E-07  0.3920942E+04  0.7818609E-02  0.8020688E-01
        2   -1    0    0  501    0  0.00000000000E+00  0.00000000000E+00  0.23019520473E+04  0.23019520473E+04  0.25500000920E-02 0. -1.
       -2   -1    0    0    0  501  0.00000000000E+00  0.00000000000E+00 -0.16696469562E+04  0.16696469562E+04  0.25500000920E-02 0.  1.
    10030    2    1    2    0    0  0.00000000000E+00  0.00000000000E+00  0.63230509114E+03  0.39715990036E+04  0.39209423506E+04 0.  0.
        3    1    3    3  502    0 -0.10449285828E+04  0.93948723883E+03  0.17009047285E+04  0.22062612993E+04  0.10100000352E+00 0. -1.
       -3    1    3    3    0  502  0.10449285828E+04 -0.93948723883E+03 -0.10685996373E+04  0.17653377043E+04  0.10100000352E+00 0.  1.
</event>
<event>
 5   0  0.1876027E-07  0.2942129E+04  0.7818609E-02  0.8260452E-01
       -1   -1    0    0    0  501  0.00000000000E+00  0.00000000000E+00  0.15751307890E+04  0.15751307890E+04  0.50400001928E-02 0.  1.
        1   -1    0    0  501    0  0.00000000000E+00  0.00000000000E+00 -0.13738740775E+04  0.13738740775E+04  0.50400001928E-02 0. -1.
    10030    2    1    2    0    0  0.00000000000E+00  0.00000000000E+00  0.20125671150E+03  0.29490048666E+04  0.29421294056E+04 0.  0.
        3    1    3    3  502    0 -0.67063264190E+03  0.11536195151E+04 -0.52004826183E+03  0.14321439630E+04  0.10100000352E+00 0.  1.
       -3    1    3    3    0  502  0.67063264190E+03 -0.11536195151E+04  0.72130497332E+03  0.15168609035E+04  0.10100000352E+00 0. -1.
</event>
<event>
 5   0  0.3959190E-07  0.2937278E+04  0.7818609E-02  0.8261872E-01
        2   -1    0    0  501    0  0.00000000000E+00  0.00000000000E+00  0.14774531462E+04  0.14774531462E+04  0.25500000920E-02 0. -1.
       -2   -1    0    0    0  501  0.00000000000E+00  0.00000000000E+00 -0.14598778864E+04  0.14598778864E+04  0.25500000920E-02 0.  1.
    10030    2    1    2    0    0  0.00000000000E+00  0.00000000000E+00  0.17575259812E+02  0.29373310326E+04  0.29372784522E+04 0.  0.
        2    1    3    3  502    0 -0.42658977211E+03  0.95280821454E+03  0.10418012083E+04  0.14748464615E+04  0.25500000920E-02 0. -1.
       -2    1    3    3    0  502  0.42658977211E+03 -0.95280821454E+03 -0.10242259485E+04  0.14624845712E+04  0.25500000920E-02 0.  1.
</event>
<event>
 5   0  0.1860500E-07  0.3891488E+04  0.7818609E-02  0.8026802E-01
        1   -1    0    0  501    0  0.00000000000E+00  0.00000000000E+00  0.19433704936E+04  0.19433704936E+04  0.50400001928E-02 0.  1.
       -1   -1    0    0    0  501  0.00000000000E+00  0.00000000000E+00 -0.19481207048E+04  0.19481207049E+04  0.50400001928E-02 0. -1.
    10030    2    1    2    0    0  0.00000000000E+00  0.00000000000E+00 -0.47502112872E+01  0.38914911984E+04  0.38914882992E+04 0.  0.
        5    1    3    3  502    0 -0.18679145800E+04  0.71968957808E+02 -0.54238828263E+03  0.19464047750E+04  0.46999998093E+01 0.  1.
       -5    1    3    3    0  502  0.18679145800E+04 -0.71968957808E+02  0.53763807134E+03  0.19450864234E+04  0.46999998093E+01 0. -1.
</event>
<event>
 5   0  0.1943459E-07  0.3171185E+04  0.7818609E-02  0.8196469E-01
        1   -1    0    0  501    0  0.00000000000E+00  0.00000000000E+00  0.16254965839E+04  0.16254965839E+04  0.50400001928E-02 0. -1.
       -1   -1    0    0    0  501  0.00000000000E+00  0.00000000000E+00 -0.15466682902E+04  0.15466682902E+04  0.50400001928E-02 0.  1.
    10030    2    1    2    0    0  0.00000000000E+00  0.00000000000E+00  0.78828293759E+02  0.31721648741E+04  0.31711852814E+04 0.  0.
        2    1    3    3  502    0 -0.98010367055E+03 -0.10864581581E+04 -0.57160142889E+03  0.15708987007E+04  0.25500000920E-02 0.  1.
       -2    1    3    3    0  502  0.98010367055E+03  0.10864581581E+04  0.65042972265E+03  0.16012661735E+04  0.25500000920E-02 0. -1.
</event>
<event>
 5   0  0.1860500E-07  0.3834022E+04  0.7818609E-02  0.8038893E-01
        1   -1    0    0  501    0  0.00000000000E+00  0.00000000000E+00  0.16400895526E+04  0.16400895526E+04  0.50400001928E-02 0.  1.
       -1   -1    0    0    0  501  0.00000000000E+00  0.00000000000E+00 -0.22406895910E+04  0.22406895910E+04  0.50400001928E-02 0. -1.
    10030    2    1    2    0    0  0.00000000000E+00  0.00000000000E+00 -0.60060003846E+03  0.38807791436E+04  0.38340222163E+04 0.  0.
        5    1    3    3  502    0  0.17185292020E+03 -0.18046330075E+04 -0.93134169511E+03  0.20380513146E+04  0.46999998093E+01 0. -1.
       -5    1    3    3    0  502 -0.17185292020E+03  0.18046330075E+04  0.33074165665E+03  0.18427278289E+04  0.46999998093E+01 0.  1.
</event>
<event>
 5   0  0.5872444E-07  0.3890673E+04  0.7818609E-02  0.8026972E-01
       -2   -1    0    0    0  501  0.00000000000E+00  0.00000000000E+00  0.16638079594E+04  0.16638079594E+04  0.25500000920E-02 0.  1.
        2   -1    0    0  501    0  0.00000000000E+00  0.00000000000E+00 -0.22745021897E+04  0.22745021897E+04  0.25500000920E-02 0. -1.
    10030    2    1    2    0    0  0.00000000000E+00  0.00000000000E+00 -0.61069423031E+03  0.39383101491E+04  0.38906733848E+04 0.  0.
        3    1    3    3  502    0 -0.12822423017E+04 -0.34831290873E+03 -0.17436126161E+04  0.21921797754E+04  0.10100000352E+00 0. -1.
       -3    1    3    3    0  502  0.12822423017E+04  0.34831290873E+03  0.11329183858E+04  0.17461303736E+04  0.10100000352E+00 0.  1.
</event>
<event>
 5   0  0.1860500E-07  0.3979087E+04  0.7818609E-02  0.8008779E-01
        1   -1    0    0  501    0  0.00000000000E+00  0.00000000000E+00  0.21297794117E+04  0.21297794117E+04  0.50400001928E-02 0.  1.
       -1   -1    0    0    0  501  0.00000000000E+00  0.00000000000E+00 -0.18585410208E+04  0.18585410208E+04  0.50400001928E-02 0. -1.
    10030    2    1    2    0    0  0.00000000000E+00  0.00000000000E+00  0.27123839092E+03  0.39883204325E+04  0.39790865293E+04 0.  0.
        5    1    3    3  502    0  0.12385117938E+04  0.10488098198E+04  0.12890924392E+04  0.20726058256E+04  0.46999998093E+01 0. -1.
       -5    1    3    3    0  502 -0.12385117938E+04 -0.10488098198E+04 -0.10178540482E+04  0.19157146069E+04  0.46999998093E+01 0.  1.
</event>
<event>
 5   0  0.5805753E-07  0.3275294E+04  0.7818609E-02  0.8169210E-01
        2   -1    0    0  501    0  0.00000000000E+00  0.00000000000E+00  0.33164107236E+04  0.33164107236E+04  0.25500000920E-02 0. -1.
       -2   -1    0    0    0  501  0.00000000000E+00  0.00000000000E+00 -0.80867167301E+03  0.80867167302E+03  0.25500000920E-02 0.  1.
    10030    2    1    2    0    0  0.00000000000E+00  0.00000000000E+00  0.25077390506E+04  0.41250823966E+04  0.32752938239E+04 0.  0.
        1    1    3    3  502    0  0.13652295796E+04  0.90433131655E+03  0.12351687213E+04  0.20511725196E+04  0.50400001928E-02 0. -1.
       -1    1    3    3    0  502 -0.13652295796E+04 -0.90433131655E+03  0.12725703292E+04  0.20739098770E+04  0.50400001928E-02 0.  1.
</event>
<event>
 5   0  0.5872444E-07  0.3664136E+04  0.7818609E-02  0.8075956E-01
        2   -1    0    0  501    0  0.00000000000E+00  0.00000000000E+00  0.11618432604E+04  0.11618432604E+04  0.25500000920E-02 0. -1.
       -2   -1    0    0    0  501  0.00000000000E+00  0.00000000000E+00 -0.28889210805E+04  0.28889210805E+04  0.25500000920E-02 0.  1.
    10030    2    1    2    0    0  0.00000000000E+00  0.00000000000E+00 -0.17270778202E+04  0.40507643409E+04  0.36641361804E+04 0.  0.
        3    1    3    3  502    0 -0.31201579984E+03 -0.12754082070E+04  0.54895240042E+03  0.14231544899E+04  0.10100000352E+00 0. -1.
       -3    1    3    3    0  502  0.31201579984E+03  0.12754082070E+04 -0.22760302206E+04  0.26276098510E+04  0.10100000352E+00 0.  1.
</event>
<event>
 5   0  0.5735179E-07  0.4003459E+04  0.7818609E-02  0.8003849E-01
       -2   -1    0    0    0  501  0.00000000000E+00  0.00000000000E+00  0.13207777736E+04  0.13207777736E+04  0.25500000920E-02 0. -1.
        2   -1    0    0  501    0  0.00000000000E+00  0.00000000000E+00 -0.30337586778E+04  0.30337586778E+04  0.25500000920E-02 0.  1.
    10030    2    1    2    0    0  0.00000000000E+00  0.00000000000E+00 -0.17129809042E+04  0.43545364514E+04  0.40034590204E+04 0.  0.
        5    1    3    3  502    0 -0.96539206479E+03  0.11126807689E+04  0.61766881542E+03  0.15973657026E+04  0.46999998093E+01 0. -1.
       -5    1    3    3    0  502  0.96539206479E+03 -0.11126807689E+04 -0.23306497197E+04  0.27571707488E+04  0.46999998093E+01 0.  1.
</event>
<event>
 5   0  0.1860500E-07  0.3996742E+04  0.7818609E-02  0.8005204E-01
       -1   -1    0    0    0  501  0.00000000000E+00  0.00000000000E+00  0.22591803883E+04  0.22591803883E+04  0.50400001928E-02 0.  1.
        1   -1    0    0  501    0  0.00000000000E+00  0.00000000000E+00 -0.17676701394E+04  0.17676701394E+04  0.50400001928E-02 0. -1.
    10030    2    1    2    0    0  0.00000000000E+00  0.00000000000E+00  0.49151024890E+03  0.40268505277E+04  0.39967415287E+04 0.  0.
        5    1    3    3  502    0  0.30751094574E+03  0.79702948521E+03  0.20659206255E+04  0.22355914437E+04  0.46999998093E+01 0.  1.
       -5    1    3    3    0  502 -0.30751094574E+03 -0.79702948521E+03 -0.15744103766E+04  0.17912590840E+04  0.46999998093E+01 0. -1.
</event>
<event>
 5   0  0.1860500E-07  0.3926575E+04  0.7818609E-02  0.8019525E-01
       -1   -1    0    0    0  501  0.00000000000E+00  0.00000000000E+00  0.11198462900E+04  0.11198462900E+04  0.50400001928E-02 0.  1.
        1   -1    0    0  501    0  0.00000000000E+00  0.00000000000E+00 -0.34419884267E+04  0.34419884267E+04  0.50400001928E-02 0. -1.
    10030    2    1    2    0    0  0.00000000000E+00  0.00000000000E+00 -0.23221421367E+04  0.45618347168E+04  0.39265750827E+04 0.  0.
        5    1    3    3  502    0 -0.14513300475E+04 -0.82930980790E+03  0.35263802222E+02  0.16719387818E+04  0.46999998093E+01 0.  1.
       -5    1    3    3    0  502  0.14513300475E+04  0.82930980790E+03 -0.23574059389E+04  0.28898959350E+04  0.46999998093E+01 0. -1.
</event>
<event>
 5   0  0.5872444E-07  0.3567680E+04  0.7818609E-02  0.8097935E-01
        2   -1    0    0  501    0  0.00000000000E+00  0.00000000000E+00  0.17019994942E+04  0.17019994942E+04  0.25500000920E-02 0. -1.
       -2   -1    0    0    0  501  0.00000000000E+00  0.00000000000E+00 -0.18696160160E+04  0.18696160160E+04  0.25500000920E-02 0.  1.
    10030    2    1    2    0    0  0.00000000000E+00  0.00000000000E+00 -0.16761652181E+03  0.35716155103E+04  0.35676802063E+04 0.  0.
        3    1    3    3  502    0  0.21380550759E+03 -0.12900043468E+04 -0.12985144886E+04  0.18428141245E+04  0.10100000352E+00 0.  1.
       -3    1    3    3    0  502 -0.21380550759E+03  0.12900043468E+04  0.11308979668E+04  0.17288013858E+04  0.10100000352E+00 0. -1.
</event>
<event>
 5   0  0.1943459E-07  0.2952610E+04  0.7818609E-02  0.8257394E-01
       -1   -1    0    0    0  501  0.00000000000E+00  0.00000000000E+00  0.12094102845E+04  0.12094102845E+04  0.50400001928E-02 0. -1.
        1   -1    0    0  501    0  0.00000000000E+00  0.00000000000E+00 -0.18020988460E+04  0.18020988460E+04  0.50400001928E-02 0.  1.
    10030    2    1    2    0    0  0.00000000000E+00  0.00000000000E+00 -0.59268856153E+03  0.30115091305E+04  0.29526102879E+04 0.  0.
        2    1    3    3  502    0  0.50017104502E+02  0.14374693636E+04  0.42942933267E+02  0.14389801866E+04  0.25500000920E-02 0. -1.
       -2    1    3    3    0  502 -0.50017104502E+02 -0.14374693636E+04 -0.63563149480E+03  0.15725289438E+04  0.25500000920E-02 0.  1.
</event>
<event>
 5   0  0.6095665E-07  0.2810091E+04  0.7818609E-02  0.8300142E-01
        2   -1    0    0  501    0  0.00000000000E+00  0.00000000000E+00  0.23468290876E+04  0.23468290876E+04  0.25500000920E-02 0. -1.
       -2   -1    0    0    0  501  0.00000000000E+00  0.00000000000E+00 -0.84119988753E+03  0.84119988753E+03  0.25500000920E-02 0.  1.
    10030    2    1    2    0    0  0.00000000000E+00  0.00000000000E+00  0.15056292001E+04  0.31880289752E+04  0.28100906495E+04 0.  0.
        4    1    3    3  502    0  0.11829035859E+04  0.64705326724E+03  0.30442139184E+03  0.13822491891E+04  0.12699999809E+01 0.  1.
       -4    1    3    3    0  502 -0.11829035859E+04 -0.64705326724E+03  0.12012078083E+04  0.18057797860E+04  0.12699999809E+01 0. -1.
</event>
<event>
 5   0  0.1860500E-07  0.4037049E+04  0.7818609E-02  0.7997114E-01
       -1   -1    0    0    0  501  0.00000000000E+00  0.00000000000E+00  0.33286375495E+04  0.33286375495E+04  0.50400001928E-02 0.  1.
        1   -1    0    0  501    0  0.00000000000E+00  0.00000000000E+00 -0.12240570206E+04  0.12240570206E+04  0.50400001928E-02 0. -1.
    10030    2    1    2    0    0  0.00000000000E+00  0.00000000000E+00  0.21045805289E+04  0.45526945702E+04  0.40370494977E+04 0.  0.
        5    1    3    3  502    0 -0.55478321494E+03 -0.14954497997E+04  0.24473340610E+04  0.29212361450E+04  0.46999998093E+01 0.  1.
       -5    1    3    3    0  502  0.55478321494E+03  0.14954497997E+04 -0.34275353207E+03  0.16314584251E+04  0.46999998093E+01 0. -1.
</event>
<event>
 5   0  0.2666813E-07  0.3657325E+04  0.7818609E-02  0.8077485E-01
        1   -1    0    0  501    0  0.00000000000E+00  0.00000000000E+00  0.24406742449E+04  0.24406742449E+04  0.50400001928E-02 0.  1.
       -1   -1    0    0    0  501  0.00000000000E+00  0.00000000000E+00 -0.13701162442E+04  0.13701162442E+04  0.50400001928E-02 0. -1.
    10030    2    1    2    0    0  0.00000000000E+00  0.00000000000E+00  0.10705580007E+04  0.38107904891E+04  0.36573254871E+04 0.  0.
        1    1    3    3  502    0 -0.10346840633E+04 -0.37804595725E+03 -0.98559774866E+03  0.14781382813E+04  0.50400001928E-02 0. -1.
       -1    1    3    3    0  502  0.10346840633E+04  0.37804595725E+03  0.20561557494E+04  0.23326522078E+04  0.50400001928E-02 0.  1.
</event>
<event>
 5   0  0.2666813E-07  0.3880513E+04  0.7818609E-02  0.8029094E-01
        1   -1    0    0  501    0  0.00000000000E+00  0.00000000000E+00  0.17292257069E+04  0.17292257069E+04  0.50400001928E-02 0. -1.
       -1   -1    0    0    0  501  0.00000000000E+00  0.00000000000E+00 -0.21770414424E+04  0.21770414424E+04  0.50400001928E-02 0.  1.
    10030    2    1    2    0    0  0.00000000000E+00  0.00000000000E+00 -0.44781573552E+03  0.39062671493E+04  0.38805133821E+04 0.  0.
        1    1    3    3  502    0 -0.15415717371E+04 -0.25664195673E+03 -0.13814470593E+04  0.20858342438E+04  0.50400001928E-02 0.  1.
       -1    1    3    3    0  502  0.15415717371E+04  0.25664195673E+03  0.93363132382E+03  0.18204329055E+04  0.50400001928E-02 0. -1.
</event>
<event>
 5   0  0.1943459E-07  0.3823862E+04  0.7818609E-02  0.8041053E-01
       -1   -1    0    0    0  501  0.00000000000E+00  0.00000000000E+00  0.20647240161E+04  0.20647240161E+04  0.50400001928E-02 0. -1.
        1   -1    0    0  501    0  0.00000000000E+00  0.00000000000E+00 -0.17704450165E+04  0.17704450165E+04  0.50400001928E-02 0.  1.
    10030    2    1    2    0    0  0.00000000000E+00  0.00000000000E+00  0.29427899961E+03  0.38351690326E+04  0.38238621025E+04 0.  0.
        2    1    3    3  502    0  0.55686488275E+03  0.13896671703E+04  0.13398602626E+04  0.20091039956E+04  0.25500000920E-02 0. -1.
       -2    1    3    3    0  502 -0.55686488275E+03 -0.13896671703E+04 -0.10455812630E+04  0.18260650370E+04  0.25500000920E-02 0.  1.
</event>
<event>
 5   0  0.3959190E-07  0.3926609E+04  0.7818609E-02  0.8019518E-01
        2   -1    0    0  501    0  0.00000000000E+00  0.00000000000E+00  0.17990054549E+04  0.17990054549E+04  0.25500000920E-02 0. -1.
       -2   -1    0    0    0  501  0.00000000000E+00  0.00000000000E+00 -0.21426088488E+04  0.21426088488E+04  0.25500000920E-02 0.  1.
    10030    2    1    2    0    0  0.00000000000E+00  0.00000000000E+00 -0.34360339392E+03  0.39416143038E+04  0.39266092277E+04 0.  0.
        2    1    3    3  502    0 -0.71680892075E+03 -0.18122840738E+04  0.66542820251E+02  0.19500298818E+04  0.25500000920E-02 0. -1.
       -2    1    3    3    0  502  0.71680892075E+03  0.18122840738E+04 -0.41014621417E+03  0.19915844220E+04  0.25500000920E-02 0.  1.
</event>
<event>
 5   0  0.5805753E-07  0.3913460E+04  0.7818609E-02  0.8022236E-01
       -2   -1    0    0    0  501  0.00000000000E+00  0.00000000000E+00  0.15134546462E+04  0.15134546462E+04  0.25500000920E-02 0. -1.
        2   -1    0    0  501    0  0.00000000000E+00  0.00000000000E+00 -0.25298362115E+04  0.25298362115E+04  0.25500000920E-02 0.  1.
    10030    2    1    2    0    0  0.00000000000E+00  0.00000000000E+00 -0.10163815653E+04  0.40432908578E+04  0.39134600387E+04 0.  0.
        1    1    3    3  502    0  0.17356887402E+04  0.30123038943E+03  0.37179163898E+03  0.18004399943E+04  0.50400001928E-02 0. -1.
       -1    1    3    3    0  502 -0.17356887402E+04 -0.30123038943E+03 -0.13881732043E+04  0.22428508634E+04  0.50400001928E-02 0.  1.
</event>
<event>
 5   0  0.1860500E-07  0.3982610E+04  0.7818609E-02  0.8008064E-01
       -1   -1    0    0    0  501  0.00000000000E+00  0.00000000000E+00  0.27593551090E+04  0.27593551090E+04  0.50400001928E-02 0. -1.
        1   -1    0    0  501    0  0.00000000000E+00  0.00000000000E+00 -0.14370369422E+04  0.14370369422E+04  0.50400001928E-02 0.  1.
    10030    2    1    2    0    0  0.00000000000E+00  0.00000000000E+00  0.13223181669E+04  0.41963920512E+04  0.39826098118E+04 0.  0.
        4    1    3    3  502    0 -0.60502387216E+03  0.11998654053E+04  0.22095877719E+04  0.25861188316E+04  0.12699999809E+01 0. -1.
       -4    1    3    3    0  502  0.60502387216E+03 -0.11998654053E+04 -0.88726960502E+03  0.16102732196E+04  0.12699999809E+01 0.  1.
</event>
<event>
 5   0  0.5872444E-07  0.3987647E+04  0.7818609E-02  0.8007043E-01
        2   -1    0    0  501    0  0.00000000000E+00  0.00000000000E+00  0.13785425974E+04  0.13785425974E+04  0.25500000920E-02 0.  1.
       -2   -1    0    0    0  501  0.00000000000E+00  0.00000000000E+00 -0.28837205102E+04  0.28837205102E+04  0.25500000920E-02 0. -1.
    10030    2    1    2    0    0  0.00000000000E+00  0.00000000000E+00 -0.15051779128E+04  0.42622631076E+04  0.39876467057E+04 0.  0.
        3    1    3    3  502    0  0.11596715249E+04 -0.75441260738E+03  0.78202798948E+03  0.15891960906E+04  0.10100000352E+00 0.  1.
       -3    1    3    3    0  502 -0.11596715249E+04  0.75441260738E+03 -0.22872059023E+04  0.26730670170E+04  0.10100000352E+00 0. -1.
</event>
<event>
 5   0  0.5872444E-07  0.3923320E+04  0.7818609E-02  0.8020196E-01
       -2   -1    0    0    0  501  0.00000000000E+00  0.00000000000E+00  0.15910364545E+04  0.15910364545E+04  0.25500000920E-02 0. -1.
        2   -1    0    0  501    0  0.00000000000E+00  0.00000000000E+00 -0.24186186448E+04  0.24186186448E+04  0.25500000920E-02 0.  1.
    10030    2    1    2    0    0  0.00000000000E+00  0.00000000000E+00 -0.82758219028E+03  0.40096550993E+04  0.39233202435E+04 0.  0.
        3    1    3    3  502    0 -0.11733066074E+04 -0.79636988210E+03  0.97149099090E+03  0.17189089969E+04  0.10100000352E+00 0. -1.
       -3    1    3    3    0  502  0.11733066074E+04  0.79636988210E+03 -0.17990731812E+04  0.22907461024E+04  0.10100000352E+00 0.  1.
</event>
<event>
 5   0  0.3959190E-07  0.3852793E+04  0.7818609E-02  0.8034920E-01
        2   -1    0    0  501    0  0.00000000000E+00  0.00000000000E+00  0.26722175903E+04  0.26722175903E+04  0.25500000920E-02 0.  1.
       -2   -1    0    0    0  501  0.00000000000E+00  0.00000000000E+00 -0.13887355317E+04  0.13887355317E+04  0.25500000920E-02 0. -1.
    10030    2    1    2    0    0  0.00000000000E+00  0.00000000000E+00  0.12834820586E+04  0.40609531220E+04  0.38527930212E+04 0.  0.
        2    1    3    3  502    0 -0.16615369911E+04  0.92336852457E+03  0.31230208923E+03  0.19263559380E+04  0.25500000920E-02 0. -1.
       -2    1    3    3    0  502  0.16615369911E+04 -0.92336852457E+03  0.97117996938E+03  0.21345971840E+04  0.25500000920E-02 0.  1.
</event>
<event>
 5   0  0.3959190E-07  0.3124328E+04  0.7818609E-02  0.8209093E-01
       -2   -1    0    0    0  501  0.00000000000E+00  0.00000000000E+00  0.99163723926E+03  0.99163723927E+03  0.25500000920E-02 0. -1.
        2   -1    0    0  501    0  0.00000000000E+00  0.00000000000E+00 -0.24609370608E+04  0.24609370608E+04  0.25500000920E-02 0.  1.
    10030    2    1    2    0    0  0.00000000000E+00  0.00000000000E+00 -0.14692998215E+04  0.34525743000E+04  0.31243283009E+04 0.  0.
        2    1    3    3  502    0 -0.27815708266E+03 -0.73883252725E+02  0.96208768899E+03  0.10042125368E+04  0.25500000920E-02 0. -1.
       -2    1    3    3    0  502  0.27815708266E+03  0.73883252725E+02 -0.24313875105E+04  0.24483617633E+04  0.25500000920E-02 0.  1.
</event>
<event>
 5   0  0.3959190E-07  0.3855487E+04  0.7818609E-02  0.8034351E-01
        2   -1    0    0  501    0  0.00000000000E+00  0.00000000000E+00  0.20231540506E+04  0.20231540506E+04  0.25500000920E-02 0. -1.
       -2   -1    0    0    0  501  0.00000000000E+00  0.00000000000E+00 -0.18368323396E+04  0.18368323396E+04  0.25500000920E-02 0.  1.
    10030    2    1    2    0    0  0.00000000000E+00  0.00000000000E+00  0.18632171093E+03  0.38599863902E+04  0.38554868892E+04 0.  0.
        2    1    3    3  502    0 -0.37578841106E+03  0.97580444427E+03  0.17145518925E+04  0.20082578110E+04  0.25500000920E-02 0. -1.
       -2    1    3    3    0  502  0.37578841106E+03 -0.97580444427E+03 -0.15282301816E+04  0.18517285792E+04  0.25500000920E-02 0.  1.
</event>
<event>
 5   0  0.3959190E-07  0.3915848E+04  0.7818609E-02  0.8021741E-01
       -2   -1    0    0    0  501  0.00000000000E+00  0.00000000000E+00  0.13314976415E+04  0.13314976415E+04  0.25500000920E-02 0.  1.
        2   -1    0    0  501    0  0.00000000000E+00  0.00000000000E+00 -0.28790635229E+04  0.28790635229E+04  0.25500000920E-02 0. -1.
    10030    2    1    2    0    0  0.00000000000E+00  0.00000000000E+00 -0.15475658815E+04  0.42105611644E+04  0.39158479493E+04 0.  0.
        2    1    3    3  502    0  0.82454561051E+03 -0.54015239551E+03  0.10452300029E+04  0.14367135529E+04  0.25500000920E-02 0.  1.
       -2    1    3    3    0  502 -0.82454561051E+03  0.54015239551E+03 -0.25927958843E+04  0.27738476115E+04  0.25500000920E-02 0. -1.
</event>
<event>
 5   0  0.5805753E-07  0.3881118E+04  0.7818609E-02  0.8028968E-01
        2   -1    0    0  501    0  0.00000000000E+00  0.00000000000E+00  0.16083838742E+04  0.16083838742E+04  0.25500000920E-02 0. -1.
       -2   -1    0    0    0  501  0.00000000000E+00  0.00000000000E+00 -0.23413375485E+04  0.23413375485E+04  0.25500000920E-02 0.  1.
    10030    2    1    2    0    0  0.00000000000E+00  0.00000000000E+00 -0.73295367425E+03  0.39497214227E+04  0.38811181673E+04 0.  0.
        1    1    3    3  502    0  0.69617263629E+03  0.17130156819E+04 -0.96568892359E+03  0.20860570853E+04  0.50400001928E-02 0. -1.
       -1    1    3    3    0  502 -0.69617263629E+03 -0.17130156819E+04  0.23273524934E+03  0.18636643374E+04  0.50400001928E-02 0.  1.
</event>
<event>
 5   0  0.6095665E-07  0.3913126E+04  0.7818609E-02  0.8022305E-01
       -2   -1    0    0    0  501  0.00000000000E+00  0.00000000000E+00  0.13570871284E+04  0.13570871284E+04  0.25500000920E-02 0.  1.
        2   -1    0    0  501    0  0.00000000000E+00  0.00000000000E+00 -0.28208498353E+04  0.28208498353E+04  0.25500000920E-02 0. -1.
    10030    2    1    2    0    0  0.00000000000E+00  0.00000000000E+00 -0.14637627069E+04  0.41779369638E+04  0.39131261175E+04 0.  0.
        4    1    3    3  502    0 -0.19432607904E+04 -0.94351869415E+02 -0.51055459224E+03  0.20114254596E+04  0.12699999809E+01 0.  1.
       -4    1    3    3    0  502  0.19432607904E+04  0.94351869415E+02 -0.95320811468E+03  0.21665115042E+04  0.12699999809E+01 0. -1.
</event>
<event>
 5   0  0.6095665E-07  0.2510215E+04  0.7818609E-02  0.8399355E-01
        2   -1    0    0  501    0  0.00000000000E+00  0.00000000000E+00  0.11365941589E+04  0.11365941589E+04  0.25500000920E-02 0.  1.
       -2   -1    0    0    0  501  0.00000000000E+00  0.00000000000E+00 -0.13859782002E+04  0.13859782002E+04  0.25500000920E-02 0. -1.
    10030    2    1    2    0    0  0.00000000000E+00  0.00000000000E+00 -0.24938404131E+03  0.25225723591E+04  0.25102149125E+04 0.  0.
        4    1    3    3  502    0  0.18870969416E+03  0.10206306627E+04 -0.83385350137E+03  0.13313945970E+04  0.12699999809E+01 0. -1.
       -4    1    3    3    0  502 -0.18870969416E+03 -0.10206306627E+04  0.58446946007E+03  0.11911777621E+04  0.12699999809E+01 0.  1.
</event>
<event>
 5   0  0.1860500E-07  0.3896961E+04  0.7818609E-02  0.8025662E-01
       -1   -1    0    0    0  501  0.00000000000E+00  0.00000000000E+00  0.27269437686E+04  0.27269437686E+04  0.50400001928E-02 0. -1.
        1   -1    0    0  501    0  0.00000000000E+00  0.00000000000E+00 -0.13922457182E+04  0.13922457182E+04  0.50400001928E-02 0.  1.
    10030    2    1    2    0    0  0.00000000000E+00  0.00000000000E+00  0.13346980504E+04  0.41191894868E+04  0.38969607571E+04 0.  0.
        4    1    3    3  502    0 -0.90961236392E+03  0.11877916624E+04  0.19868676409E+04  0.24871446120E+04  0.12699999809E+01 0. -1.
       -4    1    3    3    0  502  0.90961236392E+03 -0.11877916624E+04 -0.65216959045E+03  0.16320448748E+04  0.12699999809E+01 0.  1.
</event>
<event>
 5   0  0.1876027E-07  0.3951748E+04  0.7818609E-02  0.8014352E-01
        1   -1    0    0  501    0  0.00000000000E+00  0.00000000000E+00  0.22106028522E+04  0.22106028522E+04  0.50400001928E-02 0. -1.
       -1   -1    0    0    0  501  0.00000000000E+00  0.00000000000E+00 -0.17660694173E+04  0.17660694173E+04  0.50400001928E-02 0.  1.
    10030    2    1    2    0    0  0.00000000000E+00  0.00000000000E+00  0.44453343497E+03  0.39766722695E+04  0.39517480138E+04 0.  0.
        3    1    3    3  502    0 -0.40345307854E+02 -0.11954107768E+04  0.18049045624E+04  0.21652517541E+04  0.10100000352E+00 0. -1.
       -3    1    3    3    0  502  0.40345307854E+02  0.11954107768E+04 -0.13603711274E+04  0.18114205154E+04  0.10100000352E+00 0.  1.
</event>
<event>
 5   0  0.1860500E-07  0.3878921E+04  0.7818609E-02  0.8029427E-01
       -1   -1    0    0    0  501  0.00000000000E+00  0.00000000000E+00  0.28938799955E+04  0.28938799955E+04  0.50400001928E-02 0. -1.
        1   -1    0    0  501    0  0.00000000000E+00  0.00000000000E+00 -0.12998147061E+04  0.12998147061E+04  0.50400001928E-02 0.  1.
    10030    2    1    2    0    0  0.00000000000E+00  0.00000000000E+00  0.15940652894E+04  0.41936947016E+04  0.38789213841E+04 0.  0.
        4    1    3    3  502    0  0.17073775117E+03  0.16921134091E+04 -0.21087898367E+03  0.17137300626E+04  0.12699999809E+01 0.  1.
       -4    1    3    3    0  502 -0.17073775117E+03 -0.16921134091E+04  0.18049442730E+04  0.24799646390E+04  0.12699999809E+01 0. -1.
</event>
<event>
 5   0  0.3959190E-07  0.3941905E+04  0.7818609E-02  0.8016370E-01
       -2   -1    0    0    0  501  0.00000000000E+00  0.00000000000E+00  0.23107353509E+04  0.23107353509E+04  0.25500000920E-02 0.  1.
        2   -1    0    0  501    0  0.00000000000E+00  0.00000000000E+00 -0.16811332530E+04  0.16811332530E+04  0.25500000920E-02 0. -1.
    10030    2    1    2    0    0  0.00000000000E+00  0.00000000000E+00  0.62960209799E+03  0.39918686039E+04  0.39419051421E+04 0.  0.
        2    1    3    3  502    0 -0.28113986021E+02  0.42077605718E+03  0.22645123044E+04  0.23034449990E+04  0.25500000920E-02 0.  1.
       -2    1    3    3    0  502  0.28113986021E+02 -0.42077605718E+03 -0.16349102064E+04  0.16884236049E+04  0.25500000920E-02 0. -1.
</event>
<event>
 5   0  0.3959190E-07  0.3250477E+04  0.7818609E-02  0.8175612E-01
       -2   -1    0    0    0  501  0.00000000000E+00  0.00000000000E+00  0.17817029353E+04  0.17817029353E+04  0.25500000920E-02 0.  1.
        2   -1    0    0  501    0  0.00000000000E+00  0.00000000000E+00 -0.14825145062E+04  0.14825145062E+04  0.25500000920E-02 0. -1.
    10030    2    1    2    0    0  0.00000000000E+00  0.00000000000E+00  0.29918842903E+03  0.32642174415E+04  0.32504771633E+04 0.  0.
        2    1    3    3  502    0  0.11212437647E+04 -0.11199450834E+04 -0.21239572766E+03  0.15989298030E+04  0.25500000920E-02 0. -1.
       -2    1    3    3    0  502 -0.11212437647E+04  0.11199450834E+04  0.51158415668E+03  0.16652876385E+04  0.25500000920E-02 0.  1.
</event>
<event>
 5   0  0.3959190E-07  0.3168936E+04  0.7818609E-02  0.8197070E-01
       -2   -1    0    0    0  501  0.00000000000E+00  0.00000000000E+00  0.21084890417E+04  0.21084890417E+04  0.25500000920E-02 0.  1.
        2   -1    0    0  501    0  0.00000000000E+00  0.00000000000E+00 -0.11906811938E+04  0.11906811938E+04  0.25500000920E-02 0. -1.
    10030    2    1    2    0    0  0.00000000000E+00  0.00000000000E+00  0.91780784790E+03  0.32991702354E+04  0.31689356252E+04 0.  0.
        2    1    3    3  502    0 -0.69216623275E+03 -0.10151657281E+04  0.15004605831E+04  0.19393394522E+04  0.25500000920E-02 0.  1.
       -2    1    3    3    0  502  0.69216623275E+03  0.10151657281E+04 -0.58265273520E+03  0.13598307833E+04  0.25500000920E-02 0. -1.
</event>
<event>
 5   0  0.5805753E-07  0.2892363E+04  0.7818609E-02  0.8275153E-01
       -2   -1    0    0    0  501  0.00000000000E+00  0.00000000000E+00  0.12178273662E+04  0.12178273662E+04  0.25500000920E-02 0.  1.
        2   -1    0    0  501    0  0.00000000000E+00  0.00000000000E+00 -0.17173541134E+04  0.17173541134E+04  0.25500000920E-02 0. -1.
    10030    2    1    2    0    0  0.00000000000E+00  0.00000000000E+00 -0.49952674716E+03  0.29351814796E+04  0.28923629349E+04 0.  0.
        1    1    3    3  502    0 -0.13100073061E+04  0.46155064515E+03 -0.65858292676E+03  0.15371660976E+04  0.50400001928E-02 0.  1.
       -1    1    3    3    0  502  0.13100073061E+04 -0.46155064515E+03  0.15905617960E+03  0.13980153820E+04  0.50400001928E-02 0. -1.
</event>
<event>
 5   0  0.5872444E-07  0.3923573E+04  0.7818609E-02  0.8020144E-01
        2   -1    0    0  501    0  0.00000000000E+00  0.00000000000E+00  0.24696270061E+04  0.24696270061E+04  0.25500000920E-02 0. -1.
       -2   -1    0    0    0  501  0.00000000000E+00  0.00000000000E+00 -0.15583758311E+04  0.15583758311E+04  0.25500000920E-02 0.  1.
    10030    2    1    2    0    0  0.00000000000E+00  0.00000000000E+00  0.91125117496E+03  0.40280028372E+04  0.39235733907E+04 0.  0.
        3    1    3    3  502    0 -0.66884255340E+02  0.32365196272E+03  0.24408424612E+04  0.24631151064E+04  0.10100000352E+00 0. -1.
       -3    1    3    3    0  502  0.66884255340E+02 -0.32365196272E+03 -0.15295912863E+04  0.15648877308E+04  0.10100000352E+00 0.  1.
</event>
<event>
 5   0  0.1943459E-07  0.3891521E+04  0.7818609E-02  0.8026795E-01
        1   -1    0    0  501    0  0.00000000000E+00  0.00000000000E+00  0.14977967382E+04  0.14977967382E+04  0.50400001928E-02 0.  1.
       -1   -1    0    0    0  501  0.00000000000E+00  0.00000000000E+00 -0.25277020096E+04  0.25277020096E+04  0.50400001928E-02 0. -1.
    10030    2    1    2    0    0  0.00000000000E+00  0.00000000000E+00 -0.10299052714E+04  0.40254987478E+04  0.38915209495E+04 0.  0.
        2    1    3    3  502    0  0.53872447179E+03  0.41913769947E+02 -0.24485318115E+04  0.25074466799E+04  0.25500000920E-02 0. -1.
       -2    1    3    3    0  502 -0.53872447179E+03 -0.41913769947E+02  0.14186265401E+04  0.15180520679E+04  0.25500000920E-02 0.  1.
</event>
<event>
 5   0  0.1876027E-07  0.2605386E+04  0.7818609E-02  0.8366374E-01
        1   -1    0    0  501    0  0.00000000000E+00  0.00000000000E+00  0.14881101994E+04  0.14881101994E+04  0.50400001928E-02 0. -1.
       -1   -1    0    0    0  501  0.00000000000E+00  0.00000000000E+00 -0.11403787411E+04  0.11403787412E+04  0.50400001928E-02 0.  1.
    10030    2    1    2    0    0  0.00000000000E+00  0.00000000000E+00  0.34773145824E+03  0.26284889405E+04  0.26053861410E+04 0.  0.
        3    1    3    3  502    0  0.46169327055E+03 -0.73701245025E+03  0.11523428388E+04  0.14436904295E+04  0.10100000352E+00 0. -1.
       -3    1    3    3    0  502 -0.46169327055E+03  0.73701245025E+03 -0.80461138055E+03  0.11847985111E+04  0.10100000352E+00 0.  1.
</event>
<event>
 5   0  0.2666813E-07  0.4128779E+04  0.7818609E-02  0.7979060E-01
       -1   -1    0    0    0  501  0.00000000000E+00  0.00000000000E+00  0.27749212089E+04  0.27749212089E+04  0.50400001928E-02 0. -1.
        1   -1    0    0  501    0  0.00000000000E+00  0.00000000000E+00 -0.15357926473E+04  0.15357926473E+04  0.50400001928E-02 0.  1.
    10030    2    1    2    0    0  0.00000000000E+00  0.00000000000E+00  0.12391285616E+04  0.43107138562E+04  0.41287787974E+04 0.  0.
        1    1    3    3  502    0 -0.19128071824E+03 -0.20250033389E+04  0.98792363841E+03  0.22612430101E+04  0.50400001928E-02 0.  1.
       -1    1    3    3    0  502  0.19128071824E+03  0.20250033389E+04  0.25120492321E+03  0.20494708461E+04  0.50400001928E-02 0. -1.
</event>
<event>
 5   0  0.1943459E-07  0.3882374E+04  0.7818609E-02  0.8028705E-01
        1   -1    0    0  501    0  0.00000000000E+00  0.00000000000E+00  0.20995386149E+04  0.20995386149E+04  0.50400001928E-02 0.  1.
       -1   -1    0    0    0  501  0.00000000000E+00  0.00000000000E+00 -0.17947781923E+04  0.17947781923E+04  0.50400001928E-02 0. -1.
    10030    2    1    2    0    0  0.00000000000E+00  0.00000000000E+00  0.30476042254E+03  0.38943168072E+04  0.38823735626E+04 0.  0.
        2    1    3    3  502    0 -0.51007256412E+03 -0.17741850908E+04 -0.44971573765E+03  0.19000397369E+04  0.25500000920E-02 0. -1.
       -2    1    3    3    0  502  0.51007256412E+03  0.17741850908E+04  0.75447616019E+03  0.19942770703E+04  0.25500000920E-02 0.  1.
</event>
<event>
 5   0  0.5872444E-07  0.3850000E+04  0.7818609E-02  0.8035509E-01
       -2   -1    0    0    0  501  0.00000000000E+00  0.00000000000E+00  0.17002121216E+04  0.17002121216E+04  0.25500000920E-02 0.  1.
        2   -1    0    0  501    0  0.00000000000E+00  0.00000000000E+00 -0.21795069934E+04  0.21795069934E+04  0.25500000920E-02 0. -1.
    10030    2    1    2    0    0  0.00000000000E+00  0.00000000000E+00 -0.47929487180E+03  0.38797191149E+04  0.38499995892E+04 0.  0.
        3    1    3    3  502    0  0.16775822041E+04  0.65594005148E+03  0.44462650709E+03  0.18553253471E+04  0.10100000352E+00 0. -1.
       -3    1    3    3    0  502 -0.16775822041E+04 -0.65594005148E+03 -0.92392137888E+03  0.20243937678E+04  0.10100000352E+00 0.  1.
</event>
<event>
 5   0  0.1943459E-07  0.3804493E+04  0.7818609E-02  0.8045191E-01
        1   -1    0    0  501    0  0.00000000000E+00  0.00000000000E+00  0.33939553755E+04  0.33939553755E+04  0.50400001928E-02 0.  1.
       -1   -1    0    0    0  501  0.00000000000E+00  0.00000000000E+00 -0.10661723972E+04  0.10661723972E+04  0.50400001928E-02 0. -1.
    10030    2    1    2    0    0  0.00000000000E+00  0.00000000000E+00  0.23277829783E+04  0.44601277726E+04  0.38044928905E+04 0.  0.
        2    1    3    3  502    0 -0.81992623509E+03 -0.47828143249E+03  0.30964651196E+04  0.32386923900E+04  0.25500000920E-02 0.  1.
       -2    1    3    3    0  502  0.81992623509E+03  0.47828143249E+03 -0.76868214132E+03  0.12214353827E+04  0.25500000920E-02 0. -1.
</event>
<event>
 5   0  0.5872444E-07  0.3404140E+04  0.7818609E-02  0.8136891E-01
       -2   -1    0    0    0  501  0.00000000000E+00  0.00000000000E+00  0.11239688957E+04  0.11239688958E+04  0.25500000920E-02 0.  1.
        2   -1    0    0  501    0  0.00000000000E+00  0.00000000000E+00 -0.25775110907E+04  0.25775110907E+04  0.25500000920E-02 0. -1.
    10030    2    1    2    0    0  0.00000000000E+00  0.00000000000E+00 -0.14535421949E+04  0.37014799864E+04  0.34041400056E+04 0.  0.
        3    1    3    3  502    0 -0.83566229846E+03 -0.60283042061E+02 -0.23377611106E+04  0.24833631516E+04  0.10100000352E+00 0. -1.
       -3    1    3    3    0  502  0.83566229846E+03  0.60283042061E+02  0.88421891569E+03  0.12181168348E+04  0.10100000352E+00 0.  1.
</event>
<event>
 5   0  0.6095665E-07  0.3862643E+04  0.7818609E-02  0.8032844E-01
       -2   -1    0    0    0  501  0.00000000000E+00  0.00000000000E+00  0.14634637169E+04  0.14634637169E+04  0.25500000920E-02 0. -1.
        2   -1    0    0  501    0  0.00000000000E+00  0.00000000000E+00 -0.25487491269E+04  0.25487491269E+04  0.25500000920E-02 0.  1.
    10030    2    1    2    0    0  0.00000000000E+00  0.00000000000E+00 -0.10852854100E+04  0.40122128437E+04  0.38626425517E+04 0.  0.
        4    1    3    3  502    0  0.79342848392E+01 -0.78536639381E+03  0.12900875749E+04  0.15103611784E+04  0.12699999809E+01 0. -1.
       -4    1    3    3    0  502 -0.79342848392E+01  0.78536639381E+03 -0.23753729849E+04  0.25018516654E+04  0.12699999809E+01 0.  1.
</event>
<event>
 5   0  0.1860500E-07  0.3201907E+04  0.7818609E-02  0.8188314E-01
        1   -1    0    0  501    0  0.00000000000E+00  0.00000000000E+00  0.20843726662E+04  0.20843726662E+04  0.50400001928E-02 0. -1.
       -1   -1    0    0    0  501  0.00000000000E+00  0.00000000000E+00 -0.12296516473E+04  0.12296516473E+04  0.50400001928E-02 0.  1.
    10030    2    1    2    0    0  0.00000000000E+00  0.00000000000E+00  0.85472101887E+03  0.33140243135E+04  0.32019071084E+04 0.  0.
        5    1    3    3  502    0  0.66380323272E+03  0.62519804220E+03 -0.93458922061E+03  0.13057512876E+04  0.46999998093E+01 0.  1.
       -5    1    3    3    0  502 -0.66380323272E+03 -0.62519804220E+03  0.17893102395E+04  0.20082730260E+04  0.46999998093E+01 0. -1.
</event>
<event>
 5   0  0.1876027E-07  0.3924824E+04  0.7818609E-02  0.8019886E-01
       -1   -1    0    0    0  501  0.00000000000E+00  0.00000000000E+00  0.19555920872E+04  0.19555920872E+04  0.50400001928E-02 0.  1.
        1   -1    0    0  501    0  0.00000000000E+00  0.00000000000E+00 -0.19692559719E+04  0.19692559719E+04  0.50400001928E-02 0. -1.
    10030    2    1    2    0    0  0.00000000000E+00  0.00000000000E+00 -0.13663884654E+02  0.39248480591E+04  0.39248242745E+04 0.  0.
        3    1    3    3  502    0  0.95792238728E+03  0.16837177862E+04  0.30708157577E+03  0.19613311775E+04  0.10100000352E+00 0. -1.
       -3    1    3    3    0  502 -0.95792238728E+03 -0.16837177862E+04 -0.32074546043E+03  0.19635168816E+04  0.10100000352E+00 0.  1.
</event>
<event>
 5   0  0.1860500E-07  0.3873703E+04  0.7818609E-02  0.8030521E-01
        1   -1    0    0  501    0  0.00000000000E+00  0.00000000000E+00  0.17131702870E+04  0.17131702870E+04  0.50400001928E-02 0. -1.
       -1   -1    0    0    0  501  0.00000000000E+00  0.00000000000E+00 -0.21897377858E+04  0.21897377858E+04  0.50400001928E-02 0.  1.
    10030    2    1    2    0    0  0.00000000000E+00  0.00000000000E+00 -0.47656749874E+03  0.39029080728E+04  0.38737029886E+04 0.  0.
        4    1    3    3  502    0  0.30633662695E+02  0.15205829918E+04 -0.14466090847E+04  0.20989975019E+04  0.12699999809E+01 0.  1.
       -4    1    3    3    0  502 -0.30633662695E+02 -0.15205829918E+04  0.97004158600E+03  0.18039105709E+04  0.12699999809E+01 0. -1.
</event>
<event>
 5   0  0.1860500E-07  0.3838905E+04  0.7818609E-02  0.8037857E-01
        1   -1    0    0  501    0  0.00000000000E+00  0.00000000000E+00  0.25884562686E+04  0.25884562686E+04  0.50400001928E-02 0.  1.
       -1   -1    0    0    0  501  0.00000000000E+00  0.00000000000E+00 -0.14233570130E+04  0.14233570130E+04  0.50400001928E-02 0. -1.
    10030    2    1    2    0    0  0.00000000000E+00  0.00000000000E+00  0.11650992556E+04  0.40118132816E+04  0.38389047307E+04 0.  0.
        5    1    3    3  502    0 -0.10902921597E+04 -0.42506320861E+03  0.21725444209E+04  0.24676683480E+04  0.46999998093E+01 0.  1.
       -5    1    3    3    0  502  0.10902921597E+04  0.42506320861E+03 -0.10074451654E+04  0.15441449336E+04  0.46999998093E+01 0. -1.
</event>
<event>
 5   0  0.3959190E-07  0.2990013E+04  0.7818609E-02  0.8246588E-01
       -2   -1    0    0    0  501  0.00000000000E+00  0.00000000000E+00  0.17040204230E+04  0.17040204230E+04  0.25500000920E-02 0.  1.
        2   -1    0    0  501    0  0.00000000000E+00  0.00000000000E+00 -0.13116303247E+04  0.13116303247E+04  0.25500000920E-02 0. -1.
    10030    2    1    2    0    0  0.00000000000E+00  0.00000000000E+00  0.39239009832E+03  0.30156507477E+04  0.29900132847E+04 0.  0.
        2    1    3    3  502    0  0.29005242565E+03 -0.24754037755E+03 -0.12617577897E+04  0.13181196334E+04  0.25500000920E-02 0. -1.
       -2    1    3    3    0  502 -0.29005242565E+03  0.24754037755E+03  0.16541478880E+04  0.16975311142E+04  0.25500000920E-02 0.  1.
</event>
<event>
 5   0  0.1943459E-07  0.3493844E+04  0.7818609E-02  0.8115250E-01
        1   -1    0    0  501    0  0.00000000000E+00  0.00000000000E+00  0.21936008595E+04  0.21936008596E+04  0.50400001928E-02 0.  1.
       -1   -1    0    0    0  501  0.00000000000E+00  0.00000000000E+00 -0.13911997330E+04  0.13911997330E+04  0.50400001928E-02 0. -1.
    10030    2    1    2    0    0  0.00000000000E+00  0.00000000000E+00  0.80240112651E+03  0.35848005926E+04  0.34938442611E+04 0.  0.
        2    1    3    3  502    0 -0.53813341548E+03 -0.16047237173E+04  0.84490646880E+03  0.18917168717E+04  0.25500000920E-02 0.  1.
       -2    1    3    3    0  502  0.53813341548E+03  0.16047237173E+04 -0.42505342289E+02  0.16930837209E+04  0.25500000920E-02 0. -1.
</event>
<event>
 5   0  0.5872444E-07  0.3435875E+04  0.7818609E-02  0.8129157E-01
        2   -1    0    0  501    0  0.00000000000E+00  0.00000000000E+00  0.15920543902E+04  0.15920543902E+04  0.25500000920E-02 0.  1.
       -2   -1    0    0    0  501  0.00000000000E+00  0.00000000000E+00 -0.18537740738E+04  0.18537740739E+04  0.25500000920E-02 0. -1.
    10030    2    1    2    0    0  0.00000000000E+00  0.00000000000E+00 -0.26171968368E+03  0.34458284640E+04  0.34358749411E+04 0.  0.
        3    1    3    3  502    0  0.77486906041E+03 -0.14559188490E+04  0.35135255834E+03  0.16862889391E+04  0.10100000352E+00 0.  1.
       -3    1    3    3    0  502 -0.77486906041E+03  0.14559188490E+04 -0.61307224203E+03  0.17595395249E+04  0.10100000352E+00 0. -1.
</event>
<event>
 5   0  0.2666813E-07  0.3906457E+04  0.7818609E-02  0.8023688E-01
        1   -1    0    0  501    0  0.00000000000E+00  0.00000000000E+00  0.21593406872E+04  0.21593406872E+04  0.50400001928E-02 0.  1.
       -1   -1    0    0    0  501  0.00000000000E+00  0.00000000000E+00 -0.17667901612E+04  0.17667901612E+04  0.50400001928E-02 0. -1.
    10030    2    1    2    0    0  0.00000000000E+00  0.00000000000E+00  0.39255052598E+03  0.39261308485E+04  0.39064571575E+04 0.  0.
        1    1    3    3  502    0 -0.19472413522E+04 -0.51527807791E+02  0.51683131803E+02  0.19486085150E+04  0.50400001928E-02 0. -1.
       -1    1    3    3    0  502  0.19472413522E+04  0.51527807791E+02  0.34086739418E+03  0.19775223334E+04  0.50400001928E-02 0.  1.
</event>
<event>
 5   0  0.5872444E-07  0.3003295E+04  0.7818609E-02  0.8242791E-01
       -2   -1    0    0    0  501  0.00000000000E+00  0.00000000000E+00  0.97403698646E+03  0.97403698646E+03  0.25500000920E-02 0.  1.
        2   -1    0    0  501    0  0.00000000000E+00  0.00000000000E+00 -0.23150502057E+04  0.23150502057E+04  0.25500000920E-02 0. -1.
    10030    2    1    2    0    0  0.00000000000E+00  0.00000000000E+00 -0.13410132193E+04  0.32890871922E+04  0.30032945416E+04 0.  0.
        3    1    3    3  502    0 -0.13363361909E+04 -0.26607286252E+03 -0.13617210099E+04  0.19263627131E+04  0.10100000352E+00 0. -1.
       -3    1    3    3    0  502  0.13363361909E+04  0.26607286252E+03  0.20707790637E+02  0.13627244791E+04  0.10100000352E+00 0.  1.
</event>
<event>
 5   0  0.5872444E-07  0.3893569E+04  0.7818609E-02  0.8026368E-01
       -2   -1    0    0    0  501  0.00000000000E+00  0.00000000000E+00  0.14587206681E+04  0.14587206681E+04  0.25500000920E-02 0.  1.
        2   -1    0    0  501    0  0.00000000000E+00  0.00000000000E+00 -0.25981469439E+04  0.25981469439E+04  0.25500000920E-02 0. -1.
    10030    2    1    2    0    0  0.00000000000E+00  0.00000000000E+00 -0.11394262758E+04  0.40568676120E+04  0.38935693886E+04 0.  0.
        3    1    3    3  502    0  0.18548168268E+04 -0.59118124775E+03 -0.58158883109E+03  0.20317692555E+04  0.10100000352E+00 0. -1.
       -3    1    3    3    0  502 -0.18548168268E+04  0.59118124775E+03 -0.55783744470E+03  0.20250983566E+04  0.10100000352E+00 0.  1.
</event>
<event>
 5   0  0.5735179E-07  0.2386145E+04  0.7818609E-02  0.8444709E-01
        2   -1    0    0  501    0  0.00000000000E+00  0.00000000000E+00  0.14138273200E+04  0.14138273200E+04  0.25500000920E-02 0. -1.
       -2   -1    0    0    0  501  0.00000000000E+00  0.00000000000E+00 -0.10067863684E+04  0.10067863684E+04  0.25500000920E-02 0.  1.
    10030    2    1    2    0    0  0.00000000000E+00  0.00000000000E+00  0.40704095161E+03  0.24206136884E+04  0.23861450694E+04 0.  0.
        5    1    3    3  502    0  0.47220598915E+03  0.58586595536E+02 -0.90635367968E+03  0.10236747374E+04  0.46999998093E+01 0.  1.
       -5    1    3    3    0  502 -0.47220598915E+03 -0.58586595536E+02  0.13133946313E+04  0.13969389510E+04  0.46999998093E+01 0. -1.
</event>
<event>
 5   0  0.5805753E-07  0.3926866E+04  0.7818609E-02  0.8019465E-01
        2   -1    0    0  501    0  0.00000000000E+00  0.00000000000E+00  0.25923017957E+04  0.25923017957E+04  0.25500000920E-02 0. -1.
       -2   -1    0    0    0  501  0.00000000000E+00  0.00000000000E+00 -0.14871219681E+04  0.14871219682E+04  0.25500000920E-02 0.  1.
    10030    2    1    2    0    0  0.00000000000E+00  0.00000000000E+00  0.11051798275E+04  0.40794237638E+04  0.39268658996E+04 0.  0.
        1    1    3    3  502    0  0.19087601857E+04  0.29994058366E+03  0.19012340875E+03  0.19415140254E+04  0.50400001928E-02 0.  1.
       -1    1    3    3    0  502 -0.19087601857E+04 -0.29994058366E+03  0.91505641876E+03  0.21379097384E+04  0.50400001928E-02 0. -1.
</event>
<event>
 5   0  0.2666813E-07  0.3671027E+04  0.7818609E-02  0.8074413E-01
       -1   -1    0    0    0  501  0.00000000000E+00  0.00000000000E+00  0.11887695541E+04  0.11887695541E+04  0.50400001928E-02 0.  1.
        1   -1    0    0  501    0  0.00000000000E+00  0.00000000000E+00 -0.28341145892E+04  0.28341145892E+04  0.50400001928E-02 0. -1.
    10030    2    1    2    0    0  0.00000000000E+00  0.00000000000E+00 -0.16453450351E+04  0.40228841434E+04  0.36710266338E+04 0.  0.
        1    1    3    3  502    0  0.97057465533E+03 -0.14563131622E+04 -0.14291087848E+04  0.22594723072E+04  0.50400001928E-02 0. -1.
       -1    1    3    3    0  502 -0.97057465533E+03  0.14563131622E+04 -0.21623625028E+03  0.17634118362E+04  0.50400001928E-02 0.  1.
</event>
<event>
 5   0  0.1943459E-07  0.3900553E+04  0.7818609E-02  0.8024914E-01
       -1   -1    0    0    0  501  0.00000000000E+00  0.00000000000E+00  0.34241188594E+04  0.34241188594E+04  0.50400001928E-02 0.  1.
        1   -1    0    0  501    0  0.00000000000E+00  0.00000000000E+00 -0.11108194264E+04  0.11108194264E+04  0.50400001928E-02 0. -1.
    10030    2    1    2    0    0  0.00000000000E+00  0.00000000000E+00  0.23132994330E+04  0.45349382859E+04  0.39005526518E+04 0.  0.
        2    1    3    3  502    0 -0.15464262350E+04 -0.98688724274E+03  0.19262762719E+04  0.26600603012E+04  0.25500000920E-02 0.  1.
       -2    1    3    3    0  502  0.15464262350E+04  0.98688724274E+03  0.38702316110E+03  0.18748779847E+04  0.25500000920E-02 0. -1.
</event>
<event>
 5   0  0.1860500E-07  0.3952309E+04  0.7818609E-02  0.8014237E-01
        1   -1    0    0  501    0  0.00000000000E+00  0.00000000000E+00  0.24547881864E+04  0.24547881864E+04  0.50400001928E-02 0.  1.
       -1   -1    0    0    0  501  0.00000000000E+00  0.00000000000E+00 -0.15908442890E+04  0.15908442890E+04  0.50400001928E-02 0. -1.
    10030    2    1    2    0    0  0.00000000000E+00  0.00000000000E+00  0.86394389737E+03  0.40456324754E+04  0.39523085745E+04 0.  0.
        5    1    3    3  502    0  0.76884820025E+03  0.21991251677E+03  0.22817602859E+04  0.24178381175E+04  0.46999998093E+01 0.  1.
       -5    1    3    3    0  502 -0.76884820025E+03 -0.21991251677E+03 -0.14178163885E+04  0.16277943579E+04  0.46999998093E+01 0. -1.
</event>
<event>
 5   0  0.3959190E-07  0.3825362E+04  0.7818609E-02  0.8040734E-01
       -2   -1    0    0    0  501  0.00000000000E+00  0.00000000000E+00  0.22500010846E+04  0.22500010846E+04  0.25500000920E-02 0. -1.
        2   -1    0    0  501    0  0.00000000000E+00  0.00000000000E+00 -0.16259319330E+04  0.16259319330E+04  0.25500000920E-02 0.  1.
    10030    2    1    2    0    0  0.00000000000E+00  0.00000000000E+00  0.62406915163E+03  0.38759330176E+04  0.38253620026E+04 0.  0.
        2    1    3    3  502    0 -0.50144396558E+03  0.70668244337E+03  0.20397164258E+04  0.22161428708E+04  0.25500000920E-02 0. -1.
       -2    1    3    3    0  502  0.50144396558E+03 -0.70668244337E+03 -0.14156472742E+04  0.16597901467E+04  0.25500000920E-02 0.  1.
</event>
<event>
 5   0  0.1876027E-07  0.3936644E+04  0.7818609E-02  0.8017451E-01
        1   -1    0    0  501    0  0.00000000000E+00  0.00000000000E+00  0.20941205569E+04  0.20941205569E+04  0.50400001928E-02 0.  1.
       -1   -1    0    0    0  501  0.00000000000E+00  0.00000000000E+00 -0.18500809080E+04  0.18500809080E+04  0.50400001928E-02 0. -1.
    10030    2    1    2    0    0  0.00000000000E+00  0.00000000000E+00  0.24403964885E+03  0.39442014649E+04  0.39366444907E+04 0.  0.
        3    1    3    3  502    0 -0.59507924213E+03  0.18761998106E+04  0.11512055529E+03  0.19716738539E+04  0.10100000352E+00 0. -1.
       -3    1    3    3    0  502  0.59507924213E+03 -0.18761998106E+04  0.12891909357E+03  0.19725276111E+04  0.10100000352E+00 0.  1.
</event>
<event>
 5   0  0.1860500E-07  0.4260927E+04  0.7818609E-02  0.7953883E-01
        1   -1    0    0  501    0  0.00000000000E+00  0.00000000000E+00  0.29297683328E+04  0.29297683328E+04  0.50400001928E-02 0.  1.
       -1   -1    0    0    0  501  0.00000000000E+00  0.00000000000E+00 -0.15492267698E+04  0.15492267698E+04  0.50400001928E-02 0. -1.
    10030    2    1    2    0    0  0.00000000000E+00  0.00000000000E+00  0.13805415631E+04  0.44789951026E+04  0.42609273782E+04 0.  0.
        4    1    3    3  502    0 -0.10995283932E+04  0.55205023634E+03 -0.11380400786E+04  0.16759650904E+04  0.12699999809E+01 0. -1.
       -4    1    3    3    0  502  0.10995283932E+04 -0.55205023634E+03  0.25185816416E+04  0.28030300122E+04  0.12699999809E+01 0.  1.
</event>
<event>
 5   0  0.6095665E-07  0.3864431E+04  0.7818609E-02  0.8032468E-01
        2   -1    0    0  501    0  0.00000000000E+00  0.00000000000E+00  0.26415942074E+04  0.26415942074E+04  0.25500000920E-02 0. -1.
       -2   -1    0    0    0  501  0.00000000000E+00  0.00000000000E+00 -0.14133344216E+04  0.14133344216E+04  0.25500000920E-02 0.  1.
    10030    2    1    2    0    0  0.00000000000E+00  0.00000000000E+00  0.12282597857E+04  0.40549286290E+04  0.38644306288E+04 0.  0.
        4    1    3    3  502    0  0.15641721831E+04 -0.14847323665E+02  0.18043282933E+04  0.23879818392E+04  0.12699999809E+01 0. -1.
       -4    1    3    3    0  502 -0.15641721831E+04  0.14847323665E+02 -0.57606850763E+03  0.16669467898E+04  0.12699999809E+01 0.  1.
</event>
<event>
 5   0  0.1860500E-07  0.2676192E+04  0.7818609E-02  0.8342771E-01
        1   -1    0    0  501    0  0.00000000000E+00  0.00000000000E+00  0.13825098769E+04  0.13825098769E+04  0.50400001928E-02 0. -1.
       -1   -1    0    0    0  501  0.00000000000E+00  0.00000000000E+00 -0.12951092711E+04  0.12951092711E+04  0.50400001928E-02 0.  1.
    10030    2    1    2    0    0  0.00000000000E+00  0.00000000000E+00  0.87400605796E+02  0.26776191480E+04  0.26761923391E+04 0.  0.
        4    1    3    3  502    0  0.26134836240E+03  0.12800051828E+04  0.33330844075E+03  0.13482627207E+04  0.12699999809E+01 0. -1.
       -4    1    3    3    0  502 -0.26134836240E+03 -0.12800051828E+04 -0.24590783496E+03  0.13293564273E+04  0.12699999809E+01 0.  1.
</event>
<event>
 5   0  0.1860500E-07  0.3980750E+04  0.7818609E-02  0.8008441E-01
       -1   -1    0    0    0  501  0.00000000000E+00  0.00000000000E+00  0.17856176452E+04  0.17856176452E+04  0.50400001928E-02 0. -1.
        1   -1    0    0  501    0  0.00000000000E+00  0.00000000000E+00 -0.22186119660E+04  0.22186119660E+04  0.50400001928E-02 0.  1.
    10030    2    1    2    0    0  0.00000000000E+00  0.00000000000E+00 -0.43299432077E+03  0.40042296112E+04  0.39807500169E+04 0.  0.
        4    1    3    3  502    0  0.49386715358E+03 -0.13495792007E+04  0.11686953693E+04  0.18523280659E+04  0.12699999809E+01 0. -1.
       -4    1    3    3    0  502 -0.49386715358E+03  0.13495792007E+04 -0.16016896901E+04  0.21519015453E+04  0.12699999809E+01 0.  1.
</event>
<event>
 5   0  0.2666813E-07  0.3904896E+04  0.7818609E-02  0.8024012E-01
       -1   -1    0    0    0  501  0.00000000000E+00  0.00000000000E+00  0.13781619925E+04  0.13781619925E+04  0.50400001928E-02 0. -1.
        1   -1    0    0  501    0  0.00000000000E+00  0.00000000000E+00 -0.27660412925E+04  0.27660412925E+04  0.50400001928E-02 0.  1.
    10030    2    1    2    0    0  0.00000000000E+00  0.00000000000E+00 -0.13878793000E+04  0.41442032850E+04  0.39048958905E+04 0.  0.
        1    1    3    3  502    0  0.18086666115E+04  0.57690727905E+03 -0.11779084671E+04  0.22341811200E+04  0.50400001928E-02 0.  1.
       -1    1    3    3    0  502 -0.18086666115E+04 -0.57690727905E+03 -0.20997083287E+03  0.19100221650E+04  0.50400001928E-02 0. -1.
</event>
<event>
 5   0  0.5805753E-07  0.3787709E+04  0.7818609E-02  0.8048798E-01
       -2   -1    0    0    0  501  0.00000000000E+00  0.00000000000E+00  0.21094630407E+04  0.21094630407E+04  0.25500000920E-02 0.  1.
        2   -1    0    0  501    0  0.00000000000E+00  0.00000000000E+00 -0.17002836901E+04  0.17002836901E+04  0.25500000920E-02 0. -1.
    10030    2    1    2    0    0  0.00000000000E+00  0.00000000000E+00  0.40917935061E+03  0.38097467308E+04  0.37877093886E+04 0.  0.
        1    1    3    3  502    0 -0.29125322276E+03 -0.15666734643E+04  0.12339654906E+04  0.20154317194E+04  0.50400001928E-02 0.  1.
       -1    1    3    3    0  502  0.29125322276E+03  0.15666734643E+04 -0.82478614000E+03  0.17943150114E+04  0.50400001928E-02 0. -1.
</event>
<event>
 5   0  0.1876027E-07  0.3867327E+04  0.7818609E-02  0.8031859E-01
        1   -1    0    0  501    0  0.00000000000E+00  0.00000000000E+00  0.28830597646E+04  0.28830597646E+04  0.50400001928E-02 0. -1.
       -1   -1    0    0    0  501  0.00000000000E+00  0.00000000000E+00 -0.12969046900E+04  0.12969046900E+04  0.50400001928E-02 0.  1.
    10030    2    1    2    0    0  0.00000000000E+00  0.00000000000E+00  0.15861550745E+04  0.41799644546E+04  0.38673265858E+04 0.  0.
        3    1    3    3  502    0 -0.85315482651E+03 -0.15378494357E+04  0.16619281420E+04  0.24196816328E+04  0.10100000352E+00 0. -1.
       -3    1    3    3    0  502  0.85315482651E+03  0.15378494357E+04 -0.75773067436E+02  0.17602828218E+04  0.10100000352E+00 0.  1.
</event>
<event>
 5   0  0.3959190E-07  0.3873539E+04  0.7818609E-02  0.8030555E-01
       -2   -1    0    0    0  501  0.00000000000E+00  0.00000000000E+00  0.17607783910E+04  0.17607783910E+04  0.25500000920E-02 0. -1.
        2   -1    0    0  501    0  0.00000000000E+00  0.00000000000E+00 -0.21303509221E+04  0.21303509221E+04  0.25500000920E-02 0.  1.
    10030    2    1    2    0    0  0.00000000000E+00  0.00000000000E+00 -0.36957253119E+03  0.38911293131E+04  0.38735388827E+04 0.  0.
        2    1    3    3  502    0 -0.12164909943E+04 -0.14503020349E+04 -0.59634120497E+03  0.19846534116E+04  0.25500000920E-02 0.  1.
       -2    1    3    3    0  502  0.12164909943E+04  0.14503020349E+04  0.22676867378E+03  0.19064759015E+04  0.25500000920E-02 0. -1.
</event>
<event>
 5   0  0.5872444E-07  0.3966689E+04  0.7818609E-02  0.8011300E-01
        2   -1    0    0  501    0  0.00000000000E+00  0.00000000000E+00  0.13235744484E+04  0.13235744484E+04  0.25500000920E-02 0.  1.
       -2   -1    0    0    0  501  0.00000000000E+00  0.00000000000E+00 -0.29719943203E+04  0.29719943203E+04  0.25500000920E-02 0. -1.
    10030    2    1    2    0    0  0.00000000000E+00  0.00000000000E+00 -0.16484198720E+04  0.42955687687E+04  0.39666891701E+04 0.  0.
        3    1    3    3  502    0 -0.11079363357E+04 -0.97964314514E+03 -0.22553045934E+04  0.26969654123E+04  0.10100000352E+00 0. -1.
       -3    1    3    3    0  502  0.11079363357E+04  0.97964314514E+03  0.60688472149E+03  0.15986033564E+04  0.10100000352E+00 0.  1.
</event>
<event>
 5   0  0.1860500E-07  0.3549655E+04  0.7818609E-02  0.8102122E-01
       -3   -1    0    0    0  501  0.00000000000E+00  0.00000000000E+00  0.27562685890E+04  0.27562685908E+04  0.10100000352E+00 0.  1.
        3   -1    0    0  501    0  0.00000000000E+00  0.00000000000E+00 -0.11428542209E+04  0.11428542254E+04  0.10100000352E+00 0. -1.
    10030    2    1    2    0    0  0.00000000000E+00  0.00000000000E+00  0.16134143681E+04  0.38991228162E+04  0.35496553090E+04 0.  0.
        5    1    3    3  502    0  0.91152757649E+03 -0.48258992804E+02  0.24786564621E+04  0.26413957296E+04  0.46999998093E+01 0.  1.
       -5    1    3    3    0  502 -0.91152757649E+03  0.48258992804E+02 -0.86524209405E+03  0.12577270866E+04  0.46999998093E+01 0. -1.
</event>
<event>
 5   0  0.1860500E-07  0.3828924E+04  0.7818609E-02  0.8039976E-01
       -1   -1    0    0    0  501  0.00000000000E+00  0.00000000000E+00  0.15580803165E+04  0.15580803165E+04  0.50400001928E-02 0.  1.
        1   -1    0    0  501    0  0.00000000000E+00  0.00000000000E+00 -0.23523591273E+04  0.23523591274E+04  0.50400001928E-02 0. -1.
    10030    2    1    2    0    0  0.00000000000E+00  0.00000000000E+00 -0.79427881087E+03  0.39104394438E+04  0.38289238455E+04 0.  0.
        5    1    3    3  502    0  0.28150805941E+03 -0.36449434247E+03 -0.22949357523E+04  0.23406954331E+04  0.46999998093E+01 0. -1.
       -5    1    3    3    0  502 -0.28150805941E+03  0.36449434247E+03  0.15006569415E+04  0.15697440107E+04  0.46999998093E+01 0.  1.
</event>
<event>
 5   0  0.6095665E-07  0.2878277E+04  0.7818609E-02  0.8279370E-01
       -2   -1    0    0    0  501  0.00000000000E+00  0.00000000000E+00  0.22289867387E+04  0.22289867387E+04  0.25500000920E-02 0. -1.
        2   -1    0    0  501    0  0.00000000000E+00  0.00000000000E+00 -0.92917570906E+03  0.92917570906E+03  0.25500000920E-02 0.  1.
    10030    2    1    2    0    0  0.00000000000E+00  0.00000000000E+00  0.12998110297E+04  0.31581624478E+04  0.28782774942E+04 0.  0.
        4    1    3    3  502    0 -0.11104075659E+04 -0.20984656847E+03 -0.32785711279E+03  0.11766615673E+04  0.12699999809E+01 0.  1.
       -4    1    3    3    0  502  0.11104075659E+04  0.20984656847E+03  0.16276681425E+04  0.19815008805E+04  0.12699999809E+01 0. -1.
</event>
<event>
 5   0  0.6095665E-07  0.3070564E+04  0.7818609E-02  0.8223863E-01
       -2   -1    0    0    0  501  0.00000000000E+00  0.00000000000E+00  0.12993010041E+04  0.12993010041E+04  0.25500000920E-02 0.  1.
        2   -1    0    0  501    0  0.00000000000E+00  0.00000000000E+00 -0.18141218791E+04  0.18141218791E+04  0.25500000920E-02 0. -1.
    10030    2    1    2    0    0  0.00000000000E+00  0.00000000000E+00 -0.51482087499E+03  0.31134228832E+04  0.30705637132E+04 0.  0.
        4    1    3    3  502    0  0.90576121835E+03 -0.84710535151E+01  0.99949423113E+03  0.13488756334E+04  0.12699999809E+01 0.  1.
       -4    1    3    3    0  502 -0.90576121835E+03  0.84710535151E+01 -0.15143151061E+04  0.17645472498E+04  0.12699999809E+01 0. -1.
</event>
<event>
 5   0  0.3959190E-07  0.3820454E+04  0.7818609E-02  0.8041780E-01
        2   -1    0    0  501    0  0.00000000000E+00  0.00000000000E+00  0.27985141627E+04  0.27985141627E+04  0.25500000920E-02 0.  1.
       -2   -1    0    0    0  501  0.00000000000E+00  0.00000000000E+00 -0.13038944933E+04  0.13038944933E+04  0.25500000920E-02 0. -1.
    10030    2    1    2    0    0  0.00000000000E+00  0.00000000000E+00  0.14946196694E+04  0.41024086559E+04  0.38204540076E+04 0.  0.
        2    1    3    3  502    0 -0.11079955078E+04 -0.10648856149E+04  0.19656517640E+04  0.24950796130E+04  0.25500000920E-02 0.  1.
       -2    1    3    3    0  502  0.11079955078E+04  0.10648856149E+04 -0.47103209459E+03  0.16073290429E+04  0.25500000920E-02 0. -1.
</event>
<event>
 5   0  0.1860500E-07  0.3720597E+04  0.7818609E-02  0.8063413E-01
       -1   -1    0    0    0  501  0.00000000000E+00  0.00000000000E+00  0.16247474831E+04  0.16247474831E+04  0.50400001928E-02 0. -1.
        1   -1    0    0  501    0  0.00000000000E+00  0.00000000000E+00 -0.21299989187E+04  0.21299989187E+04  0.50400001928E-02 0.  1.
    10030    2    1    2    0    0  0.00000000000E+00  0.00000000000E+00 -0.50525143552E+03  0.37547464018E+04  0.37205969318E+04 0.  0.
        5    1    3    3  502    0  0.48902202786E+03 -0.16666321499E+04  0.41973488033E+03  0.17868980740E+04  0.46999998093E+01 0. -1.
       -5    1    3    3    0  502 -0.48902202786E+03  0.16666321499E+04 -0.92498631585E+03  0.19678483279E+04  0.46999998093E+01 0.  1.
</event>
<event>
 5   0  0.5805753E-07  0.3889128E+04  0.7818609E-02  0.8027294E-01
       -2   -1    0    0    0  501  0.00000000000E+00  0.00000000000E+00  0.16664085483E+04  0.16664085483E+04  0.25500000920E-02 0.  1.
        2   -1    0    0  501    0  0.00000000000E+00  0.00000000000E+00 -0.22691484116E+04  0.22691484116E+04  0.25500000920E-02 0. -1.
    10030    2    1    2    0    0  0.00000000000E+00  0.00000000000E+00 -0.60273986331E+03  0.39355569599E+04  0.38891275682E+04 0.  0.
        1    1    3    3  502    0 -0.15183200564E+04 -0.29703308824E+03 -0.14934846757E+04  0.21503536746E+04  0.50400001928E-02 0. -1.
       -1    1    3    3    0  502  0.15183200564E+04  0.29703308824E+03  0.89074481240E+03  0.17852032853E+04  0.50400001928E-02 0.  1.
</event>
<event>
 5   0  0.1860500E-07  0.2815080E+04  0.7818609E-02  0.8298602E-01
        3   -1    0    0  501    0  0.00000000000E+00  0.00000000000E+00  0.29635373663E+04  0.29635373680E+04  0.10100000352E+00 0. -1.
       -3   -1    0    0    0  501  0.00000000000E+00  0.00000000000E+00 -0.66851483402E+03  0.66851484165E+03  0.10100000352E+00 0.  1.
    10030    2    1    2    0    0  0.00000000000E+00  0.00000000000E+00  0.22950225323E+04  0.36320522097E+04  0.28150798976E+04 0.  0.
        2    1    3    3  502    0 -0.36184725946E+03 -0.11693895903E+04  0.20439661970E+04  0.23824783877E+04  0.25500000920E-02 0. -1.
       -2    1    3    3    0  502  0.36184725946E+03  0.11693895903E+04  0.25105633528E+03  0.12495738220E+04  0.25500000920E-02 0.  1.
</event>
<event>
 5   0  0.1876027E-07  0.3862897E+04  0.7818609E-02  0.8032790E-01
        1   -1    0    0  501    0  0.00000000000E+00  0.00000000000E+00  0.10993641695E+04  0.10993641695E+04  0.50400001928E-02 0. -1.
       -1   -1    0    0    0  501  0.00000000000E+00  0.00000000000E+00 -0.33933191583E+04  0.33933191583E+04  0.50400001928E-02 0.  1.
    10030    2    1    2    0    0  0.00000000000E+00  0.00000000000E+00 -0.22939549889E+04  0.44926833278E+04  0.38628970985E+04 0.  0.
        3    1    3    3  502    0 -0.70239601922E+03 -0.17932126210E+04 -0.97635663381E+03  0.21592229988E+04  0.10100000352E+00 0.  1.
       -3    1    3    3    0  502  0.70239601922E+03  0.17932126210E+04 -0.13175983550E+04  0.23334603291E+04  0.10100000352E+00 0. -1.
</event>
<event>
 5   0  0.1860500E-07  0.3968144E+04  0.7818609E-02  0.8011004E-01
        3   -1    0    0  501    0  0.00000000000E+00  0.00000000000E+00  0.23323124818E+04  0.23323124840E+04  0.10100000352E+00 0.  1.
       -3   -1    0    0    0  501  0.00000000000E+00  0.00000000000E+00 -0.16878276429E+04  0.16878276460E+04  0.10100000352E+00 0. -1.
    10030    2    1    2    0    0  0.00000000000E+00  0.00000000000E+00  0.64448483885E+03  0.40201401299E+04  0.39681438932E+04 0.  0.
        1    1    3    3  502    0  0.21154279011E+03 -0.19218307009E+04 -0.12896738080E+03  0.19377348065E+04  0.50400001928E-02 0. -1.
       -1    1    3    3    0  502 -0.21154279011E+03  0.19218307009E+04  0.77345221965E+03  0.20824053234E+04  0.50400001928E-02 0.  1.
</event>
<event>
 5   0  0.6095665E-07  0.3975173E+04  0.7818609E-02  0.8009574E-01
       -2   -1    0    0    0  501  0.00000000000E+00  0.00000000000E+00  0.15170495703E+04  0.15170495703E+04  0.25500000920E-02 0. -1.
        2   -1    0    0  501    0  0.00000000000E+00  0.00000000000E+00 -0.26040685319E+04  0.26040685319E+04  0.25500000920E-02 0.  1.
    10030    2    1    2    0    0  0.00000000000E+00  0.00000000000E+00 -0.10870189616E+04  0.41211181022E+04  0.39751734791E+04 0.  0.
        4    1    3    3  502    0  0.13575710985E+04  0.92059003262E+02 -0.20455021382E+04  0.24567366073E+04  0.12699999809E+01 0.  1.
       -4    1    3    3    0  502 -0.13575710985E+04 -0.92059003262E+02  0.95848317664E+03  0.16643814948E+04  0.12699999809E+01 0. -1.
</event>
<event>
 5   0  0.1943459E-07  0.3994952E+04  0.7818609E-02  0.8005566E-01
       -1   -1    0    0    0  501  0.00000000000E+00  0.00000000000E+00  0.29950040426E+04  0.29950040426E+04  0.50400001928E-02 0. -1.
        1   -1    0    0  501    0  0.00000000000E+00  0.00000000000E+00 -0.13321883320E+04  0.13321883321E+04  0.50400001928E-02 0.  1.
    10030    2    1    2    0    0  0.00000000000E+00  0.00000000000E+00  0.16628157106E+04  0.43271923747E+04  0.39949515341E+04 0.  0.
        2    1    3    3  502    0  0.16396421782E+04  0.11253251695E+04  0.62840111311E+03  0.20855865286E+04  0.25500000920E-02 0. -1.
       -2    1    3    3    0  502 -0.16396421782E+04 -0.11253251695E+04  0.10344145974E+04  0.22416058460E+04  0.25500000920E-02 0.  1.
</event>
<event>
 5   0  0.1876027E-07  0.3752768E+04  0.7818609E-02  0.8056367E-01
        1   -1    0    0  501    0  0.00000000000E+00  0.00000000000E+00  0.27348950192E+04  0.27348950192E+04  0.50400001928E-02 0.  1.
       -1   -1    0    0    0  501  0.00000000000E+00  0.00000000000E+00 -0.12873682592E+04  0.12873682592E+04  0.50400001928E-02 0. -1.
    10030    2    1    2    0    0  0.00000000000E+00  0.00000000000E+00  0.14475267600E+04  0.40222632784E+04  0.37527680664E+04 0.  0.
        3    1    3    3  502    0  0.13199765981E+04 -0.32830405316E+03 -0.66161175890E+03  0.15125646765E+04  0.10100000352E+00 0. -1.
       -3    1    3    3    0  502 -0.13199765981E+04  0.32830405316E+03  0.21091385189E+04  0.25096986020E+04  0.10100000352E+00 0.  1.
</event>
<event>
 5   0  0.3959190E-07  0.3877863E+04  0.7818609E-02  0.8029649E-01
       -2   -1    0    0    0  501  0.00000000000E+00  0.00000000000E+00  0.24455872521E+04  0.24455872521E+04  0.25500000920E-02 0. -1.
        2   -1    0    0  501    0  0.00000000000E+00  0.00000000000E+00 -0.15372401004E+04  0.15372401004E+04  0.25500000920E-02 0.  1.
    10030    2    1    2    0    0  0.00000000000E+00  0.00000000000E+00  0.90834715170E+03  0.39828273525E+04  0.38778627067E+04 0.  0.
        2    1    3    3  502    0  0.89540317416E+03 -0.15329408537E+04  0.12548914119E+04  0.21740301196E+04  0.25500000920E-02 0. -1.
       -2    1    3    3    0  502 -0.89540317416E+03  0.15329408537E+04 -0.34654426018E+03  0.18087972329E+04  0.25500000920E-02 0.  1.
</event>
<event>
 5   0  0.1876027E-07  0.3838433E+04  0.7818609E-02  0.8037957E-01
        1   -1    0    0  501    0  0.00000000000E+00  0.00000000000E+00  0.25549543435E+04  0.25549543435E+04  0.50400001928E-02 0.  1.
       -1   -1    0    0    0  501  0.00000000000E+00  0.00000000000E+00 -0.14416664644E+04  0.14416664645E+04  0.50400001928E-02 0. -1.
    10030    2    1    2    0    0  0.00000000000E+00  0.00000000000E+00  0.11132878791E+04  0.39966208080E+04  0.38384330111E+04 0.  0.
        3    1    3    3  502    0 -0.77432886293E+03 -0.14962304829E+04  0.15138232948E+04  0.22649396954E+04  0.10100000352E+00 0.  1.
       -3    1    3    3    0  502  0.77432886293E+03  0.14962304829E+04 -0.40053541569E+03  0.17316811125E+04  0.10100000352E+00 0. -1.
</event>
<event>
 5   0  0.6095665E-07  0.2793736E+04  0.7818609E-02  0.8305216E-01
        2   -1    0    0  501    0  0.00000000000E+00  0.00000000000E+00  0.23115071492E+04  0.23115071492E+04  0.25500000920E-02 0. -1.
       -2   -1    0    0    0  501  0.00000000000E+00  0.00000000000E+00 -0.84414168942E+03  0.84414168942E+03  0.25500000920E-02 0.  1.
    10030    2    1    2    0    0  0.00000000000E+00  0.00000000000E+00  0.14673654598E+04  0.31556488387E+04  0.27937355280E+04 0.  0.
        4    1    3    3  502    0 -0.48957581289E+03  0.65587576157E+03 -0.54494001080E+03  0.98326940330E+03  0.12699999809E+01 0.  1.
       -4    1    3    3    0  502  0.48957581289E+03 -0.65587576157E+03  0.20123054706E+04  0.21723794354E+04  0.12699999809E+01 0. -1.
</event>
<event>
 5   0  0.5805753E-07  0.3099639E+04  0.7818609E-02  0.8215837E-01
        2   -1    0    0  501    0  0.00000000000E+00  0.00000000000E+00  0.19368241145E+04  0.19368241145E+04  0.25500000920E-02 0.  1.
       -2   -1    0    0    0  501  0.00000000000E+00  0.00000000000E+00 -0.12401440304E+04  0.12401440304E+04  0.25500000920E-02 0. -1.
    10030    2    1    2    0    0  0.00000000000E+00  0.00000000000E+00  0.69668008412E+03  0.31769681449E+04  0.30996392458E+04 0.  0.
        1    1    3    3  502    0 -0.35486962984E+03 -0.13938882201E+04 -0.24319247144E+03  0.14587663975E+04  0.50400001928E-02 0. -1.
       -1    1    3    3    0  502  0.35486962984E+03  0.13938882201E+04  0.93987255556E+03  0.17182017474E+04  0.50400001928E-02 0.  1.
</event>
<event>
 5   0  0.5805753E-07  0.3976288E+04  0.7818609E-02  0.8009347E-01
       -2   -1    0    0    0  501  0.00000000000E+00  0.00000000000E+00  0.18281236630E+04  0.18281236630E+04  0.25500000920E-02 0. -1.
        2   -1    0    0  501    0  0.00000000000E+00  0.00000000000E+00 -0.21621713381E+04  0.21621713381E+04  0.25500000920E-02 0.  1.
    10030    2    1    2    0    0  0.00000000000E+00  0.00000000000E+00 -0.33404767513E+03  0.39902950010E+04  0.39762880109E+04 0.  0.
        1    1    3    3  502    0  0.40326476494E+03 -0.10688546078E+04 -0.17999139551E+04  0.21318449495E+04  0.50400001928E-02 0.  1.
       -1    1    3    3    0  502 -0.40326476494E+03  0.10688546078E+04  0.14658662799E+04  0.18584500515E+04  0.50400001928E-02 0. -1.
</event>
<event>
 5   0  0.5872444E-07  0.4408106E+04  0.7818609E-02  0.7926925E-01
        2   -1    0    0  501    0  0.00000000000E+00  0.00000000000E+00  0.15482040414E+04  0.15482040414E+04  0.25500000920E-02 0. -1.
       -2   -1    0    0    0  501  0.00000000000E+00  0.00000000000E+00 -0.31377317597E+04  0.31377317597E+04  0.25500000920E-02 0.  1.
    10030    2    1    2    0    0  0.00000000000E+00  0.00000000000E+00 -0.15895277183E+04  0.46859358011E+04  0.44081057116E+04 0.  0.
        3    1    3    3  502    0  0.14026144225E+03 -0.19557762920E+04 -0.18647389423E+04  0.27059167596E+04  0.10100000352E+00 0.  1.
       -3    1    3    3    0  502 -0.14026144225E+03  0.19557762920E+04  0.27521122397E+03  0.19800190415E+04  0.10100000352E+00 0. -1.
</event>
<event>
 5   0  0.5872444E-07  0.2587594E+04  0.7818609E-02  0.8372428E-01
        2   -1    0    0  501    0  0.00000000000E+00  0.00000000000E+00  0.19009038003E+04  0.19009038003E+04  0.25500000920E-02 0. -1.
       -2   -1    0    0    0  501  0.00000000000E+00  0.00000000000E+00 -0.88058654411E+03  0.88058654411E+03  0.25500000920E-02 0.  1.
    10030    2    1    2    0    0  0.00000000000E+00  0.00000000000E+00  0.10203172561E+04  0.27814903444E+04  0.25875937148E+04 0.  0.
        3    1    3    3  502    0  0.27262251450E+03  0.21815334005E+03  0.18493012148E+04  0.18819747364E+04  0.10100000352E+00 0. -1.
       -3    1    3    3    0  502 -0.27262251450E+03 -0.21815334005E+03 -0.82898395862E+03  0.89951560800E+03  0.10100000352E+00 0.  1.
</event>
<event>
 5   0  0.1876027E-07  0.3921707E+04  0.7818609E-02  0.8020530E-01
       -1   -1    0    0    0  501  0.00000000000E+00  0.00000000000E+00  0.32522385883E+04  0.32522385883E+04  0.50400001928E-02 0.  1.
        1   -1    0    0  501    0  0.00000000000E+00  0.00000000000E+00 -0.11822458850E+04  0.11822458850E+04  0.50400001928E-02 0. -1.
    10030    2    1    2    0    0  0.00000000000E+00  0.00000000000E+00  0.20699927033E+04  0.44344844733E+04  0.39217066123E+04 0.  0.
        3    1    3    3  502    0 -0.78441752986E+01  0.41036755050E+03 -0.11331285467E+04  0.12051735855E+04  0.10100000352E+00 0. -1.
       -3    1    3    3    0  502  0.78441752986E+01 -0.41036755050E+03  0.32031212500E+04  0.32293108878E+04  0.10100000352E+00 0.  1.
</event>
<event>
 5   0  0.1860500E-07  0.3915600E+04  0.7818609E-02  0.8021792E-01
       -1   -1    0    0    0  501  0.00000000000E+00  0.00000000000E+00  0.14489487381E+04  0.14489487381E+04  0.50400001928E-02 0. -1.
        1   -1    0    0  501    0  0.00000000000E+00  0.00000000000E+00 -0.26453535338E+04  0.26453535338E+04  0.50400001928E-02 0.  1.
    10030    2    1    2    0    0  0.00000000000E+00  0.00000000000E+00 -0.11964047957E+04  0.40943022719E+04  0.39156004212E+04 0.  0.
        4    1    3    3  502    0  0.19116430704E+04 -0.21388123641E+03 -0.21707380322E+03  0.19357807368E+04  0.12699999809E+01 0. -1.
       -4    1    3    3    0  502 -0.19116430704E+04  0.21388123641E+03 -0.97933099246E+03  0.21585215351E+04  0.12699999809E+01 0.  1.
</event>
<event>
 5   0  0.3959190E-07  0.3909188E+04  0.7818609E-02  0.8023121E-01
       -2   -1    0    0    0  501  0.00000000000E+00  0.00000000000E+00  0.18173352238E+04  0.18173352238E+04  0.25500000920E-02 0. -1.
        2   -1    0    0  501    0  0.00000000000E+00  0.00000000000E+00 -0.21022201001E+04  0.21022201001E+04  0.25500000920E-02 0.  1.
    10030    2    1    2    0    0  0.00000000000E+00  0.00000000000E+00 -0.28488487630E+03  0.39195553239E+04  0.39091884764E+04 0.  0.
        2    1    3    3  502    0  0.64663810294E+02  0.97595353062E+03 -0.18391984756E+04  0.20831029103E+04  0.25500000920E-02 0.  1.
       -2    1    3    3    0  502 -0.64663810294E+02 -0.97595353062E+03  0.15543135993E+04  0.18364524136E+04  0.25500000920E-02 0. -1.
</event>
<event>
 5   0  0.1876027E-07  0.3108393E+04  0.7818609E-02  0.8213438E-01
        1   -1    0    0  501    0  0.00000000000E+00  0.00000000000E+00  0.20285804537E+04  0.20285804537E+04  0.50400001928E-02 0.  1.
       -1   -1    0    0    0  501  0.00000000000E+00  0.00000000000E+00 -0.11907471247E+04  0.11907471248E+04  0.50400001928E-02 0. -1.
    10030    2    1    2    0    0  0.00000000000E+00  0.00000000000E+00  0.83783332895E+03  0.32193275785E+04  0.31083927310E+04 0.  0.
        3    1    3    3  502    0 -0.40928581099E+03  0.10149532026E+04  0.15618786701E+04  0.19071208323E+04  0.10100000352E+00 0.  1.
       -3    1    3    3    0  502  0.40928581099E+03 -0.10149532026E+04 -0.72404534113E+03  0.13122067462E+04  0.10100000352E+00 0. -1.
</event>
<event>
 5   0  0.2145018E-07  0.2497245E+04  0.7818609E-02  0.8403968E-01
        1   -1    0    0  501    0  0.00000000000E+00  0.00000000000E+00  0.18639445728E+04  0.18639445728E+04  0.50400001928E-02 0. -1.
       -1   -1    0    0    0  501  0.00000000000E+00  0.00000000000E+00 -0.83642941626E+03  0.83642941627E+03  0.50400001928E-02 0.  1.
    10030    2    1    2    0    0  0.00000000000E+00  0.00000000000E+00  0.10275151565E+04  0.27003739890E+04  0.24972449387E+04 0.  0.
        2    1    3    3  502    0 -0.38469723348E+03  0.19011080090E+03 -0.75419239764E+03  0.86772129784E+03  0.25500000920E-02 0.  1.
       -2    1    3    3    0  502  0.38469723348E+03 -0.19011080090E+03  0.17817075541E+04  0.18326526912E+04  0.25500000920E-02 0. -1.
</event>
<event>
 5   0  0.1876027E-07  0.3893860E+04  0.7818609E-02  0.8026307E-01
        1   -1    0    0  501    0  0.00000000000E+00  0.00000000000E+00  0.15668462178E+04  0.15668462178E+04  0.50400001928E-02 0. -1.
       -1   -1    0    0    0  501  0.00000000000E+00  0.00000000000E+00 -0.24192139222E+04  0.24192139222E+04  0.50400001928E-02 0.  1.
    10030    2    1    2    0    0  0.00000000000E+00  0.00000000000E+00 -0.85236770434E+03  0.39860601400E+04  0.38938598763E+04 0.  0.
        3    1    3    3  502    0  0.13008321318E+03  0.19425724599E+04 -0.42088739433E+03  0.19918974906E+04  0.10100000352E+00 0. -1.
       -3    1    3    3    0  502 -0.13008321318E+03 -0.19425724599E+04 -0.43148031001E+03  0.19941626494E+04  0.10100000352E+00 0.  1.
</event>
<event>
 5   0  0.1876027E-07  0.3181018E+04  0.7818609E-02  0.8193848E-01
        1   -1    0    0  501    0  0.00000000000E+00  0.00000000000E+00  0.26032696863E+04  0.26032696863E+04  0.50400001928E-02 0.  1.
       -1   -1    0    0    0  501  0.00000000000E+00  0.00000000000E+00 -0.97174692189E+03  0.97174692191E+03  0.50400001928E-02 0. -1.
    10030    2    1    2    0    0  0.00000000000E+00  0.00000000000E+00  0.16315227644E+04  0.35750166082E+04  0.31810182675E+04 0.  0.
        3    1    3    3  502    0 -0.49967250382E+02 -0.95651538483E+03 -0.61127467621E+03  0.11362548779E+04  0.10100000352E+00 0. -1.
       -3    1    3    3    0  502  0.49967250382E+02  0.95651538483E+03  0.22427974406E+04  0.24387617304E+04  0.10100000352E+00 0.  1.
</event>
<event>
 5   0  0.1860500E-07  0.3144776E+04  0.7818609E-02  0.8203556E-01
       -1   -1    0    0    0  501  0.00000000000E+00  0.00000000000E+00  0.11976154864E+04  0.11976154864E+04  0.50400001928E-02 0. -1.
        1   -1    0    0  501    0  0.00000000000E+00  0.00000000000E+00 -0.20644390965E+04  0.20644390965E+04  0.50400001928E-02 0.  1.
    10030    2    1    2    0    0  0.00000000000E+00  0.00000000000E+00 -0.86682361008E+03  0.32620545830E+04  0.31447761337E+04 0.  0.
        5    1    3    3  502    0  0.66765445716E+03 -0.89418584423E+02  0.10403564698E+04  0.12394038211E+04  0.46999998093E+01 0. -1.
       -5    1    3    3    0  502 -0.66765445716E+03  0.89418584423E+02 -0.19071800799E+04  0.20226507619E+04  0.46999998093E+01 0.  1.
</event>
<event>
 5   0  0.5735179E-07  0.3123672E+04  0.7818609E-02  0.8209271E-01
        2   -1    0    0  501    0  0.00000000000E+00  0.00000000000E+00  0.22612807873E+04  0.22612807873E+04  0.25500000920E-02 0.  1.
       -2   -1    0    0    0  501  0.00000000000E+00  0.00000000000E+00 -0.10787389451E+04  0.10787389451E+04  0.25500000920E-02 0. -1.
    10030    2    1    2    0    0  0.00000000000E+00  0.00000000000E+00  0.11825418422E+04  0.33400197325E+04  0.31236719746E+04 0.  0.
        5    1    3    3  502    0 -0.12710026979E+04 -0.44466840573E+03 -0.25481888302E+03  0.13704497811E+04  0.46999998093E+01 0. -1.
       -5    1    3    3    0  502  0.12710026979E+04  0.44466840573E+03  0.14373607252E+04  0.19695699514E+04  0.46999998093E+01 0.  1.
</event>
<event>
 5   0  0.5735179E-07  0.2931825E+04  0.7818609E-02  0.8263471E-01
       -2   -1    0    0    0  501  0.00000000000E+00  0.00000000000E+00  0.11200679362E+04  0.11200679362E+04  0.25500000920E-02 0.  1.
        2   -1    0    0  501    0  0.00000000000E+00  0.00000000000E+00 -0.19185444163E+04  0.19185444163E+04  0.25500000920E-02 0. -1.
    10030    2    1    2    0    0  0.00000000000E+00  0.00000000000E+00 -0.79847648005E+03  0.30386123525E+04  0.29318254279E+04 0.  0.
        5    1    3    3  502    0  0.12500145265E+04  0.49140648335E+03 -0.10078767836E+04  0.16792421949E+04  0.46999998093E+01 0. -1.
       -5    1    3    3    0  502 -0.12500145265E+04 -0.49140648335E+03  0.20940030359E+03  0.13593701576E+04  0.46999998093E+01 0.  1.
</event>
<event>
 5   0  0.5735179E-07  0.3414711E+04  0.7818609E-02  0.8134305E-01
        2   -1    0    0  501    0  0.00000000000E+00  0.00000000000E+00  0.17469913138E+04  0.17469913138E+04  0.25500000920E-02 0. -1.
       -2   -1    0    0    0  501  0.00000000000E+00  0.00000000000E+00 -0.16686191283E+04  0.16686191283E+04  0.25500000920E-02 0.  1.
    10030    2    1    2    0    0  0.00000000000E+00  0.00000000000E+00  0.78372185554E+02  0.34156104421E+04  0.34147111873E+04 0.  0.
        5    1    3    3  502    0 -0.10499393659E+04 -0.15153652305E+03  0.13773369793E+04  0.17385094865E+04  0.46999998093E+01 0. -1.
       -5    1    3    3    0  502  0.10499393659E+04  0.15153652305E+03 -0.12989647938E+04  0.16771009556E+04  0.46999998093E+01 0.  1.
</event>
<event>
 5   0  0.1876027E-07  0.3833711E+04  0.7818609E-02  0.8038959E-01
       -1   -1    0    0    0  501  0.00000000000E+00  0.00000000000E+00  0.22165935217E+04  0.22165935217E+04  0.50400001928E-02 0.  1.
        1   -1    0    0  501    0  0.00000000000E+00  0.00000000000E+00 -0.16576491251E+04  0.16576491251E+04  0.50400001928E-02 0. -1.
    10030    2    1    2    0    0  0.00000000000E+00  0.00000000000E+00  0.55894439659E+03  0.38742426468E+04  0.38337106369E+04 0.  0.
        3    1    3    3  502    0  0.15095618682E+04 -0.10870884197E+04 -0.18779716935E+03  0.18697074780E+04  0.10100000352E+00 0. -1.
       -3    1    3    3    0  502 -0.15095618682E+04  0.10870884197E+04  0.74674156594E+03  0.20045351688E+04  0.10100000352E+00 0.  1.
</event>
<event>
 5   0  0.5735179E-07  0.3984394E+04  0.7818609E-02  0.8007702E-01
       -2   -1    0    0    0  501  0.00000000000E+00  0.00000000000E+00  0.19707886801E+04  0.19707886801E+04  0.25500000920E-02 0.  1.
        2   -1    0    0  501    0  0.00000000000E+00  0.00000000000E+00 -0.20138373990E+04  0.20138373990E+04  0.25500000920E-02 0. -1.
    10030    2    1    2    0    0  0.00000000000E+00  0.00000000000E+00 -0.43048718854E+02  0.39846260791E+04  0.39843935296E+04 0.  0.
        5    1    3    3  502    0  0.38315474780E+03 -0.40214857752E+03 -0.19348257209E+04  0.20129837803E+04  0.46999998093E+01 0. -1.
       -5    1    3    3    0  502 -0.38315474780E+03  0.40214857752E+03  0.18917770021E+04  0.19716422989E+04  0.46999998093E+01 0.  1.
</event>
<event>
 5   0  0.1876027E-07  0.3858612E+04  0.7818609E-02  0.8033693E-01
       -1   -1    0    0    0  501  0.00000000000E+00  0.00000000000E+00  0.15092411370E+04  0.15092411370E+04  0.50400001928E-02 0. -1.
        1   -1    0    0  501    0  0.00000000000E+00  0.00000000000E+00 -0.24662864793E+04  0.24662864793E+04  0.50400001928E-02 0.  1.
    10030    2    1    2    0    0  0.00000000000E+00  0.00000000000E+00 -0.95704534224E+03  0.39755276163E+04  0.38586116727E+04 0.  0.
        3    1    3    3  502    0 -0.27351462035E+03  0.15192246498E+04 -0.16708995143E+04  0.22748096582E+04  0.10100000352E+00 0.  1.
       -3    1    3    3    0  502  0.27351462035E+03 -0.15192246498E+04  0.71385417203E+03  0.17007179581E+04  0.10100000352E+00 0. -1.
</event>
<event>
 5   0  0.3959190E-07  0.3821571E+04  0.7818609E-02  0.8041542E-01
        2   -1    0    0  501    0  0.00000000000E+00  0.00000000000E+00  0.15758312866E+04  0.15758312866E+04  0.25500000920E-02 0.  1.
       -2   -1    0    0    0  501  0.00000000000E+00  0.00000000000E+00 -0.23169370224E+04  0.23169370224E+04  0.25500000920E-02 0. -1.
    10030    2    1    2    0    0  0.00000000000E+00  0.00000000000E+00 -0.74110573578E+03  0.38927683090E+04  0.38215713255E+04 0.  0.
        2    1    3    3  502    0  0.69273223206E+03 -0.17732305695E+04 -0.20355573718E+03  0.19145912191E+04  0.25500000920E-02 0.  1.
       -2    1    3    3    0  502 -0.69273223206E+03  0.17732305695E+04 -0.53754999860E+03  0.19781770899E+04  0.25500000920E-02 0. -1.
</event>
<event>
 5   0  0.1860500E-07  0.3137297E+04  0.7818609E-02  0.8205576E-01
       -1   -1    0    0    0  501  0.00000000000E+00  0.00000000000E+00  0.79773890738E+03  0.79773890739E+03  0.50400001928E-02 0. -1.
        1   -1    0    0  501    0  0.00000000000E+00  0.00000000000E+00 -0.30845404576E+04  0.30845404576E+04  0.50400001928E-02 0.  1.
    10030    2    1    2    0    0  0.00000000000E+00  0.00000000000E+00 -0.22868015502E+04  0.38822793650E+04  0.31372968839E+04 0.  0.
        4    1    3    3  502    0  0.57499199461E+02  0.37107030986E+03  0.74130278260E+03  0.83098180557E+03  0.12699999809E+01 0. -1.
       -4    1    3    3    0  502 -0.57499199461E+02 -0.37107030986E+03 -0.30281043328E+04  0.30512975594E+04  0.12699999809E+01 0.  1.
</event>
<event>
 5   0  0.6095665E-07  0.3151684E+04  0.7818609E-02  0.8201695E-01
        2   -1    0    0  501    0  0.00000000000E+00  0.00000000000E+00  0.22190464682E+04  0.22190464682E+04  0.25500000920E-02 0.  1.
       -2   -1    0    0    0  501  0.00000000000E+00  0.00000000000E+00 -0.11190744517E+04  0.11190744517E+04  0.25500000920E-02 0. -1.
    10030    2    1    2    0    0  0.00000000000E+00  0.00000000000E+00  0.10999720165E+04  0.33381209199E+04  0.31516841274E+04 0.  0.
        4    1    3    3  502    0  0.69837726064E+03 -0.85045004401E+03  0.17446638785E+04  0.20627287115E+04  0.12699999809E+01 0.  1.
       -4    1    3    3    0  502 -0.69837726064E+03  0.85045004401E+03 -0.64469186196E+03  0.12753922084E+04  0.12699999809E+01 0. -1.
</event>
<event>
 5   0  0.3959190E-07  0.3781371E+04  0.7818609E-02  0.8050165E-01
        2   -1    0    0  501    0  0.00000000000E+00  0.00000000000E+00  0.17392400581E+04  0.17392400581E+04  0.25500000920E-02 0. -1.
       -2   -1    0    0    0  501  0.00000000000E+00  0.00000000000E+00 -0.20553176656E+04  0.20553176656E+04  0.25500000920E-02 0.  1.
    10030    2    1    2    0    0  0.00000000000E+00  0.00000000000E+00 -0.31607760749E+03  0.37945577236E+04  0.37813705536E+04 0.  0.
        2    1    3    3  502    0  0.18006729677E+04  0.44150711761E+03 -0.52992417484E+03  0.19282560262E+04  0.25500000920E-02 0.  1.
       -2    1    3    3    0  502 -0.18006729677E+04 -0.44150711761E+03  0.21384656735E+03  0.18663016974E+04  0.25500000920E-02 0. -1.
</event>
<event>
 5   0  0.2666813E-07  0.3775345E+04  0.7818609E-02  0.8051467E-01
       -1   -1    0    0    0  501  0.00000000000E+00  0.00000000000E+00  0.16437749780E+04  0.16437749781E+04  0.50400001928E-02 0. -1.
        1   -1    0    0  501    0  0.00000000000E+00  0.00000000000E+00 -0.21677586508E+04  0.21677586508E+04  0.50400001928E-02 0.  1.
    10030    2    1    2    0    0  0.00000000000E+00  0.00000000000E+00 -0.52398367276E+03  0.38115336289E+04  0.37753449795E+04 0.  0.
        1    1    3    3  502    0 -0.47064297876E+03  0.10340046662E+04 -0.17839690372E+04  0.21149978697E+04  0.50400001928E-02 0.  1.
       -1    1    3    3    0  502  0.47064297876E+03 -0.10340046662E+04  0.12599853645E+04  0.16965357591E+04  0.50400001928E-02 0. -1.
</event>
<event>
 5   0  0.1860500E-07  0.3377168E+04  0.7818609E-02  0.8143533E-01
        3   -1    0    0  501    0  0.00000000000E+00  0.00000000000E+00  0.14758449168E+04  0.14758449202E+04  0.10100000352E+00 0. -1.
       -3   -1    0    0    0  501  0.00000000000E+00  0.00000000000E+00 -0.19319888591E+04  0.19319888617E+04  0.10100000352E+00 0.  1.
    10030    2    1    2    0    0  0.00000000000E+00  0.00000000000E+00 -0.45614394231E+03  0.34078337819E+04  0.33771680132E+04 0.  0.
        1    1    3    3  502    0  0.43882483103E+03 -0.10225065520E+04 -0.15097347018E+04  0.18754694748E+04  0.50400001928E-02 0.  1.
       -1    1    3    3    0  502 -0.43882483103E+03  0.10225065520E+04  0.10535907595E+04  0.15323643071E+04  0.50400001928E-02 0. -1.
</event>
<event>
 5   0  0.2975177E-07  0.2499224E+04  0.7818609E-02  0.8403262E-01
        1   -1    0    0  501    0  0.00000000000E+00  0.00000000000E+00  0.15138619346E+04  0.15138619347E+04  0.50400001928E-02 0. -1.
       -1   -1    0    0    0  501  0.00000000000E+00  0.00000000000E+00 -0.10314874243E+04  0.10314874243E+04  0.50400001928E-02 0.  1.
    10030    2    1    2    0    0  0.00000000000E+00  0.00000000000E+00  0.48237451038E+03  0.25453493589E+04  0.24992235176E+04 0.  0.
        1    1    3    3  502    0  0.61117101315E+03  0.44448758915E+03  0.12547584617E+04  0.14647586906E+04  0.50400001928E-02 0.  1.
       -1    1    3    3    0  502 -0.61117101315E+03 -0.44448758915E+03 -0.77238395136E+03  0.10805906684E+04  0.50400001928E-02 0. -1.
</event>
<event>
 5   0  0.5872444E-07  0.3604277E+04  0.7818609E-02  0.8089513E-01
       -2   -1    0    0    0  501  0.00000000000E+00  0.00000000000E+00  0.14737982360E+04  0.14737982360E+04  0.25500000920E-02 0.  1.
        2   -1    0    0  501    0  0.00000000000E+00  0.00000000000E+00 -0.22036276993E+04  0.22036276993E+04  0.25500000920E-02 0. -1.
    10030    2    1    2    0    0  0.00000000000E+00  0.00000000000E+00 -0.72982946330E+03  0.36774259353E+04  0.36042766908E+04 0.  0.
        3    1    3    3  502    0 -0.85648817417E+03 -0.79972396674E+03  0.10320225125E+04  0.15614739485E+04  0.10100000352E+00 0.  1.
       -3    1    3    3    0  502  0.85648817417E+03  0.79972396674E+03 -0.17618519758E+04  0.21159519868E+04  0.10100000352E+00 0. -1.
</event>
<event>
 5   0  0.5872444E-07  0.3625609E+04  0.7818609E-02  0.8084651E-01
        2   -1    0    0  501    0  0.00000000000E+00  0.00000000000E+00  0.25569730564E+04  0.25569730564E+04  0.25500000920E-02 0.  1.
       -2   -1    0    0    0  501  0.00000000000E+00  0.00000000000E+00 -0.12852151599E+04  0.12852151599E+04  0.25500000920E-02 0. -1.
    10030    2    1    2    0    0  0.00000000000E+00  0.00000000000E+00  0.12717578965E+04  0.38421882164E+04  0.36256092099E+04 0.  0.
        3    1    3    3  502    0 -0.78270846254E+02  0.85974991966E+03 -0.10533827065E+04  0.13619513157E+04  0.10100000352E+00 0. -1.
       -3    1    3    3    0  502  0.78270846254E+02 -0.85974991966E+03  0.23251406030E+04  0.24802369007E+04  0.10100000352E+00 0.  1.
</event>
<event>
 5   0  0.5872444E-07  0.3847187E+04  0.7818609E-02  0.8036104E-01
       -2   -1    0    0    0  501  0.00000000000E+00  0.00000000000E+00  0.20972706783E+04  0.20972706783E+04  0.25500000920E-02 0.  1.
        2   -1    0    0  501    0  0.00000000000E+00  0.00000000000E+00 -0.17642983222E+04  0.17642983222E+04  0.25500000920E-02 0. -1.
    10030    2    1    2    0    0  0.00000000000E+00  0.00000000000E+00  0.33297235612E+03  0.38615690004E+04  0.38471865766E+04 0.  0.
        3    1    3    3  502    0  0.12658736362E+04  0.84958033007E+03 -0.10109243796E+04  0.18292596621E+04  0.10100000352E+00 0. -1.
       -3    1    3    3    0  502 -0.12658736362E+04 -0.84958033007E+03  0.13438967357E+04  0.20323093383E+04  0.10100000352E+00 0.  1.
</event>
<event>
 5   0  0.1943459E-07  0.3864355E+04  0.7818609E-02  0.8032484E-01
        1   -1    0    0  501    0  0.00000000000E+00  0.00000000000E+00  0.25078115088E+04  0.25078115089E+04  0.50400001928E-02 0. -1.
       -1   -1    0    0    0  501  0.00000000000E+00  0.00000000000E+00 -0.14886725864E+04  0.14886725864E+04  0.50400001928E-02 0.  1.
    10030    2    1    2    0    0  0.00000000000E+00  0.00000000000E+00  0.10191389225E+04  0.39964840952E+04  0.38643551830E+04 0.  0.
        2    1    3    3  502    0 -0.18867449314E+02  0.16906650646E+04  0.14767493436E+04  0.22448815036E+04  0.25500000920E-02 0. -1.
       -2    1    3    3    0  502  0.18867449314E+02 -0.16906650646E+04 -0.45761042114E+03  0.17516025916E+04  0.25500000920E-02 0.  1.
</event>
<event>
 5   0  0.6095665E-07  0.2674750E+04  0.7818609E-02  0.8343245E-01
        2   -1    0    0  501    0  0.00000000000E+00  0.00000000000E+00  0.15313416450E+04  0.15313416450E+04  0.25500000920E-02 0. -1.
       -2   -1    0    0    0  501  0.00000000000E+00  0.00000000000E+00 -0.11679767592E+04  0.11679767592E+04  0.25500000920E-02 0.  1.
    10030    2    1    2    0    0  0.00000000000E+00  0.00000000000E+00  0.36336488581E+03  0.26993184041E+04  0.26747496718E+04 0.  0.
        4    1    3    3  502    0  0.56801815999E+03 -0.77195097156E+03 -0.75963220928E+03  0.12229454766E+04  0.12699999809E+01 0.  1.
       -4    1    3    3    0  502 -0.56801815999E+03  0.77195097156E+03  0.11229970951E+04  0.14763729275E+04  0.12699999809E+01 0. -1.
</event>
<event>
 5   0  0.2666813E-07  0.3916278E+04  0.7818609E-02  0.8021652E-01
        1   -1    0    0  501    0  0.00000000000E+00  0.00000000000E+00  0.23165136362E+04  0.23165136362E+04  0.50400001928E-02 0. -1.
       -1   -1    0    0    0  501  0.00000000000E+00  0.00000000000E+00 -0.16552060857E+04  0.16552060857E+04  0.50400001928E-02 0.  1.
    10030    2    1    2    0    0  0.00000000000E+00  0.00000000000E+00  0.66130755054E+03  0.39717197219E+04  0.39162775531E+04 0.  0.
        1    1    3    3  502    0  0.16271972770E+04  0.22202972037E+03 -0.75085751708E+03  0.18057838149E+04  0.50400001928E-02 0.  1.
       -1    1    3    3    0  502 -0.16271972770E+04 -0.22202972037E+03  0.14121650676E+04  0.21659359070E+04  0.50400001928E-02 0. -1.
</event>
<event>
 5   0  0.5805753E-07  0.3812904E+04  0.7818609E-02  0.8043391E-01
       -2   -1    0    0    0  501  0.00000000000E+00  0.00000000000E+00  0.12953516649E+04  0.12953516649E+04  0.25500000920E-02 0.  1.
        2   -1    0    0  501    0  0.00000000000E+00  0.00000000000E+00 -0.28058470075E+04  0.28058470075E+04  0.25500000920E-02 0. -1.
    10030    2    1    2    0    0  0.00000000000E+00  0.00000000000E+00 -0.15104953426E+04  0.41011986724E+04  0.38129036666E+04 0.  0.
        1    1    3    3  502    0 -0.91687013064E+03  0.89664934464E+03  0.76205989994E+03  0.14917661261E+04  0.50400001928E-02 0.  1.
       -1    1    3    3    0  502  0.91687013064E+03 -0.89664934464E+03 -0.22725552425E+04  0.26094325464E+04  0.50400001928E-02 0. -1.
</event>
<event>
 5   0  0.2666813E-07  0.3890175E+04  0.7818609E-02  0.8027076E-01
        1   -1    0    0  501    0  0.00000000000E+00  0.00000000000E+00  0.11084965304E+04  0.11084965304E+04  0.50400001928E-02 0.  1.
       -1   -1    0    0    0  501  0.00000000000E+00  0.00000000000E+00 -0.34130594814E+04  0.34130594814E+04  0.50400001928E-02 0. -1.
    10030    2    1    2    0    0  0.00000000000E+00  0.00000000000E+00 -0.23045629510E+04  0.45215560118E+04  0.38901745941E+04 0.  0.
        1    1    3    3  502    0  0.16197288229E+04 -0.10584753039E+04 -0.13832058595E+04  0.23784763775E+04  0.50400001928E-02 0.  1.
       -1    1    3    3    0  502 -0.16197288229E+04  0.10584753039E+04 -0.92135709153E+03  0.21430796343E+04  0.50400001928E-02 0. -1.
</event>
<event>
 5   0  0.5735179E-07  0.3896420E+04  0.7818609E-02  0.8025774E-01
        2   -1    0    0  501    0  0.00000000000E+00  0.00000000000E+00  0.17200229497E+04  0.17200229497E+04  0.25500000920E-02 0. -1.
       -2   -1    0    0    0  501  0.00000000000E+00  0.00000000000E+00 -0.22066696557E+04  0.22066696557E+04  0.25500000920E-02 0.  1.
    10030    2    1    2    0    0  0.00000000000E+00  0.00000000000E+00 -0.48664670593E+03  0.39266926054E+04  0.38964201263E+04 0.  0.
        5    1    3    3  502    0  0.61717474375E+03 -0.16183328781E+04  0.65556754560E+03  0.18519440773E+04  0.46999998093E+01 0. -1.
       -5    1    3    3    0  502 -0.61717474375E+03  0.16183328781E+04 -0.11422142515E+04  0.20747485281E+04  0.46999998093E+01 0.  1.
</event>
<event>
 5   0  0.1860500E-07  0.3759825E+04  0.7818609E-02  0.8054832E-01
       -3   -1    0    0    0  501  0.00000000000E+00  0.00000000000E+00  0.24635338756E+04  0.24635338777E+04  0.10100000352E+00 0. -1.
        3   -1    0    0  501    0  0.00000000000E+00  0.00000000000E+00 -0.14345537033E+04  0.14345537069E+04  0.10100000352E+00 0.  1.
    10030    2    1    2    0    0  0.00000000000E+00  0.00000000000E+00  0.10289801723E+04  0.38980875845E+04  0.37598253446E+04 0.  0.
        5    1    3    3  502    0  0.23629325067E+03  0.12693690195E+04 -0.90210740581E+03  0.15751038282E+04  0.46999998093E+01 0.  1.
       -5    1    3    3    0  502 -0.23629325067E+03 -0.12693690195E+04  0.19310875781E+04  0.23229837563E+04  0.46999998093E+01 0. -1.
</event>
<event>
 5   0  0.1943459E-07  0.3589241E+04  0.7818609E-02  0.8092961E-01
       -1   -1    0    0    0  501  0.00000000000E+00  0.00000000000E+00  0.11930154640E+04  0.11930154640E+04  0.50400001928E-02 0.  1.
        1   -1    0    0  501    0  0.00000000000E+00  0.00000000000E+00 -0.26995990699E+04  0.26995990699E+04  0.50400001928E-02 0. -1.
    10030    2    1    2    0    0  0.00000000000E+00  0.00000000000E+00 -0.15065836059E+04  0.38926145340E+04  0.35892413890E+04 0.  0.
        2    1    3    3  502    0  0.24242947921E+03 -0.70643641242E+03 -0.25230388062E+04  0.26312638170E+04  0.25500000920E-02 0. -1.
       -2    1    3    3    0  502 -0.24242947921E+03  0.70643641242E+03  0.10164552002E+04  0.12613507170E+04  0.25500000920E-02 0.  1.
</event>
<event>
 5   0  0.3959190E-07  0.2837801E+04  0.7818609E-02  0.8291628E-01
       -2   -1    0    0    0  501  0.00000000000E+00  0.00000000000E+00  0.12766560702E+04  0.12766560702E+04  0.25500000920E-02 0. -1.
        2   -1    0    0  501    0  0.00000000000E+00  0.00000000000E+00 -0.15769942005E+04  0.15769942005E+04  0.25500000920E-02 0.  1.
    10030    2    1    2    0    0  0.00000000000E+00  0.00000000000E+00 -0.30033813030E+03  0.28536502707E+04  0.28378014157E+04 0.  0.
        2    1    3    3  502    0 -0.49621524499E+03  0.12268412355E+04  0.36446079182E+03  0.13726618867E+04  0.25500000920E-02 0. -1.
       -2    1    3    3    0  502  0.49621524499E+03 -0.12268412355E+04 -0.66479892213E+03  0.14809883839E+04  0.25500000920E-02 0.  1.
</event>
<event>
 5   0  0.5805753E-07  0.2467005E+04  0.7818609E-02  0.8414835E-01
       -2   -1    0    0    0  501  0.00000000000E+00  0.00000000000E+00  0.98002844788E+03  0.98002844788E+03  0.25500000920E-02 0.  1.
        2   -1    0    0  501    0  0.00000000000E+00  0.00000000000E+00 -0.15525351129E+04  0.15525351129E+04  0.25500000920E-02 0. -1.
    10030    2    1    2    0    0  0.00000000000E+00  0.00000000000E+00 -0.57250666507E+03  0.25325635608E+04  0.24670051293E+04 0.  0.
        1    1    3    3  502    0  0.61037282551E+03  0.42591293609E+03 -0.12960452587E+04  0.14945534878E+04  0.50400001928E-02 0. -1.
       -1    1    3    3    0  502 -0.61037282551E+03 -0.42591293609E+03  0.72353859363E+03  0.10380100730E+04  0.50400001928E-02 0.  1.
</event>
<event>
 5   0  0.1860500E-07  0.2785643E+04  0.7818609E-02  0.8307740E-01
        1   -1    0    0  501    0  0.00000000000E+00  0.00000000000E+00  0.63617141841E+03  0.63617141843E+03  0.50400001928E-02 0. -1.
       -1   -1    0    0    0  501  0.00000000000E+00  0.00000000000E+00 -0.30494161797E+04  0.30494161797E+04  0.50400001928E-02 0.  1.
    10030    2    1    2    0    0  0.00000000000E+00  0.00000000000E+00 -0.24132447613E+04  0.36855875982E+04  0.27856427742E+04 0.  0.
        5    1    3    3  502    0 -0.91597306282E+03  0.10078652417E+04 -0.15926545271E+04  0.20955594790E+04  0.46999998093E+01 0.  1.
       -5    1    3    3    0  502  0.91597306282E+03 -0.10078652417E+04 -0.82059023425E+03  0.15900281192E+04  0.46999998093E+01 0. -1.
</event>
<event>
 5   0  0.5735179E-07  0.3841190E+04  0.7818609E-02  0.8037373E-01
        2   -1    0    0  501    0  0.00000000000E+00  0.00000000000E+00  0.18691985628E+04  0.18691985628E+04  0.25500000920E-02 0. -1.
       -2   -1    0    0    0  501  0.00000000000E+00  0.00000000000E+00 -0.19734045316E+04  0.19734045316E+04  0.25500000920E-02 0.  1.
    10030    2    1    2    0    0  0.00000000000E+00  0.00000000000E+00 -0.10420596882E+03  0.38426030944E+04  0.38411898752E+04 0.  0.
        5    1    3    3  502    0 -0.12627795479E+04  0.56734146555E+03  0.12796171614E+04  0.18851871777E+04  0.46999998093E+01 0.  1.
       -5    1    3    3    0  502  0.12627795479E+04 -0.56734146555E+03 -0.13838231303E+04  0.19574159167E+04  0.46999998093E+01 0. -1.
</event>
<event>
 5   0  0.6095665E-07  0.2591980E+04  0.7818609E-02  0.8370930E-01
        2   -1    0    0  501    0  0.00000000000E+00  0.00000000000E+00  0.13767006239E+04  0.13767006239E+04  0.25500000920E-02 0.  1.
       -2   -1    0    0    0  501  0.00000000000E+00  0.00000000000E+00 -0.12200114784E+04  0.12200114784E+04  0.25500000920E-02 0. -1.
    10030    2    1    2    0    0  0.00000000000E+00  0.00000000000E+00  0.15668914548E+03  0.25967121023E+04  0.25919803730E+04 0.  0.
        4    1    3    3  502    0  0.19423002965E+03 -0.53937506277E+03 -0.10860759000E+04  0.12280933337E+04  0.12699999809E+01 0. -1.
       -4    1    3    3    0  502 -0.19423002965E+03  0.53937506277E+03  0.12427650455E+04  0.13686187687E+04  0.12699999809E+01 0.  1.
</event>
<event>
 5   0  0.3959190E-07  0.3915386E+04  0.7818609E-02  0.8021837E-01
       -2   -1    0    0    0  501  0.00000000000E+00  0.00000000000E+00  0.11860879727E+04  0.11860879727E+04  0.25500000920E-02 0. -1.
        2   -1    0    0  501    0  0.00000000000E+00  0.00000000000E+00 -0.32312625970E+04  0.32312625970E+04  0.25500000920E-02 0.  1.
    10030    2    1    2    0    0  0.00000000000E+00  0.00000000000E+00 -0.20451746243E+04  0.44173505697E+04  0.39153859084E+04 0.  0.
        2    1    3    3  502    0  0.99016407020E+03  0.43644230421E+03 -0.28632032116E+04  0.30608559916E+04  0.25500000920E-02 0.  1.
       -2    1    3    3    0  502 -0.99016407020E+03 -0.43644230421E+03  0.81802858723E+03  0.13564945781E+04  0.25500000920E-02 0. -1.
</event>
<event>
 5   0  0.5735179E-07  0.3604382E+04  0.7818609E-02  0.8089489E-01
        2   -1    0    0  501    0  0.00000000000E+00  0.00000000000E+00  0.20433958695E+04  0.20433958695E+04  0.25500000920E-02 0. -1.
       -2   -1    0    0    0  501  0.00000000000E+00  0.00000000000E+00 -0.15894582538E+04  0.15894582538E+04  0.25500000920E-02 0.  1.
    10030    2    1    2    0    0  0.00000000000E+00  0.00000000000E+00  0.45393761570E+03  0.36328541232E+04  0.36043820166E+04 0.  0.
        5    1    3    3  502    0 -0.85351494916E+03 -0.62409865893E+03 -0.12439715474E+04  0.16326280058E+04  0.46999998093E+01 0.  1.
       -5    1    3    3    0  502  0.85351494916E+03  0.62409865893E+03  0.16979091631E+04  0.20002261174E+04  0.46999998093E+01 0. -1.
</event>
<event>
 5   0  0.3959190E-07  0.3458716E+04  0.7818609E-02  0.8123644E-01
       -2   -1    0    0    0  501  0.00000000000E+00  0.00000000000E+00  0.12588576841E+04  0.12588576841E+04  0.25500000920E-02 0.  1.
        2   -1    0    0  501    0  0.00000000000E+00  0.00000000000E+00 -0.23757090901E+04  0.23757090901E+04  0.25500000920E-02 0. -1.
    10030    2    1    2    0    0  0.00000000000E+00  0.00000000000E+00 -0.11168514060E+04  0.36345667742E+04  0.34587163187E+04 0.  0.
        2    1    3    3  502    0 -0.14698851504E+04 -0.89243878371E+03 -0.75124976873E+03  0.18765355187E+04  0.25500000920E-02 0. -1.
       -2    1    3    3    0  502  0.14698851504E+04  0.89243878371E+03 -0.36560163725E+03  0.17580312555E+04  0.25500000920E-02 0.  1.
</event>
<event>
 5   0  0.5735179E-07  0.3845614E+04  0.7818609E-02  0.8036436E-01
        2   -1    0    0  501    0  0.00000000000E+00  0.00000000000E+00  0.12567851100E+04  0.12567851100E+04  0.25500000920E-02 0. -1.
       -2   -1    0    0    0  501  0.00000000000E+00  0.00000000000E+00 -0.29417813656E+04  0.29417813656E+04  0.25500000920E-02 0.  1.
    10030    2    1    2    0    0  0.00000000000E+00  0.00000000000E+00 -0.16849962556E+04  0.41985664756E+04  0.38456141342E+04 0.  0.
        5    1    3    3  502    0  0.93254909995E+03  0.13993883274E+04  0.17539582692E+03  0.16907753549E+04  0.46999998093E+01 0.  1.
       -5    1    3    3    0  502 -0.93254909995E+03 -0.13993883274E+04 -0.18603920825E+04  0.25077911207E+04  0.46999998093E+01 0. -1.
</event>
<event>
 5   0  0.6095665E-07  0.4119359E+04  0.7818609E-02  0.7980892E-01
       -2   -1    0    0    0  501  0.00000000000E+00  0.00000000000E+00  0.32887579210E+04  0.32887579210E+04  0.25500000920E-02 0.  1.
        2   -1    0    0  501    0  0.00000000000E+00  0.00000000000E+00 -0.12899334469E+04  0.12899334469E+04  0.25500000920E-02 0. -1.
    10030    2    1    2    0    0  0.00000000000E+00  0.00000000000E+00  0.19988244741E+04  0.45786913680E+04  0.41193586109E+04 0.  0.
        4    1    3    3  502    0 -0.37177207274E+02  0.24321430386E+03 -0.12735403716E+04  0.12970898324E+04  0.12699999809E+01 0. -1.
       -4    1    3    3    0  502  0.37177207274E+02 -0.24321430386E+03  0.32723648457E+04  0.32816015356E+04  0.12699999809E+01 0.  1.
</event>
<event>
 5   0  0.3959190E-07  0.3783734E+04  0.7818609E-02  0.8049655E-01
        2   -1    0    0  501    0  0.00000000000E+00  0.00000000000E+00  0.28231490762E+04  0.28231490762E+04  0.25500000920E-02 0. -1.
       -2   -1    0    0    0  501  0.00000000000E+00  0.00000000000E+00 -0.12677900802E+04  0.12677900802E+04  0.25500000920E-02 0.  1.
    10030    2    1    2    0    0  0.00000000000E+00  0.00000000000E+00  0.15553589960E+04  0.40909391564E+04  0.37837338140E+04 0.  0.
        2    1    3    3  502    0 -0.67139408027E+03 -0.13042262095E+04 -0.51405397520E+03  0.15543575863E+04  0.25500000920E-02 0.  1.
       -2    1    3    3    0  502  0.67139408027E+03  0.13042262095E+04  0.20694129712E+04  0.25365815701E+04  0.25500000920E-02 0. -1.
</event>
<event>
 5   0  0.5735179E-07  0.3850032E+04  0.7818609E-02  0.8035503E-01
       -2   -1    0    0    0  501  0.00000000000E+00  0.00000000000E+00  0.15659235136E+04  0.15659235136E+04  0.25500000920E-02 0. -1.
        2   -1    0    0  501    0  0.00000000000E+00  0.00000000000E+00 -0.23664543053E+04  0.23664543053E+04  0.25500000920E-02 0.  1.
    10030    2    1    2    0    0  0.00000000000E+00  0.00000000000E+00 -0.80053079172E+03  0.39323778188E+04  0.38500319170E+04 0.  0.
        5    1    3    3  502    0 -0.41315646256E+02  0.58835752697E+03  0.14713553648E+04  0.15851751518E+04  0.46999998093E+01 0. -1.
       -5    1    3    3    0  502  0.41315646256E+02 -0.58835752697E+03 -0.22718861565E+04  0.23472026671E+04  0.46999998093E+01 0.  1.
</event>
<event>
 5   0  0.1860500E-07  0.3892406E+04  0.7818609E-02  0.8026611E-01
        1   -1    0    0  501    0  0.00000000000E+00  0.00000000000E+00  0.17176902093E+04  0.17176902093E+04  0.50400001928E-02 0. -1.
       -1   -1    0    0    0  501  0.00000000000E+00  0.00000000000E+00 -0.22051156763E+04  0.22051156763E+04  0.50400001928E-02 0.  1.
    10030    2    1    2    0    0  0.00000000000E+00  0.00000000000E+00 -0.48742546692E+03  0.39228058856E+04  0.38924057381E+04 0.  0.
        4    1    3    3  502    0  0.58358358097E+03  0.34515892092E+03  0.15948156606E+04  0.17329578994E+04  0.12699999809E+01 0. -1.
       -4    1    3    3    0  502 -0.58358358097E+03 -0.34515892092E+03 -0.20822411276E+04  0.21898479862E+04  0.12699999809E+01 0.  1.
</event>
<event>
 5   0  0.5872444E-07  0.3956244E+04  0.7818609E-02  0.8013432E-01
        2   -1    0    0  501    0  0.00000000000E+00  0.00000000000E+00  0.22468000846E+04  0.22468000846E+04  0.25500000920E-02 0.  1.
       -2   -1    0    0    0  501  0.00000000000E+00  0.00000000000E+00 -0.17415735648E+04  0.17415735648E+04  0.25500000920E-02 0. -1.
    10030    2    1    2    0    0  0.00000000000E+00  0.00000000000E+00  0.50522651976E+03  0.39883736494E+04  0.39562444984E+04 0.  0.
        3    1    3    3  502    0 -0.55800868840E+03  0.52407953266E+03 -0.15861882205E+04  0.17612569756E+04  0.10100000352E+00 0. -1.
       -3    1    3    3    0  502  0.55800868840E+03 -0.52407953266E+03  0.20914147403E+04  0.22271166739E+04  0.10100000352E+00 0.  1.
</event>
<event>
 5   0  0.1860500E-07  0.4078980E+04  0.7818609E-02  0.7988801E-01
        1   -1    0    0  501    0  0.00000000000E+00  0.00000000000E+00  0.15104109443E+04  0.15104109443E+04  0.50400001928E-02 0. -1.
       -1   -1    0    0    0  501  0.00000000000E+00  0.00000000000E+00 -0.27538985949E+04  0.27538985949E+04  0.50400001928E-02 0.  1.
    10030    2    1    2    0    0  0.00000000000E+00  0.00000000000E+00 -0.12434876506E+04  0.42643095392E+04  0.40789795671E+04 0.  0.
        4    1    3    3  502    0  0.66862992474E+03  0.16423863770E+04  0.43151245908E+03  0.18250215349E+04  0.12699999809E+01 0. -1.
       -4    1    3    3    0  502 -0.66862992474E+03 -0.16423863770E+04 -0.16750001097E+04  0.24392880043E+04  0.12699999809E+01 0.  1.
</event>
<event>
 5   0  0.3959190E-07  0.3872576E+04  0.7818609E-02  0.8030757E-01
       -2   -1    0    0    0  501  0.00000000000E+00  0.00000000000E+00  0.29006062891E+04  0.29006062891E+04  0.25500000920E-02 0. -1.
        2   -1    0    0  501    0  0.00000000000E+00  0.00000000000E+00 -0.12925613878E+04  0.12925613878E+04  0.25500000920E-02 0.  1.
    10030    2    1    2    0    0  0.00000000000E+00  0.00000000000E+00  0.16080449013E+04  0.41931676770E+04  0.38725762436E+04 0.  0.
        2    1    3    3  502    0  0.28563452205E+03  0.18953817965E+04  0.11008565849E+04  0.22104172582E+04  0.25500000920E-02 0. -1.
       -2    1    3    3    0  502 -0.28563452205E+03 -0.18953817965E+04  0.50718831638E+03  0.19827504188E+04  0.25500000920E-02 0.  1.
</event>
<event>
 5   0  0.5735179E-07  0.3693432E+04  0.7818609E-02  0.8069419E-01
       -2   -1    0    0    0  501  0.00000000000E+00  0.00000000000E+00  0.10107183610E+04  0.10107183610E+04  0.25500000920E-02 0.  1.
        2   -1    0    0  501    0  0.00000000000E+00  0.00000000000E+00 -0.33741950425E+04  0.33741950425E+04  0.25500000920E-02 0. -1.
    10030    2    1    2    0    0  0.00000000000E+00  0.00000000000E+00 -0.23634766816E+04  0.43849134035E+04  0.36934324864E+04 0.  0.
        5    1    3    3  502    0  0.13912020220E+04  0.16206098567E+03  0.24718815117E+03  0.14222625992E+04  0.46999998093E+01 0.  1.
       -5    1    3    3    0  502 -0.13912020220E+04 -0.16206098567E+03 -0.26106648328E+04  0.29626508043E+04  0.46999998093E+01 0. -1.
</event>
<event>
 5   0  0.2666813E-07  0.3719740E+04  0.7818609E-02  0.8063601E-01
       -1   -1    0    0    0  501  0.00000000000E+00  0.00000000000E+00  0.18616090747E+04  0.18616090747E+04  0.50400001928E-02 0.  1.
        1   -1    0    0  501    0  0.00000000000E+00  0.00000000000E+00 -0.18581330138E+04  0.18581330138E+04  0.50400001928E-02 0. -1.
    10030    2    1    2    0    0  0.00000000000E+00  0.00000000000E+00  0.34760609357E+01  0.37197420886E+04  0.37197404644E+04 0.  0.
        1    1    3    3  502    0 -0.98371498776E+03  0.45940252788E+03  0.15118285616E+04  0.18612822084E+04  0.50400001928E-02 0.  1.
       -1    1    3    3    0  502  0.98371498776E+03 -0.45940252788E+03 -0.15083525007E+04  0.18584598801E+04  0.50400001928E-02 0. -1.
</event>
<event>
 5   0  0.1860500E-07  0.3002689E+04  0.7818609E-02  0.8242963E-01
       -1   -1    0    0    0  501  0.00000000000E+00  0.00000000000E+00  0.14183343063E+04  0.14183343063E+04  0.50400001928E-02 0. -1.
        1   -1    0    0  501    0  0.00000000000E+00  0.00000000000E+00 -0.15892134266E+04  0.15892134266E+04  0.50400001928E-02 0.  1.
    10030    2    1    2    0    0  0.00000000000E+00  0.00000000000E+00 -0.17087912027E+03  0.30075477329E+04  0.30026894098E+04 0.  0.
        4    1    3    3  502    0 -0.96162954247E+03  0.15932116141E+03 -0.12291801660E+04  0.15687575029E+04  0.12699999809E+01 0.  1.
       -4    1    3    3    0  502  0.96162954247E+03 -0.15932116141E+03  0.10583010458E+04  0.14387902300E+04  0.12699999809E+01 0. -1.
</event>
<event>
 5   0  0.1860500E-07  0.3817023E+04  0.7818609E-02  0.8042512E-01
       -1   -1    0    0    0  501  0.00000000000E+00  0.00000000000E+00  0.13525165008E+04  0.13525165008E+04  0.50400001928E-02 0. -1.
        1   -1    0    0  501    0  0.00000000000E+00  0.00000000000E+00 -0.26930665998E+04  0.26930665998E+04  0.50400001928E-02 0.  1.
    10030    2    1    2    0    0  0.00000000000E+00  0.00000000000E+00 -0.13405500990E+04  0.40455831006E+04  0.38170234550E+04 0.  0.
        5    1    3    3  502    0 -0.10964310304E+04  0.90955450497E+03  0.67578989102E+03  0.15767575808E+04  0.46999998093E+01 0. -1.
       -5    1    3    3    0  502  0.10964310304E+04 -0.90955450497E+03 -0.20163399901E+04  0.24688255198E+04  0.46999998093E+01 0.  1.
</event>
<event>
 5   0  0.1860500E-07  0.3938799E+04  0.7818609E-02  0.8017008E-01
       -3   -1    0    0    0  501  0.00000000000E+00  0.00000000000E+00  0.21429355801E+04  0.21429355825E+04  0.10100000352E+00 0. -1.
        3   -1    0    0  501    0  0.00000000000E+00  0.00000000000E+00 -0.18099168162E+04  0.18099168190E+04  0.10100000352E+00 0.  1.
    10030    2    1    2    0    0  0.00000000000E+00  0.00000000000E+00  0.33301876390E+03  0.39528524014E+04  0.39387993869E+04 0.  0.
        5    1    3    3  502    0  0.18570238303E+04 -0.53856734595E+03 -0.20888505284E+03  0.19448000791E+04  0.46999998093E+01 0. -1.
       -5    1    3    3    0  502 -0.18570238303E+04  0.53856734595E+03  0.54190381675E+03  0.20080523223E+04  0.46999998093E+01 0.  1.
</event>
<event>
 5   0  0.1860500E-07  0.2440127E+04  0.7818609E-02  0.8424632E-01
        3   -1    0    0  501    0  0.00000000000E+00  0.00000000000E+00  0.18020860398E+04  0.18020860426E+04  0.10100000352E+00 0.  1.
       -3   -1    0    0    0  501  0.00000000000E+00  0.00000000000E+00 -0.82601761909E+03  0.82601762526E+03  0.10100000352E+00 0. -1.
    10030    2    1    2    0    0  0.00000000000E+00  0.00000000000E+00  0.97606842067E+03  0.26281036678E+04  0.24401269080E+04 0.  0.
        2    1    3    3  502    0 -0.68473598031E+03 -0.97975277235E+03  0.75136000858E+03  0.14118501054E+04  0.25500000920E-02 0.  1.
       -2    1    3    3    0  502  0.68473598031E+03  0.97975277235E+03  0.22470841209E+03  0.12162535624E+04  0.25500000920E-02 0. -1.
</event>
<event>
 5   0  0.1876027E-07  0.3823963E+04  0.7818609E-02  0.8041032E-01
       -1   -1    0    0    0  501  0.00000000000E+00  0.00000000000E+00  0.22370446576E+04  0.22370446576E+04  0.50400001928E-02 0.  1.
        1   -1    0    0  501    0  0.00000000000E+00  0.00000000000E+00 -0.16341533290E+04  0.16341533290E+04  0.50400001928E-02 0. -1.
    10030    2    1    2    0    0  0.00000000000E+00  0.00000000000E+00  0.60289132854E+03  0.38711979866E+04  0.38239633756E+04 0.  0.
        3    1    3    3  502    0 -0.16925247416E+03  0.70358639085E+03 -0.14901586633E+04  0.16565787218E+04  0.10100000352E+00 0. -1.
       -3    1    3    3    0  502  0.16925247416E+03 -0.70358639085E+03  0.20930499919E+04  0.22146192648E+04  0.10100000352E+00 0.  1.
</event>
<event>
 5   0  0.5872444E-07  0.3791100E+04  0.7818609E-02  0.8048068E-01
        2   -1    0    0  501    0  0.00000000000E+00  0.00000000000E+00  0.20882595213E+04  0.20882595213E+04  0.25500000920E-02 0.  1.
       -2   -1    0    0    0  501  0.00000000000E+00  0.00000000000E+00 -0.17206238131E+04  0.17206238131E+04  0.25500000920E-02 0. -1.
    10030    2    1    2    0    0  0.00000000000E+00  0.00000000000E+00  0.36763570820E+03  0.38088833345E+04  0.37910996085E+04 0.  0.
        3    1    3    3  502    0  0.11123120725E+04 -0.94394107088E+03 -0.10321678898E+04  0.17870739926E+04  0.10100000352E+00 0. -1.
       -3    1    3    3    0  502 -0.11123120725E+04  0.94394107088E+03  0.13998035980E+04  0.20218093419E+04  0.10100000352E+00 0.  1.
</event>
<event>
 5   0  0.1860500E-07  0.3908008E+04  0.7818609E-02  0.8023366E-01
       -3   -1    0    0    0  501  0.00000000000E+00  0.00000000000E+00  0.15788598518E+04  0.15788598550E+04  0.10100000352E+00 0. -1.
        3   -1    0    0  501    0  0.00000000000E+00  0.00000000000E+00 -0.24182841746E+04  0.24182841767E+04  0.10100000352E+00 0.  1.
    10030    2    1    2    0    0  0.00000000000E+00  0.00000000000E+00 -0.83942432276E+03  0.39971440317E+04  0.39080080881E+04 0.  0.
        2    1    3    3  502    0 -0.45400854147E+03 -0.26164273991E+03  0.15056555988E+04  0.15942331891E+04  0.25500000920E-02 0. -1.
       -2    1    3    3    0  502  0.45400854147E+03  0.26164273991E+03 -0.23450799216E+04  0.24029108426E+04  0.25500000920E-02 0.  1.
</event>
<event>
 5   0  0.5735179E-07  0.3892604E+04  0.7818609E-02  0.8026569E-01
       -2   -1    0    0    0  501  0.00000000000E+00  0.00000000000E+00  0.18691681679E+04  0.18691681679E+04  0.25500000920E-02 0. -1.
        2   -1    0    0  501    0  0.00000000000E+00  0.00000000000E+00 -0.20266187372E+04  0.20266187372E+04  0.25500000920E-02 0.  1.
    10030    2    1    2    0    0  0.00000000000E+00  0.00000000000E+00 -0.15745056933E+03  0.38957869051E+04  0.38926038751E+04 0.  0.
        5    1    3    3  502    0  0.11206799412E+04  0.60213095726E+03 -0.15528804880E+04  0.20074723212E+04  0.46999998093E+01 0.  1.
       -5    1    3    3    0  502 -0.11206799412E+04 -0.60213095726E+03  0.13954299186E+04  0.18883145840E+04  0.46999998093E+01 0. -1.
</event>
<event>
 5   0  0.1860500E-07  0.3916814E+04  0.7818609E-02  0.8021541E-01
        1   -1    0    0  501    0  0.00000000000E+00  0.00000000000E+00  0.16309433162E+04  0.16309433163E+04  0.50400001928E-02 0.  1.
       -1   -1    0    0    0  501  0.00000000000E+00  0.00000000000E+00 -0.23516196150E+04  0.23516196150E+04  0.50400001928E-02 0. -1.
    10030    2    1    2    0    0  0.00000000000E+00  0.00000000000E+00 -0.72067629874E+03  0.39825629312E+04  0.39168141613E+04 0.  0.
        4    1    3    3  502    0 -0.16428550517E+04  0.18169511613E+03  0.70770901849E+03  0.17980098732E+04  0.12699999809E+01 0.  1.
       -4    1    3    3    0  502  0.16428550517E+04 -0.18169511613E+03 -0.14283853172E+04  0.21845530581E+04  0.12699999809E+01 0. -1.
</event>
<event>
 5   0  0.1860500E-07  0.3652499E+04  0.7818609E-02  0.8078571E-01
       -1   -1    0    0    0  501  0.00000000000E+00  0.00000000000E+00  0.21239165134E+04  0.21239165134E+04  0.50400001928E-02 0.  1.
        1   -1    0    0  501    0  0.00000000000E+00  0.00000000000E+00 -0.15703007814E+04  0.15703007814E+04  0.50400001928E-02 0. -1.
    10030    2    1    2    0    0  0.00000000000E+00  0.00000000000E+00  0.55361573200E+03  0.36942172947E+04  0.36524992871E+04 0.  0.
        5    1    3    3  502    0 -0.16098565115E+04 -0.82618868467E+03  0.52648760928E+03  0.18845256759E+04  0.46999998093E+01 0.  1.
       -5    1    3    3    0  502  0.16098565115E+04  0.82618868467E+03  0.27128122725E+02  0.18096916189E+04  0.46999998093E+01 0. -1.
</event>
<event>
 5   0  0.5805753E-07  0.3308453E+04  0.7818609E-02  0.8160748E-01
       -2   -1    0    0    0  501  0.00000000000E+00  0.00000000000E+00  0.86022003678E+03  0.86022003679E+03  0.25500000920E-02 0. -1.
        2   -1    0    0  501    0  0.00000000000E+00  0.00000000000E+00 -0.31811220890E+04  0.31811220890E+04  0.25500000920E-02 0.  1.
    10030    2    1    2    0    0  0.00000000000E+00  0.00000000000E+00 -0.23209020522E+04  0.40413421258E+04  0.33084527867E+04 0.  0.
        1    1    3    3  502    0 -0.14582565951E+03  0.15988538895E+04 -0.67357738515E+03  0.17410644378E+04  0.50400001928E-02 0.  1.
       -1    1    3    3    0  502  0.14582565951E+03 -0.15988538895E+04 -0.16473246671E+04  0.23002776880E+04  0.50400001928E-02 0. -1.
</event>
<event>
 5   0  0.5735179E-07  0.3697351E+04  0.7818609E-02  0.8068549E-01
       -2   -1    0    0    0  501  0.00000000000E+00  0.00000000000E+00  0.11665890537E+04  0.11665890537E+04  0.25500000920E-02 0. -1.
        2   -1    0    0  501    0  0.00000000000E+00  0.00000000000E+00 -0.29295676603E+04  0.29295676603E+04  0.25500000920E-02 0.  1.
    10030    2    1    2    0    0  0.00000000000E+00  0.00000000000E+00 -0.17629786066E+04  0.40961567140E+04  0.36973512490E+04 0.  0.
        5    1    3    3  502    0 -0.55481170218E+03 -0.29714703186E+03  0.10442379980E+04  0.12192487317E+04  0.46999998093E+01 0. -1.
       -5    1    3    3    0  502  0.55481170218E+03  0.29714703186E+03 -0.28072166046E+04  0.28769079823E+04  0.46999998093E+01 0.  1.
</event>
<event>
 5   0  0.1860500E-07  0.3677067E+04  0.7818609E-02  0.8073063E-01
        3   -1    0    0  501    0  0.00000000000E+00  0.00000000000E+00  0.11454968874E+04  0.11454968919E+04  0.10100000352E+00 0.  1.
       -3   -1    0    0    0  501  0.00000000000E+00  0.00000000000E+00 -0.29508645681E+04  0.29508645699E+04  0.10100000352E+00 0. -1.
    10030    2    1    2    0    0  0.00000000000E+00  0.00000000000E+00 -0.18053676807E+04  0.40963614617E+04  0.36770674134E+04 0.  0.
        1    1    3    3  502    0 -0.13666133137E+03  0.16988184169E+04 -0.13445097778E+03  0.17096015321E+04  0.50400001928E-02 0.  1.
       -1    1    3    3    0  502  0.13666133137E+03 -0.16988184169E+04 -0.16709167029E+04  0.23867599296E+04  0.50400001928E-02 0. -1.
</event>
<event>
 5   0  0.6095665E-07  0.3958472E+04  0.7818609E-02  0.8012977E-01
        2   -1    0    0  501    0  0.00000000000E+00  0.00000000000E+00  0.15894552932E+04  0.15894552932E+04  0.25500000920E-02 0.  1.
       -2   -1    0    0    0  501  0.00000000000E+00  0.00000000000E+00 -0.24646026105E+04  0.24646026105E+04  0.25500000920E-02 0. -1.
    10030    2    1    2    0    0  0.00000000000E+00  0.00000000000E+00 -0.87514731723E+03  0.40540579037E+04  0.39584722633E+04 0.  0.
        4    1    3    3  502    0  0.58611862419E+03  0.76936330689E+03  0.13309475422E+04  0.16452592236E+04  0.12699999809E+01 0.  1.
       -4    1    3    3    0  502 -0.58611862419E+03 -0.76936330689E+03 -0.22060948595E+04  0.24087986801E+04  0.12699999809E+01 0. -1.
</event>
<event>
 5   0  0.2666813E-07  0.2900483E+04  0.7818609E-02  0.8272734E-01
       -1   -1    0    0    0  501  0.00000000000E+00  0.00000000000E+00  0.11780466350E+04  0.11780466350E+04  0.50400001928E-02 0.  1.
        1   -1    0    0  501    0  0.00000000000E+00  0.00000000000E+00 -0.17853281196E+04  0.17853281196E+04  0.50400001928E-02 0. -1.
    10030    2    1    2    0    0  0.00000000000E+00  0.00000000000E+00 -0.60728148460E+03  0.29633747547E+04  0.29004825694E+04 0.  0.
        1    1    3    3  502    0  0.12827644133E+04  0.36708145484E+03  0.27698330850E+03  0.13627006596E+04  0.50400001928E-02 0.  1.
       -1    1    3    3    0  502 -0.12827644133E+04 -0.36708145484E+03 -0.88426479309E+03  0.16006740951E+04  0.50400001928E-02 0. -1.
</event>
<event>
 5   0  0.1943459E-07  0.3905240E+04  0.7818609E-02  0.8023940E-01
        1   -1    0    0  501    0  0.00000000000E+00  0.00000000000E+00  0.27658606574E+04  0.27658606575E+04  0.50400001928E-02 0. -1.
       -1   -1    0    0    0  501  0.00000000000E+00  0.00000000000E+00 -0.13784952495E+04  0.13784952495E+04  0.50400001928E-02 0.  1.
    10030    2    1    2    0    0  0.00000000000E+00  0.00000000000E+00  0.13873654080E+04  0.41443559069E+04  0.39052404674E+04 0.  0.
        2    1    3    3  502    0 -0.66075069490E+03 -0.18011908330E+04  0.30834407816E+03  0.19431819184E+04  0.25500000920E-02 0.  1.
       -2    1    3    3    0  502  0.66075069490E+03  0.18011908330E+04  0.10790213298E+04  0.22011739885E+04  0.25500000920E-02 0. -1.
</event>
<event>
 5   0  0.1943459E-07  0.3811661E+04  0.7818609E-02  0.8043657E-01
       -1   -1    0    0    0  501  0.00000000000E+00  0.00000000000E+00  0.15150553060E+04  0.15150553060E+04  0.50400001928E-02 0.  1.
        1   -1    0    0  501    0  0.00000000000E+00  0.00000000000E+00 -0.23973981699E+04  0.23973981699E+04  0.50400001928E-02 0. -1.
    10030    2    1    2    0    0  0.00000000000E+00  0.00000000000E+00 -0.88234286383E+03  0.39124534759E+04  0.38116614844E+04 0.  0.
        2    1    3    3  502    0 -0.96755681310E+02  0.10102687752E+04 -0.20969568122E+04  0.23296421468E+04  0.25500000920E-02 0. -1.
       -2    1    3    3    0  502  0.96755681310E+02 -0.10102687752E+04  0.12146139483E+04  0.15828113291E+04  0.25500000920E-02 0.  1.
</event>
<event>
 5   0  0.1860500E-07  0.3877926E+04  0.7818609E-02  0.8029636E-01
        1   -1    0    0  501    0  0.00000000000E+00  0.00000000000E+00  0.23816023251E+04  0.23816023251E+04  0.50400001928E-02 0. -1.
       -1   -1    0    0    0  501  0.00000000000E+00  0.00000000000E+00 -0.15785912577E+04  0.15785912577E+04  0.50400001928E-02 0.  1.
    10030    2    1    2    0    0  0.00000000000E+00  0.00000000000E+00  0.80301106734E+03  0.39601935828E+04  0.38779255329E+04 0.  0.
        4    1    3    3  502    0  0.51660897099E+03  0.18684592546E+04  0.44171314292E+03  0.19882497149E+04  0.12699999809E+01 0.  1.
       -4    1    3    3    0  502 -0.51660897099E+03 -0.18684592546E+04  0.36129792442E+03  0.19719438679E+04  0.12699999809E+01 0. -1.
</event>
<event>
 5   0  0.2666813E-07  0.3902762E+04  0.7818609E-02  0.8024455E-01
        1   -1    0    0  501    0  0.00000000000E+00  0.00000000000E+00  0.14163719867E+04  0.14163719868E+04  0.50400001928E-02 0.  1.
       -1   -1    0    0    0  501  0.00000000000E+00  0.00000000000E+00 -0.26884794161E+04  0.26884794161E+04  0.50400001928E-02 0. -1.
    10030    2    1    2    0    0  0.00000000000E+00  0.00000000000E+00 -0.12721074294E+04  0.41048514029E+04  0.39027615515E+04 0.  0.
        1    1    3    3  502    0 -0.12019882178E+04 -0.70081738986E+03 -0.20750988929E+04  0.24983907030E+04  0.50400001928E-02 0. -1.
       -1    1    3    3    0  502  0.12019882178E+04  0.70081738986E+03  0.80299146353E+03  0.16064606999E+04  0.50400001928E-02 0.  1.
</event>
<event>
 5   0  0.1860500E-07  0.3771201E+04  0.7818609E-02  0.8052364E-01
        1   -1    0    0  501    0  0.00000000000E+00  0.00000000000E+00  0.27210330094E+04  0.27210330094E+04  0.50400001928E-02 0.  1.
       -1   -1    0    0    0  501  0.00000000000E+00  0.00000000000E+00 -0.13066685673E+04  0.13066685673E+04  0.50400001928E-02 0. -1.
    10030    2    1    2    0    0  0.00000000000E+00  0.00000000000E+00  0.14143644421E+04  0.40277015767E+04  0.37712005007E+04 0.  0.
        5    1    3    3  502    0 -0.32839996297E+03  0.77497353298E+03  0.25092624369E+04  0.26466678257E+04  0.46999998093E+01 0.  1.
       -5    1    3    3    0  502  0.32839996297E+03 -0.77497353298E+03 -0.10948979948E+04  0.13810337510E+04  0.46999998093E+01 0. -1.
</event>
<event>
 5   0  0.3959190E-07  0.3919862E+04  0.7818609E-02  0.8020911E-01
        2   -1    0    0  501    0  0.00000000000E+00  0.00000000000E+00  0.13556955320E+04  0.13556955320E+04  0.25500000920E-02 0. -1.
       -2   -1    0    0    0  501  0.00000000000E+00  0.00000000000E+00 -0.28334755455E+04  0.28334755455E+04  0.25500000920E-02 0.  1.
    10030    2    1    2    0    0  0.00000000000E+00  0.00000000000E+00 -0.14777800135E+04  0.41891710775E+04  0.39198623124E+04 0.  0.
        2    1    3    3  502    0 -0.41719388328E+03  0.16301532078E+04  0.33507999916E+03  0.17157298223E+04  0.25500000920E-02 0. -1.
       -2    1    3    3    0  502  0.41719388328E+03 -0.16301532078E+04 -0.18128600127E+04  0.24734412552E+04  0.25500000920E-02 0.  1.
</event>
<event>
 5   0  0.1860500E-07  0.3855965E+04  0.7818609E-02  0.8034250E-01
        1   -1    0    0  501    0  0.00000000000E+00  0.00000000000E+00  0.25714091778E+04  0.25714091778E+04  0.50400001928E-02 0. -1.
       -1   -1    0    0    0  501  0.00000000000E+00  0.00000000000E+00 -0.14455563566E+04  0.14455563566E+04  0.50400001928E-02 0.  1.
    10030    2    1    2    0    0  0.00000000000E+00  0.00000000000E+00  0.11258528212E+04  0.40169655344E+04  0.38559651878E+04 0.  0.
        5    1    3    3  502    0  0.71702260320E+03 -0.67787109915E+03  0.22884251486E+04  0.24920959836E+04  0.46999998093E+01 0. -1.
       -5    1    3    3    0  502 -0.71702260320E+03  0.67787109915E+03 -0.11625723274E+04  0.15248695508E+04  0.46999998093E+01 0.  1.
</event>
<event>
 5   0  0.3959190E-07  0.3795855E+04  0.7818609E-02  0.8047045E-01
       -2   -1    0    0    0  501  0.00000000000E+00  0.00000000000E+00  0.28125653044E+04  0.28125653044E+04  0.25500000920E-02 0.  1.
        2   -1    0    0  501    0  0.00000000000E+00  0.00000000000E+00 -0.12807268741E+04  0.12807268741E+04  0.25500000920E-02 0. -1.
    10030    2    1    2    0    0  0.00000000000E+00  0.00000000000E+00  0.15318384303E+04  0.40932921785E+04  0.37958545654E+04 0.  0.
        2    1    3    3  502    0  0.73728863748E+03  0.11359523647E+04 -0.66799179975E+03  0.15100315739E+04  0.25500000920E-02 0. -1.
       -2    1    3    3    0  502 -0.73728863748E+03 -0.11359523647E+04  0.21998302301E+04  0.25832606045E+04  0.25500000920E-02 0.  1.
</event>
<event>
 5   0  0.2666813E-07  0.3909108E+04  0.7818609E-02  0.8023138E-01
       -1   -1    0    0    0  501  0.00000000000E+00  0.00000000000E+00  0.15795993757E+04  0.15795993757E+04  0.50400001928E-02 0. -1.
        1   -1    0    0  501    0  0.00000000000E+00  0.00000000000E+00 -0.24185131940E+04  0.24185131940E+04  0.50400001928E-02 0.  1.
    10030    2    1    2    0    0  0.00000000000E+00  0.00000000000E+00 -0.83891381838E+03  0.39981125697E+04  0.39091083031E+04 0.  0.
        1    1    3    3  502    0 -0.33038816145E+03  0.17023682616E+04  0.50277622506E+03  0.18055464457E+04  0.50400001928E-02 0. -1.
       -1    1    3    3    0  502  0.33038816145E+03 -0.17023682616E+04 -0.13416900434E+04  0.21925661240E+04  0.50400001928E-02 0.  1.
</event>
<event>
 5   0  0.5805753E-07  0.3883602E+04  0.7818609E-02  0.8028448E-01
       -2   -1    0    0    0  501  0.00000000000E+00  0.00000000000E+00  0.20541803810E+04  0.20541803810E+04  0.25500000920E-02 0.  1.
        2   -1    0    0  501    0  0.00000000000E+00  0.00000000000E+00 -0.18355694831E+04  0.18355694831E+04  0.25500000920E-02 0. -1.
    10030    2    1    2    0    0  0.00000000000E+00  0.00000000000E+00  0.21861089793E+03  0.38897498641E+04  0.38836018437E+04 0.  0.
        1    1    3    3  502    0 -0.40288499244E+03  0.13629561301E+04  0.14345119264E+04  0.20193539058E+04  0.50400001928E-02 0.  1.
       -1    1    3    3    0  502  0.40288499244E+03 -0.13629561301E+04 -0.12159010285E+04  0.18703959583E+04  0.50400001928E-02 0. -1.
</event>
<event>
 5   0  0.1876027E-07  0.3885403E+04  0.7818609E-02  0.8028072E-01
        1   -1    0    0  501    0  0.00000000000E+00  0.00000000000E+00  0.25870306318E+04  0.25870306318E+04  0.50400001928E-02 0.  1.
       -1   -1    0    0    0  501  0.00000000000E+00  0.00000000000E+00 -0.14588500366E+04  0.14588500366E+04  0.50400001928E-02 0. -1.
    10030    2    1    2    0    0  0.00000000000E+00  0.00000000000E+00  0.11281805952E+04  0.40458806684E+04  0.38854033160E+04 0.  0.
        3    1    3    3  502    0  0.12104854991E+04  0.99274040290E+03  0.17619418852E+04  0.23569573327E+04  0.10100000352E+00 0.  1.
       -3    1    3    3    0  502 -0.12104854991E+04 -0.99274040290E+03 -0.63376129001E+03  0.16889233357E+04  0.10100000352E+00 0. -1.
</event>
<event>
 5   0  0.3959190E-07  0.3772111E+04  0.7818609E-02  0.8052166E-01
       -2   -1    0    0    0  501  0.00000000000E+00  0.00000000000E+00  0.11328063649E+04  0.11328063649E+04  0.25500000920E-02 0. -1.
        2   -1    0    0  501    0  0.00000000000E+00  0.00000000000E+00 -0.31401706100E+04  0.31401706100E+04  0.25500000920E-02 0.  1.
    10030    2    1    2    0    0  0.00000000000E+00  0.00000000000E+00 -0.20073642451E+04  0.42729769749E+04  0.37721109495E+04 0.  0.
        2    1    3    3  502    0 -0.83471956742E+03 -0.13378611266E+04  0.16839143190E+03  0.15858703681E+04  0.25500000920E-02 0. -1.
       -2    1    3    3    0  502  0.83471956742E+03  0.13378611266E+04 -0.21757556770E+04  0.26871066068E+04  0.25500000920E-02 0.  1.
</event>
<event>
 5   0  0.2666813E-07  0.3676555E+04  0.7818609E-02  0.8073177E-01
        1   -1    0    0  501    0  0.00000000000E+00  0.00000000000E+00  0.17340474504E+04  0.17340474504E+04  0.50400001928E-02 0. -1.
       -1   -1    0    0    0  501  0.00000000000E+00  0.00000000000E+00 -0.19487726308E+04  0.19487726308E+04  0.50400001928E-02 0.  1.
    10030    2    1    2    0    0  0.00000000000E+00  0.00000000000E+00 -0.21472518047E+03  0.36828200812E+04  0.36765550244E+04 0.  0.
        1    1    3    3  502    0  0.10047012769E+03  0.57057566023E+03  0.16402057765E+04  0.17395188473E+04  0.50400001928E-02 0. -1.
       -1    1    3    3    0  502 -0.10047012769E+03 -0.57057566023E+03 -0.18549309570E+04  0.19433012340E+04  0.50400001928E-02 0.  1.
</event>
<event>
 5   0  0.1876027E-07  0.3905218E+04  0.7818609E-02  0.8023945E-01
        1   -1    0    0  501    0  0.00000000000E+00  0.00000000000E+00  0.18622369265E+04  0.18622369265E+04  0.50400001928E-02 0. -1.
       -1   -1    0    0    0  501  0.00000000000E+00  0.00000000000E+00 -0.20473670289E+04  0.20473670289E+04  0.50400001928E-02 0.  1.
    10030    2    1    2    0    0  0.00000000000E+00  0.00000000000E+00 -0.18513010239E+03  0.39096039554E+04  0.39052182952E+04 0.  0.
        3    1    3    3  502    0  0.52182189168E+03 -0.12713390182E+04  0.12961053558E+04  0.18890447558E+04  0.10100000352E+00 0. -1.
       -3    1    3    3    0  502 -0.52182189168E+03  0.12713390182E+04 -0.14812354582E+04  0.20205591995E+04  0.10100000352E+00 0.  1.
</event>
<event>
 5   0  0.2666813E-07  0.3865985E+04  0.7818609E-02  0.8032141E-01
        1   -1    0    0  501    0  0.00000000000E+00  0.00000000000E+00  0.15941282667E+04  0.15941282667E+04  0.50400001928E-02 0.  1.
       -1   -1    0    0    0  501  0.00000000000E+00  0.00000000000E+00 -0.23438892181E+04  0.23438892181E+04  0.50400001928E-02 0. -1.
    10030    2    1    2    0    0  0.00000000000E+00  0.00000000000E+00 -0.74976095137E+03  0.39380174848E+04  0.38659850267E+04 0.  0.
        1    1    3    3  502    0  0.13522895623E+04  0.66542828920E+03 -0.16077952354E+04  0.22037439478E+04  0.50400001928E-02 0. -1.
       -1    1    3    3    0  502 -0.13522895623E+04 -0.66542828920E+03  0.85803428404E+03  0.17342735370E+04  0.50400001928E-02 0.  1.
</event>
<event>
 5   0  0.5735179E-07  0.3876492E+04  0.7818609E-02  0.8029936E-01
       -2   -1    0    0    0  501  0.00000000000E+00  0.00000000000E+00  0.13202585000E+04  0.13202585000E+04  0.25500000920E-02 0. -1.
        2   -1    0    0  501    0  0.00000000000E+00  0.00000000000E+00 -0.28455015478E+04  0.28455015478E+04  0.25500000920E-02 0.  1.
    10030    2    1    2    0    0  0.00000000000E+00  0.00000000000E+00 -0.15252430478E+04  0.41657600477E+04  0.38764920251E+04 0.  0.
        5    1    3    3  502    0  0.43181280418E+03 -0.13862728319E+04 -0.21423951745E+04  0.25880675872E+04  0.46999998093E+01 0. -1.
       -5    1    3    3    0  502 -0.43181280418E+03  0.13862728319E+04  0.61715212672E+03  0.15776924605E+04  0.46999998093E+01 0.  1.
</event>
<event>
 5   0  0.5805753E-07  0.3873252E+04  0.7818609E-02  0.8030615E-01
       -2   -1    0    0    0  501  0.00000000000E+00  0.00000000000E+00  0.21168993828E+04  0.21168993828E+04  0.25500000920E-02 0.  1.
        2   -1    0    0  501    0  0.00000000000E+00  0.00000000000E+00 -0.17717045941E+04  0.17717045941E+04  0.25500000920E-02 0. -1.
    10030    2    1    2    0    0  0.00000000000E+00  0.00000000000E+00  0.34519478870E+03  0.38886039769E+04  0.38732520505E+04 0.  0.
        1    1    3    3  502    0  0.29447434002E+03 -0.17929679139E+04  0.84538130863E+03  0.20040256071E+04  0.50400001928E-02 0.  1.
       -1    1    3    3    0  502 -0.29447434002E+03  0.17929679139E+04 -0.50018651994E+03  0.18845783698E+04  0.50400001928E-02 0. -1.
</event>
<event>
 5   0  0.5805753E-07  0.3848614E+04  0.7818609E-02  0.8035802E-01
        2   -1    0    0  501    0  0.00000000000E+00  0.00000000000E+00  0.34670631095E+04  0.34670631095E+04  0.25500000920E-02 0. -1.
       -2   -1    0    0    0  501  0.00000000000E+00  0.00000000000E+00 -0.10680384666E+04  0.10680384666E+04  0.25500000920E-02 0.  1.
    10030    2    1    2    0    0  0.00000000000E+00  0.00000000000E+00  0.23990246429E+04  0.45351015761E+04  0.38486136554E+04 0.  0.
        1    1    3    3  502    0  0.85537792549E+03  0.28384443175E+03 -0.80397013499E+03  0.12077280467E+04  0.50400001928E-02 0.  1.
       -1    1    3    3    0  502 -0.85537792549E+03 -0.28384443175E+03  0.32029947778E+04  0.33273735293E+04  0.50400001928E-02 0. -1.
</event>
<event>
 5   0  0.1943459E-07  0.3897813E+04  0.7818609E-02  0.8025484E-01
        1   -1    0    0  501    0  0.00000000000E+00  0.00000000000E+00  0.23189542311E+04  0.23189542311E+04  0.50400001928E-02 0.  1.
       -1   -1    0    0    0  501  0.00000000000E+00  0.00000000000E+00 -0.16379094920E+04  0.16379094920E+04  0.50400001928E-02 0. -1.
    10030    2    1    2    0    0  0.00000000000E+00  0.00000000000E+00  0.68104473910E+03  0.39568637231E+04  0.38978133083E+04 0.  0.
        2    1    3    3  502    0  0.40507697818E+03 -0.10544710895E+03 -0.15917398651E+04  0.16458560840E+04  0.25500000920E-02 0. -1.
       -2    1    3    3    0  502 -0.40507697818E+03  0.10544710895E+03  0.22727846042E+04  0.23110076391E+04  0.25500000920E-02 0.  1.
</event>
<event>
 5   0  0.2666813E-07  0.3918112E+04  0.7818609E-02  0.8021273E-01
       -1   -1    0    0    0  501  0.00000000000E+00  0.00000000000E+00  0.10872762635E+04  0.10872762635E+04  0.50400001928E-02 0.  1.
        1   -1    0    0  501    0  0.00000000000E+00  0.00000000000E+00 -0.35298301646E+04  0.35298301646E+04  0.50400001928E-02 0. -1.
    10030    2    1    2    0    0  0.00000000000E+00  0.00000000000E+00 -0.24425539011E+04  0.46171064281E+04  0.39181120720E+04 0.  0.
        1    1    3    3  502    0  0.16700717622E+04 -0.55383814253E+03 -0.22363611275E+04  0.28455557404E+04  0.50400001928E-02 0. -1.
       -1    1    3    3    0  502 -0.16700717622E+04  0.55383814253E+03 -0.20619277357E+03  0.17715506877E+04  0.50400001928E-02 0.  1.
</event>
<event>
 5   0  0.5735179E-07  0.3799976E+04  0.7818609E-02  0.8046160E-01
       -2   -1    0    0    0  501  0.00000000000E+00  0.00000000000E+00  0.31265900136E+04  0.31265900136E+04  0.25500000920E-02 0.  1.
        2   -1    0    0  501    0  0.00000000000E+00  0.00000000000E+00 -0.11545979329E+04  0.11545979329E+04  0.25500000920E-02 0. -1.
    10030    2    1    2    0    0  0.00000000000E+00  0.00000000000E+00  0.19719920806E+04  0.42811879465E+04  0.37999759824E+04 0.  0.
        5    1    3    3  502    0 -0.10399799205E+04 -0.11566423724E+04 -0.24330347793E+03  0.15743565305E+04  0.46999998093E+01 0. -1.
       -5    1    3    3    0  502  0.10399799205E+04  0.11566423724E+04  0.22152955586E+04  0.27068314160E+04  0.46999998093E+01 0.  1.
</event>
<event>
 5   0  0.1876027E-07  0.3892749E+04  0.7818609E-02  0.8026539E-01
        1   -1    0    0  501    0  0.00000000000E+00  0.00000000000E+00  0.23500951246E+04  0.23500951246E+04  0.50400001928E-02 0.  1.
       -1   -1    0    0    0  501  0.00000000000E+00  0.00000000000E+00 -0.16120088705E+04  0.16120088705E+04  0.50400001928E-02 0. -1.
    10030    2    1    2    0    0  0.00000000000E+00  0.00000000000E+00  0.73808625411E+03  0.39621039951E+04  0.38927492534E+04 0.  0.
        3    1    3    3  502    0  0.12275329913E+04 -0.15082735218E+04  0.45203053546E+03  0.19965114266E+04  0.10100000352E+00 0. -1.
       -3    1    3    3    0  502 -0.12275329913E+04  0.15082735218E+04  0.28605571865E+03  0.19655925686E+04  0.10100000352E+00 0.  1.
</event>
<event>
 5   0  0.1860500E-07  0.4302680E+04  0.7818609E-02  0.7946123E-01
       -1   -1    0    0    0  501  0.00000000000E+00  0.00000000000E+00  0.36449413895E+04  0.36449413895E+04  0.50400001928E-02 0.  1.
        1   -1    0    0  501    0  0.00000000000E+00  0.00000000000E+00 -0.12697771459E+04  0.12697771459E+04  0.50400001928E-02 0. -1.
    10030    2    1    2    0    0  0.00000000000E+00  0.00000000000E+00  0.23751642437E+04  0.49147185354E+04  0.43026797578E+04 0.  0.
        4    1    3    3  502    0  0.16609033165E+04  0.30349459521E+03 -0.33531613815E+03  0.17213794821E+04  0.12699999809E+01 0. -1.
       -4    1    3    3    0  502 -0.16609033165E+04 -0.30349459521E+03  0.27104803818E+04  0.31933390533E+04  0.12699999809E+01 0.  1.
</event>
<event>
 5   0  0.5872444E-07  0.3911689E+04  0.7818609E-02  0.8022603E-01
       -2   -1    0    0    0  501  0.00000000000E+00  0.00000000000E+00  0.15237194055E+04  0.15237194055E+04  0.25500000920E-02 0.  1.
        2   -1    0    0  501    0  0.00000000000E+00  0.00000000000E+00 -0.25105196759E+04  0.25105196759E+04  0.25500000920E-02 0. -1.
    10030    2    1    2    0    0  0.00000000000E+00  0.00000000000E+00 -0.98680027044E+03  0.40342390814E+04  0.39116889182E+04 0.  0.
        3    1    3    3  502    0  0.27809364094E+02  0.17644677590E+04  0.37635209088E+03  0.18043726721E+04  0.10100000352E+00 0.  1.
       -3    1    3    3    0  502 -0.27809364094E+02 -0.17644677590E+04 -0.13631523613E+04  0.22298664094E+04  0.10100000352E+00 0. -1.
</event>
<event>
 5   0  0.1860500E-07  0.3905988E+04  0.7818609E-02  0.8023785E-01
       -1   -1    0    0    0  501  0.00000000000E+00  0.00000000000E+00  0.14303945819E+04  0.14303945819E+04  0.50400001928E-02 0.  1.
        1   -1    0    0  501    0  0.00000000000E+00  0.00000000000E+00 -0.26665275027E+04  0.26665275027E+04  0.50400001928E-02 0. -1.
    10030    2    1    2    0    0  0.00000000000E+00  0.00000000000E+00 -0.12361329209E+04  0.40969220846E+04  0.39059884753E+04 0.  0.
        5    1    3    3  502    0 -0.13998700037E+04 -0.20708244103E+03 -0.20298344335E+04  0.24744229796E+04  0.46999998093E+01 0. -1.
       -5    1    3    3    0  502  0.13998700037E+04  0.20708244103E+03  0.79370151260E+03  0.16224991050E+04  0.46999998093E+01 0.  1.
</event>
<event>
 5   0  0.5735179E-07  0.4015561E+04  0.7818609E-02  0.8001415E-01
       -2   -1    0    0    0  501  0.00000000000E+00  0.00000000000E+00  0.16982934300E+04  0.16982934300E+04  0.25500000920E-02 0. -1.
        2   -1    0    0  501    0  0.00000000000E+00  0.00000000000E+00 -0.23736667093E+04  0.23736667093E+04  0.25500000920E-02 0.  1.
    10030    2    1    2    0    0  0.00000000000E+00  0.00000000000E+00 -0.67537327924E+03  0.40719601393E+04  0.40155610206E+04 0.  0.
        5    1    3    3  502    0  0.19350941707E+04  0.91546450088E+01  0.20507597106E+03  0.19459577336E+04  0.46999998093E+01 0.  1.
       -5    1    3    3    0  502 -0.19350941707E+04 -0.91546450088E+01 -0.88044925030E+03  0.21260024057E+04  0.46999998093E+01 0. -1.
</event>
<event>
 5   0  0.6095665E-07  0.3248273E+04  0.7818609E-02  0.8176184E-01
        2   -1    0    0  501    0  0.00000000000E+00  0.00000000000E+00  0.83994675470E+03  0.83994675470E+03  0.25500000920E-02 0.  1.
       -2   -1    0    0    0  501  0.00000000000E+00  0.00000000000E+00 -0.31404598741E+04  0.31404598741E+04  0.25500000920E-02 0. -1.
    10030    2    1    2    0    0  0.00000000000E+00  0.00000000000E+00 -0.23005131194E+04  0.39804066288E+04  0.32482728208E+04 0.  0.
        4    1    3    3  502    0 -0.20690580419E+03  0.13225372491E+04 -0.22772856938E+04  0.26415803094E+04  0.12699999809E+01 0. -1.
       -4    1    3    3    0  502  0.20690580419E+03 -0.13225372491E+04 -0.23227425605E+02  0.13388263194E+04  0.12699999809E+01 0.  1.
</event>
<event>
 5   0  0.6095665E-07  0.3905427E+04  0.7818609E-02  0.8023901E-01
       -2   -1    0    0    0  501  0.00000000000E+00  0.00000000000E+00  0.18008199956E+04  0.18008199956E+04  0.25500000920E-02 0. -1.
        2   -1    0    0  501    0  0.00000000000E+00  0.00000000000E+00 -0.21174187054E+04  0.21174187054E+04  0.25500000920E-02 0.  1.
    10030    2    1    2    0    0  0.00000000000E+00  0.00000000000E+00 -0.31659870975E+03  0.39182387010E+04  0.39054269645E+04 0.  0.
        4    1    3    3  502    0  0.19126250202E+04  0.37751590623E+03 -0.27018021575E+03  0.19681594675E+04  0.12699999809E+01 0.  1.
       -4    1    3    3    0  502 -0.19126250202E+04 -0.37751590623E+03 -0.46418493999E+02  0.19500792335E+04  0.12699999809E+01 0. -1.
</event>
<event>
 5   0  0.5805753E-07  0.4030120E+04  0.7818609E-02  0.7998498E-01
       -2   -1    0    0    0  501  0.00000000000E+00  0.00000000000E+00  0.13303611274E+04  0.13303611274E+04  0.25500000920E-02 0. -1.
        2   -1    0    0  501    0  0.00000000000E+00  0.00000000000E+00 -0.30521539010E+04  0.30521539010E+04  0.25500000920E-02 0.  1.
    10030    2    1    2    0    0  0.00000000000E+00  0.00000000000E+00 -0.17217927736E+04  0.43825150284E+04  0.40301200502E+04 0.  0.
        1    1    3    3  502    0 -0.11256239784E+04  0.16647482377E+04 -0.10223762175E+04  0.22546993515E+04  0.50400001928E-02 0.  1.
       -1    1    3    3    0  502  0.11256239784E+04 -0.16647482377E+04 -0.69941655602E+03  0.21278156768E+04  0.50400001928E-02 0. -1.
</event>
<event>
 5   0  0.1943459E-07  0.2549322E+04  0.7818609E-02  0.8385622E-01
       -1   -1    0    0    0  501  0.00000000000E+00  0.00000000000E+00  0.15030678224E+04  0.15030678224E+04  0.50400001928E-02 0. -1.
        1   -1    0    0  501    0  0.00000000000E+00  0.00000000000E+00 -0.10809633173E+04  0.10809633173E+04  0.50400001928E-02 0.  1.
    10030    2    1    2    0    0  0.00000000000E+00  0.00000000000E+00  0.42210450515E+03  0.25840311397E+04  0.25493224036E+04 0.  0.
        2    1    3    3  502    0 -0.29196995404E+03  0.75406290947E+03 -0.78770763742E+03  0.11288669751E+04  0.25500000920E-02 0.  1.
       -2    1    3    3    0  502  0.29196995404E+03 -0.75406290947E+03  0.12098121426E+04  0.14551641646E+04  0.25500000920E-02 0. -1.
</event>
<event>
 5   0  0.6095665E-07  0.3936901E+04  0.7818609E-02  0.8017398E-01
       -2   -1    0    0    0  501  0.00000000000E+00  0.00000000000E+00  0.29489561573E+04  0.29489561573E+04  0.25500000920E-02 0. -1.
        2   -1    0    0  501    0  0.00000000000E+00  0.00000000000E+00 -0.13139556823E+04  0.13139556823E+04  0.25500000920E-02 0.  1.
    10030    2    1    2    0    0  0.00000000000E+00  0.00000000000E+00  0.16350004751E+04  0.42629118396E+04  0.39369011670E+04 0.  0.
        4    1    3    3  502    0  0.85078975088E+03 -0.41617531835E+03 -0.10510123497E+04  0.14148051696E+04  0.12699999809E+01 0.  1.
       -4    1    3    3    0  502 -0.85078975088E+03  0.41617531835E+03  0.26860128248E+04  0.28481066700E+04  0.12699999809E+01 0. -1.
</event>
<event>
 5   0  0.1860500E-07  0.3935998E+04  0.7818609E-02  0.8017584E-01
        1   -1    0    0  501    0  0.00000000000E+00  0.00000000000E+00  0.11410397539E+04  0.11410397539E+04  0.50400001928E-02 0. -1.
       -1   -1    0    0    0  501  0.00000000000E+00  0.00000000000E+00 -0.33942899828E+04  0.33942899828E+04  0.50400001928E-02 0.  1.
    10030    2    1    2    0    0  0.00000000000E+00  0.00000000000E+00 -0.22532502289E+04  0.45353297367E+04  0.39359978693E+04 0.  0.
        5    1    3    3  502    0 -0.16998478959E+03 -0.12470630783E+03 -0.33812341541E+04  0.33878035638E+04  0.46999998093E+01 0.  1.
       -5    1    3    3    0  502  0.16998478959E+03  0.12470630783E+03  0.11279839253E+04  0.11475261729E+04  0.46999998093E+01 0. -1.
</event>
<event>
 5   0  0.1876027E-07  0.3751431E+04  0.7818609E-02  0.8056659E-01
       -1   -1    0    0    0  501  0.00000000000E+00  0.00000000000E+00  0.16036870856E+04  0.16036870856E+04  0.50400001928E-02 0. -1.
        1   -1    0    0  501    0  0.00000000000E+00  0.00000000000E+00 -0.21938876275E+04  0.21938876275E+04  0.50400001928E-02 0.  1.
    10030    2    1    2    0    0  0.00000000000E+00  0.00000000000E+00 -0.59020054195E+03  0.37975747131E+04  0.37514313297E+04 0.  0.
        3    1    3    3  502    0 -0.10028745118E+04 -0.13923718943E+04  0.47174801682E+03  0.17796075354E+04  0.10100000352E+00 0. -1.
       -3    1    3    3    0  502  0.10028745118E+04  0.13923718943E+04 -0.10619485588E+04  0.20179671777E+04  0.10100000352E+00 0.  1.
</event>
<event>
 5   0  0.3959190E-07  0.2967544E+04  0.7818609E-02  0.8253060E-01
        2   -1    0    0  501    0  0.00000000000E+00  0.00000000000E+00  0.11336465673E+04  0.11336465673E+04  0.25500000920E-02 0.  1.
       -2   -1    0    0    0  501  0.00000000000E+00  0.00000000000E+00 -0.19420329308E+04  0.19420329308E+04  0.25500000920E-02 0. -1.
    10030    2    1    2    0    0  0.00000000000E+00  0.00000000000E+00 -0.80838636359E+03  0.30756794981E+04  0.29675437423E+04 0.  0.
        2    1    3    3  502    0  0.40008355256E+03 -0.13568311543E+04 -0.86830672578E+03  0.16598235449E+04  0.25500000920E-02 0. -1.
       -2    1    3    3    0  502 -0.40008355256E+03  0.13568311543E+04  0.59920362185E+02  0.14158559532E+04  0.25500000920E-02 0.  1.
</event>
<event>
 5   0  0.1860500E-07  0.3854241E+04  0.7818609E-02  0.8034614E-01
        1   -1    0    0  501    0  0.00000000000E+00  0.00000000000E+00  0.20053828979E+04  0.20053828979E+04  0.50400001928E-02 0.  1.
       -1   -1    0    0    0  501  0.00000000000E+00  0.00000000000E+00 -0.18519127920E+04  0.18519127920E+04  0.50400001928E-02 0. -1.
    10030    2    1    2    0    0  0.00000000000E+00  0.00000000000E+00  0.15347010589E+03  0.38572956899E+04  0.38542414255E+04 0.  0.
        4    1    3    3  502    0 -0.30555018409E+02  0.15136943885E+04 -0.11165135650E+04  0.18811720986E+04  0.12699999809E+01 0. -1.
       -4    1    3    3    0  502  0.30555018409E+02 -0.15136943885E+04  0.12699836709E+04  0.19761235913E+04  0.12699999809E+01 0.  1.
</event>
<event>
 5   0  0.5805753E-07  0.3912262E+04  0.7818609E-02  0.8022484E-01
        2   -1    0    0  501    0  0.00000000000E+00  0.00000000000E+00  0.19887275350E+04  0.19887275350E+04  0.25500000920E-02 0. -1.
       -2   -1    0    0    0  501  0.00000000000E+00  0.00000000000E+00 -0.19240692293E+04  0.19240692293E+04  0.25500000920E-02 0.  1.
    10030    2    1    2    0    0  0.00000000000E+00  0.00000000000E+00  0.64658305665E+02  0.39127967643E+04  0.39122624940E+04 0.  0.
        1    1    3    3  502    0  0.18336700905E+04 -0.58557872447E+03  0.38051605319E+03  0.19621521119E+04  0.50400001928E-02 0. -1.
       -1    1    3    3    0  502 -0.18336700905E+04  0.58557872447E+03 -0.31585774752E+03  0.19506446524E+04  0.50400001928E-02 0.  1.
</event>
<event>
 5   0  0.5805753E-07  0.3896935E+04  0.7818609E-02  0.8025667E-01
        2   -1    0    0  501    0  0.00000000000E+00  0.00000000000E+00  0.16457065351E+04  0.16457065351E+04  0.25500000920E-02 0. -1.
       -2   -1    0    0    0  501  0.00000000000E+00  0.00000000000E+00 -0.23069275096E+04  0.23069275096E+04  0.25500000920E-02 0.  1.
    10030    2    1    2    0    0  0.00000000000E+00  0.00000000000E+00 -0.66122097453E+03  0.39526340447E+04  0.38969350410E+04 0.  0.
        1    1    3    3  502    0  0.65360219121E+03  0.10002838880E+04  0.12304658975E+04  0.17151705472E+04  0.50400001928E-02 0. -1.
       -1    1    3    3    0  502 -0.65360219121E+03 -0.10002838880E+04 -0.18916868720E+04  0.22374634975E+04  0.50400001928E-02 0.  1.
</event>
<event>
 5   0  0.5805753E-07  0.2416357E+04  0.7818609E-02  0.8433405E-01
       -2   -1    0    0    0  501  0.00000000000E+00  0.00000000000E+00  0.18537847112E+04  0.18537847112E+04  0.25500000920E-02 0.  1.
        2   -1    0    0  501    0  0.00000000000E+00  0.00000000000E+00 -0.78741356255E+03  0.78741356256E+03  0.25500000920E-02 0. -1.
    10030    2    1    2    0    0  0.00000000000E+00  0.00000000000E+00  0.10663711487E+04  0.26411982738E+04  0.24163569469E+04 0.  0.
        1    1    3    3  502    0 -0.63227210784E+03  0.22928918929E+03  0.16302468936E+04  0.17635323884E+04  0.50400001928E-02 0.  1.
       -1    1    3    3    0  502  0.63227210784E+03 -0.22928918929E+03 -0.56387574493E+03  0.87766588542E+03  0.50400001928E-02 0. -1.
</event>
<event>
 5   0  0.1943459E-07  0.3856340E+04  0.7818609E-02  0.8034171E-01
        1   -1    0    0  501    0  0.00000000000E+00  0.00000000000E+00  0.26008238631E+04  0.26008238631E+04  0.50400001928E-02 0. -1.
       -1   -1    0    0    0  501  0.00000000000E+00  0.00000000000E+00 -0.14294851930E+04  0.14294851930E+04  0.50400001928E-02 0.  1.
    10030    2    1    2    0    0  0.00000000000E+00  0.00000000000E+00  0.11713386701E+04  0.40303090561E+04  0.38563398200E+04 0.  0.
        2    1    3    3  502    0  0.11144971641E+04  0.15715709899E+04  0.50539342107E+03  0.19918237410E+04  0.25500000920E-02 0.  1.
       -2    1    3    3    0  502 -0.11144971641E+04 -0.15715709899E+04  0.66594524900E+03  0.20384853151E+04  0.25500000920E-02 0. -1.
</event>
<event>
 5   0  0.5735179E-07  0.3901543E+04  0.7818609E-02  0.8024708E-01
        2   -1    0    0  501    0  0.00000000000E+00  0.00000000000E+00  0.19202232989E+04  0.19202232989E+04  0.25500000920E-02 0. -1.
       -2   -1    0    0    0  501  0.00000000000E+00  0.00000000000E+00 -0.19818054745E+04  0.19818054745E+04  0.25500000920E-02 0.  1.
    10030    2    1    2    0    0  0.00000000000E+00  0.00000000000E+00 -0.61582175579E+02  0.39020287734E+04  0.39015427953E+04 0.  0.
        5    1    3    3  502    0  0.18046261456E+04  0.23245523338E+03  0.67269968112E+03  0.19399118309E+04  0.46999998093E+01 0.  1.
       -5    1    3    3    0  502 -0.18046261456E+04 -0.23245523338E+03 -0.73428185670E+03  0.19621169424E+04  0.46999998093E+01 0. -1.
</event>
<event>
 5   0  0.5735179E-07  0.3167348E+04  0.7818609E-02  0.8197494E-01
       -2   -1    0    0    0  501  0.00000000000E+00  0.00000000000E+00  0.14791831394E+04  0.14791831394E+04  0.25500000920E-02 0. -1.
        2   -1    0    0  501    0  0.00000000000E+00  0.00000000000E+00 -0.16955463692E+04  0.16955463692E+04  0.25500000920E-02 0.  1.
    10030    2    1    2    0    0  0.00000000000E+00  0.00000000000E+00 -0.21636322986E+03  0.31747295086E+04  0.31673481662E+04 0.  0.
        5    1    3    3  502    0  0.69494150070E+03 -0.71144554631E+03  0.11271283693E+04  0.15031762723E+04  0.46999998093E+01 0. -1.
       -5    1    3    3    0  502 -0.69494150070E+03  0.71144554631E+03 -0.13434915992E+04  0.16715532363E+04  0.46999998093E+01 0.  1.
</event>
<event>
 5   0  0.6095665E-07  0.3401689E+04  0.7818609E-02  0.8137492E-01
       -2   -1    0    0    0  501  0.00000000000E+00  0.00000000000E+00  0.10641128602E+04  0.10641128602E+04  0.25500000920E-02 0.  1.
        2   -1    0    0  501    0  0.00000000000E+00  0.00000000000E+00 -0.27185761749E+04  0.27185761749E+04  0.25500000920E-02 0. -1.
    10030    2    1    2    0    0  0.00000000000E+00  0.00000000000E+00 -0.16544633147E+04  0.37826890351E+04  0.34016889154E+04 0.  0.
        4    1    3    3  502    0 -0.10800566549E+04  0.12985000383E+04 -0.10503138304E+04  0.19889156550E+04  0.12699999809E+01 0. -1.
       -4    1    3    3    0  502  0.10800566549E+04 -0.12985000383E+04 -0.60414948423E+03  0.17937733802E+04  0.12699999809E+01 0.  1.
</event>
<event>
 5   0  0.6095665E-07  0.3565046E+04  0.7818609E-02  0.8098546E-01
        2   -1    0    0  501    0  0.00000000000E+00  0.00000000000E+00  0.17193725261E+04  0.17193725261E+04  0.25500000920E-02 0. -1.
       -2   -1    0    0    0  501  0.00000000000E+00  0.00000000000E+00 -0.18479928483E+04  0.18479928483E+04  0.25500000920E-02 0.  1.
    10030    2    1    2    0    0  0.00000000000E+00  0.00000000000E+00 -0.12862032222E+03  0.35673653744E+04  0.35650459362E+04 0.  0.
        4    1    3    3  502    0  0.15887788788E+04  0.46673035657E+03 -0.72453558404E+03  0.18074869230E+04  0.12699999809E+01 0.  1.
       -4    1    3    3    0  502 -0.15887788788E+04 -0.46673035657E+03  0.59591526181E+03  0.17598784514E+04  0.12699999809E+01 0. -1.
</event>
<event>
 5   0  0.1943459E-07  0.3910118E+04  0.7818609E-02  0.8022928E-01
        1   -1    0    0  501    0  0.00000000000E+00  0.00000000000E+00  0.23191071651E+04  0.23191071651E+04  0.50400001928E-02 0.  1.
       -1   -1    0    0    0  501  0.00000000000E+00  0.00000000000E+00 -0.16481583109E+04  0.16481583109E+04  0.50400001928E-02 0. -1.
    10030    2    1    2    0    0  0.00000000000E+00  0.00000000000E+00  0.67094885419E+03  0.39672654760E+04  0.39101180279E+04 0.  0.
        2    1    3    3  502    0 -0.10306557674E+04  0.14886431431E+03 -0.13433517558E+04  0.16997075733E+04  0.25500000920E-02 0. -1.
       -2    1    3    3    0  502  0.10306557674E+04 -0.14886431431E+03  0.20143006100E+04  0.22675579027E+04  0.25500000920E-02 0.  1.
</event>
<event>
 5   0  0.5872444E-07  0.3348537E+04  0.7818609E-02  0.8150654E-01
       -2   -1    0    0    0  501  0.00000000000E+00  0.00000000000E+00  0.11166681840E+04  0.11166681840E+04  0.25500000920E-02 0.  1.
        2   -1    0    0  501    0  0.00000000000E+00  0.00000000000E+00 -0.25103031511E+04  0.25103031511E+04  0.25500000920E-02 0. -1.
    10030    2    1    2    0    0  0.00000000000E+00  0.00000000000E+00 -0.13936349671E+04  0.36269713351E+04  0.33485373887E+04 0.  0.
        3    1    3    3  502    0 -0.15138658048E+04  0.29678853206E+03  0.78989668773E+01  0.15427039611E+04  0.10100000352E+00 0.  1.
       -3    1    3    3    0  502  0.15138658048E+04 -0.29678853206E+03 -0.14015339340E+04  0.20842673740E+04  0.10100000352E+00 0. -1.
</event>
<event>
 5   0  0.1860500E-07  0.3746542E+04  0.7818609E-02  0.8057725E-01
        1   -1    0    0  501    0  0.00000000000E+00  0.00000000000E+00  0.14194693467E+04  0.14194693467E+04  0.50400001928E-02 0. -1.
       -1   -1    0    0    0  501  0.00000000000E+00  0.00000000000E+00 -0.24721519750E+04  0.24721519750E+04  0.50400001928E-02 0.  1.
    10030    2    1    2    0    0  0.00000000000E+00  0.00000000000E+00 -0.10526826283E+04  0.38916213218E+04  0.37465418450E+04 0.  0.
        4    1    3    3  502    0 -0.60014546314E+03  0.11359130426E+04  0.88978193102E+03  0.15627496649E+04  0.12699999809E+01 0. -1.
       -4    1    3    3    0  502  0.60014546314E+03 -0.11359130426E+04 -0.19424645593E+04  0.23288716569E+04  0.12699999809E+01 0.  1.
</event>
<event>
 5   0  0.6095665E-07  0.3913827E+04  0.7818609E-02  0.8022160E-01
       -2   -1    0    0    0  501  0.00000000000E+00  0.00000000000E+00  0.20698324444E+04  0.20698324444E+04  0.25500000920E-02 0. -1.
        2   -1    0    0  501    0  0.00000000000E+00  0.00000000000E+00 -0.18501549237E+04  0.18501549237E+04  0.25500000920E-02 0.  1.
    10030    2    1    2    0    0  0.00000000000E+00  0.00000000000E+00  0.21967752073E+03  0.39199873681E+04  0.39138271235E+04 0.  0.
        4    1    3    3  502    0 -0.31620299936E+03 -0.54103085835E+03 -0.17469427918E+04  0.18559389692E+04  0.12699999809E+01 0.  1.
       -4    1    3    3    0  502  0.31620299936E+03  0.54103085835E+03  0.19666203126E+04  0.20640483989E+04  0.12699999809E+01 0. -1.
</event>
<event>
 5   0  0.3959190E-07  0.3780907E+04  0.7818609E-02  0.8050265E-01
        2   -1    0    0  501    0  0.00000000000E+00  0.00000000000E+00  0.24044169602E+04  0.24044169602E+04  0.25500000920E-02 0. -1.
       -2   -1    0    0    0  501  0.00000000000E+00  0.00000000000E+00 -0.14863534936E+04  0.14863534936E+04  0.25500000920E-02 0.  1.
    10030    2    1    2    0    0  0.00000000000E+00  0.00000000000E+00  0.91806346660E+03  0.38907704539E+04  0.37809065310E+04 0.  0.
        2    1    3    3  502    0  0.18660464930E+04 -0.24226678159E+03  0.64594338012E+03  0.19894887680E+04  0.25500000920E-02 0. -1.
       -2    1    3    3    0  502 -0.18660464930E+04  0.24226678159E+03  0.27212008648E+03  0.19012816859E+04  0.25500000920E-02 0.  1.
</event>
<event>
 5   0  0.1860500E-07  0.3899354E+04  0.7818609E-02  0.8025164E-01
       -1   -1    0    0    0  501  0.00000000000E+00  0.00000000000E+00  0.30574099698E+04  0.30574099698E+04  0.50400001928E-02 0. -1.
        1   -1    0    0  501    0  0.00000000000E+00  0.00000000000E+00 -0.12432879434E+04  0.12432879434E+04  0.50400001928E-02 0.  1.
    10030    2    1    2    0    0  0.00000000000E+00  0.00000000000E+00  0.18141220264E+04  0.43006979132E+04  0.38993542817E+04 0.  0.
        4    1    3    3  502    0 -0.31169688934E+03 -0.10654724516E+01  0.30297512016E+04  0.30457429377E+04  0.12699999809E+01 0. -1.
       -4    1    3    3    0  502  0.31169688934E+03  0.10654724516E+01 -0.12156291752E+04  0.12549549755E+04  0.12699999809E+01 0.  1.
</event>
<event>
 5   0  0.1943459E-07  0.3900177E+04  0.7818609E-02  0.8024992E-01
        1   -1    0    0  501    0  0.00000000000E+00  0.00000000000E+00  0.22644591916E+04  0.22644591916E+04  0.50400001928E-02 0.  1.
       -1   -1    0    0    0  501  0.00000000000E+00  0.00000000000E+00 -0.16793616101E+04  0.16793616101E+04  0.50400001928E-02 0. -1.
    10030    2    1    2    0    0  0.00000000000E+00  0.00000000000E+00  0.58509758149E+03  0.39438208018E+04  0.39001773468E+04 0.  0.
        2    1    3    3  502    0  0.67948856440E+03 -0.12014079309E+04 -0.11004587731E+04  0.17652465088E+04  0.25500000920E-02 0. -1.
       -2    1    3    3    0  502 -0.67948856440E+03  0.12014079309E+04  0.16855563546E+04  0.21785742930E+04  0.25500000920E-02 0.  1.
</event>
<event>
 5   0  0.3959190E-07  0.2558565E+04  0.7818609E-02  0.8382413E-01
        2   -1    0    0  501    0  0.00000000000E+00  0.00000000000E+00  0.19414097044E+04  0.19414097044E+04  0.25500000920E-02 0. -1.
       -2   -1    0    0    0  501  0.00000000000E+00  0.00000000000E+00 -0.84297706140E+03  0.84297706141E+03  0.25500000920E-02 0.  1.
    10030    2    1    2    0    0  0.00000000000E+00  0.00000000000E+00  0.10984326430E+04  0.27843867658E+04  0.25585651038E+04 0.  0.
        2    1    3    3  502    0 -0.98527070897E+03  0.54594949801E+03 -0.11072641684E+03  0.11318478536E+04  0.25500000920E-02 0.  1.
       -2    1    3    3    0  502  0.98527070897E+03 -0.54594949801E+03  0.12091590598E+04  0.16525389122E+04  0.25500000920E-02 0. -1.
</event>
<event>
 5   0  0.6095665E-07  0.3903381E+04  0.7818609E-02  0.8024326E-01
        2   -1    0    0  501    0  0.00000000000E+00  0.00000000000E+00  0.12346688085E+04  0.12346688085E+04  0.25500000920E-02 0.  1.
       -2   -1    0    0    0  501  0.00000000000E+00  0.00000000000E+00 -0.30851161762E+04  0.30851161762E+04  0.25500000920E-02 0. -1.
    10030    2    1    2    0    0  0.00000000000E+00  0.00000000000E+00 -0.18504473677E+04  0.43197849847E+04  0.39033814640E+04 0.  0.
        4    1    3    3  502    0  0.21271106029E+03  0.10936935218E+03 -0.30688349752E+04  0.30781418695E+04  0.12699999809E+01 0. -1.
       -4    1    3    3    0  502 -0.21271106029E+03 -0.10936935218E+03  0.12183876076E+04  0.12416431152E+04  0.12699999809E+01 0.  1.
</event>
<event>
 5   0  0.1860500E-07  0.3881849E+04  0.7818609E-02  0.8028815E-01
        1   -1    0    0  501    0  0.00000000000E+00  0.00000000000E+00  0.12603928075E+04  0.12603928075E+04  0.50400001928E-02 0. -1.
       -1   -1    0    0    0  501  0.00000000000E+00  0.00000000000E+00 -0.29888991382E+04  0.29888991382E+04  0.50400001928E-02 0.  1.
    10030    2    1    2    0    0  0.00000000000E+00  0.00000000000E+00 -0.17285063308E+04  0.42492919457E+04  0.38818485164E+04 0.  0.
        4    1    3    3  502    0 -0.12986354797E+03 -0.11669573794E+04 -0.25560314829E+04  0.28128193366E+04  0.12699999809E+01 0.  1.
       -4    1    3    3    0  502  0.12986354797E+03  0.11669573794E+04  0.82752515208E+03  0.14364726091E+04  0.12699999809E+01 0. -1.
</event>
<event>
 5   0  0.1943459E-07  0.3913582E+04  0.7818609E-02  0.8022210E-01
       -1   -1    0    0    0  501  0.00000000000E+00  0.00000000000E+00  0.18077538777E+04  0.18077538777E+04  0.50400001928E-02 0.  1.
        1   -1    0    0  501    0  0.00000000000E+00  0.00000000000E+00 -0.21181148584E+04  0.21181148584E+04  0.50400001928E-02 0. -1.
    10030    2    1    2    0    0  0.00000000000E+00  0.00000000000E+00 -0.31036098070E+03  0.39258687362E+04  0.39135816582E+04 0.  0.
        2    1    3    3  502    0 -0.68331813608E+03 -0.14922192183E+04  0.91371099135E+03  0.18784327633E+04  0.25500000920E-02 0.  1.
       -2    1    3    3    0  502  0.68331813608E+03  0.14922192183E+04 -0.12240719720E+04  0.20474359729E+04  0.25500000920E-02 0. -1.
</event>
<event>
 5   0  0.5735179E-07  0.3491335E+04  0.7818609E-02  0.8115847E-01
        2   -1    0    0  501    0  0.00000000000E+00  0.00000000000E+00  0.20001389139E+04  0.20001389139E+04  0.25500000920E-02 0. -1.
       -2   -1    0    0    0  501  0.00000000000E+00  0.00000000000E+00 -0.15235715260E+04  0.15235715260E+04  0.25500000920E-02 0.  1.
    10030    2    1    2    0    0  0.00000000000E+00  0.00000000000E+00  0.47656738782E+03  0.35237104399E+04  0.34913348148E+04 0.  0.
        5    1    3    3  502    0  0.14393186528E+04 -0.43205064129E+03  0.11347924891E+04  0.18831043583E+04  0.46999998093E+01 0. -1.
       -5    1    3    3    0  502 -0.14393186528E+04  0.43205064129E+03 -0.65822510129E+03  0.16406060816E+04  0.46999998093E+01 0.  1.
</event>
<event>
 5   0  0.5735179E-07  0.3790578E+04  0.7818609E-02  0.8048180E-01
       -2   -1    0    0    0  501  0.00000000000E+00  0.00000000000E+00  0.11037733216E+04  0.11037733216E+04  0.25500000920E-02 0. -1.
        2   -1    0    0  501    0  0.00000000000E+00  0.00000000000E+00 -0.32544009351E+04  0.32544009351E+04  0.25500000920E-02 0.  1.
    10030    2    1    2    0    0  0.00000000000E+00  0.00000000000E+00 -0.21506276135E+04  0.43581742567E+04  0.37905782830E+04 0.  0.
        5    1    3    3  502    0  0.14568862677E+04 -0.91950691663E+03 -0.16702882774E+03  0.17308758725E+04  0.46999998093E+01 0. -1.
       -5    1    3    3    0  502 -0.14568862677E+04  0.91950691663E+03 -0.19835987858E+04  0.26272983842E+04  0.46999998093E+01 0.  1.
</event>
<event>
 5   0  0.1860500E-07  0.2587459E+04  0.7818609E-02  0.8372473E-01
        1   -1    0    0  501    0  0.00000000000E+00  0.00000000000E+00  0.10358813631E+04  0.10358813631E+04  0.50400001928E-02 0.  1.
       -1   -1    0    0    0  501  0.00000000000E+00  0.00000000000E+00 -0.16157609369E+04  0.16157609369E+04  0.50400001928E-02 0. -1.
    10030    2    1    2    0    0  0.00000000000E+00  0.00000000000E+00 -0.57987957375E+03  0.26516423000E+04  0.25874594812E+04 0.  0.
        5    1    3    3  502    0 -0.10969902030E+02 -0.36559129940E+03 -0.15616638474E+04  0.16039306092E+04  0.46999998093E+01 0. -1.
       -5    1    3    3    0  502  0.10969902030E+02  0.36559129940E+03  0.98178427366E+03  0.10477116908E+04  0.46999998093E+01 0.  1.
</event>
<event>
 5   0  0.3959190E-07  0.3918709E+04  0.7818609E-02  0.8021149E-01
       -2   -1    0    0    0  501  0.00000000000E+00  0.00000000000E+00  0.14264669580E+04  0.14264669580E+04  0.25500000920E-02 0.  1.
        2   -1    0    0  501    0  0.00000000000E+00  0.00000000000E+00 -0.26913140438E+04  0.26913140438E+04  0.25500000920E-02 0. -1.
    10030    2    1    2    0    0  0.00000000000E+00  0.00000000000E+00 -0.12648470858E+04  0.41177810019E+04  0.39187092554E+04 0.  0.
        2    1    3    3  502    0  0.14510798345E+04  0.63981383597E+03  0.57671671334E+03  0.16874823253E+04  0.25500000920E-02 0.  1.
       -2    1    3    3    0  502 -0.14510798345E+04 -0.63981383597E+03 -0.18415637992E+04  0.24302986765E+04  0.25500000920E-02 0. -1.
</event>
<event>
 5   0  0.1860500E-07  0.3930466E+04  0.7818609E-02  0.8018722E-01
       -1   -1    0    0    0  501  0.00000000000E+00  0.00000000000E+00  0.19732199481E+04  0.19732199481E+04  0.50400001928E-02 0.  1.
        1   -1    0    0  501    0  0.00000000000E+00  0.00000000000E+00 -0.19572785532E+04  0.19572785532E+04  0.50400001928E-02 0. -1.
    10030    2    1    2    0    0  0.00000000000E+00  0.00000000000E+00  0.15941394969E+02  0.39304985013E+04  0.39304661735E+04 0.  0.
        4    1    3    3  502    0 -0.34164664525E+03 -0.18966575032E+04  0.39282105014E+03  0.19668101345E+04  0.12699999809E+01 0.  1.
       -4    1    3    3    0  502  0.34164664525E+03  0.18966575032E+04 -0.37687965517E+03  0.19636883668E+04  0.12699999809E+01 0. -1.
</event>
<event>
 5   0  0.5805753E-07  0.3934680E+04  0.7818609E-02  0.8017855E-01
        2   -1    0    0  501    0  0.00000000000E+00  0.00000000000E+00  0.20529484906E+04  0.20529484906E+04  0.25500000920E-02 0.  1.
       -2   -1    0    0    0  501  0.00000000000E+00  0.00000000000E+00 -0.18853011619E+04  0.18853011620E+04  0.25500000920E-02 0. -1.
    10030    2    1    2    0    0  0.00000000000E+00  0.00000000000E+00  0.16764732862E+03  0.39382496525E+04  0.39346797454E+04 0.  0.
        1    1    3    3  502    0  0.35685273171E+03 -0.54637306944E+03  0.19414598113E+04  0.20482025296E+04  0.50400001928E-02 0.  1.
       -1    1    3    3    0  502 -0.35685273171E+03  0.54637306944E+03 -0.17738124827E+04  0.18900471229E+04  0.50400001928E-02 0. -1.
</event>
<event>
 5   0  0.5735179E-07  0.3535784E+04  0.7818609E-02  0.8105362E-01
        2   -1    0    0  501    0  0.00000000000E+00  0.00000000000E+00  0.19538436065E+04  0.19538436065E+04  0.25500000920E-02 0.  1.
       -2   -1    0    0    0  501  0.00000000000E+00  0.00000000000E+00 -0.15996373869E+04  0.15996373869E+04  0.25500000920E-02 0. -1.
    10030    2    1    2    0    0  0.00000000000E+00  0.00000000000E+00  0.35420621965E+03  0.35534809934E+04  0.35357835234E+04 0.  0.
        5    1    3    3  502    0  0.10881290260E+03  0.17559325130E+04  0.35198543827E+03  0.17941725326E+04  0.46999998093E+01 0.  1.
       -5    1    3    3    0  502 -0.10881290260E+03 -0.17559325130E+04  0.22207813806E+01  0.17593084607E+04  0.46999998093E+01 0. -1.
</event>
<event>
 5   0  0.3959190E-07  0.3914360E+04  0.7818609E-02  0.8022049E-01
        2   -1    0    0  501    0  0.00000000000E+00  0.00000000000E+00  0.26691030716E+04  0.26691030716E+04  0.25500000920E-02 0.  1.
       -2   -1    0    0    0  501  0.00000000000E+00  0.00000000000E+00 -0.14351463580E+04  0.14351463580E+04  0.25500000920E-02 0. -1.
    10030    2    1    2    0    0  0.00000000000E+00  0.00000000000E+00  0.12339567137E+04  0.41042494296E+04  0.39143599999E+04 0.  0.
        2    1    3    3  502    0  0.13905939440E+04 -0.51979497281E+03  0.19542369511E+04  0.24541761126E+04  0.25500000920E-02 0.  1.
       -2    1    3    3    0  502 -0.13905939440E+04  0.51979497281E+03 -0.72028023737E+03  0.16500733170E+04  0.25500000920E-02 0. -1.
</event>
<event>
 5   0  0.1876027E-07  0.3909996E+04  0.7818609E-02  0.8022953E-01
       -1   -1    0    0    0  501  0.00000000000E+00  0.00000000000E+00  0.21730413653E+04  0.21730413653E+04  0.50400001928E-02 0.  1.
        1   -1    0    0  501    0  0.00000000000E+00  0.00000000000E+00 -0.17588329020E+04  0.17588329020E+04  0.50400001928E-02 0. -1.
    10030    2    1    2    0    0  0.00000000000E+00  0.00000000000E+00  0.41420846329E+03  0.39318742674E+04  0.39099957293E+04 0.  0.
        3    1    3    3  502    0  0.13279662330E+04  0.79990095581E+03  0.14048528593E+04  0.20921155373E+04  0.10100000352E+00 0.  1.
       -3    1    3    3    0  502 -0.13279662330E+04 -0.79990095581E+03 -0.99064439602E+03  0.18397587300E+04  0.10100000352E+00 0. -1.
</event>
<event>
 5   0  0.3959190E-07  0.3889632E+04  0.7818609E-02  0.8027189E-01
       -2   -1    0    0    0  501  0.00000000000E+00  0.00000000000E+00  0.26951095256E+04  0.26951095256E+04  0.25500000920E-02 0. -1.
        2   -1    0    0  501    0  0.00000000000E+00  0.00000000000E+00 -0.14033974528E+04  0.14033974528E+04  0.25500000920E-02 0.  1.
    10030    2    1    2    0    0  0.00000000000E+00  0.00000000000E+00  0.12917120728E+04  0.40985069785E+04  0.38896322929E+04 0.  0.
        2    1    3    3  502    0  0.12508906017E+04 -0.94064150533E+02  0.22118456863E+04  0.25428009560E+04  0.25500000920E-02 0. -1.
       -2    1    3    3    0  502 -0.12508906017E+04  0.94064150533E+02 -0.92013361349E+03  0.15557060225E+04  0.25500000920E-02 0.  1.
</event>
<event>
 5   0  0.1860500E-07  0.3818986E+04  0.7818609E-02  0.8042093E-01
       -1   -1    0    0    0  501  0.00000000000E+00  0.00000000000E+00  0.24796828115E+04  0.24796828115E+04  0.50400001928E-02 0.  1.
        1   -1    0    0  501    0  0.00000000000E+00  0.00000000000E+00 -0.14704151824E+04  0.14704151824E+04  0.50400001928E-02 0. -1.
    10030    2    1    2    0    0  0.00000000000E+00  0.00000000000E+00  0.10092676291E+04  0.39500979939E+04  0.38189858621E+04 0.  0.
        5    1    3    3  502    0  0.61859550667E+03  0.99707997426E+03 -0.10535078886E+04  0.15769368527E+04  0.46999998093E+01 0. -1.
       -5    1    3    3    0  502 -0.61859550667E+03 -0.99707997426E+03  0.20627755177E+04  0.23731611413E+04  0.46999998093E+01 0.  1.
</event>
<event>
 5   0  0.1860500E-07  0.3728963E+04  0.7818609E-02  0.8061573E-01
        1   -1    0    0  501    0  0.00000000000E+00  0.00000000000E+00  0.22433677298E+04  0.22433677298E+04  0.50400001928E-02 0. -1.
       -1   -1    0    0    0  501  0.00000000000E+00  0.00000000000E+00 -0.15495861415E+04  0.15495861416E+04  0.50400001928E-02 0.  1.
    10030    2    1    2    0    0  0.00000000000E+00  0.00000000000E+00  0.69378158827E+03  0.37929538714E+04  0.37289631505E+04 0.  0.
        4    1    3    3  502    0 -0.15158144059E+04 -0.65277618359E+03 -0.53545112635E+03  0.17350848914E+04  0.12699999809E+01 0.  1.
       -4    1    3    3    0  502  0.15158144059E+04  0.65277618359E+03  0.12292327146E+04  0.20578689799E+04  0.12699999809E+01 0. -1.
</event>
<event>
 5   0  0.5872444E-07  0.3377943E+04  0.7818609E-02  0.8143341E-01
        2   -1    0    0  501    0  0.00000000000E+00  0.00000000000E+00  0.23111359429E+04  0.23111359429E+04  0.25500000920E-02 0.  1.
       -2   -1    0    0    0  501  0.00000000000E+00  0.00000000000E+00 -0.12342958494E+04  0.12342958494E+04  0.25500000920E-02 0. -1.
    10030    2    1    2    0    0  0.00000000000E+00  0.00000000000E+00  0.10768400935E+04  0.35454317923E+04  0.33779434582E+04 0.  0.
        3    1    3    3  502    0  0.12663247562E+04  0.24633839320E+03  0.16825927793E+04  0.21202309929E+04  0.10100000352E+00 0.  1.
       -3    1    3    3    0  502 -0.12663247562E+04 -0.24633839320E+03 -0.60575268580E+03  0.14252007994E+04  0.10100000352E+00 0. -1.
</event>
<event>
 5   0  0.1876027E-07  0.3876766E+04  0.7818609E-02  0.8029879E-01
        1   -1    0    0  501    0  0.00000000000E+00  0.00000000000E+00  0.20325392859E+04  0.20325392859E+04  0.50400001928E-02 0. -1.
       -1   -1    0    0    0  501  0.00000000000E+00  0.00000000000E+00 -0.18485885138E+04  0.18485885138E+04  0.50400001928E-02 0.  1.
    10030    2    1    2    0    0  0.00000000000E+00  0.00000000000E+00  0.18395077212E+03  0.38811277997E+04  0.38767660635E+04 0.  0.
        3    1    3    3  502    0 -0.16278195329E+04  0.29910650607E+03 -0.91815320546E+03  0.18926876268E+04  0.10100000352E+00 0.  1.
       -3    1    3    3    0  502  0.16278195329E+04 -0.29910650607E+03  0.11021039776E+04  0.19884401729E+04  0.10100000352E+00 0. -1.
</event>
<event>
 5   0  0.1943459E-07  0.3819983E+04  0.7818609E-02  0.8041880E-01
        1   -1    0    0  501    0  0.00000000000E+00  0.00000000000E+00  0.29319442547E+04  0.29319442547E+04  0.50400001928E-02 0. -1.
       -1   -1    0    0    0  501  0.00000000000E+00  0.00000000000E+00 -0.12442487670E+04  0.12442487670E+04  0.50400001928E-02 0.  1.
    10030    2    1    2    0    0  0.00000000000E+00  0.00000000000E+00  0.16876954876E+04  0.41761930217E+04  0.38199832586E+04 0.  0.
        2    1    3    3  502    0 -0.61693810454E+03  0.18006475224E+04  0.67056208422E+03  0.20180677971E+04  0.25500000920E-02 0. -1.
       -2    1    3    3    0  502  0.61693810454E+03 -0.18006475224E+04  0.10171334034E+04  0.21581252246E+04  0.25500000920E-02 0.  1.
</event>
<event>
 5   0  0.1943459E-07  0.3828953E+04  0.7818609E-02  0.8039970E-01
       -1   -1    0    0    0  501  0.00000000000E+00  0.00000000000E+00  0.33273490795E+04  0.33273490795E+04  0.50400001928E-02 0. -1.
        1   -1    0    0  501    0  0.00000000000E+00  0.00000000000E+00 -0.11015435807E+04  0.11015435807E+04  0.50400001928E-02 0.  1.
    10030    2    1    2    0    0  0.00000000000E+00  0.00000000000E+00  0.22258054989E+04  0.44288926602E+04  0.38289528695E+04 0.  0.
        2    1    3    3  502    0  0.14041455837E+04 -0.11874822904E+04  0.17287558310E+04  0.25239524032E+04  0.25500000920E-02 0. -1.
       -2    1    3    3    0  502 -0.14041455837E+04  0.11874822904E+04  0.49704966787E+03  0.19049402570E+04  0.25500000920E-02 0.  1.
</event>
<event>
 5   0  0.3959190E-07  0.3338648E+04  0.7818609E-02  0.8153130E-01
        2   -1    0    0  501    0  0.00000000000E+00  0.00000000000E+00  0.26479394212E+04  0.26479394212E+04  0.25500000920E-02 0. -1.
       -2   -1    0    0    0  501  0.00000000000E+00  0.00000000000E+00 -0.10523814787E+04  0.10523814787E+04  0.25500000920E-02 0.  1.
    10030    2    1    2    0    0  0.00000000000E+00  0.00000000000E+00  0.15955579425E+04  0.37003209000E+04  0.33386478723E+04 0.  0.
        2    1    3    3  502    0  0.16062682269E+04 -0.43751508036E+03  0.66147096505E+03  0.17913851903E+04  0.25500000920E-02 0. -1.
       -2    1    3    3    0  502 -0.16062682269E+04  0.43751508036E+03  0.93408697744E+03  0.19089357097E+04  0.25500000920E-02 0.  1.
</event>
<event>
 5   0  0.1860500E-07  0.3910722E+04  0.7818609E-02  0.8022803E-01
        1   -1    0    0  501    0  0.00000000000E+00  0.00000000000E+00  0.17565421508E+04  0.17565421508E+04  0.50400001928E-02 0.  1.
       -1   -1    0    0    0  501  0.00000000000E+00  0.00000000000E+00 -0.21766841812E+04  0.21766841812E+04  0.50400001928E-02 0. -1.
    10030    2    1    2    0    0  0.00000000000E+00  0.00000000000E+00 -0.42014203043E+03  0.39332263320E+04  0.39107224464E+04 0.  0.
        4    1    3    3  502    0 -0.35433050187E+03 -0.44273409642E+03 -0.20921684265E+04  0.21676563201E+04  0.12699999809E+01 0. -1.
       -4    1    3    3    0  502  0.35433050187E+03  0.44273409642E+03  0.16720263960E+04  0.17655700118E+04  0.12699999809E+01 0.  1.
</event>
<event>
 5   0  0.1860500E-07  0.3775341E+04  0.7818609E-02  0.8051467E-01
       -1   -1    0    0    0  501  0.00000000000E+00  0.00000000000E+00  0.21042556231E+04  0.21042556231E+04  0.50400001928E-02 0.  1.
        1   -1    0    0  501    0  0.00000000000E+00  0.00000000000E+00 -0.16933778077E+04  0.16933778077E+04  0.50400001928E-02 0. -1.
    10030    2    1    2    0    0  0.00000000000E+00  0.00000000000E+00  0.41087781539E+03  0.37976334308E+04  0.37753409244E+04 0.  0.
        4    1    3    3  502    0  0.11043558827E+03 -0.15824738426E+04 -0.82377357197E+03  0.17874630045E+04  0.12699999809E+01 0. -1.
       -4    1    3    3    0  502 -0.11043558827E+03  0.15824738426E+04  0.12346513874E+04  0.20101704263E+04  0.12699999809E+01 0.  1.
</event>
<event>
 5   0  0.5872444E-07  0.3421704E+04  0.7818609E-02  0.8132600E-01
        2   -1    0    0  501    0  0.00000000000E+00  0.00000000000E+00  0.16837828497E+04  0.16837828497E+04  0.25500000920E-02 0. -1.
       -2   -1    0    0    0  501  0.00000000000E+00  0.00000000000E+00 -0.17383567417E+04  0.17383567417E+04  0.25500000920E-02 0.  1.
    10030    2    1    2    0    0  0.00000000000E+00  0.00000000000E+00 -0.54573892084E+02  0.34221395914E+04  0.34217044106E+04 0.  0.
        3    1    3    3  502    0  0.35697151534E+03 -0.21481583721E+03  0.16322735906E+04  0.16846042833E+04  0.10100000352E+00 0. -1.
       -3    1    3    3    0  502 -0.35697151534E+03  0.21481583721E+03 -0.16868474827E+04  0.17375353081E+04  0.10100000352E+00 0.  1.
</event>
<event>
 5   0  0.6095665E-07  0.3804687E+04  0.7818609E-02  0.8045150E-01
       -2   -1    0    0    0  501  0.00000000000E+00  0.00000000000E+00  0.17109755762E+04  0.17109755762E+04  0.25500000920E-02 0.  1.
        2   -1    0    0  501    0  0.00000000000E+00  0.00000000000E+00 -0.21151156184E+04  0.21151156184E+04  0.25500000920E-02 0. -1.
    10030    2    1    2    0    0  0.00000000000E+00  0.00000000000E+00 -0.40414004212E+03  0.38260911946E+04  0.38046871955E+04 0.  0.
        4    1    3    3  502    0  0.44898985977E+03 -0.15641085842E+04 -0.11929466466E+04  0.20177093130E+04  0.12699999809E+01 0. -1.
       -4    1    3    3    0  502 -0.44898985977E+03  0.15641085842E+04  0.78880660446E+03  0.18083818816E+04  0.12699999809E+01 0.  1.
</event>
<event>
 5   0  0.5805753E-07  0.2391395E+04  0.7818609E-02  0.8442732E-01
        2   -1    0    0  501    0  0.00000000000E+00  0.00000000000E+00  0.15624108751E+04  0.15624108751E+04  0.25500000920E-02 0.  1.
       -2   -1    0    0    0  501  0.00000000000E+00  0.00000000000E+00 -0.91505504992E+03  0.91505504992E+03  0.25500000920E-02 0. -1.
    10030    2    1    2    0    0  0.00000000000E+00  0.00000000000E+00  0.64735582517E+03  0.24774659250E+04  0.23913945399E+04 0.  0.
        1    1    3    3  502    0 -0.93719324186E+03 -0.74137163303E+03  0.28060143425E+03  0.12274771834E+04  0.50400001928E-02 0.  1.
       -1    1    3    3    0  502  0.93719324186E+03  0.74137163303E+03  0.36675439092E+03  0.12499887416E+04  0.50400001928E-02 0. -1.
</event>
<event>
 5   0  0.1876027E-07  0.3816089E+04  0.7818609E-02  0.8042711E-01
        1   -1    0    0  501    0  0.00000000000E+00  0.00000000000E+00  0.15115470705E+04  0.15115470705E+04  0.50400001928E-02 0.  1.
       -1   -1    0    0    0  501  0.00000000000E+00  0.00000000000E+00 -0.24085476017E+04  0.24085476017E+04  0.50400001928E-02 0. -1.
    10030    2    1    2    0    0  0.00000000000E+00  0.00000000000E+00 -0.89700053115E+03  0.39200946722E+04  0.38160886109E+04 0.  0.
        3    1    3    3  502    0  0.13329742942E+04  0.62884438142E+03 -0.16932884649E+04  0.22448811907E+04  0.10100000352E+00 0. -1.
       -3    1    3    3    0  502 -0.13329742942E+04 -0.62884438142E+03  0.79628793375E+03  0.16752134815E+04  0.10100000352E+00 0.  1.
</event>
<event>
 5   0  0.5735179E-07  0.2980666E+04  0.7818609E-02  0.8249273E-01
       -2   -1    0    0    0  501  0.00000000000E+00  0.00000000000E+00  0.97613637897E+03  0.97613637898E+03  0.25500000920E-02 0. -1.
        2   -1    0    0  501    0  0.00000000000E+00  0.00000000000E+00 -0.22753922681E+04  0.22753922681E+04  0.25500000920E-02 0.  1.
    10030    2    1    2    0    0  0.00000000000E+00  0.00000000000E+00 -0.12992558891E+04  0.32515286470E+04  0.29806664820E+04 0.  0.
        5    1    3    3  502    0  0.18451941332E+03 -0.85793465983E+03 -0.19636531153E+04  0.21508265717E+04  0.46999998093E+01 0.  1.
       -5    1    3    3    0  502 -0.18451941332E+03  0.85793465983E+03  0.66439722620E+03  0.11007020753E+04  0.46999998093E+01 0. -1.
</event>
<event>
 5   0  0.3959190E-07  0.3277819E+04  0.7818609E-02  0.8168562E-01
        2   -1    0    0  501    0  0.00000000000E+00  0.00000000000E+00  0.29317610198E+04  0.29317610198E+04  0.25500000920E-02 0.  1.
       -2   -1    0    0    0  501  0.00000000000E+00  0.00000000000E+00 -0.91618099350E+03  0.91618099351E+03  0.25500000920E-02 0. -1.
    10030    2    1    2    0    0  0.00000000000E+00  0.00000000000E+00  0.20155800263E+04  0.38479420133E+04  0.32778186184E+04 0.  0.
        2    1    3    3  502    0 -0.11873207511E+04 -0.66880179620E+03  0.20766483847E+04  0.24838467993E+04  0.25500000920E-02 0.  1.
       -2    1    3    3    0  502  0.11873207511E+04  0.66880179620E+03 -0.61068358365E+02  0.13640952141E+04  0.25500000920E-02 0. -1.
</event>
<event>
 5   0  0.1860500E-07  0.3959590E+04  0.7818609E-02  0.8012748E-01
       -1   -1    0    0    0  501  0.00000000000E+00  0.00000000000E+00  0.19209911712E+04  0.19209911712E+04  0.50400001928E-02 0. -1.
        1   -1    0    0  501    0  0.00000000000E+00  0.00000000000E+00 -0.20403993757E+04  0.20403993757E+04  0.50400001928E-02 0.  1.
    10030    2    1    2    0    0  0.00000000000E+00  0.00000000000E+00 -0.11940820452E+03  0.39613905469E+04  0.39595904770E+04 0.  0.
        5    1    3    3  502    0  0.97991893524E+03  0.57039964306E+03  0.15639847926E+04  0.19317524153E+04  0.46999998093E+01 0. -1.
       -5    1    3    3    0  502 -0.97991893524E+03 -0.57039964306E+03 -0.16833929971E+04  0.20296381316E+04  0.46999998093E+01 0.  1.
</event>
<event>
 5   0  0.6095665E-07  0.3981950E+04  0.7818609E-02  0.8008198E-01
       -2   -1    0    0    0  501  0.00000000000E+00  0.00000000000E+00  0.17437146601E+04  0.17437146601E+04  0.25500000920E-02 0.  1.
        2   -1    0    0  501    0  0.00000000000E+00  0.00000000000E+00 -0.22732973201E+04  0.22732973201E+04  0.25500000920E-02 0. -1.
    10030    2    1    2    0    0  0.00000000000E+00  0.00000000000E+00 -0.52958265991E+03  0.40170119802E+04  0.39819502075E+04 0.  0.
        4    1    3    3  502    0  0.19448504344E+03 -0.12542819026E+04  0.12826423931E+04  0.18045001093E+04  0.12699999809E+01 0.  1.
       -4    1    3    3    0  502 -0.19448504344E+03  0.12542819026E+04 -0.18122250530E+04  0.22125118709E+04  0.12699999809E+01 0. -1.
</event>
<event>
 5   0  0.3959190E-07  0.3882953E+04  0.7818609E-02  0.8028584E-01
        2   -1    0    0  501    0  0.00000000000E+00  0.00000000000E+00  0.25793239348E+04  0.25793239348E+04  0.25500000920E-02 0.  1.
       -2   -1    0    0    0  501  0.00000000000E+00  0.00000000000E+00 -0.14613643082E+04  0.14613643082E+04  0.25500000920E-02 0. -1.
    10030    2    1    2    0    0  0.00000000000E+00  0.00000000000E+00  0.11179596266E+04  0.40406882430E+04  0.38829534829E+04 0.  0.
        2    1    3    3  502    0  0.12057225974E+03 -0.19009964633E+04  0.94974246906E+03  0.21284585927E+04  0.25500000920E-02 0.  1.
       -2    1    3    3    0  502 -0.12057225974E+03  0.19009964633E+04  0.16821715753E+03  0.19122296503E+04  0.25500000920E-02 0. -1.
</event>
<event>
 5   0  0.6095665E-07  0.3595303E+04  0.7818609E-02  0.8091568E-01
       -2   -1    0    0    0  501  0.00000000000E+00  0.00000000000E+00  0.11804206521E+04  0.11804206521E+04  0.25500000920E-02 0.  1.
        2   -1    0    0  501    0  0.00000000000E+00  0.00000000000E+00 -0.27376264241E+04  0.27376264241E+04  0.25500000920E-02 0. -1.
    10030    2    1    2    0    0  0.00000000000E+00  0.00000000000E+00 -0.15572057720E+04  0.39180470761E+04  0.35953029183E+04 0.  0.
        4    1    3    3  502    0  0.86545314853E+03  0.10852669522E+04  0.46618520973E+03  0.14642895112E+04  0.12699999809E+01 0.  1.
       -4    1    3    3    0  502 -0.86545314853E+03 -0.10852669522E+04 -0.20233909817E+04  0.24537575650E+04  0.12699999809E+01 0. -1.
</event>
<event>
 5   0  0.3959190E-07  0.3870824E+04  0.7818609E-02  0.8031125E-01
        2   -1    0    0  501    0  0.00000000000E+00  0.00000000000E+00  0.31994409865E+04  0.31994409865E+04  0.25500000920E-02 0.  1.
       -2   -1    0    0    0  501  0.00000000000E+00  0.00000000000E+00 -0.11707733101E+04  0.11707733101E+04  0.25500000920E-02 0. -1.
    10030    2    1    2    0    0  0.00000000000E+00  0.00000000000E+00  0.20286676764E+04  0.43702142967E+04  0.38708242607E+04 0.  0.
        2    1    3    3  502    0  0.11349308776E+04  0.12420423813E+04 -0.65680350623E+02  0.16837610527E+04  0.25500000920E-02 0. -1.
       -2    1    3    3    0  502 -0.11349308776E+04 -0.12420423813E+04  0.20943480270E+04  0.26864532440E+04  0.25500000920E-02 0.  1.
</event>
<event>
 5   0  0.1943459E-07  0.3180956E+04  0.7818609E-02  0.8193865E-01
        1   -1    0    0  501    0  0.00000000000E+00  0.00000000000E+00  0.20704615780E+04  0.20704615780E+04  0.50400001928E-02 0. -1.
       -1   -1    0    0    0  501  0.00000000000E+00  0.00000000000E+00 -0.12217659960E+04  0.12217659960E+04  0.50400001928E-02 0.  1.
    10030    2    1    2    0    0  0.00000000000E+00  0.00000000000E+00  0.84869558201E+03  0.32922275741E+04  0.31809555496E+04 0.  0.
        2    1    3    3  502    0  0.49135892561E+03  0.57212583097E+03 -0.10249422869E+04  0.12725047158E+04  0.25500000920E-02 0.  1.
       -2    1    3    3    0  502 -0.49135892561E+03 -0.57212583097E+03  0.18736378689E+04  0.20197228583E+04  0.25500000920E-02 0. -1.
</event>
<event>
 5   0  0.1943459E-07  0.3058382E+04  0.7818609E-02  0.8227253E-01
       -1   -1    0    0    0  501  0.00000000000E+00  0.00000000000E+00  0.11559014213E+04  0.11559014214E+04  0.50400001928E-02 0. -1.
        1   -1    0    0  501    0  0.00000000000E+00  0.00000000000E+00 -0.20230315203E+04  0.20230315203E+04  0.50400001928E-02 0.  1.
    10030    2    1    2    0    0  0.00000000000E+00  0.00000000000E+00 -0.86713009899E+03  0.31789329417E+04  0.30583819315E+04 0.  0.
        2    1    3    3  502    0 -0.56765970847E+03 -0.23886828825E+03  0.10212949693E+04  0.11926185551E+04  0.25500000920E-02 0. -1.
       -2    1    3    3    0  502  0.56765970847E+03  0.23886828825E+03 -0.18884250683E+04  0.19863143866E+04  0.25500000920E-02 0.  1.
</event>
<event>
 5   0  0.5805753E-07  0.3883661E+04  0.7818609E-02  0.8028436E-01
        2   -1    0    0  501    0  0.00000000000E+00  0.00000000000E+00  0.21138014966E+04  0.21138014966E+04  0.25500000920E-02 0.  1.
       -2   -1    0    0    0  501  0.00000000000E+00  0.00000000000E+00 -0.17838508798E+04  0.17838508798E+04  0.25500000920E-02 0. -1.
    10030    2    1    2    0    0  0.00000000000E+00  0.00000000000E+00  0.32995061675E+03  0.38976523764E+04  0.38836614988E+04 0.  0.
        1    1    3    3  502    0  0.87374369058E+03 -0.82608668089E+03 -0.13652665636E+04  0.18192855825E+04  0.50400001928E-02 0. -1.
       -1    1    3    3    0  502 -0.87374369058E+03  0.82608668089E+03  0.16952171803E+04  0.20783667938E+04  0.50400001928E-02 0.  1.
</event>
<event>
 5   0  0.2666813E-07  0.2789572E+04  0.7818609E-02  0.8306513E-01
        1   -1    0    0  501    0  0.00000000000E+00  0.00000000000E+00  0.76334841795E+03  0.76334841796E+03  0.50400001928E-02 0.  1.
       -1   -1    0    0    0  501  0.00000000000E+00  0.00000000000E+00 -0.25485459502E+04  0.25485459502E+04  0.50400001928E-02 0. -1.
    10030    2    1    2    0    0  0.00000000000E+00  0.00000000000E+00 -0.17851975323E+04  0.33118943682E+04  0.27895723824E+04 0.  0.
        1    1    3    3  502    0 -0.45497480645E+03  0.59224620400E+03  0.50596437746E+03  0.90208513564E+03  0.50400001928E-02 0.  1.
       -1    1    3    3    0  502  0.45497480645E+03 -0.59224620400E+03 -0.22911619097E+04  0.24098092325E+04  0.50400001928E-02 0. -1.
</event>
<event>
 5   0  0.1860500E-07  0.3601615E+04  0.7818609E-02  0.8090122E-01
        1   -1    0    0  501    0  0.00000000000E+00  0.00000000000E+00  0.21948504697E+04  0.21948504697E+04  0.50400001928E-02 0. -1.
       -1   -1    0    0    0  501  0.00000000000E+00  0.00000000000E+00 -0.14775074231E+04  0.14775074231E+04  0.50400001928E-02 0.  1.
    10030    2    1    2    0    0  0.00000000000E+00  0.00000000000E+00  0.71734304662E+03  0.36723578929E+04  0.36016151164E+04 0.  0.
        5    1    3    3  502    0  0.56382629013E+03  0.16991392593E+04  0.16013840030E+03  0.17973983157E+04  0.46999998093E+01 0.  1.
       -5    1    3    3    0  502 -0.56382629013E+03 -0.16991392593E+04  0.55720464631E+03  0.18749595772E+04  0.46999998093E+01 0. -1.
</event>
<event>
 5   0  0.5805753E-07  0.3943715E+04  0.7818609E-02  0.8015998E-01
       -2   -1    0    0    0  501  0.00000000000E+00  0.00000000000E+00  0.17199273816E+04  0.17199273816E+04  0.25500000920E-02 0. -1.
        2   -1    0    0  501    0  0.00000000000E+00  0.00000000000E+00 -0.22606900731E+04  0.22606900731E+04  0.25500000920E-02 0.  1.
    10030    2    1    2    0    0  0.00000000000E+00  0.00000000000E+00 -0.54076269148E+03  0.39806174547E+04  0.39437153843E+04 0.  0.
        1    1    3    3  502    0 -0.23488992703E+03  0.83747910750E+03 -0.20565951637E+04  0.22329639945E+04  0.50400001928E-02 0.  1.
       -1    1    3    3    0  502  0.23488992703E+03 -0.83747910750E+03  0.15158324722E+04  0.17476534602E+04  0.50400001928E-02 0. -1.
</event>
<event>
 5   0  0.1860500E-07  0.3869018E+04  0.7818609E-02  0.8031504E-01
       -1   -1    0    0    0  501  0.00000000000E+00  0.00000000000E+00  0.15478432744E+04  0.15478432744E+04  0.50400001928E-02 0.  1.
        1   -1    0    0  501    0  0.00000000000E+00  0.00000000000E+00 -0.24177669464E+04  0.24177669464E+04  0.50400001928E-02 0. -1.
    10030    2    1    2    0    0  0.00000000000E+00  0.00000000000E+00 -0.86992367195E+03  0.39656102208E+04  0.38690176051E+04 0.  0.
        4    1    3    3  502    0 -0.10845430147E+04  0.40520503611E+03  0.11535359053E+04  0.16343412647E+04  0.12699999809E+01 0.  1.
       -4    1    3    3    0  502  0.10845430147E+04 -0.40520503611E+03 -0.20234595772E+04  0.23312689561E+04  0.12699999809E+01 0. -1.
</event>
<event>
 5   0  0.3959190E-07  0.3689448E+04  0.7818609E-02  0.8070304E-01
        2   -1    0    0  501    0  0.00000000000E+00  0.00000000000E+00  0.15796631260E+04  0.15796631260E+04  0.25500000920E-02 0.  1.
       -2   -1    0    0    0  501  0.00000000000E+00  0.00000000000E+00 -0.21542610515E+04  0.21542610515E+04  0.25500000920E-02 0. -1.
    10030    2    1    2    0    0  0.00000000000E+00  0.00000000000E+00 -0.57459792554E+03  0.37339241775E+04  0.36894480600E+04 0.  0.
        2    1    3    3  502    0 -0.53112238436E+03 -0.47118281762E+03  0.14358423676E+04  0.16017950991E+04  0.25500000920E-02 0.  1.
       -2    1    3    3    0  502  0.53112238436E+03  0.47118281762E+03 -0.20104402931E+04  0.21321290784E+04  0.25500000920E-02 0. -1.
</event>
<event>
 5   0  0.1860500E-07  0.2648989E+04  0.7818609E-02  0.8351749E-01
        1   -1    0    0  501    0  0.00000000000E+00  0.00000000000E+00  0.22992085711E+04  0.22992085711E+04  0.50400001928E-02 0.  1.
       -1   -1    0    0    0  501  0.00000000000E+00  0.00000000000E+00 -0.76299525384E+03  0.76299525386E+03  0.50400001928E-02 0. -1.
    10030    2    1    2    0    0  0.00000000000E+00  0.00000000000E+00  0.15362133172E+04  0.30622038249E+04  0.26489886578E+04 0.  0.
        4    1    3    3  502    0 -0.83904487702E+03 -0.15165790258E+03  0.19397621491E+04  0.21188853752E+04  0.12699999809E+01 0.  1.
       -4    1    3    3    0  502  0.83904487702E+03  0.15165790258E+03 -0.40354883188E+03  0.94331844977E+03  0.12699999809E+01 0. -1.
</event>
<event>
 5   0  0.2666813E-07  0.3809382E+04  0.7818609E-02  0.8044145E-01
        1   -1    0    0  501    0  0.00000000000E+00  0.00000000000E+00  0.16925193953E+04  0.16925193953E+04  0.50400001928E-02 0. -1.
       -1   -1    0    0    0  501  0.00000000000E+00  0.00000000000E+00 -0.21434597836E+04  0.21434597836E+04  0.50400001928E-02 0.  1.
    10030    2    1    2    0    0  0.00000000000E+00  0.00000000000E+00 -0.45094038834E+03  0.38359791789E+04  0.38093817119E+04 0.  0.
        1    1    3    3  502    0 -0.24859756728E+03  0.12091582325E+03  0.16722104402E+04  0.16949068243E+04  0.50400001928E-02 0. -1.
       -1    1    3    3    0  502  0.24859756728E+03 -0.12091582325E+03 -0.21231508285E+04  0.21410723546E+04  0.50400001928E-02 0.  1.
</event>
<event>
 5   0  0.5735179E-07  0.3926506E+04  0.7818609E-02  0.8019539E-01
       -2   -1    0    0    0  501  0.00000000000E+00  0.00000000000E+00  0.22177346572E+04  0.22177346572E+04  0.25500000920E-02 0.  1.
        2   -1    0    0  501    0  0.00000000000E+00  0.00000000000E+00 -0.17379728461E+04  0.17379728461E+04  0.25500000920E-02 0. -1.
    10030    2    1    2    0    0  0.00000000000E+00  0.00000000000E+00  0.47976181109E+03  0.39557075033E+04  0.39265061386E+04 0.  0.
        5    1    3    3  502    0  0.32624458082E+03 -0.75819845193E+03  0.20344313509E+04  0.21955030018E+04  0.46999998093E+01 0.  1.
       -5    1    3    3    0  502 -0.32624458082E+03  0.75819845193E+03 -0.15546695399E+04  0.17602045015E+04  0.46999998093E+01 0. -1.
</event>
<event>
 5   0  0.1876027E-07  0.3903168E+04  0.7818609E-02  0.8024371E-01
       -1   -1    0    0    0  501  0.00000000000E+00  0.00000000000E+00  0.14427280564E+04  0.14427280564E+04  0.50400001928E-02 0.  1.
        1   -1    0    0  501    0  0.00000000000E+00  0.00000000000E+00 -0.26399153879E+04  0.26399153879E+04  0.50400001928E-02 0. -1.
    10030    2    1    2    0    0  0.00000000000E+00  0.00000000000E+00 -0.11971873315E+04  0.40826434444E+04  0.39031679425E+04 0.  0.
        3    1    3    3  502    0  0.45050669753E+03  0.11503273452E+04  0.98166005011E+03  0.15779308445E+04  0.10100000352E+00 0.  1.
       -3    1    3    3    0  502 -0.45050669753E+03 -0.11503273452E+04 -0.21788473816E+04  0.25047125999E+04  0.10100000352E+00 0. -1.
</event>
<event>
 5   0  0.1876027E-07  0.2526461E+04  0.7818609E-02  0.8393619E-01
       -1   -1    0    0    0  501  0.00000000000E+00  0.00000000000E+00  0.68754576804E+03  0.68754576806E+03  0.50400001928E-02 0.  1.
        1   -1    0    0  501    0  0.00000000000E+00  0.00000000000E+00 -0.23209378407E+04  0.23209378407E+04  0.50400001928E-02 0. -1.
    10030    2    1    2    0    0  0.00000000000E+00  0.00000000000E+00 -0.16333920727E+04  0.30084836088E+04  0.25264607579E+04 0.  0.
        3    1    3    3  502    0 -0.74687430260E+03  0.35977242661E+03 -0.19516964468E+04  0.21204660934E+04  0.10100000352E+00 0. -1.
       -3    1    3    3    0  502  0.74687430260E+03 -0.35977242661E+03  0.31830437409E+03  0.88801751536E+03  0.10100000352E+00 0.  1.
</event>
<event>
 5   0  0.3959190E-07  0.3961337E+04  0.7818609E-02  0.8012392E-01
       -2   -1    0    0    0  501  0.00000000000E+00  0.00000000000E+00  0.15397699586E+04  0.15397699586E+04  0.25500000920E-02 0. -1.
        2   -1    0    0  501    0  0.00000000000E+00  0.00000000000E+00 -0.25478141463E+04  0.25478141463E+04  0.25500000920E-02 0.  1.
    10030    2    1    2    0    0  0.00000000000E+00  0.00000000000E+00 -0.10080441877E+04  0.40875841049E+04  0.39613369877E+04 0.  0.
        2    1    3    3  502    0  0.78456046541E+03 -0.63647672293E+02  0.13714453930E+04  0.15812806886E+04  0.25500000920E-02 0. -1.
       -2    1    3    3    0  502 -0.78456046541E+03  0.63647672293E+02 -0.23794895807E+04  0.25063034163E+04  0.25500000920E-02 0.  1.
</event>
<event>
 5   0  0.6095665E-07  0.3110844E+04  0.7818609E-02  0.8212768E-01
        2   -1    0    0  501    0  0.00000000000E+00  0.00000000000E+00  0.25847976935E+04  0.25847976935E+04  0.25500000920E-02 0.  1.
       -2   -1    0    0    0  501  0.00000000000E+00  0.00000000000E+00 -0.93598695152E+03  0.93598695152E+03  0.25500000920E-02 0. -1.
    10030    2    1    2    0    0  0.00000000000E+00  0.00000000000E+00  0.16488107420E+04  0.35207846450E+04  0.31108435598E+04 0.  0.
        4    1    3    3  502    0 -0.58853619521E+03 -0.46832844956E+03 -0.71648835605E+03  0.10387798453E+04  0.12699999809E+01 0. -1.
       -4    1    3    3    0  502  0.58853619521E+03  0.46832844956E+03  0.23652990980E+04  0.24820047997E+04  0.12699999809E+01 0.  1.
</event>
<event>
 5   0  0.1876027E-07  0.3817390E+04  0.7818609E-02  0.8042433E-01
       -1   -1    0    0    0  501  0.00000000000E+00  0.00000000000E+00  0.17990886786E+04  0.17990886786E+04  0.50400001928E-02 0. -1.
        1   -1    0    0  501    0  0.00000000000E+00  0.00000000000E+00 -0.20249786958E+04  0.20249786958E+04  0.50400001928E-02 0.  1.
    10030    2    1    2    0    0  0.00000000000E+00  0.00000000000E+00 -0.22589001714E+03  0.38240673744E+04  0.38173898130E+04 0.  0.
        3    1    3    3  502    0 -0.11370249834E+04 -0.97865705409E+02 -0.16455600493E+04  0.20025662024E+04  0.10100000352E+00 0.  1.
       -3    1    3    3    0  502  0.11370249834E+04  0.97865705409E+02  0.14196700321E+04  0.18215011720E+04  0.10100000352E+00 0. -1.
</event>
<event>
 5   0  0.3959190E-07  0.3849225E+04  0.7818609E-02  0.8035673E-01
        2   -1    0    0  501    0  0.00000000000E+00  0.00000000000E+00  0.20460659398E+04  0.20460659398E+04  0.25500000920E-02 0. -1.
       -2   -1    0    0    0  501  0.00000000000E+00  0.00000000000E+00 -0.18103682546E+04  0.18103682546E+04  0.25500000920E-02 0.  1.
    10030    2    1    2    0    0  0.00000000000E+00  0.00000000000E+00  0.23569768524E+03  0.38564341944E+04  0.38492247657E+04 0.  0.
        2    1    3    3  502    0 -0.63125938988E+03  0.11211349559E+04 -0.13161603126E+04  0.18405732735E+04  0.25500000920E-02 0.  1.
       -2    1    3    3    0  502  0.63125938988E+03 -0.11211349559E+04  0.15518579979E+04  0.20158609209E+04  0.25500000920E-02 0. -1.
</event>
<event>
 5   0  0.6095665E-07  0.3039691E+04  0.7818609E-02  0.8232487E-01
        2   -1    0    0  501    0  0.00000000000E+00  0.00000000000E+00  0.11348240688E+04  0.11348240688E+04  0.25500000920E-02 0.  1.
       -2   -1    0    0    0  501  0.00000000000E+00  0.00000000000E+00 -0.20354968818E+04  0.20354968818E+04  0.25500000920E-02 0. -1.
    10030    2    1    2    0    0  0.00000000000E+00  0.00000000000E+00 -0.90067281298E+03  0.31703209506E+04  0.30396913353E+04 0.  0.
        4    1    3    3  502    0 -0.60091968233E+03  0.80234292095E+02  0.10032526769E+04  0.11722028634E+04  0.12699999809E+01 0.  1.
       -4    1    3    3    0  502  0.60091968233E+03 -0.80234292095E+02 -0.19039254899E+04  0.19981180872E+04  0.12699999809E+01 0. -1.
</event>
<event>
 5   0  0.5872444E-07  0.2538367E+04  0.7818609E-02  0.8389443E-01
        2   -1    0    0  501    0  0.00000000000E+00  0.00000000000E+00  0.14422169049E+04  0.14422169049E+04  0.25500000920E-02 0. -1.
       -2   -1    0    0    0  501  0.00000000000E+00  0.00000000000E+00 -0.11169101469E+04  0.11169101469E+04  0.25500000920E-02 0.  1.
    10030    2    1    2    0    0  0.00000000000E+00  0.00000000000E+00  0.32530675792E+03  0.25591270518E+04  0.25383669515E+04 0.  0.
        3    1    3    3  502    0 -0.44148199799E+02  0.12637178717E+04  0.27260846518E+03  0.12935406095E+04  0.10100000352E+00 0.  1.
       -3    1    3    3    0  502  0.44148199799E+02 -0.12637178717E+04  0.52698292738E+02  0.12655864424E+04  0.10100000352E+00 0. -1.
</event>
<event>
 5   0  0.1876027E-07  0.3076143E+04  0.7818609E-02  0.8222316E-01
       -1   -1    0    0    0  501  0.00000000000E+00  0.00000000000E+00  0.12274431798E+04  0.12274431798E+04  0.50400001928E-02 0.  1.
        1   -1    0    0  501    0  0.00000000000E+00  0.00000000000E+00 -0.19273103826E+04  0.19273103826E+04  0.50400001928E-02 0. -1.
    10030    2    1    2    0    0  0.00000000000E+00  0.00000000000E+00 -0.69986720283E+03  0.31547535624E+04  0.30761430294E+04 0.  0.
        3    1    3    3  502    0 -0.33266961467E+03 -0.86520743925E+03  0.90879080234E+03  0.12981347072E+04  0.10100000352E+00 0.  1.
       -3    1    3    3    0  502  0.33266961467E+03  0.86520743925E+03 -0.16086580052E+04  0.18566188551E+04  0.10100000352E+00 0. -1.
</event>
<event>
 5   0  0.3959190E-07  0.3870978E+04  0.7818609E-02  0.8031092E-01
       -2   -1    0    0    0  501  0.00000000000E+00  0.00000000000E+00  0.13918803473E+04  0.13918803473E+04  0.25500000920E-02 0.  1.
        2   -1    0    0  501    0  0.00000000000E+00  0.00000000000E+00 -0.26914081692E+04  0.26914081692E+04  0.25500000920E-02 0. -1.
    10030    2    1    2    0    0  0.00000000000E+00  0.00000000000E+00 -0.12995278218E+04  0.40832885165E+04  0.38709782419E+04 0.  0.
        2    1    3    3  502    0 -0.15245085617E+04 -0.97599260210E+03  0.72964056089E+02  0.18116323213E+04  0.25500000920E-02 0.  1.
       -2    1    3    3    0  502  0.15245085617E+04  0.97599260210E+03 -0.13724918779E+04  0.22716561952E+04  0.25500000920E-02 0. -1.
</event>
<event>
 5   0  0.1860500E-07  0.3911174E+04  0.7818609E-02  0.8022709E-01
        1   -1    0    0  501    0  0.00000000000E+00  0.00000000000E+00  0.13984687037E+04  0.13984687037E+04  0.50400001928E-02 0.  1.
       -1   -1    0    0    0  501  0.00000000000E+00  0.00000000000E+00 -0.27346479540E+04  0.27346479540E+04  0.50400001928E-02 0. -1.
    10030    2    1    2    0    0  0.00000000000E+00  0.00000000000E+00 -0.13361792503E+04  0.41331166578E+04  0.39111735218E+04 0.  0.
        5    1    3    3  502    0 -0.58313071752E+03 -0.18665020839E+04 -0.68990129451E+03  0.20736097389E+04  0.46999998093E+01 0. -1.
       -5    1    3    3    0  502  0.58313071752E+03  0.18665020839E+04 -0.64627795582E+03  0.20595069189E+04  0.46999998093E+01 0.  1.
</event>
<event>
 5   0  0.1943459E-07  0.3429454E+04  0.7818609E-02  0.8130715E-01
        1   -1    0    0  501    0  0.00000000000E+00  0.00000000000E+00  0.23244024210E+04  0.23244024210E+04  0.50400001928E-02 0.  1.
       -1   -1    0    0    0  501  0.00000000000E+00  0.00000000000E+00 -0.12649656436E+04  0.12649656436E+04  0.50400001928E-02 0. -1.
    10030    2    1    2    0    0  0.00000000000E+00  0.00000000000E+00  0.10594367774E+04  0.35893680645E+04  0.34294543032E+04 0.  0.
        2    1    3    3  502    0 -0.10266376343E+04 -0.89801501878E+03 -0.55790714701E+03  0.14736608126E+04  0.25500000920E-02 0. -1.
       -2    1    3    3    0  502  0.10266376343E+04  0.89801501878E+03  0.16173439244E+04  0.21157072519E+04  0.25500000920E-02 0.  1.
</event>
<event>
 5   0  0.3959190E-07  0.3814487E+04  0.7818609E-02  0.8043053E-01
       -2   -1    0    0    0  501  0.00000000000E+00  0.00000000000E+00  0.23756991983E+04  0.23756991983E+04  0.25500000920E-02 0. -1.
        2   -1    0    0  501    0  0.00000000000E+00  0.00000000000E+00 -0.15311610060E+04  0.15311610060E+04  0.25500000920E-02 0.  1.
    10030    2    1    2    0    0  0.00000000000E+00  0.00000000000E+00  0.84453819233E+03  0.39068602043E+04  0.38144871081E+04 0.  0.
        2    1    3    3  502    0 -0.82360149241E+03 -0.11446132708E+03 -0.13357341603E+04  0.15734060381E+04  0.25500000920E-02 0.  1.
       -2    1    3    3    0  502  0.82360149241E+03  0.11446132708E+03  0.21802723527E+04  0.23334541662E+04  0.25500000920E-02 0. -1.
</event>
<event>
 5   0  0.1860500E-07  0.3810177E+04  0.7818609E-02  0.8043974E-01
       -1   -1    0    0    0  501  0.00000000000E+00  0.00000000000E+00  0.21293837402E+04  0.21293837402E+04  0.50400001928E-02 0. -1.
        1   -1    0    0  501    0  0.00000000000E+00  0.00000000000E+00 -0.17044189245E+04  0.17044189245E+04  0.50400001928E-02 0.  1.
    10030    2    1    2    0    0  0.00000000000E+00  0.00000000000E+00  0.42496481568E+03  0.38338026647E+04  0.38101768696E+04 0.  0.
        5    1    3    3  502    0  0.11974593961E+04  0.85683897984E+02 -0.12759088890E+04  0.17519178973E+04  0.46999998093E+01 0.  1.
       -5    1    3    3    0  502 -0.11974593961E+04 -0.85683897984E+02  0.17008737047E+04  0.20818847675E+04  0.46999998093E+01 0. -1.
</event>
<event>
 5   0  0.1860500E-07  0.3287600E+04  0.7818609E-02  0.8166058E-01
       -1   -1    0    0    0  501  0.00000000000E+00  0.00000000000E+00  0.22384546163E+04  0.22384546163E+04  0.50400001928E-02 0.  1.
        1   -1    0    0  501    0  0.00000000000E+00  0.00000000000E+00 -0.12071178936E+04  0.12071178936E+04  0.50400001928E-02 0. -1.
    10030    2    1    2    0    0  0.00000000000E+00  0.00000000000E+00  0.10313367227E+04  0.34455725099E+04  0.32876001103E+04 0.  0.
        5    1    3    3  502    0 -0.11092998886E+04  0.10447667881E+04  0.11617071211E+04  0.19161600688E+04  0.46999998093E+01 0.  1.
       -5    1    3    3    0  502  0.11092998886E+04 -0.10447667881E+04 -0.13037039831E+03  0.15294124411E+04  0.46999998093E+01 0. -1.
</event>
<event>
 5   0  0.1876027E-07  0.3887496E+04  0.7818609E-02  0.8027635E-01
       -1   -1    0    0    0  501  0.00000000000E+00  0.00000000000E+00  0.23392483602E+04  0.23392483602E+04  0.50400001928E-02 0.  1.
        1   -1    0    0  501    0  0.00000000000E+00  0.00000000000E+00 -0.16151151088E+04  0.16151151088E+04  0.50400001928E-02 0. -1.
    10030    2    1    2    0    0  0.00000000000E+00  0.00000000000E+00  0.72413325133E+03  0.39543634690E+04  0.38874955279E+04 0.  0.
        3    1    3    3  502    0 -0.36191977721E+03  0.19096221691E+04  0.33903638844E+03  0.19729643780E+04  0.10100000352E+00 0. -1.
       -3    1    3    3    0  502  0.36191977721E+03 -0.19096221691E+04  0.38509686289E+03  0.19813990910E+04  0.10100000352E+00 0.  1.
</event>
<event>
 5   0  0.5735179E-07  0.3677519E+04  0.7818609E-02  0.8072962E-01
        2   -1    0    0  501    0  0.00000000000E+00  0.00000000000E+00  0.11063315071E+04  0.11063315071E+04  0.25500000920E-02 0.  1.
       -2   -1    0    0    0  501  0.00000000000E+00  0.00000000000E+00 -0.30560783661E+04  0.30560783661E+04  0.25500000920E-02 0. -1.
    10030    2    1    2    0    0  0.00000000000E+00  0.00000000000E+00 -0.19497468590E+04  0.41624098731E+04  0.36775186115E+04 0.  0.
        5    1    3    3  502    0 -0.15618351289E+04  0.25811385698E+03 -0.20336622975E+04  0.25771604846E+04  0.46999998093E+01 0. -1.
       -5    1    3    3    0  502  0.15618351289E+04 -0.25811385698E+03  0.83915438561E+02  0.15852493885E+04  0.46999998093E+01 0.  1.
</event>
<event>
 5   0  0.5872444E-07  0.4085245E+04  0.7818609E-02  0.7987567E-01
       -2   -1    0    0    0  501  0.00000000000E+00  0.00000000000E+00  0.17140995378E+04  0.17140995378E+04  0.25500000920E-02 0. -1.
        2   -1    0    0  501    0  0.00000000000E+00  0.00000000000E+00 -0.24341101862E+04  0.24341101862E+04  0.25500000920E-02 0.  1.
    10030    2    1    2    0    0  0.00000000000E+00  0.00000000000E+00 -0.72001064845E+03  0.41482097240E+04  0.40852452289E+04 0.  0.
        3    1    3    3  502    0  0.95364041855E+03 -0.12523431597E+03  0.14697653173E+04  0.17565089752E+04  0.10100000352E+00 0. -1.
       -3    1    3    3    0  502 -0.95364041855E+03  0.12523431597E+03 -0.21897759657E+04  0.23917007488E+04  0.10100000352E+00 0.  1.
</event>
<event>
 5   0  0.2028932E-07  0.2389880E+04  0.7818609E-02  0.8443302E-01
        1   -1    0    0  501    0  0.00000000000E+00  0.00000000000E+00  0.10291279603E+04  0.10291279603E+04  0.50400001928E-02 0.  1.
       -1   -1    0    0    0  501  0.00000000000E+00  0.00000000000E+00 -0.13874679834E+04  0.13874679835E+04  0.50400001928E-02 0. -1.
    10030    2    1    2    0    0  0.00000000000E+00  0.00000000000E+00 -0.35834002314E+03  0.24165959438E+04  0.23898804119E+04 0.  0.
        4    1    3    3  502    0  0.58393772502E+03  0.79190289286E+03 -0.86482592832E+03  0.13099690674E+04  0.12699999809E+01 0. -1.
       -4    1    3    3    0  502 -0.58393772502E+03 -0.79190289286E+03  0.50648590518E+03  0.11066268764E+04  0.12699999809E+01 0.  1.
</event>
<event>
 5   0  0.1860500E-07  0.3864390E+04  0.7818609E-02  0.8032477E-01
       -1   -1    0    0    0  501  0.00000000000E+00  0.00000000000E+00  0.21808688715E+04  0.21808688715E+04  0.50400001928E-02 0.  1.
        1   -1    0    0  501    0  0.00000000000E+00  0.00000000000E+00 -0.17118757794E+04  0.17118757794E+04  0.50400001928E-02 0. -1.
    10030    2    1    2    0    0  0.00000000000E+00  0.00000000000E+00  0.46899309212E+03  0.38927446509E+04  0.38643895244E+04 0.  0.
        5    1    3    3  502    0 -0.24992233971E+03  0.49166864114E+03  0.20998820443E+04  0.21711116781E+04  0.46999998093E+01 0.  1.
       -5    1    3    3    0  502  0.24992233971E+03 -0.49166864114E+03 -0.16308889522E+04  0.17216329728E+04  0.46999998093E+01 0. -1.
</event>
<event>
 5   0  0.3959190E-07  0.2775070E+04  0.7818609E-02  0.8311050E-01
        2   -1    0    0  501    0  0.00000000000E+00  0.00000000000E+00  0.20648539511E+04  0.20648539511E+04  0.25500000920E-02 0. -1.
       -2   -1    0    0    0  501  0.00000000000E+00  0.00000000000E+00 -0.93239198444E+03  0.93239198444E+03  0.25500000920E-02 0.  1.
    10030    2    1    2    0    0  0.00000000000E+00  0.00000000000E+00  0.11324619667E+04  0.29972459356E+04  0.27750699257E+04 0.  0.
        2    1    3    3  502    0  0.33490376298E+03 -0.80532449330E+03 -0.59930751882E+03  0.10582426811E+04  0.25500000920E-02 0.  1.
       -2    1    3    3    0  502 -0.33490376298E+03  0.80532449330E+03  0.17317694855E+04  0.19390032545E+04  0.25500000920E-02 0. -1.
</event>
<event>
 5   0  0.5735179E-07  0.3954037E+04  0.7818609E-02  0.8013883E-01
        2   -1    0    0  501    0  0.00000000000E+00  0.00000000000E+00  0.27242624627E+04  0.27242624627E+04  0.25500000920E-02 0. -1.
       -2   -1    0    0    0  501  0.00000000000E+00  0.00000000000E+00 -0.14347380805E+04  0.14347380805E+04  0.25500000920E-02 0.  1.
    10030    2    1    2    0    0  0.00000000000E+00  0.00000000000E+00  0.12895243822E+04  0.41590005432E+04  0.39540374791E+04 0.  0.
        5    1    3    3  502    0 -0.10885014670E+04 -0.15096257843E+04 -0.56723231135E+02  0.18620002866E+04  0.46999998093E+01 0.  1.
       -5    1    3    3    0  502  0.10885014670E+04  0.15096257843E+04  0.13462476133E+04  0.22970002566E+04  0.46999998093E+01 0. -1.
</event>
<event>
 5   0  0.5735179E-07  0.3981628E+04  0.7818609E-02  0.8008263E-01
        2   -1    0    0  501    0  0.00000000000E+00  0.00000000000E+00  0.23125187212E+04  0.23125187212E+04  0.25500000920E-02 0. -1.
       -2   -1    0    0    0  501  0.00000000000E+00  0.00000000000E+00 -0.17138630656E+04  0.17138630656E+04  0.25500000920E-02 0.  1.
    10030    2    1    2    0    0  0.00000000000E+00  0.00000000000E+00  0.59865565561E+03  0.40263817868E+04  0.39816280212E+04 0.  0.
        5    1    3    3  502    0  0.92697520514E+03 -0.66727476886E+03 -0.13495764502E+04  0.17680263949E+04  0.46999998093E+01 0.  1.
       -5    1    3    3    0  502 -0.92697520514E+03  0.66727476886E+03  0.19482321058E+04  0.22583553919E+04  0.46999998093E+01 0. -1.
</event>
<event>
 5   0  0.1860500E-07  0.3864335E+04  0.7818609E-02  0.8032488E-01
       -1   -1    0    0    0  501  0.00000000000E+00  0.00000000000E+00  0.18342215561E+04  0.18342215561E+04  0.50400001928E-02 0.  1.
        1   -1    0    0  501    0  0.00000000000E+00  0.00000000000E+00 -0.20353438064E+04  0.20353438064E+04  0.50400001928E-02 0. -1.
    10030    2    1    2    0    0  0.00000000000E+00  0.00000000000E+00 -0.20112225026E+03  0.38695653625E+04  0.38643351220E+04 0.  0.
        4    1    3    3  502    0  0.12664094760E+04 -0.44648500527E+03 -0.14917319649E+04  0.20070893575E+04  0.12699999809E+01 0. -1.
       -4    1    3    3    0  502 -0.12664094760E+04  0.44648500527E+03  0.12906097146E+04  0.18624760050E+04  0.12699999809E+01 0.  1.
</event>
<event>
 5   0  0.5805753E-07  0.3280540E+04  0.7818609E-02  0.8167865E-01
       -2   -1    0    0    0  501  0.00000000000E+00  0.00000000000E+00  0.12009164434E+04  0.12009164434E+04  0.25500000920E-02 0. -1.
        2   -1    0    0  501    0  0.00000000000E+00  0.00000000000E+00 -0.22403604729E+04  0.22403604729E+04  0.25500000920E-02 0.  1.
    10030    2    1    2    0    0  0.00000000000E+00  0.00000000000E+00 -0.10394440295E+04  0.34412769162E+04  0.32805400354E+04 0.  0.
        1    1    3    3  502    0 -0.55798601047E+02 -0.79000118977E+03  0.98706666757E+03  0.12655101619E+04  0.50400001928E-02 0. -1.
       -1    1    3    3    0  502  0.55798601047E+02  0.79000118977E+03 -0.20265106971E+04  0.21757667543E+04  0.50400001928E-02 0.  1.
</event>
<event>
 5   0  0.5735179E-07  0.3388506E+04  0.7818609E-02  0.8140733E-01
       -2   -1    0    0    0  501  0.00000000000E+00  0.00000000000E+00  0.14952509802E+04  0.14952509802E+04  0.25500000920E-02 0.  1.
        2   -1    0    0  501    0  0.00000000000E+00  0.00000000000E+00 -0.19197406030E+04  0.19197406030E+04  0.25500000920E-02 0. -1.
    10030    2    1    2    0    0  0.00000000000E+00  0.00000000000E+00 -0.42448962280E+03  0.34149915832E+04  0.33885064665E+04 0.  0.
        5    1    3    3  502    0  0.10613569054E+04 -0.62982126227E+03 -0.13820578984E+04  0.18529056715E+04  0.46999998093E+01 0. -1.
       -5    1    3    3    0  502 -0.10613569054E+04  0.62982126227E+03  0.95756827556E+03  0.15620859117E+04  0.46999998093E+01 0.  1.
</event>
<event>
 5   0  0.2666813E-07  0.3879433E+04  0.7818609E-02  0.8029320E-01
       -1   -1    0    0    0  501  0.00000000000E+00  0.00000000000E+00  0.18062627621E+04  0.18062627621E+04  0.50400001928E-02 0.  1.
        1   -1    0    0  501    0  0.00000000000E+00  0.00000000000E+00 -0.20830304660E+04  0.20830304660E+04  0.50400001928E-02 0. -1.
    10030    2    1    2    0    0  0.00000000000E+00  0.00000000000E+00 -0.27676770384E+03  0.38892932281E+04  0.38794331354E+04 0.  0.
        1    1    3    3  502    0 -0.17416413881E+04  0.69433385110E+03  0.35995713773E+03  0.19091839520E+04  0.50400001928E-02 0. -1.
       -1    1    3    3    0  502  0.17416413881E+04 -0.69433385110E+03 -0.63672484156E+03  0.19801092761E+04  0.50400001928E-02 0.  1.
</event>
<event>
 5   0  0.3959190E-07  0.3933999E+04  0.7818609E-02  0.8017995E-01
        2   -1    0    0  501    0  0.00000000000E+00  0.00000000000E+00  0.24146595904E+04  0.24146595904E+04  0.25500000920E-02 0.  1.
       -2   -1    0    0    0  501  0.00000000000E+00  0.00000000000E+00 -0.16023319350E+04  0.16023319350E+04  0.25500000920E-02 0. -1.
    10030    2    1    2    0    0  0.00000000000E+00  0.00000000000E+00  0.81232765536E+03  0.40169915254E+04  0.39339985632E+04 0.  0.
        2    1    3    3  502    0  0.10796595183E+04 -0.13325074060E+04 -0.57740454239E+03  0.18095957195E+04  0.25500000920E-02 0. -1.
       -2    1    3    3    0  502 -0.10796595183E+04  0.13325074060E+04  0.13897321978E+04  0.22073958059E+04  0.25500000920E-02 0.  1.
</event>
<event>
 5   0  0.5872444E-07  0.3860134E+04  0.7818609E-02  0.8033372E-01
        2   -1    0    0  501    0  0.00000000000E+00  0.00000000000E+00  0.17491898724E+04  0.17491898724E+04  0.25500000920E-02 0. -1.
       -2   -1    0    0    0  501  0.00000000000E+00  0.00000000000E+00 -0.21296475971E+04  0.21296475971E+04  0.25500000920E-02 0.  1.
    10030    2    1    2    0    0  0.00000000000E+00  0.00000000000E+00 -0.38045772470E+03  0.38788374696E+04  0.38601336810E+04 0.  0.
        3    1    3    3  502    0 -0.80091718543E+03  0.13174696402E+04  0.97641496790E+03  0.18249878877E+04  0.10100000352E+00 0. -1.
       -3    1    3    3    0  502  0.80091718543E+03 -0.13174696402E+04 -0.13568726926E+04  0.20538495818E+04  0.10100000352E+00 0.  1.
</event>
<event>
 5   0  0.1943459E-07  0.3954836E+04  0.7818609E-02  0.8013720E-01
       -1   -1    0    0    0  501  0.00000000000E+00  0.00000000000E+00  0.15330865191E+04  0.15330865191E+04  0.50400001928E-02 0. -1.
        1   -1    0    0  501    0  0.00000000000E+00  0.00000000000E+00 -0.25505287889E+04  0.25505287889E+04  0.50400001928E-02 0.  1.
    10030    2    1    2    0    0  0.00000000000E+00  0.00000000000E+00 -0.10174422699E+04  0.40836153080E+04  0.39548356743E+04 0.  0.
        2    1    3    3  502    0  0.12037678741E+04 -0.13258451502E+04  0.35719131106E+03  0.18260635503E+04  0.25500000920E-02 0. -1.
       -2    1    3    3    0  502 -0.12037678741E+04  0.13258451502E+04 -0.13746335809E+04  0.22575517577E+04  0.25500000920E-02 0.  1.
</event>
<event>
 5   0  0.5872444E-07  0.3936526E+04  0.7818609E-02  0.8017475E-01
       -2   -1    0    0    0  501  0.00000000000E+00  0.00000000000E+00  0.15727504292E+04  0.15727504292E+04  0.25500000920E-02 0.  1.
        2   -1    0    0  501    0  0.00000000000E+00  0.00000000000E+00 -0.24632382313E+04  0.24632382313E+04  0.25500000920E-02 0. -1.
    10030    2    1    2    0    0  0.00000000000E+00  0.00000000000E+00 -0.89048780213E+03  0.40359886605E+04  0.39365258721E+04 0.  0.
        3    1    3    3  502    0 -0.19669144399E+04  0.45383799513E+02 -0.38682284259E+03  0.20051044923E+04  0.10100000352E+00 0.  1.
       -3    1    3    3    0  502  0.19669144399E+04 -0.45383799513E+02 -0.50366495954E+03  0.20308841682E+04  0.10100000352E+00 0. -1.
</event>
<event>
 5   0  0.1860500E-07  0.3938273E+04  0.7818609E-02  0.8017116E-01
        1   -1    0    0  501    0  0.00000000000E+00  0.00000000000E+00  0.19532977487E+04  0.19532977487E+04  0.50400001928E-02 0.  1.
       -1   -1    0    0    0  501  0.00000000000E+00  0.00000000000E+00 -0.19851032818E+04  0.19851032818E+04  0.50400001928E-02 0. -1.
    10030    2    1    2    0    0  0.00000000000E+00  0.00000000000E+00 -0.31805533084E+02  0.39384010305E+04  0.39382726017E+04 0.  0.
        4    1    3    3  502    0  0.67977392310E+03  0.18421500552E+04 -0.16384928866E+03  0.19703952940E+04  0.12699999809E+01 0.  1.
       -4    1    3    3    0  502 -0.67977392310E+03 -0.18421500552E+04  0.13204375558E+03  0.19680057365E+04  0.12699999809E+01 0. -1.
</event>
<event>
 5   0  0.1860500E-07  0.3924429E+04  0.7818609E-02  0.8019967E-01
        1   -1    0    0  501    0  0.00000000000E+00  0.00000000000E+00  0.23524263632E+04  0.23524263632E+04  0.50400001928E-02 0.  1.
       -1   -1    0    0    0  501  0.00000000000E+00  0.00000000000E+00 -0.16367298450E+04  0.16367298451E+04  0.50400001928E-02 0. -1.
    10030    2    1    2    0    0  0.00000000000E+00  0.00000000000E+00  0.71569651811E+03  0.39891562082E+04  0.39244293531E+04 0.  0.
        5    1    3    3  502    0 -0.98608936881E+03 -0.16960792138E+04  0.32252743382E+03  0.19882411771E+04  0.46999998093E+01 0. -1.
       -5    1    3    3    0  502  0.98608936881E+03  0.16960792138E+04  0.39316908429E+03  0.20009150311E+04  0.46999998093E+01 0.  1.
</event>
<event>
 5   0  0.1860500E-07  0.3837077E+04  0.7818609E-02  0.8038245E-01
       -1   -1    0    0    0  501  0.00000000000E+00  0.00000000000E+00  0.14004944722E+04  0.14004944723E+04  0.50400001928E-02 0.  1.
        1   -1    0    0  501    0  0.00000000000E+00  0.00000000000E+00 -0.26282079619E+04  0.26282079620E+04  0.50400001928E-02 0. -1.
    10030    2    1    2    0    0  0.00000000000E+00  0.00000000000E+00 -0.12277134897E+04  0.40287024342E+04  0.38370773892E+04 0.  0.
        5    1    3    3  502    0  0.11055581316E+04 -0.11431459006E+04  0.51292412015E+03  0.16709741396E+04  0.46999998093E+01 0.  1.
       -5    1    3    3    0  502 -0.11055581316E+04  0.11431459006E+04 -0.17406376098E+04  0.23577282946E+04  0.46999998093E+01 0. -1.
</event>
<event>
 5   0  0.1860500E-07  0.3907442E+04  0.7818609E-02  0.8023483E-01
        3   -1    0    0  501    0  0.00000000000E+00  0.00000000000E+00  0.17730831587E+04  0.17730831616E+04  0.10100000352E+00 0. -1.
       -3   -1    0    0    0  501  0.00000000000E+00  0.00000000000E+00 -0.21527614975E+04  0.21527614999E+04  0.10100000352E+00 0.  1.
    10030    2    1    2    0    0  0.00000000000E+00  0.00000000000E+00 -0.37967833880E+03  0.39258446615E+04  0.39074417034E+04 0.  0.
        4    1    3    3  502    0  0.49800268963E+03  0.35336442632E+03 -0.20544219176E+04  0.21432508311E+04  0.12699999809E+01 0.  1.
       -4    1    3    3    0  502 -0.49800268963E+03 -0.35336442632E+03  0.16747435788E+04  0.17825938304E+04  0.12699999809E+01 0. -1.
</event>
<event>
 5   0  0.5872444E-07  0.2512698E+04  0.7818609E-02  0.8398476E-01
        2   -1    0    0  501    0  0.00000000000E+00  0.00000000000E+00  0.14022116737E+04  0.14022116737E+04  0.25500000920E-02 0. -1.
       -2   -1    0    0    0  501  0.00000000000E+00  0.00000000000E+00 -0.11256593095E+04  0.11256593095E+04  0.25500000920E-02 0.  1.
    10030    2    1    2    0    0  0.00000000000E+00  0.00000000000E+00  0.27655236413E+03  0.25278709832E+04  0.25126978524E+04 0.  0.
        3    1    3    3  502    0  0.24617427712E+03 -0.33853895622E+02  0.13772423095E+04  0.13994799928E+04  0.10100000352E+00 0. -1.
       -3    1    3    3    0  502 -0.24617427712E+03  0.33853895622E+02 -0.11006899454E+04  0.11283909904E+04  0.10100000352E+00 0.  1.
</event>
<event>
 5   0  0.1860500E-07  0.2647884E+04  0.7818609E-02  0.8352116E-01
       -1   -1    0    0    0  501  0.00000000000E+00  0.00000000000E+00  0.77200841901E+03  0.77200841902E+03  0.50400001928E-02 0.  1.
        1   -1    0    0  501    0  0.00000000000E+00  0.00000000000E+00 -0.22704708062E+04  0.22704708062E+04  0.50400001928E-02 0. -1.
    10030    2    1    2    0    0  0.00000000000E+00  0.00000000000E+00 -0.14984623872E+04  0.30424792252E+04  0.26478841195E+04 0.  0.
        5    1    3    3  502    0 -0.11842671268E+04 -0.34088872685E+03 -0.13051810231E+04  0.17950524629E+04  0.46999998093E+01 0. -1.
       -5    1    3    3    0  502  0.11842671268E+04  0.34088872685E+03 -0.19328136412E+03  0.12474267623E+04  0.46999998093E+01 0.  1.
</event>
<event>
 5   0  0.1860500E-07  0.3816623E+04  0.7818609E-02  0.8042597E-01
       -1   -1    0    0    0  501  0.00000000000E+00  0.00000000000E+00  0.18301025335E+04  0.18301025335E+04  0.50400001928E-02 0. -1.
        1   -1    0    0  501    0  0.00000000000E+00  0.00000000000E+00 -0.19898627496E+04  0.19898627496E+04  0.50400001928E-02 0.  1.
    10030    2    1    2    0    0  0.00000000000E+00  0.00000000000E+00 -0.15976021604E+03  0.38199652831E+04  0.38166230410E+04 0.  0.
        5    1    3    3  502    0  0.12980717356E+03 -0.79575756272E+03  0.16512445276E+04  0.18375828093E+04  0.46999998093E+01 0. -1.
       -5    1    3    3    0  502 -0.12980717356E+03  0.79575756272E+03 -0.18110047437E+04  0.19823824738E+04  0.46999998093E+01 0.  1.
</event>
<event>
 5   0  0.5805753E-07  0.4011010E+04  0.7818609E-02  0.8002329E-01
        2   -1    0    0  501    0  0.00000000000E+00  0.00000000000E+00  0.18212962100E+04  0.18212962100E+04  0.25500000920E-02 0. -1.
       -2   -1    0    0    0  501  0.00000000000E+00  0.00000000000E+00 -0.22083448555E+04  0.22083448555E+04  0.25500000920E-02 0.  1.
    10030    2    1    2    0    0  0.00000000000E+00  0.00000000000E+00 -0.38704864547E+03  0.40296410655E+04  0.40110099056E+04 0.  0.
        1    1    3    3  502    0 -0.19263489284E+04  0.22674513795E+03  0.31856538463E+03  0.19656341103E+04  0.50400001928E-02 0. -1.
       -1    1    3    3    0  502  0.19263489284E+04 -0.22674513795E+03 -0.70561403010E+03  0.20640069551E+04  0.50400001928E-02 0.  1.
</event>
<event>
 5   0  0.6095665E-07  0.3850217E+04  0.7818609E-02  0.8035463E-01
       -2   -1    0    0    0  501  0.00000000000E+00  0.00000000000E+00  0.18373030649E+04  0.18373030649E+04  0.25500000920E-02 0.  1.
        2   -1    0    0  501    0  0.00000000000E+00  0.00000000000E+00 -0.20171104783E+04  0.20171104783E+04  0.25500000920E-02 0. -1.
    10030    2    1    2    0    0  0.00000000000E+00  0.00000000000E+00 -0.17980741348E+03  0.38544135432E+04  0.38502172739E+04 0.  0.
        4    1    3    3  502    0 -0.44106058164E+03 -0.18534716725E+04 -0.36615730882E+03  0.19400939320E+04  0.12699999809E+01 0. -1.
       -4    1    3    3    0  502  0.44106058164E+03  0.18534716725E+04  0.18634989534E+03  0.19143196112E+04  0.12699999809E+01 0.  1.
</event>
<event>
 5   0  0.3959190E-07  0.3900935E+04  0.7818609E-02  0.8024835E-01
        2   -1    0    0  501    0  0.00000000000E+00  0.00000000000E+00  0.26123775954E+04  0.26123775955E+04  0.25500000920E-02 0.  1.
       -2   -1    0    0    0  501  0.00000000000E+00  0.00000000000E+00 -0.14562683518E+04  0.14562683518E+04  0.25500000920E-02 0. -1.
    10030    2    1    2    0    0  0.00000000000E+00  0.00000000000E+00  0.11561092436E+04  0.40686459473E+04  0.39009346651E+04 0.  0.
        2    1    3    3  502    0 -0.41649321657E+03 -0.18817767174E+04  0.89055685706E+03  0.21231207524E+04  0.25500000920E-02 0. -1.
       -2    1    3    3    0  502  0.41649321657E+03  0.18817767174E+04  0.26555238655E+03  0.19455251948E+04  0.25500000920E-02 0.  1.
</event>
<event>
 5   0  0.1943459E-07  0.2569079E+04  0.7818609E-02  0.8378781E-01
        1   -1    0    0  501    0  0.00000000000E+00  0.00000000000E+00  0.14111636953E+04  0.14111636953E+04  0.50400001928E-02 0.  1.
       -1   -1    0    0    0  501  0.00000000000E+00  0.00000000000E+00 -0.11692773326E+04  0.11692773326E+04  0.50400001928E-02 0. -1.
    10030    2    1    2    0    0  0.00000000000E+00  0.00000000000E+00  0.24188636268E+03  0.25804410279E+04  0.25690789957E+04 0.  0.
        2    1    3    3  502    0 -0.64023129238E+03  0.26281243076E+03  0.12078914606E+04  0.13921092852E+04  0.25500000920E-02 0.  1.
       -2    1    3    3    0  502  0.64023129238E+03 -0.26281243076E+03 -0.96600509791E+03  0.11883317427E+04  0.25500000920E-02 0. -1.
</event>
<event>
 5   0  0.5735179E-07  0.3790663E+04  0.7818609E-02  0.8048161E-01
       -2   -1    0    0    0  501  0.00000000000E+00  0.00000000000E+00  0.21834224442E+04  0.21834224443E+04  0.25500000920E-02 0. -1.
        2   -1    0    0  501    0  0.00000000000E+00  0.00000000000E+00 -0.16452528363E+04  0.16452528363E+04  0.25500000920E-02 0.  1.
    10030    2    1    2    0    0  0.00000000000E+00  0.00000000000E+00  0.53816960791E+03  0.38286752806E+04  0.37906632503E+04 0.  0.
        5    1    3    3  502    0 -0.12313650268E+04  0.71489633163E+03  0.15325982145E+04  0.20919407189E+04  0.46999998093E+01 0. -1.
       -5    1    3    3    0  502  0.12313650268E+04 -0.71489633163E+03 -0.99442860662E+03  0.17367345617E+04  0.46999998093E+01 0.  1.
</event>
<event>
 5   0  0.1860500E-07  0.3853739E+04  0.7818609E-02  0.8034720E-01
       -1   -1    0    0    0  501  0.00000000000E+00  0.00000000000E+00  0.21098835709E+04  0.21098835709E+04  0.50400001928E-02 0.  1.
        1   -1    0    0  501    0  0.00000000000E+00  0.00000000000E+00 -0.17597302727E+04  0.17597302727E+04  0.50400001928E-02 0. -1.
    10030    2    1    2    0    0  0.00000000000E+00  0.00000000000E+00  0.35015329825E+03  0.38696138436E+04  0.38537389593E+04 0.  0.
        4    1    3    3  502    0 -0.13762345553E+04 -0.74272588032E+03 -0.95524292809E+03  0.18325266571E+04  0.12699999809E+01 0. -1.
       -4    1    3    3    0  502  0.13762345553E+04  0.74272588032E+03  0.13053962263E+04  0.20370871865E+04  0.12699999809E+01 0.  1.
</event>
<event>
 5   0  0.6095665E-07  0.3885873E+04  0.7818609E-02  0.8027974E-01
        2   -1    0    0  501    0  0.00000000000E+00  0.00000000000E+00  0.25028094780E+04  0.25028094780E+04  0.25500000920E-02 0. -1.
       -2   -1    0    0    0  501  0.00000000000E+00  0.00000000000E+00 -0.15083055896E+04  0.15083055896E+04  0.25500000920E-02 0.  1.
    10030    2    1    2    0    0  0.00000000000E+00  0.00000000000E+00  0.99450388835E+03  0.40111150676E+04  0.38858726307E+04 0.  0.
        4    1    3    3  502    0 -0.10405862054E+04 -0.13878453116E+04 -0.40620935728E+03  0.17815560374E+04  0.12699999809E+01 0. -1.
       -4    1    3    3    0  502  0.10405862054E+04  0.13878453116E+04  0.14007132456E+04  0.22295590302E+04  0.12699999809E+01 0.  1.
</event>
<event>
 5   0  0.5735179E-07  0.3319644E+04  0.7818609E-02  0.8157915E-01
       -2   -1    0    0    0  501  0.00000000000E+00  0.00000000000E+00  0.12734176367E+04  0.12734176367E+04  0.25500000920E-02 0.  1.
        2   -1    0    0  501    0  0.00000000000E+00  0.00000000000E+00 -0.21634770793E+04  0.21634770793E+04  0.25500000920E-02 0. -1.
    10030    2    1    2    0    0  0.00000000000E+00  0.00000000000E+00 -0.89005944263E+03  0.34368947159E+04  0.33196444805E+04 0.  0.
        5    1    3    3  502    0  0.60350667463E+03 -0.66775447522E+03 -0.18888731545E+04  0.20923623561E+04  0.46999998093E+01 0. -1.
       -5    1    3    3    0  502 -0.60350667463E+03  0.66775447522E+03  0.99881371190E+03  0.13445323598E+04  0.46999998093E+01 0.  1.
</event>
<event>
 5   0  0.3959190E-07  0.3736004E+04  0.7818609E-02  0.8060029E-01
       -2   -1    0    0    0  501  0.00000000000E+00  0.00000000000E+00  0.13353155512E+04  0.13353155512E+04  0.25500000920E-02 0.  1.
        2   -1    0    0  501    0  0.00000000000E+00  0.00000000000E+00 -0.26131893486E+04  0.26131893486E+04  0.25500000920E-02 0. -1.
    10030    2    1    2    0    0  0.00000000000E+00  0.00000000000E+00 -0.12778737973E+04  0.39485048998E+04  0.37360044837E+04 0.  0.
        2    1    3    3  502    0 -0.12409229084E+04 -0.28018565721E+02  0.83644418654E+03  0.14967677113E+04  0.25500000920E-02 0.  1.
       -2    1    3    3    0  502  0.12409229084E+04  0.28018565721E+02 -0.21143179839E+04  0.24517371885E+04  0.25500000920E-02 0. -1.
</event>
<event>
 5   0  0.2666813E-07  0.3866339E+04  0.7818609E-02  0.8032067E-01
       -1   -1    0    0    0  501  0.00000000000E+00  0.00000000000E+00  0.27236109575E+04  0.27236109575E+04  0.50400001928E-02 0.  1.
        1   -1    0    0  501    0  0.00000000000E+00  0.00000000000E+00 -0.13721287563E+04  0.13721287563E+04  0.50400001928E-02 0. -1.
    10030    2    1    2    0    0  0.00000000000E+00  0.00000000000E+00  0.13514822012E+04  0.40957397138E+04  0.38663393104E+04 0.  0.
        1    1    3    3  502    0 -0.11163594265E+04  0.11707408351E+04  0.17969598050E+04  0.24178413953E+04  0.50400001928E-02 0.  1.
       -1    1    3    3    0  502  0.11163594265E+04 -0.11707408351E+04 -0.44547760376E+03  0.16778983186E+04  0.50400001928E-02 0. -1.
</event>
<event>
 5   0  0.1943459E-07  0.3899371E+04  0.7818609E-02  0.8025160E-01
       -1   -1    0    0    0  501  0.00000000000E+00  0.00000000000E+00  0.11590029313E+04  0.11590029313E+04  0.50400001928E-02 0. -1.
        1   -1    0    0  501    0  0.00000000000E+00  0.00000000000E+00 -0.32797787050E+04  0.32797787050E+04  0.50400001928E-02 0.  1.
    10030    2    1    2    0    0  0.00000000000E+00  0.00000000000E+00 -0.21207757737E+04  0.44387816363E+04  0.38993707867E+04 0.  0.
        2    1    3    3  502    0 -0.25759200368E+03 -0.11945656333E+04  0.66895372920E+03  0.13931402602E+04  0.25500000920E-02 0. -1.
       -2    1    3    3    0  502  0.25759200368E+03  0.11945656333E+04 -0.27897295029E+04  0.30456413761E+04  0.25500000920E-02 0.  1.
</event>
<event>
 5   0  0.3959190E-07  0.3087564E+04  0.7818609E-02  0.8219159E-01
       -2   -1    0    0    0  501  0.00000000000E+00  0.00000000000E+00  0.12216424192E+04  0.12216424192E+04  0.25500000920E-02 0.  1.
        2   -1    0    0  501    0  0.00000000000E+00  0.00000000000E+00 -0.19508678848E+04  0.19508678848E+04  0.25500000920E-02 0. -1.
    10030    2    1    2    0    0  0.00000000000E+00  0.00000000000E+00 -0.72922546555E+03  0.31725103040E+04  0.30875640640E+04 0.  0.
        2    1    3    3  502    0  0.18597118705E+03 -0.57272978430E+03 -0.18252201459E+04  0.19219868026E+04  0.25500000920E-02 0. -1.
       -2    1    3    3    0  502 -0.18597118705E+03  0.57272978430E+03  0.10959946803E+04  0.12505235014E+04  0.25500000920E-02 0.  1.
</event>
<event>
 5   0  0.5735179E-07  0.3699272E+04  0.7818609E-02  0.8068123E-01
        2   -1    0    0  501    0  0.00000000000E+00  0.00000000000E+00  0.14525005879E+04  0.14525005879E+04  0.25500000920E-02 0. -1.
       -2   -1    0    0    0  501  0.00000000000E+00  0.00000000000E+00 -0.23553537016E+04  0.23553537016E+04  0.25500000920E-02 0.  1.
    10030    2    1    2    0    0  0.00000000000E+00  0.00000000000E+00 -0.90285311371E+03  0.38078542894E+04  0.36992716235E+04 0.  0.
        5    1    3    3  502    0 -0.39391650681E+03 -0.71817968823E+03  0.12556166876E+04  0.14991823222E+04  0.46999998093E+01 0. -1.
       -5    1    3    3    0  502  0.39391650681E+03  0.71817968823E+03 -0.21584698014E+04  0.23086719672E+04  0.46999998093E+01 0.  1.
</event>
<event>
 5   0  0.1860500E-07  0.4018428E+04  0.7818609E-02  0.8000839E-01
       -1   -1    0    0    0  501  0.00000000000E+00  0.00000000000E+00  0.26425737379E+04  0.26425737379E+04  0.50400001928E-02 0.  1.
        1   -1    0    0  501    0  0.00000000000E+00  0.00000000000E+00 -0.15276550582E+04  0.15276550582E+04  0.50400001928E-02 0. -1.
    10030    2    1    2    0    0  0.00000000000E+00  0.00000000000E+00  0.11149186797E+04  0.41702287961E+04  0.40184281192E+04 0.  0.
        4    1    3    3  502    0 -0.18631925961E+04  0.57552488127E+03  0.10597086649E+04  0.22193917199E+04  0.12699999809E+01 0. -1.
       -4    1    3    3    0  502  0.18631925961E+04 -0.57552488127E+03  0.55210014777E+02  0.19508370762E+04  0.12699999809E+01 0.  1.
</event>
<event>
 5   0  0.1943459E-07  0.3566682E+04  0.7818609E-02  0.8098167E-01
       -1   -1    0    0    0  501  0.00000000000E+00  0.00000000000E+00  0.19041854194E+04  0.19041854194E+04  0.50400001928E-02 0.  1.
        1   -1    0    0  501    0  0.00000000000E+00  0.00000000000E+00 -0.16701653743E+04  0.16701653743E+04  0.50400001928E-02 0. -1.
    10030    2    1    2    0    0  0.00000000000E+00  0.00000000000E+00  0.23402004504E+03  0.35743507937E+04  0.35666816812E+04 0.  0.
        2    1    3    3  502    0 -0.13998904888E+04 -0.25718903906E+03  0.11937806536E+04  0.18576737688E+04  0.25500000920E-02 0.  1.
       -2    1    3    3    0  502  0.13998904888E+04  0.25718903906E+03 -0.95976060852E+03  0.17166770250E+04  0.25500000920E-02 0. -1.
</event>
<event>
 5   0  0.6095665E-07  0.3798844E+04  0.7818609E-02  0.8046403E-01
       -2   -1    0    0    0  501  0.00000000000E+00  0.00000000000E+00  0.15245658094E+04  0.15245658094E+04  0.25500000920E-02 0. -1.
        2   -1    0    0  501    0  0.00000000000E+00  0.00000000000E+00 -0.23664462947E+04  0.23664462947E+04  0.25500000920E-02 0.  1.
    10030    2    1    2    0    0  0.00000000000E+00  0.00000000000E+00 -0.84188048535E+03  0.38910121041E+04  0.37988435665E+04 0.  0.
        4    1    3    3  502    0 -0.18572333004E+04 -0.12801750059E+03 -0.34836183097E+02  0.18619664833E+04  0.12699999809E+01 0. -1.
       -4    1    3    3    0  502  0.18572333004E+04  0.12801750059E+03 -0.80704430226E+03  0.20290456208E+04  0.12699999809E+01 0.  1.
</event>
<event>
 5   0  0.1860500E-07  0.3892131E+04  0.7818609E-02  0.8026668E-01
        1   -1    0    0  501    0  0.00000000000E+00  0.00000000000E+00  0.23055045086E+04  0.23055045086E+04  0.50400001928E-02 0. -1.
       -1   -1    0    0    0  501  0.00000000000E+00  0.00000000000E+00 -0.16426645766E+04  0.16426645766E+04  0.50400001928E-02 0.  1.
    10030    2    1    2    0    0  0.00000000000E+00  0.00000000000E+00  0.66283993197E+03  0.39481690852E+04  0.38921308238E+04 0.  0.
        5    1    3    3  502    0 -0.10270720646E+04  0.11778952422E+04  0.15077866000E+04  0.21715793213E+04  0.46999998093E+01 0.  1.
       -5    1    3    3    0  502  0.10270720646E+04 -0.11778952422E+04 -0.84494666802E+03  0.17765897639E+04  0.46999998093E+01 0. -1.
</event>
<event>
 5   0  0.6095665E-07  0.2435992E+04  0.7818609E-02  0.8426150E-01
       -2   -1    0    0    0  501  0.00000000000E+00  0.00000000000E+00  0.57863243165E+03  0.57863243166E+03  0.25500000920E-02 0.  1.
        2   -1    0    0  501    0  0.00000000000E+00  0.00000000000E+00 -0.25638291205E+04  0.25638291205E+04  0.25500000920E-02 0. -1.
    10030    2    1    2    0    0  0.00000000000E+00  0.00000000000E+00 -0.19851966889E+04  0.31424615522E+04  0.24359923468E+04 0.  0.
        4    1    3    3  502    0 -0.70793888186E+03  0.37173075204E+03 -0.21778330024E+04  0.23199826317E+04  0.12699999809E+01 0. -1.
       -4    1    3    3    0  502  0.70793888186E+03 -0.37173075204E+03  0.19263631346E+03  0.82247892048E+03  0.12699999809E+01 0.  1.
</event>
<event>
 5   0  0.3959190E-07  0.3899039E+04  0.7818609E-02  0.8025229E-01
       -2   -1    0    0    0  501  0.00000000000E+00  0.00000000000E+00  0.22383072647E+04  0.22383072647E+04  0.25500000920E-02 0. -1.
        2   -1    0    0  501    0  0.00000000000E+00  0.00000000000E+00 -0.16979917113E+04  0.16979917113E+04  0.25500000920E-02 0.  1.
    10030    2    1    2    0    0  0.00000000000E+00  0.00000000000E+00  0.54031555333E+03  0.39362989760E+04  0.38990394626E+04 0.  0.
        2    1    3    3  502    0  0.15163002674E+04 -0.11148892407E+04  0.78342810174E+03  0.20386034706E+04  0.25500000920E-02 0.  1.
       -2    1    3    3    0  502 -0.15163002674E+04  0.11148892407E+04 -0.24311254841E+03  0.18976955054E+04  0.25500000920E-02 0. -1.
</event>
<event>
 5   0  0.5872444E-07  0.2989752E+04  0.7818609E-02  0.8246663E-01
       -2   -1    0    0    0  501  0.00000000000E+00  0.00000000000E+00  0.11246139819E+04  0.11246139819E+04  0.25500000920E-02 0.  1.
        2   -1    0    0  501    0  0.00000000000E+00  0.00000000000E+00 -0.19870408773E+04  0.19870408773E+04  0.25500000920E-02 0. -1.
    10030    2    1    2    0    0  0.00000000000E+00  0.00000000000E+00 -0.86242689543E+03  0.31116548592E+04  0.29897517978E+04 0.  0.
        3    1    3    3  502    0  0.42437791109E+03 -0.24526820916E+03  0.10386009856E+04  0.11484533614E+04  0.10100000352E+00 0.  1.
       -3    1    3    3    0  502 -0.42437791109E+03  0.24526820916E+03 -0.19010278811E+04  0.19632014977E+04  0.10100000352E+00 0. -1.
</event>
<event>
 5   0  0.1943459E-07  0.3876051E+04  0.7818609E-02  0.8030029E-01
        1   -1    0    0  501    0  0.00000000000E+00  0.00000000000E+00  0.25750048139E+04  0.25750048139E+04  0.50400001928E-02 0.  1.
       -1   -1    0    0    0  501  0.00000000000E+00  0.00000000000E+00 -0.14586155138E+04  0.14586155138E+04  0.50400001928E-02 0. -1.
    10030    2    1    2    0    0  0.00000000000E+00  0.00000000000E+00  0.11163893001E+04  0.40336203277E+04  0.38760505516E+04 0.  0.
        2    1    3    3  502    0 -0.94110203112E+03 -0.74121383184E+03 -0.10271769888E+04  0.15780252038E+04  0.25500000920E-02 0. -1.
       -2    1    3    3    0  502  0.94110203112E+03  0.74121383184E+03  0.21435662889E+04  0.24555951239E+04  0.25500000920E-02 0.  1.
</event>
<event>
 5   0  0.1860500E-07  0.3898436E+04  0.7818609E-02  0.8025355E-01
        1   -1    0    0  501    0  0.00000000000E+00  0.00000000000E+00  0.13597949225E+04  0.13597949225E+04  0.50400001928E-02 0. -1.
       -1   -1    0    0    0  501  0.00000000000E+00  0.00000000000E+00 -0.27941352122E+04  0.27941352122E+04  0.50400001928E-02 0.  1.
    10030    2    1    2    0    0  0.00000000000E+00  0.00000000000E+00 -0.14343402897E+04  0.41539301347E+04  0.38984360322E+04 0.  0.
        4    1    3    3  502    0  0.28269353397E+03 -0.18970819480E+04 -0.10872258577E+04  0.22047442551E+04  0.12699999809E+01 0.  1.
       -4    1    3    3    0  502 -0.28269353397E+03  0.18970819480E+04 -0.34711443199E+03  0.19491858796E+04  0.12699999809E+01 0. -1.
</event>
<event>
 5   0  0.1860500E-07  0.3908588E+04  0.7818609E-02  0.8023245E-01
       -1   -1    0    0    0  501  0.00000000000E+00  0.00000000000E+00  0.16805106237E+04  0.16805106237E+04  0.50400001928E-02 0.  1.
        1   -1    0    0  501    0  0.00000000000E+00  0.00000000000E+00 -0.22726815592E+04  0.22726815592E+04  0.50400001928E-02 0. -1.
    10030    2    1    2    0    0  0.00000000000E+00  0.00000000000E+00 -0.59217093552E+03  0.39531921829E+04  0.39085882385E+04 0.  0.
        5    1    3    3  502    0  0.83321011485E+03 -0.16170876491E+04  0.42622957188E+03  0.18683964510E+04  0.46999998093E+01 0.  1.
       -5    1    3    3    0  502 -0.83321011485E+03  0.16170876491E+04 -0.10184005074E+04  0.20847957319E+04  0.46999998093E+01 0. -1.
</event>
<event>
 5   0  0.5805753E-07  0.4053831E+04  0.7818609E-02  0.7993774E-01
       -2   -1    0    0    0  501  0.00000000000E+00  0.00000000000E+00  0.18228675851E+04  0.18228675851E+04  0.25500000920E-02 0.  1.
        2   -1    0    0  501    0  0.00000000000E+00  0.00000000000E+00 -0.22538040406E+04  0.22538040406E+04  0.25500000920E-02 0. -1.
    10030    2    1    2    0    0  0.00000000000E+00  0.00000000000E+00 -0.43093645546E+03  0.40766716257E+04  0.40538309431E+04 0.  0.
        1    1    3    3  502    0 -0.80632923010E+03  0.18511226355E+04 -0.39413322827E+03  0.20572221174E+04  0.50400001928E-02 0. -1.
       -1    1    3    3    0  502  0.80632923010E+03 -0.18511226355E+04 -0.36803227190E+02  0.20194495083E+04  0.50400001928E-02 0.  1.
</event>
<event>
 5   0  0.5735179E-07  0.3841493E+04  0.7818609E-02  0.8037309E-01
        2   -1    0    0  501    0  0.00000000000E+00  0.00000000000E+00  0.31907011010E+04  0.31907011010E+04  0.25500000920E-02 0. -1.
       -2   -1    0    0    0  501  0.00000000000E+00  0.00000000000E+00 -0.11562562204E+04  0.11562562204E+04  0.25500000920E-02 0.  1.
    10030    2    1    2    0    0  0.00000000000E+00  0.00000000000E+00  0.20344448806E+04  0.43469573214E+04  0.38414934572E+04 0.  0.
        5    1    3    3  502    0 -0.11795781708E+04 -0.14111727826E+04  0.39082095747E+03  0.18803128448E+04  0.46999998093E+01 0. -1.
       -5    1    3    3    0  502  0.11795781708E+04  0.14111727826E+04  0.16436239231E+04  0.24666444766E+04  0.46999998093E+01 0.  1.
</event>
<event>
 5   0  0.6095665E-07  0.4062167E+04  0.7818609E-02  0.7992122E-01
        2   -1    0    0  501    0  0.00000000000E+00  0.00000000000E+00  0.17536032633E+04  0.17536032633E+04  0.25500000920E-02 0.  1.
       -2   -1    0    0    0  501  0.00000000000E+00  0.00000000000E+00 -0.23524704834E+04  0.23524704834E+04  0.25500000920E-02 0. -1.
    10030    2    1    2    0    0  0.00000000000E+00  0.00000000000E+00 -0.59886722014E+03  0.41060737467E+04  0.40621668683E+04 0.  0.
        4    1    3    3  502    0 -0.95345269565E+03  0.17795279162E+04 -0.74527744158E+02  0.20202345519E+04  0.12699999809E+01 0.  1.
       -4    1    3    3    0  502  0.95345269565E+03 -0.17795279162E+04 -0.52433947598E+03  0.20858391947E+04  0.12699999809E+01 0. -1.
</event>
<event>
 5   0  0.1860500E-07  0.3950137E+04  0.7818609E-02  0.8014682E-01
        1   -1    0    0  501    0  0.00000000000E+00  0.00000000000E+00  0.22927547622E+04  0.22927547622E+04  0.50400001928E-02 0.  1.
       -1   -1    0    0    0  501  0.00000000000E+00  0.00000000000E+00 -0.17014010042E+04  0.17014010043E+04  0.50400001928E-02 0. -1.
    10030    2    1    2    0    0  0.00000000000E+00  0.00000000000E+00  0.59135375792E+03  0.39941557664E+04  0.39501368355E+04 0.  0.
        5    1    3    3  502    0 -0.14335171115E+04  0.76751117910E+03 -0.83789968448E+03  0.18292464816E+04  0.46999998093E+01 0. -1.
       -5    1    3    3    0  502  0.14335171115E+04 -0.76751117910E+03  0.14292534424E+04  0.21649092849E+04  0.46999998093E+01 0.  1.
</event>
<event>
 5   0  0.2666813E-07  0.3799843E+04  0.7818609E-02  0.8046188E-01
       -1   -1    0    0    0  501  0.00000000000E+00  0.00000000000E+00  0.13252987496E+04  0.13252987496E+04  0.50400001928E-02 0. -1.
        1   -1    0    0  501    0  0.00000000000E+00  0.00000000000E+00 -0.27236896743E+04  0.27236896743E+04  0.50400001928E-02 0.  1.
    10030    2    1    2    0    0  0.00000000000E+00  0.00000000000E+00 -0.13983909247E+04  0.40489884239E+04  0.37998434281E+04 0.  0.
        1    1    3    3  502    0  0.93365196923E+03 -0.16455515343E+04 -0.51415252705E+03  0.19605863085E+04  0.50400001928E-02 0.  1.
       -1    1    3    3    0  502 -0.93365196923E+03  0.16455515343E+04 -0.88423839769E+03  0.20884021154E+04  0.50400001928E-02 0. -1.
</event>
<event>
 5   0  0.5735179E-07  0.3880919E+04  0.7818609E-02  0.8029009E-01
        2   -1    0    0  501    0  0.00000000000E+00  0.00000000000E+00  0.23863878252E+04  0.23863878252E+04  0.25500000920E-02 0.  1.
       -2   -1    0    0    0  501  0.00000000000E+00  0.00000000000E+00 -0.15778588060E+04  0.15778588060E+04  0.25500000920E-02 0. -1.
    10030    2    1    2    0    0  0.00000000000E+00  0.00000000000E+00  0.80852901919E+03  0.39642466312E+04  0.38809189863E+04 0.  0.
        5    1    3    3  502    0 -0.11340182491E+04  0.36428323913E+03  0.19690373274E+04  0.23012669889E+04  0.46999998093E+01 0.  1.
       -5    1    3    3    0  502  0.11340182491E+04 -0.36428323913E+03 -0.11605083082E+04  0.16629796423E+04  0.46999998093E+01 0. -1.
</event>
<event>
 5   0  0.1943459E-07  0.3808106E+04  0.7818609E-02  0.8044418E-01
       -1   -1    0    0    0  501  0.00000000000E+00  0.00000000000E+00  0.17034738181E+04  0.17034738181E+04  0.50400001928E-02 0.  1.
        1   -1    0    0  501    0  0.00000000000E+00  0.00000000000E+00 -0.21282494380E+04  0.21282494380E+04  0.50400001928E-02 0. -1.
    10030    2    1    2    0    0  0.00000000000E+00  0.00000000000E+00 -0.42477561990E+03  0.38317232560E+04  0.38081056686E+04 0.  0.
        2    1    3    3  502    0 -0.13995450614E+04  0.12351279393E+04  0.16564131673E+03  0.18739542287E+04  0.25500000920E-02 0.  1.
       -2    1    3    3    0  502  0.13995450614E+04 -0.12351279393E+04 -0.59041693663E+03  0.19577690273E+04  0.25500000920E-02 0. -1.
</event>
<event>
 5   0  0.1860500E-07  0.3815368E+04  0.7818609E-02  0.8042865E-01
       -1   -1    0    0    0  501  0.00000000000E+00  0.00000000000E+00  0.25815727514E+04  0.25815727514E+04  0.50400001928E-02 0. -1.
        1   -1    0    0  501    0  0.00000000000E+00  0.00000000000E+00 -0.14097059704E+04  0.14097059704E+04  0.50400001928E-02 0.  1.
    10030    2    1    2    0    0  0.00000000000E+00  0.00000000000E+00  0.11718667810E+04  0.39912787219E+04  0.38153681452E+04 0.  0.
        5    1    3    3  502    0  0.76223816223E+03  0.16358684459E+03  0.24073200691E+04  0.25304109699E+04  0.46999998093E+01 0. -1.
       -5    1    3    3    0  502 -0.76223816223E+03 -0.16358684459E+03 -0.12354532881E+04  0.14608677520E+04  0.46999998093E+01 0.  1.
</event>
<event>
 5   0  0.5805753E-07  0.3284662E+04  0.7818609E-02  0.8166809E-01
       -2   -1    0    0    0  501  0.00000000000E+00  0.00000000000E+00  0.11970815281E+04  0.11970815281E+04  0.25500000920E-02 0. -1.
        2   -1    0    0  501    0  0.00000000000E+00  0.00000000000E+00 -0.22531891918E+04  0.22531891918E+04  0.25500000920E-02 0.  1.
    10030    2    1    2    0    0  0.00000000000E+00  0.00000000000E+00 -0.10561076637E+04  0.34502707200E+04  0.32846620289E+04 0.  0.
        1    1    3    3  502    0 -0.61385998066E+03 -0.19356302668E+02  0.10719144798E+04  0.12353944287E+04  0.50400001928E-02 0. -1.
       -1    1    3    3    0  502  0.61385998066E+03  0.19356302668E+02 -0.21280221435E+04  0.22148762913E+04  0.50400001928E-02 0.  1.
</event>
<event>
 5   0  0.1943459E-07  0.3989276E+04  0.7818609E-02  0.8006714E-01
       -1   -1    0    0    0  501  0.00000000000E+00  0.00000000000E+00  0.16290673785E+04  0.16290673786E+04  0.50400001928E-02 0. -1.
        1   -1    0    0  501    0  0.00000000000E+00  0.00000000000E+00 -0.24422438743E+04  0.24422438743E+04  0.50400001928E-02 0.  1.
    10030    2    1    2    0    0  0.00000000000E+00  0.00000000000E+00 -0.81317649577E+03  0.40713112529E+04  0.39892755363E+04 0.  0.
        2    1    3    3  502    0 -0.20522460963E+03  0.13273718167E+04  0.10983706738E+04  0.17350651910E+04  0.25500000920E-02 0. -1.
       -2    1    3    3    0  502  0.20522460963E+03 -0.13273718167E+04 -0.19115471695E+04  0.23362460619E+04  0.25500000920E-02 0.  1.
</event>
<event>
 5   0  0.1860500E-07  0.3904656E+04  0.7818609E-02  0.8024061E-01
        1   -1    0    0  501    0  0.00000000000E+00  0.00000000000E+00  0.18129470529E+04  0.18129470530E+04  0.50400001928E-02 0.  1.
       -1   -1    0    0    0  501  0.00000000000E+00  0.00000000000E+00 -0.21024250205E+04  0.21024250205E+04  0.50400001928E-02 0. -1.
    10030    2    1    2    0    0  0.00000000000E+00  0.00000000000E+00 -0.28947796757E+03  0.39153720735E+04  0.39046563204E+04 0.  0.
        4    1    3    3  502    0  0.24960717047E+03 -0.19273351417E+04 -0.33141956422E+03  0.19714880239E+04  0.12699999809E+01 0. -1.
       -4    1    3    3    0  502 -0.24960717047E+03  0.19273351417E+04  0.41941596651E+02  0.19438840496E+04  0.12699999809E+01 0.  1.
</event>
<event>
 5   0  0.6095665E-07  0.3947234E+04  0.7818609E-02  0.8015277E-01
       -2   -1    0    0    0  501  0.00000000000E+00  0.00000000000E+00  0.14922458416E+04  0.14922458416E+04  0.25500000920E-02 0.  1.
        2   -1    0    0  501    0  0.00000000000E+00  0.00000000000E+00 -0.26102696869E+04  0.26102696869E+04  0.25500000920E-02 0. -1.
    10030    2    1    2    0    0  0.00000000000E+00  0.00000000000E+00 -0.11180238453E+04  0.41025155286E+04  0.39472340117E+04 0.  0.
        4    1    3    3  502    0 -0.57859211298E+03 -0.51395919386E+03 -0.24459895224E+04  0.25654998037E+04  0.12699999809E+01 0. -1.
       -4    1    3    3    0  502  0.57859211298E+03  0.51395919386E+03  0.13279656771E+04  0.15370157249E+04  0.12699999809E+01 0.  1.
</event>
<event>
 5   0  0.1860500E-07  0.3547440E+04  0.7818609E-02  0.8102638E-01
       -1   -1    0    0    0  501  0.00000000000E+00  0.00000000000E+00  0.17488818157E+04  0.17488818157E+04  0.50400001928E-02 0. -1.
        1   -1    0    0  501    0  0.00000000000E+00  0.00000000000E+00 -0.17989110841E+04  0.17989110842E+04  0.50400001928E-02 0.  1.
    10030    2    1    2    0    0  0.00000000000E+00  0.00000000000E+00 -0.50029268487E+02  0.35477928998E+04  0.35474401379E+04 0.  0.
        5    1    3    3  502    0  0.18000696014E+03  0.29106746443E+02 -0.17895061188E+04  0.17987784599E+04  0.46999998093E+01 0.  1.
       -5    1    3    3    0  502 -0.18000696014E+03 -0.29106746443E+02  0.17394768503E+04  0.17490144400E+04  0.46999998093E+01 0. -1.
</event>
<event>
 5   0  0.1860500E-07  0.3880962E+04  0.7818609E-02  0.8029000E-01
        1   -1    0    0  501    0  0.00000000000E+00  0.00000000000E+00  0.13164979365E+04  0.13164979365E+04  0.50400001928E-02 0.  1.
       -1   -1    0    0    0  501  0.00000000000E+00  0.00000000000E+00 -0.28602148171E+04  0.28602148171E+04  0.50400001928E-02 0. -1.
    10030    2    1    2    0    0  0.00000000000E+00  0.00000000000E+00 -0.15437168806E+04  0.41767127536E+04  0.38809622027E+04 0.  0.
        5    1    3    3  502    0  0.10064695119E+04  0.16087048548E+04 -0.33532128836E+03  0.19270118434E+04  0.46999998093E+01 0. -1.
       -5    1    3    3    0  502 -0.10064695119E+04 -0.16087048548E+04 -0.12083955922E+04  0.22497009102E+04  0.46999998093E+01 0.  1.
</event>
<event>
 5   0  0.1943459E-07  0.3823978E+04  0.7818609E-02  0.8041029E-01
        1   -1    0    0  501    0  0.00000000000E+00  0.00000000000E+00  0.21406098040E+04  0.21406098040E+04  0.50400001928E-02 0.  1.
       -1   -1    0    0    0  501  0.00000000000E+00  0.00000000000E+00 -0.17077857235E+04  0.17077857235E+04  0.50400001928E-02 0. -1.
    10030    2    1    2    0    0  0.00000000000E+00  0.00000000000E+00  0.43282408050E+03  0.38483955274E+04  0.38239784846E+04 0.  0.
        2    1    3    3  502    0 -0.59632903784E+03 -0.73354240228E+03  0.18889534966E+04  0.21123063437E+04  0.25500000920E-02 0.  1.
       -2    1    3    3    0  502  0.59632903784E+03  0.73354240228E+03 -0.14561294161E+04  0.17360891837E+04  0.25500000920E-02 0. -1.
</event>
<event>
 5   0  0.6095665E-07  0.3910979E+04  0.7818609E-02  0.8022750E-01
       -2   -1    0    0    0  501  0.00000000000E+00  0.00000000000E+00  0.16276764409E+04  0.16276764409E+04  0.25500000920E-02 0. -1.
        2   -1    0    0  501    0  0.00000000000E+00  0.00000000000E+00 -0.23493239913E+04  0.23493239913E+04  0.25500000920E-02 0.  1.
    10030    2    1    2    0    0  0.00000000000E+00  0.00000000000E+00 -0.72164755037E+03  0.39770004321E+04  0.39109790654E+04 0.  0.
        4    1    3    3  502    0  0.73379642790E+03  0.15207799895E+04  0.64208528041E+03  0.18065171171E+04  0.12699999809E+01 0. -1.
       -4    1    3    3    0  502 -0.73379642790E+03 -0.15207799895E+04 -0.13637328308E+04  0.21704833150E+04  0.12699999809E+01 0.  1.
</event>
<event>
 5   0  0.1943459E-07  0.3879763E+04  0.7818609E-02  0.8029251E-01
        1   -1    0    0  501    0  0.00000000000E+00  0.00000000000E+00  0.18638987887E+04  0.18638987887E+04  0.50400001928E-02 0. -1.
       -1   -1    0    0    0  501  0.00000000000E+00  0.00000000000E+00 -0.20189612587E+04  0.20189612587E+04  0.50400001928E-02 0.  1.
    10030    2    1    2    0    0  0.00000000000E+00  0.00000000000E+00 -0.15506246999E+03  0.38828600474E+04  0.38797625930E+04 0.  0.
        2    1    3    3  502    0 -0.82511155744E+03 -0.10757141976E+04  0.13110812083E+04  0.18859756234E+04  0.25500000920E-02 0. -1.
       -2    1    3    3    0  502  0.82511155744E+03  0.10757141976E+04 -0.14661436783E+04  0.19968844240E+04  0.25500000920E-02 0.  1.
</event>
<event>
 5   0  0.5805753E-07  0.2825813E+04  0.7818609E-02  0.8295299E-01
       -2   -1    0    0    0  501  0.00000000000E+00  0.00000000000E+00  0.71840861539E+03  0.71840861540E+03  0.25500000920E-02 0.  1.
        2   -1    0    0  501    0  0.00000000000E+00  0.00000000000E+00 -0.27787865066E+04  0.27787865066E+04  0.25500000920E-02 0. -1.
    10030    2    1    2    0    0  0.00000000000E+00  0.00000000000E+00 -0.20603778912E+04  0.34971951220E+04  0.28258125675E+04 0.  0.
        1    1    3    3  502    0 -0.13558188919E+04 -0.12972240167E+03 -0.56509344292E+03  0.14745858294E+04  0.50400001928E-02 0. -1.
       -1    1    3    3    0  502  0.13558188919E+04  0.12972240167E+03 -0.14952844483E+04  0.20226092926E+04  0.50400001928E-02 0.  1.
</event>
<event>
 5   0  0.5805753E-07  0.3929025E+04  0.7818609E-02  0.8019020E-01
        2   -1    0    0  501    0  0.00000000000E+00  0.00000000000E+00  0.17507193661E+04  0.17507193661E+04  0.25500000920E-02 0.  1.
       -2   -1    0    0    0  501  0.00000000000E+00  0.00000000000E+00 -0.22044131125E+04  0.22044131125E+04  0.25500000920E-02 0. -1.
    10030    2    1    2    0    0  0.00000000000E+00  0.00000000000E+00 -0.45369374646E+03  0.39551324786E+04  0.39290246764E+04 0.  0.
        1    1    3    3  502    0 -0.15379621067E+04  0.90530830987E+02 -0.14538744677E+04  0.21183187297E+04  0.50400001928E-02 0. -1.
       -1    1    3    3    0  502  0.15379621067E+04 -0.90530830987E+02  0.10001807212E+04  0.18368137489E+04  0.50400001928E-02 0.  1.
</event>
<event>
 5   0  0.5872444E-07  0.3902520E+04  0.7818609E-02  0.8024505E-01
       -2   -1    0    0    0  501  0.00000000000E+00  0.00000000000E+00  0.17626100160E+04  0.17626100160E+04  0.25500000920E-02 0. -1.
        2   -1    0    0  501    0  0.00000000000E+00  0.00000000000E+00 -0.21601008273E+04  0.21601008273E+04  0.25500000920E-02 0.  1.
    10030    2    1    2    0    0  0.00000000000E+00  0.00000000000E+00 -0.39749081133E+03  0.39227108433E+04  0.39025198802E+04 0.  0.
        3    1    3    3  502    0 -0.16610937941E+04  0.94143199023E+03 -0.60318088749E+03  0.20023371290E+04  0.10100000352E+00 0.  1.
       -3    1    3    3    0  502  0.16610937941E+04 -0.94143199023E+03  0.20569007616E+03  0.19203737143E+04  0.10100000352E+00 0. -1.
</event>
<event>
 5   0  0.2666813E-07  0.3940187E+04  0.7818609E-02  0.8016723E-01
       -1   -1    0    0    0  501  0.00000000000E+00  0.00000000000E+00  0.14653209938E+04  0.14653209938E+04  0.50400001928E-02 0. -1.
        1   -1    0    0  501    0  0.00000000000E+00  0.00000000000E+00 -0.26487493062E+04  0.26487493062E+04  0.50400001928E-02 0.  1.
    10030    2    1    2    0    0  0.00000000000E+00  0.00000000000E+00 -0.11834283124E+04  0.41140703000E+04  0.39401867802E+04 0.  0.
        1    1    3    3  502    0  0.18941266952E+03  0.50884711413E+03 -0.25690854402E+04  0.26258336855E+04  0.50400001928E-02 0.  1.
       -1    1    3    3    0  502 -0.18941266952E+03 -0.50884711413E+03  0.13856571278E+04  0.14882366145E+04  0.50400001928E-02 0. -1.
</event>
<event>
 5   0  0.1860500E-07  0.3721453E+04  0.7818609E-02  0.8063224E-01
       -1   -1    0    0    0  501  0.00000000000E+00  0.00000000000E+00  0.21431453762E+04  0.21431453762E+04  0.50400001928E-02 0.  1.
        1   -1    0    0  501    0  0.00000000000E+00  0.00000000000E+00 -0.16155238083E+04  0.16155238083E+04  0.50400001928E-02 0. -1.
    10030    2    1    2    0    0  0.00000000000E+00  0.00000000000E+00  0.52762156793E+03  0.37586691845E+04  0.37214526088E+04 0.  0.
        5    1    3    3  502    0  0.81283296248E+03  0.16607678090E+04  0.47430117353E+03  0.19088820900E+04  0.46999998093E+01 0.  1.
       -5    1    3    3    0  502 -0.81283296248E+03 -0.16607678090E+04  0.53320394400E+02  0.18497870945E+04  0.46999998093E+01 0. -1.
</event>
<event>
 5   0  0.5805753E-07  0.3480591E+04  0.7818609E-02  0.8118405E-01
        2   -1    0    0  501    0  0.00000000000E+00  0.00000000000E+00  0.19976139971E+04  0.19976139971E+04  0.25500000920E-02 0. -1.
       -2   -1    0    0    0  501  0.00000000000E+00  0.00000000000E+00 -0.15161227566E+04  0.15161227566E+04  0.25500000920E-02 0.  1.
    10030    2    1    2    0    0  0.00000000000E+00  0.00000000000E+00  0.48149124050E+03  0.35137367536E+04  0.34805907773E+04 0.  0.
        1    1    3    3  502    0  0.10029560575E+04  0.13905279261E+04  0.54215086176E+03  0.17981702710E+04  0.50400001928E-02 0. -1.
       -1    1    3    3    0  502 -0.10029560575E+04 -0.13905279261E+04 -0.60659621263E+02  0.17155664826E+04  0.50400001928E-02 0.  1.
</event>
<event>
 5   0  0.1860500E-07  0.3950899E+04  0.7818609E-02  0.8014526E-01
       -1   -1    0    0    0  501  0.00000000000E+00  0.00000000000E+00  0.19396341579E+04  0.19396341579E+04  0.50400001928E-02 0. -1.
        1   -1    0    0  501    0  0.00000000000E+00  0.00000000000E+00 -0.20119258201E+04  0.20119258201E+04  0.50400001928E-02 0.  1.
    10030    2    1    2    0    0  0.00000000000E+00  0.00000000000E+00 -0.72291662236E+02  0.39515599780E+04  0.39508986542E+04 0.  0.
        5    1    3    3  502    0  0.10475775826E+04  0.18122871242E+03 -0.17013915844E+04  0.20062447635E+04  0.46999998093E+01 0.  1.
       -5    1    3    3    0  502 -0.10475775826E+04 -0.18122871242E+03  0.16290999221E+04  0.19453152145E+04  0.46999998093E+01 0. -1.
</event>
<event>
 5   0  0.3959190E-07  0.3929075E+04  0.7818609E-02  0.8019009E-01
        2   -1    0    0  501    0  0.00000000000E+00  0.00000000000E+00  0.15033564839E+04  0.15033564839E+04  0.25500000920E-02 0. -1.
       -2   -1    0    0    0  501  0.00000000000E+00  0.00000000000E+00 -0.25671937458E+04  0.25671937458E+04  0.25500000920E-02 0.  1.
    10030    2    1    2    0    0  0.00000000000E+00  0.00000000000E+00 -0.10638372619E+04  0.40705502298E+04  0.39290748852E+04 0.  0.
        2    1    3    3  502    0  0.16845572690E+04 -0.49607733764E+03 -0.14443002293E+04  0.22737258124E+04  0.25500000920E-02 0.  1.
       -2    1    3    3    0  502 -0.16845572690E+04  0.49607733764E+03  0.38046296747E+03  0.17968244174E+04  0.25500000920E-02 0. -1.
</event>
<event>
 5   0  0.2666813E-07  0.3318869E+04  0.7818609E-02  0.8158111E-01
       -1   -1    0    0    0  501  0.00000000000E+00  0.00000000000E+00  0.30419257164E+04  0.30419257164E+04  0.50400001928E-02 0. -1.
        1   -1    0    0  501    0  0.00000000000E+00  0.00000000000E+00 -0.90525621670E+03  0.90525621672E+03  0.50400001928E-02 0.  1.
    10030    2    1    2    0    0  0.00000000000E+00  0.00000000000E+00  0.21366694997E+04  0.39471819331E+04  0.33188685817E+04 0.  0.
        1    1    3    3  502    0 -0.29419647320E+03  0.40863758218E+03 -0.81220813452E+03  0.95562455610E+03  0.50400001928E-02 0.  1.
       -1    1    3    3    0  502  0.29419647320E+03 -0.40863758218E+03  0.29488776342E+04  0.29915573770E+04  0.50400001928E-02 0. -1.
</event>
<event>
 5   0  0.2666813E-07  0.2844275E+04  0.7818609E-02  0.8289653E-01
       -1   -1    0    0    0  501  0.00000000000E+00  0.00000000000E+00  0.14242771575E+04  0.14242771575E+04  0.50400001928E-02 0.  1.
        1   -1    0    0  501    0  0.00000000000E+00  0.00000000000E+00 -0.14200014100E+04  0.14200014100E+04  0.50400001928E-02 0. -1.
    10030    2    1    2    0    0  0.00000000000E+00  0.00000000000E+00  0.42757475148E+01  0.28442785675E+04  0.28442753537E+04 0.  0.
        1    1    3    3  502    0 -0.95267515018E+03 -0.32133181844E+03  0.10079379427E+04  0.14236512830E+04  0.50400001928E-02 0.  1.
       -1    1    3    3    0  502  0.95267515018E+03  0.32133181844E+03 -0.10036621952E+04  0.14206272845E+04  0.50400001928E-02 0. -1.
</event>
<event>
 5   0  0.1943459E-07  0.3345109E+04  0.7818609E-02  0.8151511E-01
        1   -1    0    0  501    0  0.00000000000E+00  0.00000000000E+00  0.15279813698E+04  0.15279813698E+04  0.50400001928E-02 0.  1.
       -1   -1    0    0    0  501  0.00000000000E+00  0.00000000000E+00 -0.18308066911E+04  0.18308066911E+04  0.50400001928E-02 0. -1.
    10030    2    1    2    0    0  0.00000000000E+00  0.00000000000E+00 -0.30282532127E+03  0.33587880609E+04  0.33451089763E+04 0.  0.
        2    1    3    3  502    0 -0.63418570854E+03  0.10960739007E+04 -0.12485239123E+04  0.17783085976E+04  0.25500000920E-02 0. -1.
       -2    1    3    3    0  502  0.63418570854E+03 -0.10960739007E+04  0.94569859106E+03  0.15804794633E+04  0.25500000920E-02 0.  1.
</event>
<event>
 5   0  0.3959190E-07  0.3908111E+04  0.7818609E-02  0.8023344E-01
       -2   -1    0    0    0  501  0.00000000000E+00  0.00000000000E+00  0.19785965840E+04  0.19785965840E+04  0.25500000920E-02 0.  1.
        2   -1    0    0  501    0  0.00000000000E+00  0.00000000000E+00 -0.19298186414E+04  0.19298186414E+04  0.25500000920E-02 0. -1.
    10030    2    1    2    0    0  0.00000000000E+00  0.00000000000E+00  0.48777942603E+02  0.39084152255E+04  0.39081108335E+04 0.  0.
        2    1    3    3  502    0 -0.11876506726E+04  0.56069089685E+03 -0.14225976519E+04  0.19361488789E+04  0.25500000920E-02 0. -1.
       -2    1    3    3    0  502  0.11876506726E+04 -0.56069089685E+03  0.14713755945E+04  0.19722663466E+04  0.25500000920E-02 0.  1.
</event>
<event>
 5   0  0.1876027E-07  0.2530106E+04  0.7818609E-02  0.8392338E-01
       -1   -1    0    0    0  501  0.00000000000E+00  0.00000000000E+00  0.72153040277E+03  0.72153040279E+03  0.50400001928E-02 0.  1.
        1   -1    0    0  501    0  0.00000000000E+00  0.00000000000E+00 -0.22180057198E+04  0.22180057198E+04  0.50400001928E-02 0. -1.
    10030    2    1    2    0    0  0.00000000000E+00  0.00000000000E+00 -0.14964753170E+04  0.29395361226E+04  0.25301055791E+04 0.  0.
        3    1    3    3  502    0 -0.11154179624E+04  0.59628546423E+03 -0.71873181191E+03  0.14547470616E+04  0.10100000352E+00 0.  1.
       -3    1    3    3    0  502  0.11154179624E+04 -0.59628546423E+03 -0.77774350511E+03  0.14847890610E+04  0.10100000352E+00 0. -1.
</event>
<event>
 5   0  0.1860500E-07  0.3843452E+04  0.7818609E-02  0.8036894E-01
       -1   -1    0    0    0  501  0.00000000000E+00  0.00000000000E+00  0.17244920334E+04  0.17244920334E+04  0.50400001928E-02 0. -1.
        1   -1    0    0  501    0  0.00000000000E+00  0.00000000000E+00 -0.21415182532E+04  0.21415182532E+04  0.50400001928E-02 0.  1.
    10030    2    1    2    0    0  0.00000000000E+00  0.00000000000E+00 -0.41702621988E+03  0.38660102866E+04  0.38434521811E+04 0.  0.
        5    1    3    3  502    0 -0.15472104707E+04 -0.98496593114E+03  0.36843067518E+03  0.18707702634E+04  0.46999998093E+01 0.  1.
       -5    1    3    3    0  502  0.15472104707E+04  0.98496593114E+03 -0.78545689507E+03  0.19952400232E+04  0.46999998093E+01 0. -1.
</event>
<event>
 5   0  0.1943459E-07  0.3924431E+04  0.7818609E-02  0.8019967E-01
       -1   -1    0    0    0  501  0.00000000000E+00  0.00000000000E+00  0.24944425834E+04  0.24944425834E+04  0.50400001928E-02 0. -1.
        1   -1    0    0  501    0  0.00000000000E+00  0.00000000000E+00 -0.15435471552E+04  0.15435471552E+04  0.50400001928E-02 0.  1.
    10030    2    1    2    0    0  0.00000000000E+00  0.00000000000E+00  0.95089542819E+03  0.40379897386E+04  0.39244310433E+04 0.  0.
        2    1    3    3  502    0  0.29067136500E+03 -0.17119976158E+04  0.14155960789E+04  0.22403878989E+04  0.25500000920E-02 0. -1.
       -2    1    3    3    0  502 -0.29067136500E+03  0.17119976158E+04 -0.46470065072E+03  0.17976018396E+04  0.25500000920E-02 0.  1.
</event>
<event>
 5   0  0.3959190E-07  0.3817644E+04  0.7818609E-02  0.8042379E-01
       -2   -1    0    0    0  501  0.00000000000E+00  0.00000000000E+00  0.23788394367E+04  0.23788394367E+04  0.25500000920E-02 0. -1.
        2   -1    0    0  501    0  0.00000000000E+00  0.00000000000E+00 -0.15316717223E+04  0.15316717223E+04  0.25500000920E-02 0.  1.
    10030    2    1    2    0    0  0.00000000000E+00  0.00000000000E+00  0.84716771438E+03  0.39105111590E+04  0.38176438268E+04 0.  0.
        2    1    3    3  502    0  0.93352565443E+02  0.12054864967E+04 -0.10894007621E+04  0.16274846898E+04  0.25500000920E-02 0.  1.
       -2    1    3    3    0  502 -0.93352565443E+02 -0.12054864967E+04  0.19365684765E+04  0.22830264692E+04  0.25500000920E-02 0. -1.
</event>
<event>
 5   0  0.3959190E-07  0.3208764E+04  0.7818609E-02  0.8186506E-01
        2   -1    0    0  501    0  0.00000000000E+00  0.00000000000E+00  0.16506627553E+04  0.16506627553E+04  0.25500000920E-02 0.  1.
       -2   -1    0    0    0  501  0.00000000000E+00  0.00000000000E+00 -0.15593989320E+04  0.15593989320E+04  0.25500000920E-02 0. -1.
    10030    2    1    2    0    0  0.00000000000E+00  0.00000000000E+00  0.91263823281E+02  0.32100616873E+04  0.32087640846E+04 0.  0.
        2    1    3    3  502    0  0.47449440248E+03 -0.14647570784E+04  0.49679488448E+03  0.16178576557E+04  0.25500000920E-02 0.  1.
       -2    1    3    3    0  502 -0.47449440248E+03  0.14647570784E+04 -0.40553106120E+03  0.15922040316E+04  0.25500000920E-02 0. -1.
</event>
<event>
 5   0  0.6095665E-07  0.3852181E+04  0.7818609E-02  0.8035049E-01
       -2   -1    0    0    0  501  0.00000000000E+00  0.00000000000E+00  0.26821047869E+04  0.26821047869E+04  0.25500000920E-02 0.  1.
        2   -1    0    0  501    0  0.00000000000E+00  0.00000000000E+00 -0.13831766937E+04  0.13831766937E+04  0.25500000920E-02 0. -1.
    10030    2    1    2    0    0  0.00000000000E+00  0.00000000000E+00  0.12989280932E+04  0.40652814806E+04  0.38521811127E+04 0.  0.
        4    1    3    3  502    0  0.11291130600E+04  0.10107664701E+04  0.19040422337E+04  0.24335002773E+04  0.12699999809E+01 0.  1.
       -4    1    3    3    0  502 -0.11291130600E+04 -0.10107664701E+04 -0.60511414046E+03  0.16317812032E+04  0.12699999809E+01 0. -1.
</event>
<event>
 5   0  0.1860500E-07  0.3377049E+04  0.7818609E-02  0.8143562E-01
       -1   -1    0    0    0  501  0.00000000000E+00  0.00000000000E+00  0.91988016795E+03  0.91988016797E+03  0.50400001928E-02 0. -1.
        1   -1    0    0  501    0  0.00000000000E+00  0.00000000000E+00 -0.30994422303E+04  0.30994422303E+04  0.50400001928E-02 0.  1.
    10030    2    1    2    0    0  0.00000000000E+00  0.00000000000E+00 -0.21795620623E+04  0.40193223982E+04  0.33770492678E+04 0.  0.
        4    1    3    3  502    0 -0.88318989374E+03  0.11307303248E+04 -0.30220931525E+02  0.14350924616E+04  0.12699999809E+01 0. -1.
       -4    1    3    3    0  502  0.88318989374E+03 -0.11307303248E+04 -0.21493411308E+04  0.25842299366E+04  0.12699999809E+01 0.  1.
</event>
<event>
 5   0  0.3959190E-07  0.3812651E+04  0.7818609E-02  0.8043445E-01
       -2   -1    0    0    0  501  0.00000000000E+00  0.00000000000E+00  0.21582060744E+04  0.21582060744E+04  0.25500000920E-02 0. -1.
        2   -1    0    0  501    0  0.00000000000E+00  0.00000000000E+00 -0.16838418204E+04  0.16838418204E+04  0.25500000920E-02 0.  1.
    10030    2    1    2    0    0  0.00000000000E+00  0.00000000000E+00  0.47436425399E+03  0.38420478947E+04  0.38126513845E+04 0.  0.
        2    1    3    3  502    0 -0.16025323858E+04  0.10256768484E+04  0.11814172753E+03  0.19063264444E+04  0.25500000920E-02 0.  1.
       -2    1    3    3    0  502  0.16025323858E+04 -0.10256768484E+04  0.35622252645E+03  0.19357214503E+04  0.25500000920E-02 0. -1.
</event>
<event>
 5   0  0.6095665E-07  0.3867514E+04  0.7818609E-02  0.8031820E-01
       -2   -1    0    0    0  501  0.00000000000E+00  0.00000000000E+00  0.23226821749E+04  0.23226821749E+04  0.25500000920E-02 0.  1.
        2   -1    0    0  501    0  0.00000000000E+00  0.00000000000E+00 -0.16099563080E+04  0.16099563080E+04  0.25500000920E-02 0. -1.
    10030    2    1    2    0    0  0.00000000000E+00  0.00000000000E+00  0.71272586697E+03  0.39326384829E+04  0.38675143537E+04 0.  0.
        4    1    3    3  502    0  0.56171179467E+03 -0.18273496356E+04  0.60449970271E+02  0.19126898971E+04  0.12699999809E+01 0.  1.
       -4    1    3    3    0  502 -0.56171179467E+03  0.18273496356E+04  0.65227589669E+03  0.20199485858E+04  0.12699999809E+01 0. -1.
</event>
<event>
 5   0  0.5872444E-07  0.3238041E+04  0.7818609E-02  0.8178842E-01
       -2   -1    0    0    0  501  0.00000000000E+00  0.00000000000E+00  0.18928682473E+04  0.18928682473E+04  0.25500000920E-02 0. -1.
        2   -1    0    0  501    0  0.00000000000E+00  0.00000000000E+00 -0.13847915801E+04  0.13847915801E+04  0.25500000920E-02 0.  1.
    10030    2    1    2    0    0  0.00000000000E+00  0.00000000000E+00  0.50807666719E+03  0.32776598274E+04  0.32380413902E+04 0.  0.
        3    1    3    3  502    0  0.23041055474E+03 -0.12292627099E+04  0.12947482505E+04  0.18001524590E+04  0.10100000352E+00 0. -1.
       -3    1    3    3    0  502 -0.23041055474E+03  0.12292627099E+04 -0.78667158326E+03  0.14775073684E+04  0.10100000352E+00 0.  1.
</event>
<event>
 5   0  0.5735179E-07  0.3894719E+04  0.7818609E-02  0.8026128E-01
        2   -1    0    0  501    0  0.00000000000E+00  0.00000000000E+00  0.22882682698E+04  0.22882682698E+04  0.25500000920E-02 0. -1.
       -2   -1    0    0    0  501  0.00000000000E+00  0.00000000000E+00 -0.16572399497E+04  0.16572399497E+04  0.25500000920E-02 0.  1.
    10030    2    1    2    0    0  0.00000000000E+00  0.00000000000E+00  0.63102832014E+03  0.39455082195E+04  0.38947192928E+04 0.  0.
        5    1    3    3  502    0 -0.28768641821E+02 -0.11498244902E+03 -0.16535766758E+04  0.16578258386E+04  0.46999998093E+01 0.  1.
       -5    1    3    3    0  502  0.28768641821E+02  0.11498244902E+03  0.22846049960E+04  0.22876823809E+04  0.46999998093E+01 0. -1.
</event>
<event>
 5   0  0.5872444E-07  0.3937668E+04  0.7818609E-02  0.8017240E-01
       -2   -1    0    0    0  501  0.00000000000E+00  0.00000000000E+00  0.19389767547E+04  0.19389767547E+04  0.25500000920E-02 0.  1.
        2   -1    0    0  501    0  0.00000000000E+00  0.00000000000E+00 -0.19991514523E+04  0.19991514523E+04  0.25500000920E-02 0. -1.
    10030    2    1    2    0    0  0.00000000000E+00  0.00000000000E+00 -0.60174697567E+02  0.39381282070E+04  0.39376684447E+04 0.  0.
        3    1    3    3  502    0  0.26493951223E+03 -0.15876270949E+04 -0.11640431097E+04  0.19863909759E+04  0.10100000352E+00 0. -1.
       -3    1    3    3    0  502 -0.26493951223E+03  0.15876270949E+04  0.11038684122E+04  0.19517372311E+04  0.10100000352E+00 0.  1.
</event>
<event>
 5   0  0.1860500E-07  0.2797839E+04  0.7818609E-02  0.8303940E-01
        1   -1    0    0  501    0  0.00000000000E+00  0.00000000000E+00  0.13951187695E+04  0.13951187695E+04  0.50400001928E-02 0.  1.
       -1   -1    0    0    0  501  0.00000000000E+00  0.00000000000E+00 -0.14027306597E+04  0.14027306597E+04  0.50400001928E-02 0. -1.
    10030    2    1    2    0    0  0.00000000000E+00  0.00000000000E+00 -0.76118901792E+01  0.27978494292E+04  0.27978390746E+04 0.  0.
        5    1    3    3  502    0 -0.12493102617E+04  0.24285058559E+03  0.57688652170E+03  0.13973448700E+04  0.46999998093E+01 0.  1.
       -5    1    3    3    0  502  0.12493102617E+04 -0.24285058559E+03 -0.58449841188E+03  0.14005045592E+04  0.46999998093E+01 0. -1.
</event>
<event>
 5   0  0.5735179E-07  0.3831423E+04  0.7818609E-02  0.8039445E-01
        2   -1    0    0  501    0  0.00000000000E+00  0.00000000000E+00  0.17004130693E+04  0.17004130693E+04  0.25500000920E-02 0.  1.
       -2   -1    0    0    0  501  0.00000000000E+00  0.00000000000E+00 -0.21582705570E+04  0.21582705570E+04  0.25500000920E-02 0. -1.
    10030    2    1    2    0    0  0.00000000000E+00  0.00000000000E+00 -0.45785748775E+03  0.38586836263E+04  0.38314234755E+04 0.  0.
        5    1    3    3  502    0  0.17856565466E+04  0.69354970134E+03 -0.21011748228E+03  0.19271097367E+04  0.46999998093E+01 0.  1.
       -5    1    3    3    0  502 -0.17856565466E+04 -0.69354970134E+03 -0.24774000547E+03  0.19315738896E+04  0.46999998093E+01 0. -1.
</event>
<event>
 5   0  0.6095665E-07  0.3895710E+04  0.7818609E-02  0.8025922E-01
       -2   -1    0    0    0  501  0.00000000000E+00  0.00000000000E+00  0.21777494114E+04  0.21777494114E+04  0.25500000920E-02 0. -1.
        2   -1    0    0  501    0  0.00000000000E+00  0.00000000000E+00 -0.17422289952E+04  0.17422289952E+04  0.25500000920E-02 0.  1.
    10030    2    1    2    0    0  0.00000000000E+00  0.00000000000E+00  0.43552041623E+03  0.39199784067E+04  0.38957095215E+04 0.  0.
        4    1    3    3  502    0  0.93397781052E+03 -0.15421517728E+04  0.95963873905E+03  0.20424139550E+04  0.12699999809E+01 0. -1.
       -4    1    3    3    0  502 -0.93397781052E+03  0.15421517728E+04 -0.52411832282E+03  0.18775644517E+04  0.12699999809E+01 0.  1.
</event>
<event>
 5   0  0.1860500E-07  0.3583261E+04  0.7818609E-02  0.8094337E-01
        1   -1    0    0  501    0  0.00000000000E+00  0.00000000000E+00  0.11361093469E+04  0.11361093469E+04  0.50400001928E-02 0.  1.
       -1   -1    0    0    0  501  0.00000000000E+00  0.00000000000E+00 -0.28253795358E+04  0.28253795358E+04  0.50400001928E-02 0. -1.
    10030    2    1    2    0    0  0.00000000000E+00  0.00000000000E+00 -0.16892701889E+04  0.39614888827E+04  0.35832611399E+04 0.  0.
        4    1    3    3  502    0 -0.16292877403E+04  0.74353112032E+03 -0.78912109990E+03  0.19570719943E+04  0.12699999809E+01 0. -1.
       -4    1    3    3    0  502  0.16292877403E+04 -0.74353112032E+03 -0.90014908896E+03  0.20044168885E+04  0.12699999809E+01 0.  1.
</event>
<event>
 5   0  0.5872444E-07  0.3646747E+04  0.7818609E-02  0.8079867E-01
       -2   -1    0    0    0  501  0.00000000000E+00  0.00000000000E+00  0.15237424443E+04  0.15237424443E+04  0.25500000920E-02 0. -1.
        2   -1    0    0  501    0  0.00000000000E+00  0.00000000000E+00 -0.21819245191E+04  0.21819245191E+04  0.25500000920E-02 0.  1.
    10030    2    1    2    0    0  0.00000000000E+00  0.00000000000E+00 -0.65818207478E+03  0.37056669634E+04  0.36467470437E+04 0.  0.
        3    1    3    3  502    0  0.43203065665E+03 -0.13513889355E+04 -0.14929293426E+04  0.20595486339E+04  0.10100000352E+00 0. -1.
       -3    1    3    3    0  502 -0.43203065665E+03  0.13513889355E+04  0.83474726781E+03  0.16461183295E+04  0.10100000352E+00 0.  1.
</event>
<event>
 5   0  0.1860500E-07  0.3917015E+04  0.7818609E-02  0.8021500E-01
       -1   -1    0    0    0  501  0.00000000000E+00  0.00000000000E+00  0.15874829535E+04  0.15874829536E+04  0.50400001928E-02 0.  1.
        1   -1    0    0  501    0  0.00000000000E+00  0.00000000000E+00 -0.24162469700E+04  0.24162469700E+04  0.50400001928E-02 0. -1.
    10030    2    1    2    0    0  0.00000000000E+00  0.00000000000E+00 -0.82876401642E+03  0.40037299235E+04  0.39170146165E+04 0.  0.
        5    1    3    3  502    0 -0.13810149184E+04 -0.13442190350E+04 -0.77081633764E+03  0.20756461488E+04  0.46999998093E+01 0.  1.
       -5    1    3    3    0  502  0.13810149184E+04  0.13442190350E+04 -0.57947678787E+02  0.19280837747E+04  0.46999998093E+01 0. -1.
</event>
<event>
 5   0  0.1876027E-07  0.2591885E+04  0.7818609E-02  0.8370963E-01
        1   -1    0    0  501    0  0.00000000000E+00  0.00000000000E+00  0.10469678074E+04  0.10469678074E+04  0.50400001928E-02 0.  1.
       -1   -1    0    0    0  501  0.00000000000E+00  0.00000000000E+00 -0.16041244079E+04  0.16041244079E+04  0.50400001928E-02 0. -1.
    10030    2    1    2    0    0  0.00000000000E+00  0.00000000000E+00 -0.55715660053E+03  0.26510922153E+04  0.25918847306E+04 0.  0.
        3    1    3    3  502    0 -0.45113741067E+03  0.65377916981E+03 -0.13259392050E+04  0.15456606845E+04  0.10100000352E+00 0. -1.
       -3    1    3    3    0  502  0.45113741067E+03 -0.65377916981E+03  0.76878260445E+03  0.11054315308E+04  0.10100000352E+00 0.  1.
</event>
<event>
 5   0  0.1860500E-07  0.3894822E+04  0.7818609E-02  0.8026107E-01
        3   -1    0    0  501    0  0.00000000000E+00  0.00000000000E+00  0.20756234062E+04  0.20756234087E+04  0.10100000352E+00 0.  1.
       -3   -1    0    0    0  501  0.00000000000E+00  0.00000000000E+00 -0.18271182321E+04  0.18271182349E+04  0.10100000352E+00 0. -1.
    10030    2    1    2    0    0  0.00000000000E+00  0.00000000000E+00  0.24850517411E+03  0.39027416436E+04  0.38948218849E+04 0.  0.
        4    1    3    3  502    0 -0.74418511464E+03 -0.15139225523E+04  0.10991825787E+04  0.20134490144E+04  0.12699999809E+01 0.  1.
       -4    1    3    3    0  502  0.74418511464E+03  0.15139225523E+04 -0.85067740462E+03  0.18892926292E+04  0.12699999809E+01 0. -1.
</event>
<event>
 5   0  0.3959190E-07  0.4121629E+04  0.7818609E-02  0.7980450E-01
       -2   -1    0    0    0  501  0.00000000000E+00  0.00000000000E+00  0.20328404059E+04  0.20328404059E+04  0.25500000920E-02 0.  1.
        2   -1    0    0  501    0  0.00000000000E+00  0.00000000000E+00 -0.20891730503E+04  0.20891730503E+04  0.25500000920E-02 0. -1.
    10030    2    1    2    0    0  0.00000000000E+00  0.00000000000E+00 -0.56332644421E+02  0.41220134562E+04  0.41216285090E+04 0.  0.
        2    1    3    3  502    0  0.11778435131E+04 -0.28341000339E+03  0.16391182977E+04  0.20382211276E+04  0.25500000920E-02 0.  1.
       -2    1    3    3    0  502 -0.11778435131E+04  0.28341000339E+03 -0.16954509421E+04  0.20837923285E+04  0.25500000920E-02 0. -1.
</event>
<event>
 5   0  0.5735179E-07  0.3936687E+04  0.7818609E-02  0.8017442E-01
       -2   -1    0    0    0  501  0.00000000000E+00  0.00000000000E+00  0.23968710630E+04  0.23968710630E+04  0.25500000920E-02 0. -1.
        2   -1    0    0  501    0  0.00000000000E+00  0.00000000000E+00 -0.16164305222E+04  0.16164305222E+04  0.25500000920E-02 0.  1.
    10030    2    1    2    0    0  0.00000000000E+00  0.00000000000E+00  0.78044054083E+03  0.40133015852E+04  0.39366867003E+04 0.  0.
        5    1    3    3  502    0 -0.17278304595E+04  0.91334013615E+03  0.15164627909E+03  0.19602568671E+04  0.46999998093E+01 0.  1.
       -5    1    3    3    0  502  0.17278304595E+04 -0.91334013615E+03  0.62879426174E+03  0.20530447181E+04  0.46999998093E+01 0. -1.
</event>
<event>
 5   0  0.1860500E-07  0.3867852E+04  0.7818609E-02  0.8031749E-01
       -1   -1    0    0    0  501  0.00000000000E+00  0.00000000000E+00  0.13124899037E+04  0.13124899037E+04  0.50400001928E-02 0. -1.
        1   -1    0    0  501    0  0.00000000000E+00  0.00000000000E+00 -0.28495986274E+04  0.28495986274E+04  0.50400001928E-02 0.  1.
    10030    2    1    2    0    0  0.00000000000E+00  0.00000000000E+00 -0.15371087237E+04  0.41620885311E+04  0.38678518214E+04 0.  0.
        4    1    3    3  502    0  0.97615292813E+03  0.11312383188E+04  0.55264744384E+03  0.15931087481E+04  0.12699999809E+01 0. -1.
       -4    1    3    3    0  502 -0.97615292813E+03 -0.11312383188E+04 -0.20897561676E+04  0.25689797831E+04  0.12699999809E+01 0.  1.
</event>
<event>
 5   0  0.3959190E-07  0.3889626E+04  0.7818609E-02  0.8027190E-01
        2   -1    0    0  501    0  0.00000000000E+00  0.00000000000E+00  0.19017157192E+04  0.19017157192E+04  0.25500000920E-02 0. -1.
       -2   -1    0    0    0  501  0.00000000000E+00  0.00000000000E+00 -0.19888874208E+04  0.19888874208E+04  0.25500000920E-02 0.  1.
    10030    2    1    2    0    0  0.00000000000E+00  0.00000000000E+00 -0.87171701572E+02  0.38906031399E+04  0.38896264457E+04 0.  0.
        2    1    3    3  502    0  0.77084365333E+03 -0.15300887596E+04 -0.96410326270E+03  0.19659264104E+04  0.25500000920E-02 0.  1.
       -2    1    3    3    0  502 -0.77084365333E+03  0.15300887596E+04  0.87693156113E+03  0.19246767295E+04  0.25500000920E-02 0. -1.
</event>
<event>
 5   0  0.1860500E-07  0.3894661E+04  0.7818609E-02  0.8026141E-01
        1   -1    0    0  501    0  0.00000000000E+00  0.00000000000E+00  0.25715679141E+04  0.25715679142E+04  0.50400001928E-02 0.  1.
       -1   -1    0    0    0  501  0.00000000000E+00  0.00000000000E+00 -0.14746240314E+04  0.14746240314E+04  0.50400001928E-02 0. -1.
    10030    2    1    2    0    0  0.00000000000E+00  0.00000000000E+00  0.10969438828E+04  0.40461919455E+04  0.38946608810E+04 0.  0.
        5    1    3    3  502    0 -0.32756538334E+03 -0.12781533772E+04 -0.93941558824E+03  0.16197218506E+04  0.46999998093E+01 0. -1.
       -5    1    3    3    0  502  0.32756538334E+03  0.12781533772E+04  0.20363594710E+04  0.24264700949E+04  0.46999998093E+01 0.  1.
</event>
<event>
 5   0  0.3959190E-07  0.3981559E+04  0.7818609E-02  0.8008277E-01
        2   -1    0    0  501    0  0.00000000000E+00  0.00000000000E+00  0.13343529166E+04  0.13343529166E+04  0.25500000920E-02 0.  1.
       -2   -1    0    0    0  501  0.00000000000E+00  0.00000000000E+00 -0.29701307788E+04  0.29701307788E+04  0.25500000920E-02 0. -1.
    10030    2    1    2    0    0  0.00000000000E+00  0.00000000000E+00 -0.16357778622E+04  0.43044836955E+04  0.39815588241E+04 0.  0.
        2    1    3    3  502    0  0.12351118407E+04 -0.15388363819E+04 -0.53250175004E+03  0.20437898089E+04  0.25500000920E-02 0.  1.
       -2    1    3    3    0  502 -0.12351118407E+04  0.15388363819E+04 -0.11032761122E+04  0.22606938866E+04  0.25500000920E-02 0. -1.
</event>
<event>
 5   0  0.5872444E-07  0.3363191E+04  0.7818609E-02  0.8147000E-01
       -2   -1    0    0    0  501  0.00000000000E+00  0.00000000000E+00  0.14815909384E+04  0.14815909384E+04  0.25500000920E-02 0.  1.
        2   -1    0    0  501    0  0.00000000000E+00  0.00000000000E+00 -0.19085994378E+04  0.19085994378E+04  0.25500000920E-02 0. -1.
    10030    2    1    2    0    0  0.00000000000E+00  0.00000000000E+00 -0.42700849942E+03  0.33901903762E+04  0.33631911227E+04 0.  0.
        3    1    3    3  502    0 -0.69682380103E+03 -0.22450279718E+03  0.13125176763E+04  0.15028864150E+04  0.10100000352E+00 0.  1.
       -3    1    3    3    0  502  0.69682380103E+03  0.22450279718E+03 -0.17395261757E+04  0.18873039612E+04  0.10100000352E+00 0. -1.
</event>
<event>
 5   0  0.1943459E-07  0.4258656E+04  0.7818609E-02  0.7954307E-01
       -1   -1    0    0    0  501  0.00000000000E+00  0.00000000000E+00  0.17754453173E+04  0.17754453173E+04  0.50400001928E-02 0. -1.
        1   -1    0    0  501    0  0.00000000000E+00  0.00000000000E+00 -0.25537468794E+04  0.25537468794E+04  0.50400001928E-02 0.  1.
    10030    2    1    2    0    0  0.00000000000E+00  0.00000000000E+00 -0.77830156213E+03  0.43291921967E+04  0.42586560972E+04 0.  0.
        2    1    3    3  502    0  0.95737314984E+03 -0.60342540940E+03  0.14444291557E+04  0.18349553561E+04  0.25500000920E-02 0. -1.
       -2    1    3    3    0  502 -0.95737314984E+03  0.60342540940E+03 -0.22227307179E+04  0.24942368406E+04  0.25500000920E-02 0.  1.
</event>
<event>
 5   0  0.1860500E-07  0.3908358E+04  0.7818609E-02  0.8023293E-01
       -1   -1    0    0    0  501  0.00000000000E+00  0.00000000000E+00  0.18836445741E+04  0.18836445742E+04  0.50400001928E-02 0.  1.
        1   -1    0    0  501    0  0.00000000000E+00  0.00000000000E+00 -0.20273547342E+04  0.20273547342E+04  0.50400001928E-02 0. -1.
    10030    2    1    2    0    0  0.00000000000E+00  0.00000000000E+00 -0.14371016007E+03  0.39109993084E+04  0.39083580926E+04 0.  0.
        5    1    3    3  502    0 -0.64038617208E+03  0.16843437513E+04 -0.82846480029E+03  0.19833013732E+04  0.46999998093E+01 0. -1.
       -5    1    3    3    0  502  0.64038617208E+03 -0.16843437513E+04  0.68475464022E+03  0.19276979351E+04  0.46999998093E+01 0.  1.
</event>
<event>
 5   0  0.5872444E-07  0.3699914E+04  0.7818609E-02  0.8067981E-01
        2   -1    0    0  501    0  0.00000000000E+00  0.00000000000E+00  0.23576990942E+04  0.23576990942E+04  0.25500000920E-02 0. -1.
       -2   -1    0    0    0  501  0.00000000000E+00  0.00000000000E+00 -0.14515597195E+04  0.14515597195E+04  0.25500000920E-02 0.  1.
    10030    2    1    2    0    0  0.00000000000E+00  0.00000000000E+00  0.90613937477E+03  0.38092588137E+04  0.36999140724E+04 0.  0.
        3    1    3    3  502    0 -0.10894825600E+04  0.14915149666E+04  0.55982538830E+03  0.19300242537E+04  0.10100000352E+00 0.  1.
       -3    1    3    3    0  502  0.10894825600E+04 -0.14915149666E+04  0.34631398647E+03  0.18792345600E+04  0.10100000352E+00 0. -1.
</event>
<event>
 5   0  0.5872444E-07  0.3892719E+04  0.7818609E-02  0.8026545E-01
        2   -1    0    0  501    0  0.00000000000E+00  0.00000000000E+00  0.15285984864E+04  0.15285984864E+04  0.25500000920E-02 0.  1.
       -2   -1    0    0    0  501  0.00000000000E+00  0.00000000000E+00 -0.24782928616E+04  0.24782928616E+04  0.25500000920E-02 0. -1.
    10030    2    1    2    0    0  0.00000000000E+00  0.00000000000E+00 -0.94969437518E+03  0.40068913480E+04  0.38927186989E+04 0.  0.
        3    1    3    3  502    0  0.98399770675E+02  0.18116112436E+02  0.15259496571E+04  0.15292262994E+04  0.10100000352E+00 0.  1.
       -3    1    3    3    0  502 -0.98399770675E+02 -0.18116112436E+02 -0.24756440323E+04  0.24776650486E+04  0.10100000352E+00 0. -1.
</event>
<event>
 5   0  0.3959190E-07  0.3303903E+04  0.7818609E-02  0.8161903E-01
        2   -1    0    0  501    0  0.00000000000E+00  0.00000000000E+00  0.15735725894E+04  0.15735725894E+04  0.25500000920E-02 0.  1.
       -2   -1    0    0    0  501  0.00000000000E+00  0.00000000000E+00 -0.17342341224E+04  0.17342341224E+04  0.25500000920E-02 0. -1.
    10030    2    1    2    0    0  0.00000000000E+00  0.00000000000E+00 -0.16066153298E+03  0.33078067118E+04  0.33039027096E+04 0.  0.
        2    1    3    3  502    0 -0.63595994202E+03 -0.11832391832E+04  0.88228507759E+03  0.16071487083E+04  0.25500000920E-02 0.  1.
       -2    1    3    3    0  502  0.63595994202E+03  0.11832391832E+04 -0.10429466106E+04  0.17006580035E+04  0.25500000920E-02 0. -1.
</event>
<event>
 5   0  0.2666813E-07  0.2990484E+04  0.7818609E-02  0.8246454E-01
       -1   -1    0    0    0  501  0.00000000000E+00  0.00000000000E+00  0.11686711014E+04  0.11686711014E+04  0.50400001928E-02 0.  1.
        1   -1    0    0  501    0  0.00000000000E+00  0.00000000000E+00 -0.19130689369E+04  0.19130689369E+04  0.50400001928E-02 0. -1.
    10030    2    1    2    0    0  0.00000000000E+00  0.00000000000E+00 -0.74439783547E+03  0.30817400383E+04  0.29904838281E+04 0.  0.
        1    1    3    3  502    0  0.94942378384E+03  0.73427766577E+02  0.81578090175E+03  0.12539121333E+04  0.50400001928E-02 0.  1.
       -1    1    3    3    0  502 -0.94942378384E+03 -0.73427766577E+02 -0.15601787372E+04  0.18278279050E+04  0.50400001928E-02 0. -1.
</event>
<event>
 5   0  0.6095665E-07  0.3925840E+04  0.7818609E-02  0.8019676E-01
        2   -1    0    0  501    0  0.00000000000E+00  0.00000000000E+00  0.12782051997E+04  0.12782051997E+04  0.25500000920E-02 0. -1.
       -2   -1    0    0    0  501  0.00000000000E+00  0.00000000000E+00 -0.30144259723E+04  0.30144259723E+04  0.25500000920E-02 0.  1.
    10030    2    1    2    0    0  0.00000000000E+00  0.00000000000E+00 -0.17362207726E+04  0.42926311720E+04  0.39258400130E+04 0.  0.
        4    1    3    3  502    0 -0.11888263178E+04  0.22768845991E+03  0.82154969879E+03  0.14629065483E+04  0.12699999809E+01 0. -1.
       -4    1    3    3    0  502  0.11888263178E+04 -0.22768845991E+03 -0.25577704714E+04  0.28297246237E+04  0.12699999809E+01 0.  1.
</event>
<event>
 5   0  0.5805753E-07  0.2474907E+04  0.7818609E-02  0.8411980E-01
        2   -1    0    0  501    0  0.00000000000E+00  0.00000000000E+00  0.11247774798E+04  0.11247774798E+04  0.25500000920E-02 0.  1.
       -2   -1    0    0    0  501  0.00000000000E+00  0.00000000000E+00 -0.13614166523E+04  0.13614166523E+04  0.25500000920E-02 0. -1.
    10030    2    1    2    0    0  0.00000000000E+00  0.00000000000E+00 -0.23663917246E+03  0.24861941321E+04  0.24749066982E+04 0.  0.
        1    1    3    3  502    0 -0.28779091416E+03  0.93098548611E+02  0.10870695325E+04  0.11283665710E+04  0.50400001928E-02 0.  1.
       -1    1    3    3    0  502  0.28779091416E+03 -0.93098548611E+02 -0.13237087050E+04  0.13578275611E+04  0.50400001928E-02 0. -1.
</event>
<event>
 5   0  0.5735179E-07  0.3982881E+04  0.7818609E-02  0.8008009E-01
       -2   -1    0    0    0  501  0.00000000000E+00  0.00000000000E+00  0.15186641317E+04  0.15186641317E+04  0.25500000920E-02 0. -1.
        2   -1    0    0  501    0  0.00000000000E+00  0.00000000000E+00 -0.26113975391E+04  0.26113975391E+04  0.25500000920E-02 0.  1.
    10030    2    1    2    0    0  0.00000000000E+00  0.00000000000E+00 -0.10927334074E+04  0.41300616708E+04  0.39828812567E+04 0.  0.
        5    1    3    3  502    0  0.18043636978E+04  0.60770737631E+03  0.58966316142E+02  0.19048715772E+04  0.46999998093E+01 0. -1.
       -5    1    3    3    0  502 -0.18043636978E+04 -0.60770737631E+03 -0.11516997235E+04  0.22251900935E+04  0.46999998093E+01 0.  1.
</event>
<event>
 5   0  0.1860500E-07  0.3295512E+04  0.7818609E-02  0.8164038E-01
       -1   -1    0    0    0  501  0.00000000000E+00  0.00000000000E+00  0.14455132823E+04  0.14455132823E+04  0.50400001928E-02 0.  1.
        1   -1    0    0  501    0  0.00000000000E+00  0.00000000000E+00 -0.18782951621E+04  0.18782951621E+04  0.50400001928E-02 0. -1.
    10030    2    1    2    0    0  0.00000000000E+00  0.00000000000E+00 -0.43278187979E+03  0.33238084444E+04  0.32955124669E+04 0.  0.
        4    1    3    3  502    0 -0.83718856642E+03 -0.12956807297E+04 -0.80052324202E+03  0.17379621178E+04  0.12699999809E+01 0.  1.
       -4    1    3    3    0  502  0.83718856642E+03  0.12956807297E+04  0.36774136223E+03  0.15858463266E+04  0.12699999809E+01 0. -1.
</event>
<event>
 5   0  0.6095665E-07  0.3948338E+04  0.7818609E-02  0.8015050E-01
        2   -1    0    0  501    0  0.00000000000E+00  0.00000000000E+00  0.25016119425E+04  0.25016119425E+04  0.25500000920E-02 0.  1.
       -2   -1    0    0    0  501  0.00000000000E+00  0.00000000000E+00 -0.15579325693E+04  0.15579325693E+04  0.25500000920E-02 0. -1.
    10030    2    1    2    0    0  0.00000000000E+00  0.00000000000E+00  0.94367937320E+03  0.40595445118E+04  0.39483377368E+04 0.  0.
        4    1    3    3  502    0 -0.17834713804E+04 -0.82674510950E+03  0.65879474119E+03  0.20732317200E+04  0.12699999809E+01 0. -1.
       -4    1    3    3    0  502  0.17834713804E+04  0.82674510950E+03  0.28488463201E+03  0.19863127919E+04  0.12699999809E+01 0.  1.
</event>
<event>
 5   0  0.1860500E-07  0.3817516E+04  0.7818609E-02  0.8042406E-01
       -1   -1    0    0    0  501  0.00000000000E+00  0.00000000000E+00  0.25889082238E+04  0.25889082238E+04  0.50400001928E-02 0. -1.
        1   -1    0    0  501    0  0.00000000000E+00  0.00000000000E+00 -0.14072949655E+04  0.14072949655E+04  0.50400001928E-02 0.  1.
    10030    2    1    2    0    0  0.00000000000E+00  0.00000000000E+00  0.11816132582E+04  0.39962031893E+04  0.38175162132E+04 0.  0.
        5    1    3    3  502    0  0.15184137192E+04  0.10790512937E+04  0.10267153970E+04  0.21269928334E+04  0.46999998093E+01 0. -1.
       -5    1    3    3    0  502 -0.15184137192E+04 -0.10790512937E+04  0.15489786120E+03  0.18692103559E+04  0.46999998093E+01 0.  1.
</event>
<event>
 5   0  0.1989903E-07  0.2437002E+04  0.7818609E-02  0.8425779E-01
       -1   -1    0    0    0  501  0.00000000000E+00  0.00000000000E+00  0.90397772319E+03  0.90397772320E+03  0.50400001928E-02 0. -1.
        1   -1    0    0  501    0  0.00000000000E+00  0.00000000000E+00 -0.16424565383E+04  0.16424565383E+04  0.50400001928E-02 0.  1.
    10030    2    1    2    0    0  0.00000000000E+00  0.00000000000E+00 -0.73847881510E+03  0.25464342615E+04  0.24370015363E+04 0.  0.
        4    1    3    3  502    0  0.13240619302E+03 -0.32457358426E+03 -0.15886315494E+04  0.16268470193E+04  0.12699999809E+01 0.  1.
       -4    1    3    3    0  502 -0.13240619302E+03  0.32457358426E+03  0.85015273428E+03  0.91958724222E+03  0.12699999809E+01 0. -1.
</event>
<event>
 5   0  0.5805753E-07  0.3953477E+04  0.7818609E-02  0.8013998E-01
        2   -1    0    0  501    0  0.00000000000E+00  0.00000000000E+00  0.15492638591E+04  0.15492638591E+04  0.25500000920E-02 0.  1.
       -2   -1    0    0    0  501  0.00000000000E+00  0.00000000000E+00 -0.25221620349E+04  0.25221620349E+04  0.25500000920E-02 0. -1.
    10030    2    1    2    0    0  0.00000000000E+00  0.00000000000E+00 -0.97289817575E+03  0.40714258940E+04  0.39534766915E+04 0.  0.
        1    1    3    3  502    0  0.49685473180E+03 -0.20505055194E+03  0.14725610752E+04  0.15675925726E+04  0.50400001928E-02 0.  1.
       -1    1    3    3    0  502 -0.49685473180E+03  0.20505055194E+03 -0.24454592509E+04  0.25038333214E+04  0.50400001928E-02 0. -1.
</event>
<event>
 5   0  0.1860500E-07  0.3883568E+04  0.7818609E-02  0.8028455E-01
        1   -1    0    0  501    0  0.00000000000E+00  0.00000000000E+00  0.12435520813E+04  0.12435520813E+04  0.50400001928E-02 0.  1.
       -1   -1    0    0    0  501  0.00000000000E+00  0.00000000000E+00 -0.30320602359E+04  0.30320602359E+04  0.50400001928E-02 0. -1.
    10030    2    1    2    0    0  0.00000000000E+00  0.00000000000E+00 -0.17885081546E+04  0.42756123172E+04  0.38835678528E+04 0.  0.
        4    1    3    3  502    0  0.14971991410E+04 -0.49657737608E+03 -0.21409689142E+04  0.26593126673E+04  0.12699999809E+01 0. -1.
       -4    1    3    3    0  502 -0.14971991410E+04  0.49657737608E+03  0.35246075961E+03  0.16162996498E+04  0.12699999809E+01 0.  1.
</event>
<event>
 5   0  0.2666813E-07  0.3519379E+04  0.7818609E-02  0.8109213E-01
       -1   -1    0    0    0  501  0.00000000000E+00  0.00000000000E+00  0.30063390294E+04  0.30063390294E+04  0.50400001928E-02 0.  1.
        1   -1    0    0  501    0  0.00000000000E+00  0.00000000000E+00 -0.10299928376E+04  0.10299928376E+04  0.50400001928E-02 0. -1.
    10030    2    1    2    0    0  0.00000000000E+00  0.00000000000E+00  0.19763461918E+04  0.40363318671E+04  0.35193793020E+04 0.  0.
        1    1    3    3  502    0 -0.61934050360E+03  0.15182558709E+04  0.25575807189E+03  0.16595468479E+04  0.50400001928E-02 0. -1.
       -1    1    3    3    0  502  0.61934050360E+03 -0.15182558709E+04  0.17205881199E+04  0.23767850192E+04  0.50400001928E-02 0.  1.
</event>
<event>
 5   0  0.1943459E-07  0.3876727E+04  0.7818609E-02  0.8029887E-01
       -1   -1    0    0    0  501  0.00000000000E+00  0.00000000000E+00  0.22136857488E+04  0.22136857488E+04  0.50400001928E-02 0.  1.
        1   -1    0    0  501    0  0.00000000000E+00  0.00000000000E+00 -0.16972842691E+04  0.16972842691E+04  0.50400001928E-02 0. -1.
    10030    2    1    2    0    0  0.00000000000E+00  0.00000000000E+00  0.51640147963E+03  0.39109700179E+04  0.38767274850E+04 0.  0.
        2    1    3    3  502    0 -0.51046478653E+03  0.16821594504E+04 -0.56572564009E+03  0.18466944021E+04  0.25500000920E-02 0. -1.
       -2    1    3    3    0  502  0.51046478653E+03 -0.16821594504E+04  0.10821271197E+04  0.20642756158E+04  0.25500000920E-02 0.  1.
</event>
<event>
 5   0  0.5805753E-07  0.3902459E+04  0.7818609E-02  0.8024518E-01
       -2   -1    0    0    0  501  0.00000000000E+00  0.00000000000E+00  0.15726556613E+04  0.15726556613E+04  0.25500000920E-02 0. -1.
        2   -1    0    0  501    0  0.00000000000E+00  0.00000000000E+00 -0.24209343089E+04  0.24209343089E+04  0.25500000920E-02 0.  1.
    10030    2    1    2    0    0  0.00000000000E+00  0.00000000000E+00 -0.84827864764E+03  0.39935899702E+04  0.39024587360E+04 0.  0.
        1    1    3    3  502    0  0.65991963144E+03  0.93513931320E+03 -0.20413327028E+04  0.23403031125E+04  0.50400001928E-02 0.  1.
       -1    1    3    3    0  502 -0.65991963144E+03 -0.93513931320E+03  0.11930540552E+04  0.16532868576E+04  0.50400001928E-02 0. -1.
</event>
<event>
 5   0  0.1860500E-07  0.2648966E+04  0.7818609E-02  0.8351756E-01
       -3   -1    0    0    0  501  0.00000000000E+00  0.00000000000E+00  0.84630123108E+03  0.84630123711E+03  0.10100000352E+00 0.  1.
        3   -1    0    0  501    0  0.00000000000E+00  0.00000000000E+00 -0.20728495998E+04  0.20728496023E+04  0.10100000352E+00 0. -1.
    10030    2    1    2    0    0  0.00000000000E+00  0.00000000000E+00 -0.12265483687E+04  0.29191508394E+04  0.26489659723E+04 0.  0.
        4    1    3    3  502    0  0.17023542060E+03 -0.12981175088E+04 -0.83412591793E+03  0.15523713554E+04  0.12699999809E+01 0. -1.
       -4    1    3    3    0  502 -0.17023542060E+03  0.12981175088E+04 -0.39242245079E+03  0.13667794840E+04  0.12699999809E+01 0.  1.
</event>
<event>
 5   0  0.5805753E-07  0.3875357E+04  0.7818609E-02  0.8030174E-01
       -2   -1    0    0    0  501  0.00000000000E+00  0.00000000000E+00  0.18099801194E+04  0.18099801194E+04  0.25500000920E-02 0.  1.
        2   -1    0    0  501    0  0.00000000000E+00  0.00000000000E+00 -0.20743863922E+04  0.20743863922E+04  0.25500000920E-02 0. -1.
    10030    2    1    2    0    0  0.00000000000E+00  0.00000000000E+00 -0.26440627275E+03  0.38843665116E+04  0.38753570828E+04 0.  0.
        1    1    3    3  502    0  0.85405059578E+03  0.16880672663E+04 -0.55225330892E+03  0.19707757947E+04  0.50400001928E-02 0. -1.
       -1    1    3    3    0  502 -0.85405059578E+03 -0.16880672663E+04  0.28784703616E+03  0.19135907169E+04  0.50400001928E-02 0.  1.
</event>
<event>
 5   0  0.3959190E-07  0.4439057E+04  0.7818609E-02  0.7921394E-01
        2   -1    0    0  501    0  0.00000000000E+00  0.00000000000E+00  0.20880595565E+04  0.20880595565E+04  0.25500000920E-02 0.  1.
       -2   -1    0    0    0  501  0.00000000000E+00  0.00000000000E+00 -0.23592750345E+04  0.23592750345E+04  0.25500000920E-02 0. -1.
    10030    2    1    2    0    0  0.00000000000E+00  0.00000000000E+00 -0.27121547796E+03  0.44473345910E+04  0.44390570090E+04 0.  0.
        2    1    3    3  502    0  0.15562743263E+04 -0.15805577079E+04 -0.57011878491E+02  0.22188742192E+04  0.25500000920E-02 0.  1.
       -2    1    3    3    0  502 -0.15562743263E+04  0.15805577079E+04 -0.21420359947E+03  0.22284603718E+04  0.25500000920E-02 0. -1.
</event>
<event>
 5   0  0.6095665E-07  0.2390963E+04  0.7818609E-02  0.8442895E-01
       -2   -1    0    0    0  501  0.00000000000E+00  0.00000000000E+00  0.66895649078E+03  0.66895649079E+03  0.25500000920E-02 0. -1.
        2   -1    0    0  501    0  0.00000000000E+00  0.00000000000E+00 -0.21364253182E+04  0.21364253182E+04  0.25500000920E-02 0.  1.
    10030    2    1    2    0    0  0.00000000000E+00  0.00000000000E+00 -0.14674688275E+04  0.28053818090E+04  0.23909626377E+04 0.  0.
        4    1    3    3  502    0  0.29915108280E+03  0.71642091326E+03 -0.18003810352E+04  0.19606437157E+04  0.12699999809E+01 0.  1.
       -4    1    3    3    0  502 -0.29915108280E+03 -0.71642091326E+03  0.33291220773E+03  0.84473809329E+03  0.12699999809E+01 0. -1.
</event>
<event>
 5   0  0.5805753E-07  0.2509946E+04  0.7818609E-02  0.8399451E-01
       -2   -1    0    0    0  501  0.00000000000E+00  0.00000000000E+00  0.23301602917E+04  0.23301602917E+04  0.25500000920E-02 0.  1.
        2   -1    0    0  501    0  0.00000000000E+00  0.00000000000E+00 -0.67590068270E+03  0.67590068270E+03  0.25500000920E-02 0. -1.
    10030    2    1    2    0    0  0.00000000000E+00  0.00000000000E+00  0.16542596090E+04  0.30060609744E+04  0.25099457619E+04 0.  0.
        1    1    3    3  502    0 -0.96759430915E+03 -0.78228974510E+03  0.63128061447E+03  0.13952530977E+04  0.50400001928E-02 0.  1.
       -1    1    3    3    0  502  0.96759430915E+03  0.78228974510E+03  0.10229789945E+04  0.16108078767E+04  0.50400001928E-02 0. -1.
</event>
<event>
 5   0  0.2666813E-07  0.2574145E+04  0.7818609E-02  0.8377037E-01
        1   -1    0    0  501    0  0.00000000000E+00  0.00000000000E+00  0.17845620542E+04  0.17845620542E+04  0.50400001928E-02 0.  1.
       -1   -1    0    0    0  501  0.00000000000E+00  0.00000000000E+00 -0.92827045405E+03  0.92827045406E+03  0.50400001928E-02 0. -1.
    10030    2    1    2    0    0  0.00000000000E+00  0.00000000000E+00  0.85629160011E+03  0.27128325082E+04  0.25741454724E+04 0.  0.
        1    1    3    3  502    0  0.29234090879E+03 -0.91302627321E+03 -0.47688603011E+03  0.10707476212E+04  0.50400001928E-02 0. -1.
       -1    1    3    3    0  502 -0.29234090879E+03  0.91302627321E+03  0.13331776302E+04  0.16420848870E+04  0.50400001928E-02 0.  1.
</event>
<event>
 5   0  0.1860500E-07  0.3832127E+04  0.7818609E-02  0.8039295E-01
        3   -1    0    0  501    0  0.00000000000E+00  0.00000000000E+00  0.14697572429E+04  0.14697572464E+04  0.10100000352E+00 0.  1.
       -3   -1    0    0    0  501  0.00000000000E+00  0.00000000000E+00 -0.24978948183E+04  0.24978948204E+04  0.10100000352E+00 0. -1.
    10030    2    1    2    0    0  0.00000000000E+00  0.00000000000E+00 -0.10281375754E+04  0.39676520667E+04  0.38321268310E+04 0.  0.
        2    1    3    3  502    0 -0.57442247341E+02  0.49283732058E+03 -0.24302254675E+04  0.24803596633E+04  0.25500000920E-02 0. -1.
       -2    1    3    3    0  502  0.57442247341E+02 -0.49283732058E+03  0.14020878921E+04  0.14872924035E+04  0.25500000920E-02 0.  1.
</event>
<event>
 5   0  0.1860500E-07  0.3821651E+04  0.7818609E-02  0.8041524E-01
        3   -1    0    0  501    0  0.00000000000E+00  0.00000000000E+00  0.14239510421E+04  0.14239510457E+04  0.10100000352E+00 0. -1.
       -3   -1    0    0    0  501  0.00000000000E+00  0.00000000000E+00 -0.25641715647E+04  0.25641715667E+04  0.10100000352E+00 0.  1.
    10030    2    1    2    0    0  0.00000000000E+00  0.00000000000E+00 -0.11402205227E+04  0.39881226124E+04  0.38216513618E+04 0.  0.
        5    1    3    3  502    0 -0.11016470879E+04  0.15535670169E+04 -0.40832173204E+03  0.19478053057E+04  0.46999998093E+01 0.  1.
       -5    1    3    3    0  502  0.11016470879E+04 -0.15535670169E+04 -0.73189879063E+03  0.20403173067E+04  0.46999998093E+01 0. -1.
</event>
<event>
 5   0  0.3959190E-07  0.3378249E+04  0.7818609E-02  0.8143265E-01
        2   -1    0    0  501    0  0.00000000000E+00  0.00000000000E+00  0.23039207263E+04  0.23039207263E+04  0.25500000920E-02 0.  1.
       -2   -1    0    0    0  501  0.00000000000E+00  0.00000000000E+00 -0.12383854214E+04  0.12383854214E+04  0.25500000920E-02 0. -1.
    10030    2    1    2    0    0  0.00000000000E+00  0.00000000000E+00  0.10655353048E+04  0.35423061477E+04  0.33782491558E+04 0.  0.
        2    1    3    3  502    0 -0.74967659502E+03 -0.27922889967E+03 -0.10271462626E+04  0.13019267338E+04  0.25500000920E-02 0. -1.
       -2    1    3    3    0  502  0.74967659502E+03  0.27922889967E+03  0.20926815674E+04  0.22403794139E+04  0.25500000920E-02 0.  1.
</event>
<event>
 5   0  0.3959190E-07  0.3905744E+04  0.7818609E-02  0.8023836E-01
        2   -1    0    0  501    0  0.00000000000E+00  0.00000000000E+00  0.12401094833E+04  0.12401094833E+04  0.25500000920E-02 0. -1.
       -2   -1    0    0    0  501  0.00000000000E+00  0.00000000000E+00 -0.30753002999E+04  0.30753002999E+04  0.25500000920E-02 0.  1.
    10030    2    1    2    0    0  0.00000000000E+00  0.00000000000E+00 -0.18351908165E+04  0.43154097832E+04  0.39057440090E+04 0.  0.
        2    1    3    3  502    0  0.15645788694E+04  0.11678814062E+04 -0.87000758152E+03  0.21374674757E+04  0.25500000920E-02 0.  1.
       -2    1    3    3    0  502 -0.15645788694E+04 -0.11678814062E+04 -0.96518323502E+03  0.21779423075E+04  0.25500000920E-02 0. -1.
</event>
<event>
 5   0  0.5735179E-07  0.3924376E+04  0.7818609E-02  0.8019978E-01
       -2   -1    0    0    0  501  0.00000000000E+00  0.00000000000E+00  0.16823588368E+04  0.16823588368E+04  0.25500000920E-02 0.  1.
        2   -1    0    0  501    0  0.00000000000E+00  0.00000000000E+00 -0.22885619471E+04  0.22885619471E+04  0.25500000920E-02 0. -1.
    10030    2    1    2    0    0  0.00000000000E+00  0.00000000000E+00 -0.60620311031E+03  0.39709207838E+04  0.39243763403E+04 0.  0.
        5    1    3    3  502    0  0.20844093467E+03 -0.13191990714E+04  0.11514548169E+04  0.17634069577E+04  0.46999998093E+01 0.  1.
       -5    1    3    3    0  502 -0.20844093467E+03  0.13191990714E+04 -0.17576579272E+04  0.22075138261E+04  0.46999998093E+01 0. -1.
</event>
<event>
 5   0  0.5735179E-07  0.3543545E+04  0.7818609E-02  0.8103547E-01
        2   -1    0    0  501    0  0.00000000000E+00  0.00000000000E+00  0.20362953753E+04  0.20362953753E+04  0.25500000920E-02 0. -1.
       -2   -1    0    0    0  501  0.00000000000E+00  0.00000000000E+00 -0.15416123890E+04  0.15416123890E+04  0.25500000920E-02 0.  1.
    10030    2    1    2    0    0  0.00000000000E+00  0.00000000000E+00  0.49468298630E+03  0.35779077643E+04  0.35435452181E+04 0.  0.
        5    1    3    3  502    0  0.73556362516E+03 -0.10838061048E+04  0.14520023457E+04  0.19555107828E+04  0.46999998093E+01 0.  1.
       -5    1    3    3    0  502 -0.73556362516E+03  0.10838061048E+04 -0.95731935945E+03  0.16223969815E+04  0.46999998093E+01 0. -1.
</event>
<event>
 5   0  0.6095665E-07  0.3471650E+04  0.7818609E-02  0.8120542E-01
       -2   -1    0    0    0  501  0.00000000000E+00  0.00000000000E+00  0.15815306584E+04  0.15815306584E+04  0.25500000920E-02 0.  1.
        2   -1    0    0  501    0  0.00000000000E+00  0.00000000000E+00 -0.19051724985E+04  0.19051724985E+04  0.25500000920E-02 0. -1.
    10030    2    1    2    0    0  0.00000000000E+00  0.00000000000E+00 -0.32364184018E+03  0.34867031569E+04  0.34716501644E+04 0.  0.
        4    1    3    3  502    0  0.10087349467E+04 -0.13667024916E+04  0.19703102253E+03  0.17100423181E+04  0.12699999809E+01 0. -1.
       -4    1    3    3    0  502 -0.10087349467E+04  0.13667024916E+04 -0.52067286271E+03  0.17766608388E+04  0.12699999809E+01 0.  1.
</event>
<event>
 5   0  0.1860500E-07  0.3013502E+04  0.7818609E-02  0.8239886E-01
       -1   -1    0    0    0  501  0.00000000000E+00  0.00000000000E+00  0.11433114449E+04  0.11433114449E+04  0.50400001928E-02 0. -1.
        1   -1    0    0  501    0  0.00000000000E+00  0.00000000000E+00 -0.19857216247E+04  0.19857216247E+04  0.50400001928E-02 0.  1.
    10030    2    1    2    0    0  0.00000000000E+00  0.00000000000E+00 -0.84241017979E+03  0.31290330695E+04  0.30135017902E+04 0.  0.
        4    1    3    3  502    0  0.63595319254E+03 -0.90770762653E+03 -0.14810866968E+04  0.18498618907E+04  0.12699999809E+01 0. -1.
       -4    1    3    3    0  502 -0.63595319254E+03  0.90770762653E+03  0.63867651705E+03  0.12791711788E+04  0.12699999809E+01 0.  1.
</event>
<event>
 5   0  0.1860500E-07  0.3936675E+04  0.7818609E-02  0.8017445E-01
       -1   -1    0    0    0  501  0.00000000000E+00  0.00000000000E+00  0.15615790210E+04  0.15615790210E+04  0.50400001928E-02 0. -1.
        1   -1    0    0  501    0  0.00000000000E+00  0.00000000000E+00 -0.24810475357E+04  0.24810475357E+04  0.50400001928E-02 0.  1.
    10030    2    1    2    0    0  0.00000000000E+00  0.00000000000E+00 -0.91946851475E+03  0.40426265567E+04  0.39366746281E+04 0.  0.
        5    1    3    3  502    0  0.88823358413E+02  0.71689938341E+03  0.14205269987E+04  0.15936603650E+04  0.46999998093E+01 0. -1.
       -5    1    3    3    0  502 -0.88823358413E+02 -0.71689938341E+03 -0.23399955135E+04  0.24489661917E+04  0.46999998093E+01 0.  1.
</event>
<event>
 5   0  0.2666813E-07  0.3931386E+04  0.7818609E-02  0.8018533E-01
        1   -1    0    0  501    0  0.00000000000E+00  0.00000000000E+00  0.26591533261E+04  0.26591533261E+04  0.50400001928E-02 0.  1.
       -1   -1    0    0    0  501  0.00000000000E+00  0.00000000000E+00 -0.14530745611E+04  0.14530745611E+04  0.50400001928E-02 0. -1.
    10030    2    1    2    0    0  0.00000000000E+00  0.00000000000E+00  0.12060787650E+04  0.41122278872E+04  0.39313855330E+04 0.  0.
        1    1    3    3  502    0  0.14587294409E+04 -0.80015799788E+03 -0.49191974928E+03  0.17349724618E+04  0.50400001928E-02 0.  1.
       -1    1    3    3    0  502 -0.14587294409E+04  0.80015799788E+03  0.16979985142E+04  0.23772554254E+04  0.50400001928E-02 0. -1.
</event>
<event>
 5   0  0.1876027E-07  0.3977155E+04  0.7818609E-02  0.8009171E-01
        1   -1    0    0  501    0  0.00000000000E+00  0.00000000000E+00  0.15322578639E+04  0.15322578639E+04  0.50400001928E-02 0.  1.
       -1   -1    0    0    0  501  0.00000000000E+00  0.00000000000E+00 -0.25807934373E+04  0.25807934373E+04  0.50400001928E-02 0. -1.
    10030    2    1    2    0    0  0.00000000000E+00  0.00000000000E+00 -0.10485355733E+04  0.41130513012E+04  0.39771552846E+04 0.  0.
        3    1    3    3  502    0  0.46468788304E+03 -0.15223210365E+04  0.70854029540E+03  0.17422472635E+04  0.10100000352E+00 0.  1.
       -3    1    3    3    0  502 -0.46468788304E+03  0.15223210365E+04 -0.17570758687E+04  0.23708040377E+04  0.10100000352E+00 0. -1.
</event>
<event>
 5   0  0.5805753E-07  0.3951914E+04  0.7818609E-02  0.8014318E-01
        2   -1    0    0  501    0  0.00000000000E+00  0.00000000000E+00  0.27309699935E+04  0.27309699935E+04  0.25500000920E-02 0. -1.
       -2   -1    0    0    0  501  0.00000000000E+00  0.00000000000E+00 -0.14296771551E+04  0.14296771551E+04  0.25500000920E-02 0.  1.
    10030    2    1    2    0    0  0.00000000000E+00  0.00000000000E+00  0.13012928384E+04  0.41606471486E+04  0.39519136685E+04 0.  0.
        1    1    3    3  502    0 -0.97380744319E+03  0.89540291521E+03 -0.89465208384E+03  0.15970127326E+04  0.50400001928E-02 0.  1.
       -1    1    3    3    0  502  0.97380744319E+03 -0.89540291521E+03  0.21959449223E+04  0.25636344160E+04  0.50400001928E-02 0. -1.
</event>
<event>
 5   0  0.6095665E-07  0.3663968E+04  0.7818609E-02  0.8075994E-01
        2   -1    0    0  501    0  0.00000000000E+00  0.00000000000E+00  0.13950092326E+04  0.13950092326E+04  0.25500000920E-02 0. -1.
       -2   -1    0    0    0  501  0.00000000000E+00  0.00000000000E+00 -0.24058369272E+04  0.24058369272E+04  0.25500000920E-02 0.  1.
    10030    2    1    2    0    0  0.00000000000E+00  0.00000000000E+00 -0.10108276946E+04  0.38008461598E+04  0.36639676448E+04 0.  0.
        4    1    3    3  502    0 -0.82300620414E+03 -0.12821038070E+04  0.54995899182E+03  0.16197487119E+04  0.12699999809E+01 0. -1.
       -4    1    3    3    0  502  0.82300620414E+03  0.12821038070E+04 -0.15607866864E+04  0.21810974479E+04  0.12699999809E+01 0.  1.
</event>
<event>
 5   0  0.1860500E-07  0.3573438E+04  0.7818609E-02  0.8096603E-01
       -3   -1    0    0    0  501  0.00000000000E+00  0.00000000000E+00  0.17886513340E+04  0.17886513369E+04  0.10100000352E+00 0. -1.
        3   -1    0    0  501    0  0.00000000000E+00  0.00000000000E+00 -0.17847883228E+04  0.17847883256E+04  0.10100000352E+00 0.  1.
    10030    2    1    2    0    0  0.00000000000E+00  0.00000000000E+00  0.38630112711E+01  0.35734396625E+04  0.35734375745E+04 0.  0.
        1    1    3    3  502    0 -0.67142304021E+03  0.47576673591E+03 -0.15840079882E+04  0.17850053761E+04  0.50400001928E-02 0.  1.
       -1    1    3    3    0  502  0.67142304021E+03 -0.47576673591E+03  0.15878709995E+04  0.17884342864E+04  0.50400001928E-02 0. -1.
</event>
<event>
 5   0  0.3959190E-07  0.3588457E+04  0.7818609E-02  0.8093141E-01
       -2   -1    0    0    0  501  0.00000000000E+00  0.00000000000E+00  0.17963156170E+04  0.17963156170E+04  0.25500000920E-02 0. -1.
        2   -1    0    0  501    0  0.00000000000E+00  0.00000000000E+00 -0.17921440626E+04  0.17921440626E+04  0.25500000920E-02 0.  1.
    10030    2    1    2    0    0  0.00000000000E+00  0.00000000000E+00  0.41715543887E+01  0.35884596797E+04  0.35884572550E+04 0.  0.
        2    1    3    3  502    0  0.17558916424E+04  0.30532419333E+03 -0.20498450732E+03  0.17939891224E+04  0.25500000920E-02 0. -1.
       -2    1    3    3    0  502 -0.17558916424E+04 -0.30532419333E+03  0.20915606171E+03  0.17944705573E+04  0.25500000920E-02 0.  1.
</event>
<event>
 5   0  0.1943459E-07  0.3543068E+04  0.7818609E-02  0.8103659E-01
       -1   -1    0    0    0  501  0.00000000000E+00  0.00000000000E+00  0.15033168686E+04  0.15033168686E+04  0.50400001928E-02 0. -1.
        1   -1    0    0  501    0  0.00000000000E+00  0.00000000000E+00 -0.20876051960E+04  0.20876051960E+04  0.50400001928E-02 0.  1.
    10030    2    1    2    0    0  0.00000000000E+00  0.00000000000E+00 -0.58428832737E+03  0.35909220646E+04  0.35430676573E+04 0.  0.
        2    1    3    3  502    0 -0.14441656263E+04 -0.44058736834E+03 -0.12312663653E+04  0.19482680636E+04  0.25500000920E-02 0.  1.
       -2    1    3    3    0  502  0.14441656263E+04  0.44058736834E+03  0.64697803797E+03  0.16426540010E+04  0.25500000920E-02 0. -1.
</event>
<event>
 5   0  0.5872444E-07  0.3919632E+04  0.7818609E-02  0.8020958E-01
        2   -1    0    0  501    0  0.00000000000E+00  0.00000000000E+00  0.26635824542E+04  0.26635824542E+04  0.25500000920E-02 0. -1.
       -2   -1    0    0    0  501  0.00000000000E+00  0.00000000000E+00 -0.14419972904E+04  0.14419972904E+04  0.25500000920E-02 0.  1.
    10030    2    1    2    0    0  0.00000000000E+00  0.00000000000E+00  0.12215851638E+04  0.41055797445E+04  0.39196319631E+04 0.  0.
        3    1    3    3  502    0 -0.49947152191E+03 -0.48311811701E+03  0.25302115853E+04  0.26238989296E+04  0.10100000352E+00 0. -1.
       -3    1    3    3    0  502  0.49947152191E+03  0.48311811701E+03 -0.13086264215E+04  0.14816808150E+04  0.10100000352E+00 0.  1.
</event>
<event>
 5   0  0.5872444E-07  0.3976850E+04  0.7818609E-02  0.8009233E-01
        2   -1    0    0  501    0  0.00000000000E+00  0.00000000000E+00  0.13764861938E+04  0.13764861939E+04  0.25500000920E-02 0. -1.
       -2   -1    0    0    0  501  0.00000000000E+00  0.00000000000E+00 -0.28724105721E+04  0.28724105721E+04  0.25500000920E-02 0.  1.
    10030    2    1    2    0    0  0.00000000000E+00  0.00000000000E+00 -0.14959243782E+04  0.42488967659E+04  0.39768497561E+04 0.  0.
        3    1    3    3  502    0  0.71672238889E+03  0.94441366378E+03  0.95755425087E+03  0.15239810710E+04  0.10100000352E+00 0. -1.
       -3    1    3    3    0  502 -0.71672238889E+03 -0.94441366378E+03 -0.24534786291E+04  0.27249156950E+04  0.10100000352E+00 0.  1.
</event>
<event>
 5   0  0.5872444E-07  0.3753728E+04  0.7818609E-02  0.8056158E-01
        2   -1    0    0  501    0  0.00000000000E+00  0.00000000000E+00  0.18327557347E+04  0.18327557347E+04  0.25500000920E-02 0. -1.
       -2   -1    0    0    0  501  0.00000000000E+00  0.00000000000E+00 -0.19220334056E+04  0.19220334056E+04  0.25500000920E-02 0.  1.
    10030    2    1    2    0    0  0.00000000000E+00  0.00000000000E+00 -0.89277670889E+02  0.37547891403E+04  0.37537276121E+04 0.  0.
        3    1    3    3  502    0  0.53151779730E+03 -0.14972109603E+04  0.95487640009E+03  0.18536290832E+04  0.10100000352E+00 0. -1.
       -3    1    3    3    0  502 -0.53151779730E+03  0.14972109603E+04 -0.10441540710E+04  0.19011600571E+04  0.10100000352E+00 0.  1.
</event>
<event>
 5   0  0.5872444E-07  0.3987458E+04  0.7818609E-02  0.8007082E-01
       -2   -1    0    0    0  501  0.00000000000E+00  0.00000000000E+00  0.21595339268E+04  0.21595339268E+04  0.25500000920E-02 0.  1.
        2   -1    0    0  501    0  0.00000000000E+00  0.00000000000E+00 -0.18406540080E+04  0.18406540080E+04  0.25500000920E-02 0. -1.
    10030    2    1    2    0    0  0.00000000000E+00  0.00000000000E+00  0.31887991887E+03  0.40001879348E+04  0.39874577253E+04 0.  0.
        3    1    3    3  502    0 -0.13201776758E+04 -0.11075760687E+04 -0.84643802866E+03  0.19199091620E+04  0.10100000352E+00 0. -1.
       -3    1    3    3    0  502  0.13201776758E+04  0.11075760687E+04  0.11653179475E+04  0.20802787728E+04  0.10100000352E+00 0.  1.
</event>
<event>
 5   0  0.3959190E-07  0.3850801E+04  0.7818609E-02  0.8035340E-01
       -2   -1    0    0    0  501  0.00000000000E+00  0.00000000000E+00  0.20724556953E+04  0.20724556953E+04  0.25500000920E-02 0. -1.
        2   -1    0    0  501    0  0.00000000000E+00  0.00000000000E+00 -0.17887800683E+04  0.17887800683E+04  0.25500000920E-02 0.  1.
    10030    2    1    2    0    0  0.00000000000E+00  0.00000000000E+00  0.28367562701E+03  0.38612357636E+04  0.38508011843E+04 0.  0.
        2    1    3    3  502    0  0.12702105316E+04  0.13780060472E+04  0.58443163262E+03  0.19631341763E+04  0.25500000920E-02 0. -1.
       -2    1    3    3    0  502 -0.12702105316E+04 -0.13780060472E+04 -0.30075600561E+03  0.18981015873E+04  0.25500000920E-02 0.  1.
</event>
<event>
 5   0  0.5735179E-07  0.3639507E+04  0.7818609E-02  0.8081502E-01
       -2   -1    0    0    0  501  0.00000000000E+00  0.00000000000E+00  0.20441932259E+04  0.20441932259E+04  0.25500000920E-02 0. -1.
        2   -1    0    0  501    0  0.00000000000E+00  0.00000000000E+00 -0.16199558435E+04  0.16199558435E+04  0.25500000920E-02 0.  1.
    10030    2    1    2    0    0  0.00000000000E+00  0.00000000000E+00  0.42423738243E+03  0.36641490694E+04  0.36395069785E+04 0.  0.
        5    1    3    3  502    0 -0.29932920294E+03 -0.74143102778E+03  0.18578617372E+04  0.20226196541E+04  0.46999998093E+01 0. -1.
       -5    1    3    3    0  502  0.29932920294E+03  0.74143102778E+03 -0.14336243548E+04  0.16415294153E+04  0.46999998093E+01 0.  1.
</event>
<event>
 5   0  0.3959190E-07  0.3954697E+04  0.7818609E-02  0.8013748E-01
        2   -1    0    0  501    0  0.00000000000E+00  0.00000000000E+00  0.23399510465E+04  0.23399510465E+04  0.25500000920E-02 0. -1.
       -2   -1    0    0    0  501  0.00000000000E+00  0.00000000000E+00 -0.16709354118E+04  0.16709354118E+04  0.25500000920E-02 0.  1.
    10030    2    1    2    0    0  0.00000000000E+00  0.00000000000E+00  0.66901563478E+03  0.40108864583E+04  0.39546969874E+04 0.  0.
        2    1    3    3  502    0 -0.74445192951E+03  0.15866979662E+04 -0.59397090210E+03  0.18505730312E+04  0.25500000920E-02 0.  1.
       -2    1    3    3    0  502  0.74445192951E+03 -0.15866979662E+04  0.12629865369E+04  0.21603134271E+04  0.25500000920E-02 0. -1.
</event>
<event>
 5   0  0.6095665E-07  0.3883116E+04  0.7818609E-02  0.8028550E-01
       -2   -1    0    0    0  501  0.00000000000E+00  0.00000000000E+00  0.21553779439E+04  0.21553779439E+04  0.25500000920E-02 0.  1.
        2   -1    0    0  501    0  0.00000000000E+00  0.00000000000E+00 -0.17489499455E+04  0.17489499455E+04  0.25500000920E-02 0. -1.
    10030    2    1    2    0    0  0.00000000000E+00  0.00000000000E+00  0.40642799838E+03  0.39043278893E+04  0.38831163451E+04 0.  0.
        4    1    3    3  502    0 -0.18530058481E+03 -0.17589345516E+04 -0.60207262878E+03  0.18683361921E+04  0.12699999809E+01 0.  1.
       -4    1    3    3    0  502  0.18530058481E+03  0.17589345516E+04  0.10085006272E+04  0.20359916973E+04  0.12699999809E+01 0. -1.
</event>
<event>
 5   0  0.6095665E-07  0.4098758E+04  0.7818609E-02  0.7984915E-01
       -2   -1    0    0    0  501  0.00000000000E+00  0.00000000000E+00  0.15116767350E+04  0.15116767350E+04  0.25500000920E-02 0. -1.
        2   -1    0    0  501    0  0.00000000000E+00  0.00000000000E+00 -0.27783416787E+04  0.27783416787E+04  0.25500000920E-02 0.  1.
    10030    2    1    2    0    0  0.00000000000E+00  0.00000000000E+00 -0.12666649437E+04  0.42900184137E+04  0.40987580937E+04 0.  0.
        4    1    3    3  502    0  0.19917876883E+04 -0.38282754860E+02 -0.11366773737E+04  0.22936261311E+04  0.12699999809E+01 0.  1.
       -4    1    3    3    0  502 -0.19917876883E+04  0.38282754860E+02 -0.12998756996E+03  0.19963922826E+04  0.12699999809E+01 0. -1.
</event>
<event>
 5   0  0.2666813E-07  0.3951188E+04  0.7818609E-02  0.8014467E-01
        1   -1    0    0  501    0  0.00000000000E+00  0.00000000000E+00  0.18851022593E+04  0.18851022593E+04  0.50400001928E-02 0. -1.
       -1   -1    0    0    0  501  0.00000000000E+00  0.00000000000E+00 -0.20704295055E+04  0.20704295055E+04  0.50400001928E-02 0.  1.
    10030    2    1    2    0    0  0.00000000000E+00  0.00000000000E+00 -0.18532724622E+03  0.39555317648E+04  0.39511878409E+04 0.  0.
        1    1    3    3  502    0  0.22519272565E+03 -0.17134144184E+04 -0.10510408158E+04  0.20226684180E+04  0.50400001928E-02 0.  1.
       -1    1    3    3    0  502 -0.22519272565E+03  0.17134144184E+04  0.86571356957E+03  0.19328633468E+04  0.50400001928E-02 0. -1.
</event>
<event>
 5   0  0.1860500E-07  0.3688628E+04  0.7818609E-02  0.8070487E-01
        1   -1    0    0  501    0  0.00000000000E+00  0.00000000000E+00  0.34497248834E+04  0.34497248834E+04  0.50400001928E-02 0.  1.
       -1   -1    0    0    0  501  0.00000000000E+00  0.00000000000E+00 -0.98601877875E+03  0.98601877876E+03  0.50400001928E-02 0. -1.
    10030    2    1    2    0    0  0.00000000000E+00  0.00000000000E+00  0.24637061047E+04  0.44357436622E+04  0.36886276671E+04 0.  0.
        5    1    3    3  502    0  0.11939344790E+03 -0.13371589729E+04  0.27525969017E+04  0.30625252175E+04  0.46999998093E+01 0.  1.
       -5    1    3    3    0  502 -0.11939344790E+03  0.13371589729E+04 -0.28889079707E+03  0.13732184447E+04  0.46999998093E+01 0. -1.
</event>
<event>
 5   0  0.5735179E-07  0.3939179E+04  0.7818609E-02  0.8016930E-01
        2   -1    0    0  501    0  0.00000000000E+00  0.00000000000E+00  0.29891850606E+04  0.29891850606E+04  0.25500000920E-02 0.  1.
       -2   -1    0    0    0  501  0.00000000000E+00  0.00000000000E+00 -0.12977729477E+04  0.12977729477E+04  0.25500000920E-02 0. -1.
    10030    2    1    2    0    0  0.00000000000E+00  0.00000000000E+00  0.16914121129E+04  0.42869580083E+04  0.39391793598E+04 0.  0.
        5    1    3    3  502    0  0.37129211800E+03  0.35435469583E+03  0.29151223103E+04  0.29599637263E+04  0.46999998093E+01 0.  1.
       -5    1    3    3    0  502 -0.37129211800E+03 -0.35435469583E+03 -0.12237101973E+04  0.13269942820E+04  0.46999998093E+01 0. -1.
</event>
<event>
 5   0  0.1860500E-07  0.2926681E+04  0.7818609E-02  0.8264983E-01
       -1   -1    0    0    0  501  0.00000000000E+00  0.00000000000E+00  0.11827086893E+04  0.11827086893E+04  0.50400001928E-02 0. -1.
        1   -1    0    0  501    0  0.00000000000E+00  0.00000000000E+00 -0.18105606822E+04  0.18105606822E+04  0.50400001928E-02 0.  1.
    10030    2    1    2    0    0  0.00000000000E+00  0.00000000000E+00 -0.62785199284E+03  0.29932693715E+04  0.29266812955E+04 0.  0.
        5    1    3    3  502    0 -0.92759325727E+03 -0.45423626379E+03  0.74628069277E+03  0.12742514652E+04  0.46999998093E+01 0. -1.
       -5    1    3    3    0  502  0.92759325727E+03  0.45423626379E+03 -0.13741326856E+04  0.17190179062E+04  0.46999998093E+01 0.  1.
</event>
<event>
 5   0  0.5805753E-07  0.3726229E+04  0.7818609E-02  0.8062174E-01
        2   -1    0    0  501    0  0.00000000000E+00  0.00000000000E+00  0.18142562899E+04  0.18142562899E+04  0.25500000920E-02 0. -1.
       -2   -1    0    0    0  501  0.00000000000E+00  0.00000000000E+00 -0.19132888278E+04  0.19132888278E+04  0.25500000920E-02 0.  1.
    10030    2    1    2    0    0  0.00000000000E+00  0.00000000000E+00 -0.99032537933E+02  0.37275451178E+04  0.37262293490E+04 0.  0.
        1    1    3    3  502    0  0.14794429325E+04  0.10630667638E+04 -0.43995391527E+03  0.18741456140E+04  0.50400001928E-02 0.  1.
       -1    1    3    3    0  502 -0.14794429325E+04 -0.10630667638E+04  0.34092137733E+03  0.18533995037E+04  0.50400001928E-02 0. -1.
</event>
<event>
 5   0  0.3959190E-07  0.3946327E+04  0.7818609E-02  0.8015462E-01
       -2   -1    0    0    0  501  0.00000000000E+00  0.00000000000E+00  0.19796446709E+04  0.19796446709E+04  0.25500000920E-02 0.  1.
        2   -1    0    0  501    0  0.00000000000E+00  0.00000000000E+00 -0.19667034998E+04  0.19667034998E+04  0.25500000920E-02 0. -1.
    10030    2    1    2    0    0  0.00000000000E+00  0.00000000000E+00  0.12941171129E+02  0.39463481708E+04  0.39463269519E+04 0.  0.
        2    1    3    3  502    0 -0.64804495284E+03 -0.15708999785E+04  0.10093144988E+04  0.19764626890E+04  0.25500000920E-02 0.  1.
       -2    1    3    3    0  502  0.64804495284E+03  0.15708999785E+04 -0.99637332768E+03  0.19698854818E+04  0.25500000920E-02 0. -1.
</event>
<event>
 5   0  0.1860500E-07  0.2536136E+04  0.7818609E-02  0.8390224E-01
       -1   -1    0    0    0  501  0.00000000000E+00  0.00000000000E+00  0.15849918817E+04  0.15849918817E+04  0.50400001928E-02 0.  1.
        1   -1    0    0  501    0  0.00000000000E+00  0.00000000000E+00 -0.10145138615E+04  0.10145138615E+04  0.50400001928E-02 0. -1.
    10030    2    1    2    0    0  0.00000000000E+00  0.00000000000E+00  0.57047802021E+03  0.25995057432E+04  0.25361358278E+04 0.  0.
        4    1    3    3  502    0 -0.74448694152E+02 -0.12483815347E+04  0.70246820464E+02  0.12525714722E+04  0.12699999809E+01 0. -1.
       -4    1    3    3    0  502  0.74448694152E+02  0.12483815347E+04  0.50023119974E+03  0.13469342710E+04  0.12699999809E+01 0.  1.
</event>
<event>
 5   0  0.1943459E-07  0.3931611E+04  0.7818609E-02  0.8018487E-01
        1   -1    0    0  501    0  0.00000000000E+00  0.00000000000E+00  0.28301171142E+04  0.28301171142E+04  0.50400001928E-02 0. -1.
       -1   -1    0    0    0  501  0.00000000000E+00  0.00000000000E+00 -0.13654527770E+04  0.13654527770E+04  0.50400001928E-02 0.  1.
    10030    2    1    2    0    0  0.00000000000E+00  0.00000000000E+00  0.14646643372E+04  0.41955698912E+04  0.39316110045E+04 0.  0.
        2    1    3    3  502    0 -0.54108386067E+03  0.41954780733E+03  0.26987627844E+04  0.27842616029E+04  0.25500000920E-02 0. -1.
       -2    1    3    3    0  502  0.54108386067E+03 -0.41954780733E+03 -0.12340984473E+04  0.14113082882E+04  0.25500000920E-02 0.  1.
</event>
<event>
 5   0  0.1943459E-07  0.3805355E+04  0.7818609E-02  0.8045007E-01
        1   -1    0    0  501    0  0.00000000000E+00  0.00000000000E+00  0.21389166666E+04  0.21389166666E+04  0.50400001928E-02 0.  1.
       -1   -1    0    0    0  501  0.00000000000E+00  0.00000000000E+00 -0.16925301375E+04  0.16925301375E+04  0.50400001928E-02 0. -1.
    10030    2    1    2    0    0  0.00000000000E+00  0.00000000000E+00  0.44638652913E+03  0.38314468041E+04  0.38053546062E+04 0.  0.
        2    1    3    3  502    0  0.10224765586E+04 -0.11023832098E+04 -0.95076619206E+03  0.17789500853E+04  0.25500000920E-02 0. -1.
       -2    1    3    3    0  502 -0.10224765586E+04  0.11023832098E+04  0.13971527212E+04  0.20524967187E+04  0.25500000920E-02 0.  1.
</event>
<event>
 5   0  0.3959190E-07  0.3929591E+04  0.7818609E-02  0.8018903E-01
       -2   -1    0    0    0  501  0.00000000000E+00  0.00000000000E+00  0.20655207114E+04  0.20655207114E+04  0.25500000920E-02 0.  1.
        2   -1    0    0  501    0  0.00000000000E+00  0.00000000000E+00 -0.18689825242E+04  0.18689825242E+04  0.25500000920E-02 0. -1.
    10030    2    1    2    0    0  0.00000000000E+00  0.00000000000E+00  0.19653818717E+03  0.39345032356E+04  0.39295913849E+04 0.  0.
        2    1    3    3  502    0 -0.19278050754E+04  0.27593587043E+03 -0.16253509299E+03  0.19542238024E+04  0.25500000920E-02 0.  1.
       -2    1    3    3    0  502  0.19278050754E+04 -0.27593587043E+03  0.35907328016E+03  0.19802794333E+04  0.25500000920E-02 0. -1.
</event>
<event>
 5   0  0.1860500E-07  0.3941182E+04  0.7818609E-02  0.8016518E-01
        1   -1    0    0  501    0  0.00000000000E+00  0.00000000000E+00  0.20840412619E+04  0.20840412619E+04  0.50400001928E-02 0. -1.
       -1   -1    0    0    0  501  0.00000000000E+00  0.00000000000E+00 -0.18633169564E+04  0.18633169564E+04  0.50400001928E-02 0.  1.
    10030    2    1    2    0    0  0.00000000000E+00  0.00000000000E+00  0.22072430551E+03  0.39473582184E+04  0.39411822700E+04 0.  0.
        4    1    3    3  502    0 -0.57043153004E+03  0.12608494776E+04  0.15154483525E+04  0.20522472701E+04  0.12699999809E+01 0. -1.
       -4    1    3    3    0  502  0.57043153004E+03 -0.12608494776E+04 -0.12947240470E+04  0.18951109483E+04  0.12699999809E+01 0.  1.
</event>
<event>
 5   0  0.1943459E-07  0.3857725E+04  0.7818609E-02  0.8033880E-01
        1   -1    0    0  501    0  0.00000000000E+00  0.00000000000E+00  0.13254039320E+04  0.13254039320E+04  0.50400001928E-02 0. -1.
       -1   -1    0    0    0  501  0.00000000000E+00  0.00000000000E+00 -0.28070764081E+04  0.28070764081E+04  0.50400001928E-02 0.  1.
    10030    2    1    2    0    0  0.00000000000E+00  0.00000000000E+00 -0.14816724761E+04  0.41324803401E+04  0.38577247743E+04 0.  0.
        2    1    3    3  502    0 -0.92672566158E+03  0.83327743736E+02  0.10691001171E+04  0.14172999065E+04  0.25500000920E-02 0. -1.
       -2    1    3    3    0  502  0.92672566158E+03 -0.83327743736E+02 -0.25507725931E+04  0.27151804335E+04  0.25500000920E-02 0.  1.
</event>
<event>
 5   0  0.1876027E-07  0.3920380E+04  0.7818609E-02  0.8020804E-01
        1   -1    0    0  501    0  0.00000000000E+00  0.00000000000E+00  0.27871357111E+04  0.27871357111E+04  0.50400001928E-02 0. -1.
       -1   -1    0    0    0  501  0.00000000000E+00  0.00000000000E+00 -0.13785997610E+04  0.13785997610E+04  0.50400001928E-02 0.  1.
    10030    2    1    2    0    0  0.00000000000E+00  0.00000000000E+00  0.14085359501E+04  0.41657354722E+04  0.39203798925E+04 0.  0.
        3    1    3    3  502    0 -0.12153927444E+04 -0.15185896044E+04  0.44605617754E+03  0.19955600801E+04  0.10100000352E+00 0.  1.
       -3    1    3    3    0  502  0.12153927444E+04  0.15185896044E+04  0.96247977256E+03  0.21701753921E+04  0.10100000352E+00 0. -1.
</event>
<event>
 5   0  0.1860500E-07  0.2619757E+04  0.7818609E-02  0.8361521E-01
       -1   -1    0    0    0  501  0.00000000000E+00  0.00000000000E+00  0.11027510139E+04  0.11027510139E+04  0.50400001928E-02 0. -1.
        1   -1    0    0  501    0  0.00000000000E+00  0.00000000000E+00 -0.15559099486E+04  0.15559099486E+04  0.50400001928E-02 0.  1.
    10030    2    1    2    0    0  0.00000000000E+00  0.00000000000E+00 -0.45315893473E+03  0.26586609625E+04  0.26197566859E+04 0.  0.
        4    1    3    3  502    0  0.45442468858E+03 -0.23678233891E+03 -0.14499738644E+04  0.15378535346E+04  0.12699999809E+01 0.  1.
       -4    1    3    3    0  502 -0.45442468858E+03  0.23678233891E+03  0.99681492965E+03  0.11208074279E+04  0.12699999809E+01 0. -1.
</event>
<event>
 5   0  0.6095665E-07  0.3947375E+04  0.7818609E-02  0.8015248E-01
       -2   -1    0    0    0  501  0.00000000000E+00  0.00000000000E+00  0.23269179394E+04  0.23269179394E+04  0.25500000920E-02 0. -1.
        2   -1    0    0  501    0  0.00000000000E+00  0.00000000000E+00 -0.16740782384E+04  0.16740782384E+04  0.25500000920E-02 0.  1.
    10030    2    1    2    0    0  0.00000000000E+00  0.00000000000E+00  0.65283970095E+03  0.40009961778E+04  0.39473751709E+04 0.  0.
        4    1    3    3  502    0 -0.17379941421E+04  0.89546605463E+03  0.60019632664E+03  0.20451700018E+04  0.12699999809E+01 0. -1.
       -4    1    3    3    0  502  0.17379941421E+04 -0.89546605463E+03  0.52643374308E+02  0.19558261760E+04  0.12699999809E+01 0.  1.
</event>
<event>
 5   0  0.3959190E-07  0.3986291E+04  0.7818609E-02  0.8007318E-01
       -2   -1    0    0    0  501  0.00000000000E+00  0.00000000000E+00  0.15908969033E+04  0.15908969033E+04  0.25500000920E-02 0. -1.
        2   -1    0    0  501    0  0.00000000000E+00  0.00000000000E+00 -0.24971005455E+04  0.24971005455E+04  0.25500000920E-02 0.  1.
    10030    2    1    2    0    0  0.00000000000E+00  0.00000000000E+00 -0.90620364223E+03  0.40879974488E+04  0.39862912714E+04 0.  0.
        2    1    3    3  502    0 -0.81929869042E+03 -0.11795115115E+04 -0.18704392368E+04  0.23581858893E+04  0.25500000920E-02 0.  1.
       -2    1    3    3    0  502  0.81929869042E+03  0.11795115115E+04  0.96423559456E+03  0.17298115596E+04  0.25500000920E-02 0. -1.
</event>
<event>
 5   0  0.5872444E-07  0.3394307E+04  0.7818609E-02  0.8139305E-01
        2   -1    0    0  501    0  0.00000000000E+00  0.00000000000E+00  0.28245601327E+04  0.28245601327E+04  0.25500000920E-02 0.  1.
       -2   -1    0    0    0  501  0.00000000000E+00  0.00000000000E+00 -0.10197443337E+04  0.10197443337E+04  0.25500000920E-02 0. -1.
    10030    2    1    2    0    0  0.00000000000E+00  0.00000000000E+00  0.18048157990E+04  0.38443044664E+04  0.33943065215E+04 0.  0.
        3    1    3    3  502    0 -0.29689132651E+02 -0.60463966609E+03  0.26981217871E+04  0.27652001299E+04  0.10100000352E+00 0.  1.
       -3    1    3    3    0  502  0.29689132651E+02  0.60463966609E+03 -0.89330598809E+03  0.10791043365E+04  0.10100000352E+00 0. -1.
</event>
<event>
 5   0  0.5872444E-07  0.3137990E+04  0.7818609E-02  0.8205389E-01
        2   -1    0    0  501    0  0.00000000000E+00  0.00000000000E+00  0.22460589072E+04  0.22460589072E+04  0.25500000920E-02 0. -1.
       -2   -1    0    0    0  501  0.00000000000E+00  0.00000000000E+00 -0.10960287539E+04  0.10960287539E+04  0.25500000920E-02 0.  1.
    10030    2    1    2    0    0  0.00000000000E+00  0.00000000000E+00  0.11500301533E+04  0.33420876612E+04  0.31379898950E+04 0.  0.
        3    1    3    3  502    0 -0.64606705920E+03  0.14005312187E+04  0.26844827598E+03  0.15655525627E+04  0.10100000352E+00 0.  1.
       -3    1    3    3    0  502  0.64606705920E+03 -0.14005312187E+04  0.88158187732E+03  0.17765350985E+04  0.10100000352E+00 0. -1.
</event>
<event>
 5   0  0.6095665E-07  0.3898634E+04  0.7818609E-02  0.8025313E-01
        2   -1    0    0  501    0  0.00000000000E+00  0.00000000000E+00  0.23324972112E+04  0.23324972112E+04  0.25500000920E-02 0. -1.
       -2   -1    0    0    0  501  0.00000000000E+00  0.00000000000E+00 -0.16290851332E+04  0.16290851332E+04  0.25500000920E-02 0.  1.
    10030    2    1    2    0    0  0.00000000000E+00  0.00000000000E+00  0.70341207806E+03  0.39615823444E+04  0.38986338787E+04 0.  0.
        4    1    3    3  502    0 -0.12928283558E+03 -0.18254271485E+04 -0.33065461031E+03  0.18596323320E+04  0.12699999809E+01 0.  1.
       -4    1    3    3    0  502  0.12928283558E+03  0.18254271485E+04  0.10340666884E+04  0.21019500124E+04  0.12699999809E+01 0. -1.
</event>
<event>
 5   0  0.1876027E-07  0.3887811E+04  0.7818609E-02  0.8027569E-01
       -1   -1    0    0    0  501  0.00000000000E+00  0.00000000000E+00  0.31061701513E+04  0.31061701513E+04  0.50400001928E-02 0.  1.
        1   -1    0    0  501    0  0.00000000000E+00  0.00000000000E+00 -0.12165364359E+04  0.12165364359E+04  0.50400001928E-02 0. -1.
    10030    2    1    2    0    0  0.00000000000E+00  0.00000000000E+00  0.18896337154E+04  0.43227065873E+04  0.38878112944E+04 0.  0.
        3    1    3    3  502    0 -0.17851615386E+04  0.23974834094E+03  0.13194960278E+03  0.18060154191E+04  0.10100000352E+00 0. -1.
       -3    1    3    3    0  502  0.17851615386E+04 -0.23974834094E+03  0.17576841127E+04  0.25166911682E+04  0.10100000352E+00 0.  1.
</event>
<event>
 5   0  0.2512767E-07  0.2413202E+04  0.7818609E-02  0.8434577E-01
       -1   -1    0    0    0  501  0.00000000000E+00  0.00000000000E+00  0.10774352521E+04  0.10774352521E+04  0.50400001928E-02 0.  1.
        1   -1    0    0  501    0  0.00000000000E+00  0.00000000000E+00 -0.13512513037E+04  0.13512513037E+04  0.50400001928E-02 0. -1.
    10030    2    1    2    0    0  0.00000000000E+00  0.00000000000E+00 -0.27381605162E+03  0.24286865558E+04  0.24132018473E+04 0.  0.
        3    1    3    3  502    0  0.10599767319E+04 -0.24453496081E+03 -0.66230934673E+03  0.12735783055E+04  0.10100000352E+00 0. -1.
       -3    1    3    3    0  502 -0.10599767319E+04  0.24453496081E+03  0.38849329511E+03  0.11551082503E+04  0.10100000352E+00 0.  1.
</event>
<event>
 5   0  0.5872444E-07  0.2873273E+04  0.7818609E-02  0.8280874E-01
       -2   -1    0    0    0  501  0.00000000000E+00  0.00000000000E+00  0.11390999048E+04  0.11390999048E+04  0.25500000920E-02 0.  1.
        2   -1    0    0  501    0  0.00000000000E+00  0.00000000000E+00 -0.18118911569E+04  0.18118911569E+04  0.25500000920E-02 0. -1.
    10030    2    1    2    0    0  0.00000000000E+00  0.00000000000E+00 -0.67279125209E+03  0.29509910616E+04  0.28732734254E+04 0.  0.
        3    1    3    3  502    0 -0.52690830205E+03 -0.11824803948E+04 -0.97616751239E+03  0.16213559958E+04  0.10100000352E+00 0.  1.
       -3    1    3    3    0  502  0.52690830205E+03  0.11824803948E+04  0.30337626030E+03  0.13296350658E+04  0.10100000352E+00 0. -1.
</event>
<event>
 5   0  0.1943459E-07  0.3876451E+04  0.7818609E-02  0.8029945E-01
       -1   -1    0    0    0  501  0.00000000000E+00  0.00000000000E+00  0.14951487865E+04  0.14951487865E+04  0.50400001928E-02 0.  1.
        1   -1    0    0  501    0  0.00000000000E+00  0.00000000000E+00 -0.25126049745E+04  0.25126049745E+04  0.50400001928E-02 0. -1.
    10030    2    1    2    0    0  0.00000000000E+00  0.00000000000E+00 -0.10174561880E+04  0.40077537611E+04  0.38764510979E+04 0.  0.
        2    1    3    3  502    0 -0.14583349639E+04 -0.12640166739E+04 -0.69436283250E+03  0.20510043301E+04  0.25500000920E-02 0. -1.
       -2    1    3    3    0  502  0.14583349639E+04  0.12640166739E+04 -0.32309335552E+03  0.19567494309E+04  0.25500000920E-02 0.  1.
</event>
<event>
 5   0  0.5805753E-07  0.3606487E+04  0.7818609E-02  0.8089007E-01
        2   -1    0    0  501    0  0.00000000000E+00  0.00000000000E+00  0.21469760402E+04  0.21469760402E+04  0.25500000920E-02 0.  1.
       -2   -1    0    0    0  501  0.00000000000E+00  0.00000000000E+00 -0.15145425580E+04  0.15145425580E+04  0.25500000920E-02 0. -1.
    10030    2    1    2    0    0  0.00000000000E+00  0.00000000000E+00  0.63243348220E+03  0.36615185982E+04  0.36064867026E+04 0.  0.
        1    1    3    3  502    0 -0.10957981393E+04 -0.10164537224E+04  0.13404390538E+04  0.20076674498E+04  0.50400001928E-02 0.  1.
       -1    1    3    3    0  502  0.10957981393E+04  0.10164537224E+04 -0.70800557155E+03  0.16538511485E+04  0.50400001928E-02 0. -1.
</event>
<event>
 5   0  0.5805753E-07  0.3903030E+04  0.7818609E-02  0.8024399E-01
       -2   -1    0    0    0  501  0.00000000000E+00  0.00000000000E+00  0.13940622708E+04  0.13940622708E+04  0.25500000920E-02 0. -1.
        2   -1    0    0  501    0  0.00000000000E+00  0.00000000000E+00 -0.27318795764E+04  0.27318795764E+04  0.25500000920E-02 0.  1.
    10030    2    1    2    0    0  0.00000000000E+00  0.00000000000E+00 -0.13378173056E+04  0.41259418472E+04  0.39030297185E+04 0.  0.
        1    1    3    3  502    0  0.15831760645E+04  0.11327505752E+04 -0.81400646860E+03  0.21100182103E+04  0.50400001928E-02 0. -1.
       -1    1    3    3    0  502 -0.15831760645E+04 -0.11327505752E+04 -0.52381083699E+03  0.20159236369E+04  0.50400001928E-02 0.  1.
</event>
<event>
 5   0  0.2666813E-07  0.3055380E+04  0.7818609E-02  0.8228091E-01
        1   -1    0    0  501    0  0.00000000000E+00  0.00000000000E+00  0.12935322623E+04  0.12935322623E+04  0.50400001928E-02 0.  1.
       -1   -1    0    0    0  501  0.00000000000E+00  0.00000000000E+00 -0.18042354543E+04  0.18042354543E+04  0.50400001928E-02 0. -1.
    10030    2    1    2    0    0  0.00000000000E+00  0.00000000000E+00 -0.51070319197E+03  0.30977677166E+04  0.30553800215E+04 0.  0.
        1    1    3    3  502    0  0.45660751197E+03  0.12791928474E+04 -0.96434692961E+03  0.16657700206E+04  0.50400001928E-02 0. -1.
       -1    1    3    3    0  502 -0.45660751197E+03 -0.12791928474E+04  0.45364373764E+03  0.14319976960E+04  0.50400001928E-02 0.  1.
</event>
<event>
 5   0  0.5872444E-07  0.3920337E+04  0.7818609E-02  0.8020813E-01
        2   -1    0    0  501    0  0.00000000000E+00  0.00000000000E+00  0.25551056211E+04  0.25551056211E+04  0.25500000920E-02 0. -1.
       -2   -1    0    0    0  501  0.00000000000E+00  0.00000000000E+00 -0.15037580318E+04  0.15037580318E+04  0.25500000920E-02 0.  1.
    10030    2    1    2    0    0  0.00000000000E+00  0.00000000000E+00  0.10513475892E+04  0.40588636529E+04  0.39203370263E+04 0.  0.
        3    1    3    3  502    0  0.37017786572E+03 -0.46234777568E+03 -0.14088978127E+04  0.15283292102E+04  0.10100000352E+00 0.  1.
       -3    1    3    3    0  502 -0.37017786572E+03  0.46234777568E+03  0.24602454019E+04  0.25305344427E+04  0.10100000352E+00 0. -1.
</event>
<event>
 5   0  0.5805753E-07  0.3706663E+04  0.7818609E-02  0.8066487E-01
       -2   -1    0    0    0  501  0.00000000000E+00  0.00000000000E+00  0.23256096523E+04  0.23256096523E+04  0.25500000920E-02 0.  1.
        2   -1    0    0  501    0  0.00000000000E+00  0.00000000000E+00 -0.14769620039E+04  0.14769620039E+04  0.25500000920E-02 0. -1.
    10030    2    1    2    0    0  0.00000000000E+00  0.00000000000E+00  0.84864764840E+03  0.38025716561E+04  0.37066626996E+04 0.  0.
        1    1    3    3  502    0  0.13344309869E+03  0.18484138795E+04  0.40390500474E+03  0.18967288112E+04  0.50400001928E-02 0.  1.
       -1    1    3    3    0  502 -0.13344309869E+03 -0.18484138795E+04  0.44474264365E+03  0.19058428449E+04  0.50400001928E-02 0. -1.
</event>
<event>
 5   0  0.1943459E-07  0.3911605E+04  0.7818609E-02  0.8022620E-01
       -1   -1    0    0    0  501  0.00000000000E+00  0.00000000000E+00  0.15584170350E+04  0.15584170350E+04  0.50400001928E-02 0.  1.
        1   -1    0    0  501    0  0.00000000000E+00  0.00000000000E+00 -0.24545185029E+04  0.24545185029E+04  0.50400001928E-02 0. -1.
    10030    2    1    2    0    0  0.00000000000E+00  0.00000000000E+00 -0.89610146799E+03  0.40129355379E+04  0.39116050146E+04 0.  0.
        2    1    3    3  502    0 -0.67843106135E+03  0.13164314797E+04  0.86250153473E+03  0.17138172141E+04  0.25500000920E-02 0.  1.
       -2    1    3    3    0  502  0.67843106135E+03 -0.13164314797E+04 -0.17586030027E+04  0.22991183238E+04  0.25500000920E-02 0. -1.
</event>
<event>
 5   0  0.3959190E-07  0.3953173E+04  0.7818609E-02  0.8014060E-01
       -2   -1    0    0    0  501  0.00000000000E+00  0.00000000000E+00  0.13585607656E+04  0.13585607656E+04  0.25500000920E-02 0. -1.
        2   -1    0    0  501    0  0.00000000000E+00  0.00000000000E+00 -0.28757592511E+04  0.28757592511E+04  0.25500000920E-02 0.  1.
    10030    2    1    2    0    0  0.00000000000E+00  0.00000000000E+00 -0.15171984855E+04  0.42343200168E+04  0.39531727460E+04 0.  0.
        2    1    3    3  502    0 -0.71745914993E+03 -0.14907834320E+03 -0.27248902384E+04  0.28217014008E+04  0.25500000920E-02 0.  1.
       -2    1    3    3    0  502  0.71745914993E+03  0.14907834320E+03  0.12076917528E+04  0.14126186159E+04  0.25500000920E-02 0. -1.
</event>
<event>
 5   0  0.3959190E-07  0.3887431E+04  0.7818609E-02  0.8027648E-01
        2   -1    0    0  501    0  0.00000000000E+00  0.00000000000E+00  0.23061098379E+04  0.23061098379E+04  0.25500000920E-02 0. -1.
       -2   -1    0    0    0  501  0.00000000000E+00  0.00000000000E+00 -0.16382698558E+04  0.16382698558E+04  0.25500000920E-02 0.  1.
    10030    2    1    2    0    0  0.00000000000E+00  0.00000000000E+00  0.66783998214E+03  0.39443796937E+04  0.38874311475E+04 0.  0.
        2    1    3    3  502    0 -0.17372818207E+04 -0.59373977734E+03  0.98151371029E+03  0.20818367398E+04  0.25500000920E-02 0. -1.
       -2    1    3    3    0  502  0.17372818207E+04  0.59373977734E+03 -0.31367372815E+03  0.18625429540E+04  0.25500000920E-02 0.  1.
</event>
<event>
 5   0  0.1876027E-07  0.3132030E+04  0.7818609E-02  0.8207002E-01
       -1   -1    0    0    0  501  0.00000000000E+00  0.00000000000E+00  0.24213491072E+04  0.24213491072E+04  0.50400001928E-02 0.  1.
        1   -1    0    0  501    0  0.00000000000E+00  0.00000000000E+00 -0.10128248685E+04  0.10128248685E+04  0.50400001928E-02 0. -1.
    10030    2    1    2    0    0  0.00000000000E+00  0.00000000000E+00  0.14085242387E+04  0.34341739758E+04  0.31320297516E+04 0.  0.
        3    1    3    3  502    0  0.10561765479E+04 -0.54525600342E+03 -0.41370072792E+03  0.12585552480E+04  0.10100000352E+00 0. -1.
       -3    1    3    3    0  502 -0.10561765479E+04  0.54525600342E+03  0.18222249666E+04  0.21756187278E+04  0.10100000352E+00 0.  1.
</event>
<event>
 5   0  0.1943459E-07  0.2891453E+04  0.7818609E-02  0.8275425E-01
        1   -1    0    0  501    0  0.00000000000E+00  0.00000000000E+00  0.19790761688E+04  0.19790761688E+04  0.50400001928E-02 0. -1.
       -1   -1    0    0    0  501  0.00000000000E+00  0.00000000000E+00 -0.10561111641E+04  0.10561111641E+04  0.50400001928E-02 0.  1.
    10030    2    1    2    0    0  0.00000000000E+00  0.00000000000E+00  0.92296500473E+03  0.30351873329E+04  0.28914525322E+04 0.  0.
        2    1    3    3  502    0  0.35924867377E+03  0.41844173682E+03  0.18643177733E+04  0.19441794816E+04  0.25500000920E-02 0. -1.
       -2    1    3    3    0  502 -0.35924867377E+03 -0.41844173682E+03 -0.94135276859E+03  0.10910078513E+04  0.25500000920E-02 0.  1.
</event>
<event>
 5   0  0.1860500E-07  0.3919298E+04  0.7818609E-02  0.8021028E-01
       -1   -1    0    0    0  501  0.00000000000E+00  0.00000000000E+00  0.15488253734E+04  0.15488253734E+04  0.50400001928E-02 0.  1.
        1   -1    0    0  501    0  0.00000000000E+00  0.00000000000E+00 -0.24794423628E+04  0.24794423628E+04  0.50400001928E-02 0. -1.
    10030    2    1    2    0    0  0.00000000000E+00  0.00000000000E+00 -0.93061698935E+03  0.40282677362E+04  0.39192975102E+04 0.  0.
        5    1    3    3  502    0 -0.32538111279E+03  0.17577233369E+04 -0.12905886049E+04  0.22047914266E+04  0.46999998093E+01 0. -1.
       -5    1    3    3    0  502  0.32538111279E+03 -0.17577233369E+04  0.35997161555E+03  0.18234763096E+04  0.46999998093E+01 0.  1.
</event>
<event>
 5   0  0.1860500E-07  0.3790527E+04  0.7818609E-02  0.8048191E-01
        1   -1    0    0  501    0  0.00000000000E+00  0.00000000000E+00  0.16997488401E+04  0.16997488401E+04  0.50400001928E-02 0.  1.
       -1   -1    0    0    0  501  0.00000000000E+00  0.00000000000E+00 -0.21132670336E+04  0.21132670336E+04  0.50400001928E-02 0. -1.
    10030    2    1    2    0    0  0.00000000000E+00  0.00000000000E+00 -0.41351819341E+03  0.38130158737E+04  0.37905267123E+04 0.  0.
        4    1    3    3  502    0 -0.28662364070E+03  0.46045087390E+03 -0.20335327045E+04  0.21046199162E+04  0.12699999809E+01 0. -1.
       -4    1    3    3    0  502  0.28662364070E+03 -0.46045087390E+03  0.16200145111E+04  0.17083959575E+04  0.12699999809E+01 0.  1.
</event>
<event>
 5   0  0.2666813E-07  0.4097371E+04  0.7818609E-02  0.7985187E-01
        1   -1    0    0  501    0  0.00000000000E+00  0.00000000000E+00  0.21862601849E+04  0.21862601849E+04  0.50400001928E-02 0.  1.
       -1   -1    0    0    0  501  0.00000000000E+00  0.00000000000E+00 -0.19197679041E+04  0.19197679041E+04  0.50400001928E-02 0. -1.
    10030    2    1    2    0    0  0.00000000000E+00  0.00000000000E+00  0.26649228085E+03  0.41060280890E+04  0.40973709293E+04 0.  0.
        1    1    3    3  502    0 -0.17089289449E+04  0.22002276545E+03  0.12438584728E+04  0.21250957759E+04  0.50400001928E-02 0.  1.
       -1    1    3    3    0  502  0.17089289449E+04 -0.22002276545E+03 -0.97736619197E+03  0.19809323132E+04  0.50400001928E-02 0. -1.
</event>
<event>
 5   0  0.5735179E-07  0.3567589E+04  0.7818609E-02  0.8097956E-01
        2   -1    0    0  501    0  0.00000000000E+00  0.00000000000E+00  0.25654013450E+04  0.25654013450E+04  0.25500000920E-02 0.  1.
       -2   -1    0    0    0  501  0.00000000000E+00  0.00000000000E+00 -0.12403216616E+04  0.12403216616E+04  0.25500000920E-02 0. -1.
    10030    2    1    2    0    0  0.00000000000E+00  0.00000000000E+00  0.13250796834E+04  0.38057230067E+04  0.35675890229E+04 0.  0.
        5    1    3    3  502    0  0.17621891843E+04 -0.27007607680E+03  0.59810111814E+03  0.18804251770E+04  0.46999998093E+01 0. -1.
       -5    1    3    3    0  502 -0.17621891843E+04  0.27007607680E+03  0.72697856526E+03  0.19252978297E+04  0.46999998093E+01 0.  1.
</event>
<event>
 5   0  0.1860500E-07  0.2490786E+04  0.7818609E-02  0.8406276E-01
       -1   -1    0    0    0  501  0.00000000000E+00  0.00000000000E+00  0.73875664762E+03  0.73875664764E+03  0.50400001928E-02 0. -1.
        1   -1    0    0  501    0  0.00000000000E+00  0.00000000000E+00 -0.20994780882E+04  0.20994780882E+04  0.50400001928E-02 0.  1.
    10030    2    1    2    0    0  0.00000000000E+00  0.00000000000E+00 -0.13607214406E+04  0.28382347358E+04  0.24907857348E+04 0.  0.
        4    1    3    3  502    0 -0.57549992556E+03  0.84325747272E+03  0.13237750482E+03  0.10294701289E+04  0.12699999809E+01 0. -1.
       -4    1    3    3    0  502  0.57549992556E+03 -0.84325747272E+03 -0.14930989454E+04  0.18087646069E+04  0.12699999809E+01 0.  1.
</event>
<event>
 5   0  0.5735179E-07  0.3899656E+04  0.7818609E-02  0.8025101E-01
       -2   -1    0    0    0  501  0.00000000000E+00  0.00000000000E+00  0.11573378968E+04  0.11573378968E+04  0.25500000920E-02 0.  1.
        2   -1    0    0  501    0  0.00000000000E+00  0.00000000000E+00 -0.32849775403E+04  0.32849775403E+04  0.25500000920E-02 0. -1.
    10030    2    1    2    0    0  0.00000000000E+00  0.00000000000E+00 -0.21276396435E+04  0.44423154370E+04  0.38996558809E+04 0.  0.
        5    1    3    3  502    0  0.27370777296E+02 -0.86519538233E+03 -0.30540832716E+04  0.31743911115E+04  0.46999998093E+01 0. -1.
       -5    1    3    3    0  502 -0.27370777296E+02  0.86519538233E+03  0.92644362811E+03  0.12679243255E+04  0.46999998093E+01 0.  1.
</event>
<event>
 5   0  0.5872444E-07  0.3869277E+04  0.7818609E-02  0.8031449E-01
        2   -1    0    0  501    0  0.00000000000E+00  0.00000000000E+00  0.20533211281E+04  0.20533211282E+04  0.25500000920E-02 0. -1.
       -2   -1    0    0    0  501  0.00000000000E+00  0.00000000000E+00 -0.18228162175E+04  0.18228162175E+04  0.25500000920E-02 0.  1.
    10030    2    1    2    0    0  0.00000000000E+00  0.00000000000E+00  0.23050491068E+03  0.38761373456E+04  0.38692774788E+04 0.  0.
        3    1    3    3  502    0  0.16093810783E+04  0.65176427832E+03  0.96994905569E+03  0.19888955001E+04  0.10100000352E+00 0. -1.
       -3    1    3    3    0  502 -0.16093810783E+04 -0.65176427832E+03 -0.73944414501E+03  0.18872418455E+04  0.10100000352E+00 0.  1.
</event>
<event>
 5   0  0.5872444E-07  0.3457061E+04  0.7818609E-02  0.8124042E-01
       -2   -1    0    0    0  501  0.00000000000E+00  0.00000000000E+00  0.12109361332E+04  0.12109361332E+04  0.25500000920E-02 0.  1.
        2   -1    0    0  501    0  0.00000000000E+00  0.00000000000E+00 -0.24673622744E+04  0.24673622744E+04  0.25500000920E-02 0. -1.
    10030    2    1    2    0    0  0.00000000000E+00  0.00000000000E+00 -0.12564261411E+04  0.36782984076E+04  0.34570612560E+04 0.  0.
        3    1    3    3  502    0  0.15254222414E+04  0.80488890156E+03 -0.74980205593E+03  0.18806813371E+04  0.10100000352E+00 0. -1.
       -3    1    3    3    0  502 -0.15254222414E+04 -0.80488890156E+03 -0.50662408521E+03  0.17976170705E+04  0.10100000352E+00 0.  1.
</event>
<event>
 5   0  0.1860500E-07  0.3540078E+04  0.7818609E-02  0.8104357E-01
       -1   -1    0    0    0  501  0.00000000000E+00  0.00000000000E+00  0.17412133192E+04  0.17412133192E+04  0.50400001928E-02 0.  1.
        1   -1    0    0  501    0  0.00000000000E+00  0.00000000000E+00 -0.17993417437E+04  0.17993417437E+04  0.50400001928E-02 0. -1.
    10030    2    1    2    0    0  0.00000000000E+00  0.00000000000E+00 -0.58128424533E+02  0.35405550629E+04  0.35400778578E+04 0.  0.
        5    1    3    3  502    0 -0.17411799240E+04  0.10829681762E+03 -0.32840372534E+03  0.17751920530E+04  0.46999998093E+01 0. -1.
       -5    1    3    3    0  502  0.17411799240E+04 -0.10829681762E+03  0.27027530080E+03  0.17653630098E+04  0.46999998093E+01 0.  1.
</event>
<event>
 5   0  0.5735179E-07  0.3609674E+04  0.7818609E-02  0.8088279E-01
       -2   -1    0    0    0  501  0.00000000000E+00  0.00000000000E+00  0.18300498208E+04  0.18300498208E+04  0.25500000920E-02 0. -1.
        2   -1    0    0  501    0  0.00000000000E+00  0.00000000000E+00 -0.17799715408E+04  0.17799715408E+04  0.25500000920E-02 0.  1.
    10030    2    1    2    0    0  0.00000000000E+00  0.00000000000E+00  0.50078280086E+02  0.36100213616E+04  0.36096740015E+04 0.  0.
        5    1    3    3  502    0 -0.53178531066E+03 -0.15931022244E+04 -0.63581503152E+03  0.17958433001E+04  0.46999998093E+01 0.  1.
       -5    1    3    3    0  502  0.53178531066E+03  0.15931022244E+04  0.68589331161E+03  0.18141780615E+04  0.46999998093E+01 0. -1.
</event>
<event>
 5   0  0.5872444E-07  0.3761626E+04  0.7818609E-02  0.8054440E-01
       -2   -1    0    0    0  501  0.00000000000E+00  0.00000000000E+00  0.14258695962E+04  0.14258695962E+04  0.25500000920E-02 0. -1.
        2   -1    0    0  501    0  0.00000000000E+00  0.00000000000E+00 -0.24809129803E+04  0.24809129803E+04  0.25500000920E-02 0.  1.
    10030    2    1    2    0    0  0.00000000000E+00  0.00000000000E+00 -0.10550433842E+04  0.39067825765E+04  0.37616264511E+04 0.  0.
        3    1    3    3  502    0 -0.17393836010E+02  0.14091936226E+04 -0.18211084332E+04  0.23027299336E+04  0.10100000352E+00 0.  1.
       -3    1    3    3    0  502  0.17393836010E+02 -0.14091936226E+04  0.76606504902E+03  0.16040526429E+04  0.10100000352E+00 0. -1.
</event>
<event>
 5   0  0.1876027E-07  0.2480242E+04  0.7818609E-02  0.8410058E-01
       -1   -1    0    0    0  501  0.00000000000E+00  0.00000000000E+00  0.20770033364E+04  0.20770033364E+04  0.50400001928E-02 0. -1.
        1   -1    0    0  501    0  0.00000000000E+00  0.00000000000E+00 -0.74044165747E+03  0.74044165749E+03  0.50400001928E-02 0.  1.
    10030    2    1    2    0    0  0.00000000000E+00  0.00000000000E+00  0.13365616789E+04  0.28174449939E+04  0.24802417568E+04 0.  0.
        3    1    3    3  502    0 -0.11668020634E+04  0.32657212229E+03  0.36811459268E+03  0.12663272759E+04  0.10100000352E+00 0.  1.
       -3    1    3    3    0  502  0.11668020634E+04 -0.32657212229E+03  0.96844708627E+03  0.15511177180E+04  0.10100000352E+00 0. -1.
</event>
<event>
 5   0  0.1876027E-07  0.2922828E+04  0.7818609E-02  0.8266118E-01
       -1   -1    0    0    0  501  0.00000000000E+00  0.00000000000E+00  0.13587087885E+04  0.13587087886E+04  0.50400001928E-02 0.  1.
        1   -1    0    0  501    0  0.00000000000E+00  0.00000000000E+00 -0.15718823928E+04  0.15718823928E+04  0.50400001928E-02 0. -1.
    10030    2    1    2    0    0  0.00000000000E+00  0.00000000000E+00 -0.21317360425E+03  0.29305911813E+04  0.29228276868E+04 0.  0.
        3    1    3    3  502    0 -0.28985453188E+03  0.82182393931E+02  0.13272328256E+04  0.13609983759E+04  0.10100000352E+00 0.  1.
       -3    1    3    3    0  502  0.28985453188E+03 -0.82182393931E+02 -0.15404064299E+04  0.15695928055E+04  0.10100000352E+00 0. -1.
</event>
<event>
 5   0  0.1943459E-07  0.3984433E+04  0.7818609E-02  0.8007694E-01
       -1   -1    0    0    0  501  0.00000000000E+00  0.00000000000E+00  0.16285327779E+04  0.16285327779E+04  0.50400001928E-02 0.  1.
        1   -1    0    0  501    0  0.00000000000E+00  0.00000000000E+00 -0.24371183170E+04  0.24371183170E+04  0.50400001928E-02 0. -1.
    10030    2    1    2    0    0  0.00000000000E+00  0.00000000000E+00 -0.80858553908E+03  0.40656510949E+04  0.39844332409E+04 0.  0.
        2    1    3    3  502    0 -0.16583531457E+04  0.11030690321E+04 -0.35831185353E+03  0.20236807628E+04  0.25500000920E-02 0.  1.
       -2    1    3    3    0  502  0.16583531457E+04 -0.11030690321E+04 -0.45027368555E+03  0.20419703321E+04  0.25500000920E-02 0. -1.
</event>
<event>
 5   0  0.5805753E-07  0.2854663E+04  0.7818609E-02  0.8286496E-01
       -2   -1    0    0    0  501  0.00000000000E+00  0.00000000000E+00  0.66422277034E+03  0.66422277035E+03  0.25500000920E-02 0.  1.
        2   -1    0    0  501    0  0.00000000000E+00  0.00000000000E+00 -0.30671574871E+04  0.30671574871E+04  0.25500000920E-02 0. -1.
    10030    2    1    2    0    0  0.00000000000E+00  0.00000000000E+00 -0.24029347167E+04  0.37313802574E+04  0.28546634430E+04 0.  0.
        1    1    3    3  502    0  0.35886179133E+03 -0.30576112321E+03 -0.29624432578E+04  0.29997236048E+04  0.50400001928E-02 0. -1.
       -1    1    3    3    0  502 -0.35886179133E+03  0.30576112321E+03  0.55950854106E+03  0.73165665259E+03  0.50400001928E-02 0.  1.
</event>
<event>
 5   0  0.5735179E-07  0.3957364E+04  0.7818609E-02  0.8013203E-01
        2   -1    0    0  501    0  0.00000000000E+00  0.00000000000E+00  0.23877595223E+04  0.23877595224E+04  0.25500000920E-02 0. -1.
       -2   -1    0    0    0  501  0.00000000000E+00  0.00000000000E+00 -0.16396888337E+04  0.16396888337E+04  0.25500000920E-02 0.  1.
    10030    2    1    2    0    0  0.00000000000E+00  0.00000000000E+00  0.74807068865E+03  0.40274483561E+04  0.39573640855E+04 0.  0.
        5    1    3    3  502    0 -0.15934068260E+04 -0.96135435574E+03 -0.31019045761E+03  0.18866339657E+04  0.46999998093E+01 0.  1.
       -5    1    3    3    0  502  0.15934068260E+04  0.96135435574E+03  0.10582611463E+04  0.21408143904E+04  0.46999998093E+01 0. -1.
</event>
<event>
 5   0  0.3959190E-07  0.4111993E+04  0.7818609E-02  0.7982327E-01
        2   -1    0    0  501    0  0.00000000000E+00  0.00000000000E+00  0.22959164224E+04  0.22959164224E+04  0.25500000920E-02 0. -1.
       -2   -1    0    0    0  501  0.00000000000E+00  0.00000000000E+00 -0.18411479484E+04  0.18411479484E+04  0.25500000920E-02 0.  1.
    10030    2    1    2    0    0  0.00000000000E+00  0.00000000000E+00  0.45476847396E+03  0.41370643708E+04  0.41119930987E+04 0.  0.
        2    1    3    3  502    0  0.51300456715E+03  0.16416964390E+04  0.13606537929E+04  0.21931072996E+04  0.25500000920E-02 0. -1.
       -2    1    3    3    0  502 -0.51300456715E+03 -0.16416964390E+04 -0.90588531895E+03  0.19439570712E+04  0.25500000920E-02 0.  1.
</event>
<event>
 5   0  0.5872444E-07  0.3832881E+04  0.7818609E-02  0.8039135E-01
       -2   -1    0    0    0  501  0.00000000000E+00  0.00000000000E+00  0.19245868045E+04  0.19245868045E+04  0.25500000920E-02 0.  1.
        2   -1    0    0  501    0  0.00000000000E+00  0.00000000000E+00 -0.19083288121E+04  0.19083288121E+04  0.25500000920E-02 0. -1.
    10030    2    1    2    0    0  0.00000000000E+00  0.00000000000E+00  0.16257992437E+02  0.38329156166E+04  0.38328811359E+04 0.  0.
        3    1    3    3  502    0  0.65272557232E+03  0.11633566439E+04  0.13841119725E+04  0.19222942845E+04  0.10100000352E+00 0.  1.
       -3    1    3    3    0  502 -0.65272557232E+03 -0.11633566439E+04 -0.13678539801E+04  0.19106213321E+04  0.10100000352E+00 0. -1.
</event>
<event>
 5   0  0.1943459E-07  0.2725713E+04  0.7818609E-02  0.8326710E-01
       -1   -1    0    0    0  501  0.00000000000E+00  0.00000000000E+00  0.17658774913E+04  0.17658774913E+04  0.50400001928E-02 0.  1.
        1   -1    0    0  501    0  0.00000000000E+00  0.00000000000E+00 -0.10518159062E+04  0.10518159062E+04  0.50400001928E-02 0. -1.
    10030    2    1    2    0    0  0.00000000000E+00  0.00000000000E+00  0.71406158505E+03  0.28176933975E+04  0.27257131425E+04 0.  0.
        2    1    3    3  502    0 -0.16748888640E+03 -0.85524752866E+03 -0.72612384505E+03  0.11343529877E+04  0.25500000920E-02 0. -1.
       -2    1    3    3    0  502  0.16748888640E+03  0.85524752866E+03  0.14401854301E+04  0.16833404098E+04  0.25500000920E-02 0.  1.
</event>
<event>
 5   0  0.2666813E-07  0.3697348E+04  0.7818609E-02  0.8068550E-01
        1   -1    0    0  501    0  0.00000000000E+00  0.00000000000E+00  0.13268971646E+04  0.13268971646E+04  0.50400001928E-02 0. -1.
       -1   -1    0    0    0  501  0.00000000000E+00  0.00000000000E+00 -0.25756296461E+04  0.25756296461E+04  0.50400001928E-02 0.  1.
    10030    2    1    2    0    0  0.00000000000E+00  0.00000000000E+00 -0.12487324815E+04  0.39025268107E+04  0.36973480629E+04 0.  0.
        1    1    3    3  502    0  0.97564540796E+03 -0.12716349666E+04 -0.15967136456E+04  0.22623956145E+04  0.50400001928E-02 0.  1.
       -1    1    3    3    0  502 -0.97564540796E+03  0.12716349666E+04  0.34798116404E+03  0.16401311963E+04  0.50400001928E-02 0. -1.
</event>
<event>
 5   0  0.5872444E-07  0.3816165E+04  0.7818609E-02  0.8042695E-01
       -2   -1    0    0    0  501  0.00000000000E+00  0.00000000000E+00  0.24148567493E+04  0.24148567493E+04  0.25500000920E-02 0.  1.
        2   -1    0    0  501    0  0.00000000000E+00  0.00000000000E+00 -0.15076581698E+04  0.15076581698E+04  0.25500000920E-02 0. -1.
    10030    2    1    2    0    0  0.00000000000E+00  0.00000000000E+00  0.90719857951E+03  0.39225149191E+04  0.38161648324E+04 0.  0.
        3    1    3    3  502    0  0.14502382035E+04 -0.12399823126E+04  0.44782908071E+03  0.19599229266E+04  0.10100000352E+00 0. -1.
       -3    1    3    3    0  502 -0.14502382035E+04  0.12399823126E+04  0.45936949880E+03  0.19625919925E+04  0.10100000352E+00 0.  1.
</event>
<event>
 5   0  0.5872444E-07  0.3906233E+04  0.7818609E-02  0.8023734E-01
       -2   -1    0    0    0  501  0.00000000000E+00  0.00000000000E+00  0.15028345749E+04  0.15028345749E+04  0.25500000920E-02 0.  1.
        2   -1    0    0  501    0  0.00000000000E+00  0.00000000000E+00 -0.25383132112E+04  0.25383132112E+04  0.25500000920E-02 0. -1.
    10030    2    1    2    0    0  0.00000000000E+00  0.00000000000E+00 -0.10354786364E+04  0.40411477861E+04  0.39062334061E+04 0.  0.
        3    1    3    3  502    0  0.86211432259E+03 -0.38162357484E+03 -0.22873099828E+04  0.24739977013E+04  0.10100000352E+00 0. -1.
       -3    1    3    3    0  502 -0.86211432259E+03  0.38162357484E+03  0.12518313465E+04  0.15671500848E+04  0.10100000352E+00 0.  1.
</event>
<event>
 5   0  0.1876027E-07  0.3888961E+04  0.7818609E-02  0.8027329E-01
        1   -1    0    0  501    0  0.00000000000E+00  0.00000000000E+00  0.21380087513E+04  0.21380087513E+04  0.50400001928E-02 0. -1.
       -1   -1    0    0    0  501  0.00000000000E+00  0.00000000000E+00 -0.17684697577E+04  0.17684697578E+04  0.50400001928E-02 0.  1.
    10030    2    1    2    0    0  0.00000000000E+00  0.00000000000E+00  0.36953899352E+03  0.39064785090E+04  0.38889606933E+04 0.  0.
        3    1    3    3  502    0  0.42372048604E+02  0.11573622661E+04 -0.13842269796E+04  0.18048177600E+04  0.10100000352E+00 0.  1.
       -3    1    3    3    0  502 -0.42372048604E+02 -0.11573622661E+04  0.17537659731E+04  0.21016607491E+04  0.10100000352E+00 0. -1.
</event>
<event>
 5   0  0.1943459E-07  0.3926227E+04  0.7818609E-02  0.8019597E-01
        1   -1    0    0  501    0  0.00000000000E+00  0.00000000000E+00  0.20477437770E+04  0.20477437770E+04  0.50400001928E-02 0.  1.
       -1   -1    0    0    0  501  0.00000000000E+00  0.00000000000E+00 -0.18819806078E+04  0.18819806078E+04  0.50400001928E-02 0. -1.
    10030    2    1    2    0    0  0.00000000000E+00  0.00000000000E+00  0.16576316914E+03  0.39297243848E+04  0.39262267270E+04 0.  0.
        2    1    3    3  502    0  0.14886012308E+04  0.75968438721E+03 -0.94796800295E+03  0.19213790170E+04  0.25500000920E-02 0. -1.
       -2    1    3    3    0  502 -0.14886012308E+04 -0.75968438721E+03  0.11137311721E+04  0.20083453677E+04  0.25500000920E-02 0.  1.
</event>
<event>
 5   0  0.1943459E-07  0.3920637E+04  0.7818609E-02  0.8020751E-01
        1   -1    0    0  501    0  0.00000000000E+00  0.00000000000E+00  0.24347304849E+04  0.24347304849E+04  0.50400001928E-02 0. -1.
       -1   -1    0    0    0  501  0.00000000000E+00  0.00000000000E+00 -0.15783462527E+04  0.15783462527E+04  0.50400001928E-02 0.  1.
    10030    2    1    2    0    0  0.00000000000E+00  0.00000000000E+00  0.85638423221E+03  0.40130767375E+04  0.39206365488E+04 0.  0.
        2    1    3    3  502    0  0.13861922939E+04 -0.28440916402E+03 -0.96041869641E+03  0.17102110164E+04  0.25500000920E-02 0.  1.
       -2    1    3    3    0  502 -0.13861922939E+04  0.28440916402E+03  0.18168029286E+04  0.23028657211E+04  0.25500000920E-02 0. -1.
</event>
<event>
 5   0  0.3959190E-07  0.3923674E+04  0.7818609E-02  0.8020123E-01
        2   -1    0    0  501    0  0.00000000000E+00  0.00000000000E+00  0.28868221338E+04  0.28868221338E+04  0.25500000920E-02 0.  1.
       -2   -1    0    0    0  501  0.00000000000E+00  0.00000000000E+00 -0.13332321886E+04  0.13332321886E+04  0.25500000920E-02 0. -1.
    10030    2    1    2    0    0  0.00000000000E+00  0.00000000000E+00  0.15535899452E+04  0.42200543223E+04  0.39236738862E+04 0.  0.
        2    1    3    3  502    0  0.98363328474E+03  0.14523476397E+04 -0.16818245569E+03  0.17621388832E+04  0.25500000920E-02 0. -1.
       -2    1    3    3    0  502 -0.98363328474E+03 -0.14523476397E+04  0.17217724009E+04  0.24579154391E+04  0.25500000920E-02 0.  1.
</event>
<event>
 5   0  0.1860500E-07  0.3927508E+04  0.7818609E-02  0.8019332E-01
        1   -1    0    0  501    0  0.00000000000E+00  0.00000000000E+00  0.12646844007E+04  0.12646844007E+04  0.50400001928E-02 0. -1.
       -1   -1    0    0    0  501  0.00000000000E+00  0.00000000000E+00 -0.30492432827E+04  0.30492432827E+04  0.50400001928E-02 0.  1.
    10030    2    1    2    0    0  0.00000000000E+00  0.00000000000E+00 -0.17845588820E+04  0.43139276834E+04  0.39275083264E+04 0.  0.
        5    1    3    3  502    0  0.12830483779E+04  0.13710129533E+04 -0.15236553875E+04  0.24181475323E+04  0.46999998093E+01 0.  1.
       -5    1    3    3    0  502 -0.12830483779E+04 -0.13710129533E+04 -0.26090349458E+03  0.18957801512E+04  0.46999998093E+01 0. -1.
</event>
<event>
 5   0  0.5735179E-07  0.2621226E+04  0.7818609E-02  0.8361027E-01
        2   -1    0    0  501    0  0.00000000000E+00  0.00000000000E+00  0.15829597323E+04  0.15829597323E+04  0.25500000920E-02 0. -1.
       -2   -1    0    0    0  501  0.00000000000E+00  0.00000000000E+00 -0.10851235864E+04  0.10851235864E+04  0.25500000920E-02 0.  1.
    10030    2    1    2    0    0  0.00000000000E+00  0.00000000000E+00  0.49783614593E+03  0.26680833186E+04  0.26212263861E+04 0.  0.
        5    1    3    3  502    0 -0.63656464347E+03 -0.44284879556E+03  0.13243825405E+04  0.15347119614E+04  0.46999998093E+01 0. -1.
       -5    1    3    3    0  502  0.63656464347E+03  0.44284879556E+03 -0.82654639454E+03  0.11333713572E+04  0.46999998093E+01 0.  1.
</event>
<event>
 5   0  0.5735179E-07  0.3721877E+04  0.7818609E-02  0.8063131E-01
       -2   -1    0    0    0  501  0.00000000000E+00  0.00000000000E+00  0.19681738597E+04  0.19681738597E+04  0.25500000920E-02 0. -1.
        2   -1    0    0  501    0  0.00000000000E+00  0.00000000000E+00 -0.17595461603E+04  0.17595461603E+04  0.25500000920E-02 0.  1.
    10030    2    1    2    0    0  0.00000000000E+00  0.00000000000E+00  0.20862769935E+03  0.37277200200E+04  0.37218773530E+04 0.  0.
        5    1    3    3  502    0  0.17238116814E+04 -0.66576573424E+03 -0.11580363006E+03  0.18515407899E+04  0.46999998093E+01 0. -1.
       -5    1    3    3    0  502 -0.17238116814E+04  0.66576573424E+03  0.32443132940E+03  0.18761792301E+04  0.46999998093E+01 0.  1.
</event>
<event>
 5   0  0.6095665E-07  0.3908536E+04  0.7818609E-02  0.8023256E-01
        2   -1    0    0  501    0  0.00000000000E+00  0.00000000000E+00  0.13532757126E+04  0.13532757126E+04  0.25500000920E-02 0.  1.
       -2   -1    0    0    0  501  0.00000000000E+00  0.00000000000E+00 -0.28221615685E+04  0.28221615685E+04  0.25500000920E-02 0. -1.
    10030    2    1    2    0    0  0.00000000000E+00  0.00000000000E+00 -0.14688858559E+04  0.41754372811E+04  0.39085356376E+04 0.  0.
        4    1    3    3  502    0 -0.13148744748E+04  0.14338375041E+04 -0.53637372152E+03  0.20180394582E+04  0.12699999809E+01 0.  1.
       -4    1    3    3    0  502  0.13148744748E+04 -0.14338375041E+04 -0.93251213433E+03  0.21573978229E+04  0.12699999809E+01 0. -1.
</event>
<event>
 5   0  0.1860500E-07  0.3570330E+04  0.7818609E-02  0.8097322E-01
        1   -1    0    0  501    0  0.00000000000E+00  0.00000000000E+00  0.17137376086E+04  0.17137376086E+04  0.50400001928E-02 0. -1.
       -1   -1    0    0    0  501  0.00000000000E+00  0.00000000000E+00 -0.18595697616E+04  0.18595697616E+04  0.50400001928E-02 0.  1.
    10030    2    1    2    0    0  0.00000000000E+00  0.00000000000E+00 -0.14583215298E+03  0.35733073702E+04  0.35703303132E+04 0.  0.
        5    1    3    3  502    0  0.31406633766E+03 -0.52570891656E+03 -0.17511520810E+04  0.18551450698E+04  0.46999998093E+01 0.  1.
       -5    1    3    3    0  502 -0.31406633766E+03  0.52570891656E+03  0.16053199280E+04  0.17181623004E+04  0.46999998093E+01 0. -1.
</event>
<event>
 5   0  0.5735179E-07  0.3934804E+04  0.7818609E-02  0.8017829E-01
        2   -1    0    0  501    0  0.00000000000E+00  0.00000000000E+00  0.19635423168E+04  0.19635423168E+04  0.25500000920E-02 0.  1.
       -2   -1    0    0    0  501  0.00000000000E+00  0.00000000000E+00 -0.19712693325E+04  0.19712693325E+04  0.25500000920E-02 0. -1.
    10030    2    1    2    0    0  0.00000000000E+00  0.00000000000E+00 -0.77270157269E+01  0.39348116492E+04  0.39348040622E+04 0.  0.
        5    1    3    3  502    0 -0.16101262354E+04  0.10711338511E+04  0.35781998020E+03  0.19666955660E+04  0.46999998093E+01 0.  1.
       -5    1    3    3    0  502  0.16101262354E+04 -0.10711338511E+04 -0.36554699592E+03  0.19681160833E+04  0.46999998093E+01 0. -1.
</event>
<event>
 5   0  0.3959190E-07  0.4008534E+04  0.7818609E-02  0.8002827E-01
        2   -1    0    0  501    0  0.00000000000E+00  0.00000000000E+00  0.31666484081E+04  0.31666484081E+04  0.25500000920E-02 0.  1.
       -2   -1    0    0    0  501  0.00000000000E+00  0.00000000000E+00 -0.12685608856E+04  0.12685608856E+04  0.25500000920E-02 0. -1.
    10030    2    1    2    0    0  0.00000000000E+00  0.00000000000E+00  0.18980875225E+04  0.44352092937E+04  0.40085340507E+04 0.  0.
        2    1    3    3  502    0 -0.88824274872E+03  0.17953687511E+04  0.87268985629E+03  0.21849283097E+04  0.25500000920E-02 0.  1.
       -2    1    3    3    0  502  0.88824274872E+03 -0.17953687511E+04  0.10253976662E+04  0.22502809840E+04  0.25500000920E-02 0. -1.
</event>
<event>
 5   0  0.3959190E-07  0.3868528E+04  0.7818609E-02  0.8031607E-01
       -2   -1    0    0    0  501  0.00000000000E+00  0.00000000000E+00  0.13665537720E+04  0.13665537720E+04  0.25500000920E-02 0. -1.
        2   -1    0    0  501    0  0.00000000000E+00  0.00000000000E+00 -0.27378195219E+04  0.27378195219E+04  0.25500000920E-02 0.  1.
    10030    2    1    2    0    0  0.00000000000E+00  0.00000000000E+00 -0.13712657499E+04  0.41043732939E+04  0.38685281928E+04 0.  0.
        2    1    3    3  502    0 -0.79176189714E+03 -0.69563278633E+03 -0.24064206655E+04  0.26270995974E+04  0.25500000920E-02 0.  1.
       -2    1    3    3    0  502  0.79176189714E+03  0.69563278633E+03  0.10351549155E+04  0.14772736965E+04  0.25500000920E-02 0. -1.
</event>
<event>
 5   0  0.3959190E-07  0.3858224E+04  0.7818609E-02  0.8033774E-01
        2   -1    0    0  501    0  0.00000000000E+00  0.00000000000E+00  0.14399563026E+04  0.14399563026E+04  0.25500000920E-02 0.  1.
       -2   -1    0    0    0  501  0.00000000000E+00  0.00000000000E+00 -0.25844347366E+04  0.25844347366E+04  0.25500000920E-02 0. -1.
    10030    2    1    2    0    0  0.00000000000E+00  0.00000000000E+00 -0.11444784340E+04  0.40243910392E+04  0.38582239891E+04 0.  0.
        2    1    3    3  502    0 -0.11128721366E+04  0.15317678978E+04 -0.18662010294E+03  0.19025310373E+04  0.25500000920E-02 0.  1.
       -2    1    3    3    0  502  0.11128721366E+04 -0.15317678978E+04 -0.95785833111E+03  0.21218600019E+04  0.25500000920E-02 0. -1.
</event>
<event>
 5   0  0.3959190E-07  0.2666218E+04  0.7818609E-02  0.8346050E-01
       -2   -1    0    0    0  501  0.00000000000E+00  0.00000000000E+00  0.90625648087E+03  0.90625648087E+03  0.25500000920E-02 0.  1.
        2   -1    0    0  501    0  0.00000000000E+00  0.00000000000E+00 -0.19610119936E+04  0.19610119936E+04  0.25500000920E-02 0. -1.
    10030    2    1    2    0    0  0.00000000000E+00  0.00000000000E+00 -0.10547555127E+04  0.28672684745E+04  0.26662181668E+04 0.  0.
        2    1    3    3  502    0 -0.59277962848E+03  0.39490136903E+03 -0.17392254523E+04  0.18794254316E+04  0.25500000920E-02 0. -1.
       -2    1    3    3    0  502  0.59277962848E+03 -0.39490136903E+03  0.68446993952E+03  0.98784304286E+03  0.25500000920E-02 0.  1.
</event>
<event>
 5   0  0.3959190E-07  0.2928162E+04  0.7818609E-02  0.8264548E-01
       -2   -1    0    0    0  501  0.00000000000E+00  0.00000000000E+00  0.12033999012E+04  0.12033999012E+04  0.25500000920E-02 0.  1.
        2   -1    0    0  501    0  0.00000000000E+00  0.00000000000E+00 -0.17812306947E+04  0.17812306947E+04  0.25500000920E-02 0. -1.
    10030    2    1    2    0    0  0.00000000000E+00  0.00000000000E+00 -0.57783079353E+03  0.29846305959E+04  0.29281617729E+04 0.  0.
        2    1    3    3  502    0  0.33185785827E+03 -0.10184147519E+04  0.72844851921E+03  0.12953514929E+04  0.25500000920E-02 0.  1.
       -2    1    3    3    0  502 -0.33185785827E+03  0.10184147519E+04 -0.13062793127E+04  0.16892791030E+04  0.25500000920E-02 0. -1.
</event>
<event>
 5   0  0.5805753E-07  0.3323400E+04  0.7818609E-02  0.8156967E-01
        2   -1    0    0  501    0  0.00000000000E+00  0.00000000000E+00  0.22825873696E+04  0.22825873696E+04  0.25500000920E-02 0. -1.
       -2   -1    0    0    0  501  0.00000000000E+00  0.00000000000E+00 -0.12097002896E+04  0.12097002896E+04  0.25500000920E-02 0.  1.
    10030    2    1    2    0    0  0.00000000000E+00  0.00000000000E+00  0.10728870800E+04  0.34922876592E+04  0.33233998267E+04 0.  0.
        1    1    3    3  502    0  0.22815301810E+02  0.81258676697E+03 -0.98649157205E+03  0.12782736067E+04  0.50400001928E-02 0.  1.
       -1    1    3    3    0  502 -0.22815301810E+02 -0.81258676697E+03  0.20593786521E+04  0.22140140525E+04  0.50400001928E-02 0. -1.
</event>
<event>
 5   0  0.1943459E-07  0.3331849E+04  0.7818609E-02  0.8154838E-01
       -1   -1    0    0    0  501  0.00000000000E+00  0.00000000000E+00  0.18244884270E+04  0.18244884270E+04  0.50400001928E-02 0. -1.
        1   -1    0    0  501    0  0.00000000000E+00  0.00000000000E+00 -0.15211409074E+04  0.15211409074E+04  0.50400001928E-02 0.  1.
    10030    2    1    2    0    0  0.00000000000E+00  0.00000000000E+00  0.30334751966E+03  0.33456293344E+04  0.33318487249E+04 0.  0.
        2    1    3    3  502    0 -0.64974524134E+02  0.16408394399E+04 -0.13007225252E+03  0.16472688145E+04  0.25500000920E-02 0. -1.
       -2    1    3    3    0  502  0.64974524134E+02 -0.16408394399E+04  0.43341977218E+03  0.16983605199E+04  0.25500000920E-02 0.  1.
</event>
<event>
 5   0  0.1860500E-07  0.3932841E+04  0.7818609E-02  0.8018233E-01
       -1   -1    0    0    0  501  0.00000000000E+00  0.00000000000E+00  0.20912941436E+04  0.20912941436E+04  0.50400001928E-02 0.  1.
        1   -1    0    0  501    0  0.00000000000E+00  0.00000000000E+00 -0.18490032757E+04  0.18490032757E+04  0.50400001928E-02 0. -1.
    10030    2    1    2    0    0  0.00000000000E+00  0.00000000000E+00  0.24229086797E+03  0.39402974193E+04  0.39328410708E+04 0.  0.
        4    1    3    3  502    0 -0.84610009559E+03  0.11003881962E+04 -0.12743587597E+04  0.18843384557E+04  0.12699999809E+01 0. -1.
       -4    1    3    3    0  502  0.84610009559E+03 -0.11003881962E+04  0.15166496277E+04  0.20559589636E+04  0.12699999809E+01 0.  1.
</event>
<event>
 5   0  0.1876027E-07  0.3770715E+04  0.7818609E-02  0.8052469E-01
       -1   -1    0    0    0  501  0.00000000000E+00  0.00000000000E+00  0.17119537042E+04  0.17119537042E+04  0.50400001928E-02 0.  1.
        1   -1    0    0  501    0  0.00000000000E+00  0.00000000000E+00 -0.20763253817E+04  0.20763253817E+04  0.50400001928E-02 0. -1.
    10030    2    1    2    0    0  0.00000000000E+00  0.00000000000E+00 -0.36437167754E+03  0.37882790859E+04  0.37707150136E+04 0.  0.
        3    1    3    3  502    0  0.11852905951E+04  0.14107214182E+04  0.21907940914E+03  0.18555442631E+04  0.10100000352E+00 0.  1.
       -3    1    3    3    0  502 -0.11852905951E+04 -0.14107214182E+04 -0.58345108668E+03  0.19327348228E+04  0.10100000352E+00 0. -1.
</event>
<event>
 5   0  0.1943459E-07  0.3252289E+04  0.7818609E-02  0.8175143E-01
       -1   -1    0    0    0  501  0.00000000000E+00  0.00000000000E+00  0.13740728506E+04  0.13740728506E+04  0.50400001928E-02 0. -1.
        1   -1    0    0  501    0  0.00000000000E+00  0.00000000000E+00 -0.19244580919E+04  0.19244580919E+04  0.50400001928E-02 0.  1.
    10030    2    1    2    0    0  0.00000000000E+00  0.00000000000E+00 -0.55038524128E+03  0.32985309425E+04  0.32522888040E+04 0.  0.
        2    1    3    3  502    0  0.13277508092E+04  0.93602580427E+03 -0.34888309386E+03  0.16615612931E+04  0.25500000920E-02 0.  1.
       -2    1    3    3    0  502 -0.13277508092E+04 -0.93602580427E+03 -0.20150214742E+03  0.16369696494E+04  0.25500000920E-02 0. -1.
</event>
<event>
 5   0  0.2666813E-07  0.3687796E+04  0.7818609E-02  0.8070672E-01
        1   -1    0    0  501    0  0.00000000000E+00  0.00000000000E+00  0.21282509168E+04  0.21282509168E+04  0.50400001928E-02 0.  1.
       -1   -1    0    0    0  501  0.00000000000E+00  0.00000000000E+00 -0.15975370495E+04  0.15975370496E+04  0.50400001928E-02 0. -1.
    10030    2    1    2    0    0  0.00000000000E+00  0.00000000000E+00  0.53071386721E+03  0.37257879663E+04  0.36877959218E+04 0.  0.
        1    1    3    3  502    0 -0.49630379646E+03  0.17570563418E+04  0.50296176705E+01  0.18258120778E+04  0.50400001928E-02 0.  1.
       -1    1    3    3    0  502  0.49630379646E+03 -0.17570563418E+04  0.52568424953E+03  0.18999758885E+04  0.50400001928E-02 0. -1.
</event>
<event>
 5   0  0.3959190E-07  0.3753450E+04  0.7818609E-02  0.8056219E-01
        2   -1    0    0  501    0  0.00000000000E+00  0.00000000000E+00  0.27463066602E+04  0.27463066602E+04  0.25500000920E-02 0.  1.
       -2   -1    0    0    0  501  0.00000000000E+00  0.00000000000E+00 -0.12824851433E+04  0.12824851433E+04  0.25500000920E-02 0. -1.
    10030    2    1    2    0    0  0.00000000000E+00  0.00000000000E+00  0.14638215169E+04  0.40287918035E+04  0.37534504076E+04 0.  0.
        2    1    3    3  502    0 -0.59934781835E+03  0.49595337044E+03 -0.11012715307E+04  0.13483273109E+04  0.25500000920E-02 0. -1.
       -2    1    3    3    0  502  0.59934781835E+03 -0.49595337044E+03  0.25650930476E+04  0.26804644926E+04  0.25500000920E-02 0.  1.
</event>
<event>
 5   0  0.3959190E-07  0.3974163E+04  0.7818609E-02  0.8009779E-01
       -2   -1    0    0    0  501  0.00000000000E+00  0.00000000000E+00  0.18692710525E+04  0.18692710525E+04  0.25500000920E-02 0. -1.
        2   -1    0    0  501    0  0.00000000000E+00  0.00000000000E+00 -0.21123170343E+04  0.21123170343E+04  0.25500000920E-02 0.  1.
    10030    2    1    2    0    0  0.00000000000E+00  0.00000000000E+00 -0.24304598177E+03  0.39815880869E+04  0.39741630999E+04 0.  0.
        2    1    3    3  502    0  0.14685588864E+03 -0.19388635929E+04  0.28879609088E+03  0.19657471521E+04  0.25500000920E-02 0. -1.
       -2    1    3    3    0  502 -0.14685588864E+03  0.19388635929E+04 -0.53184207266E+03  0.20158409347E+04  0.25500000920E-02 0.  1.
</event>
<event>
 5   0  0.3959190E-07  0.3896925E+04  0.7818609E-02  0.8025669E-01
        2   -1    0    0  501    0  0.00000000000E+00  0.00000000000E+00  0.22356272948E+04  0.22356272948E+04  0.25500000920E-02 0. -1.
       -2   -1    0    0    0  501  0.00000000000E+00  0.00000000000E+00 -0.16981839644E+04  0.16981839644E+04  0.25500000920E-02 0.  1.
    10030    2    1    2    0    0  0.00000000000E+00  0.00000000000E+00  0.53744333035E+03  0.39338112592E+04  0.38969251583E+04 0.  0.
        2    1    3    3  502    0 -0.88899093563E+03 -0.39268374857E+03 -0.14360502872E+04  0.17339970696E+04  0.25500000920E-02 0.  1.
       -2    1    3    3    0  502  0.88899093563E+03  0.39268374857E+03  0.19734936176E+04  0.21998141896E+04  0.25500000920E-02 0. -1.
</event>
<event>
 5   0  0.1860500E-07  0.3955342E+04  0.7818609E-02  0.8013617E-01
        3   -1    0    0  501    0  0.00000000000E+00  0.00000000000E+00  0.26011787975E+04  0.26011787994E+04  0.10100000352E+00 0.  1.
       -3   -1    0    0    0  501  0.00000000000E+00  0.00000000000E+00 -0.15036189707E+04  0.15036189740E+04  0.10100000352E+00 0. -1.
    10030    2    1    2    0    0  0.00000000000E+00  0.00000000000E+00  0.10975598268E+04  0.41047977735E+04  0.39553416019E+04 0.  0.
        2    1    3    3  502    0  0.11282316675E+04  0.77452965043E+03  0.20304456187E+04  0.24485735206E+04  0.25500000920E-02 0.  1.
       -2    1    3    3    0  502 -0.11282316675E+04 -0.77452965043E+03 -0.93288579194E+03  0.16562242529E+04  0.25500000920E-02 0. -1.
</event>
<event>
 5   0  0.1860500E-07  0.2494254E+04  0.7818609E-02  0.8405035E-01
        1   -1    0    0  501    0  0.00000000000E+00  0.00000000000E+00  0.12953075661E+04  0.12953075661E+04  0.50400001928E-02 0. -1.
       -1   -1    0    0    0  501  0.00000000000E+00  0.00000000000E+00 -0.12007385908E+04  0.12007385908E+04  0.50400001928E-02 0.  1.
    10030    2    1    2    0    0  0.00000000000E+00  0.00000000000E+00  0.94568975352E+02  0.24960461569E+04  0.24942540220E+04 0.  0.
        4    1    3    3  502    0 -0.61774658549E+03  0.96823501005E+03 -0.43910412578E+03  0.12295950247E+04  0.12699999809E+01 0. -1.
       -4    1    3    3    0  502  0.61774658549E+03 -0.96823501005E+03  0.53367310113E+03  0.12664511322E+04  0.12699999809E+01 0.  1.
</event>
<event>
 5   0  0.1876027E-07  0.3875145E+04  0.7818609E-02  0.8030219E-01
        1   -1    0    0  501    0  0.00000000000E+00  0.00000000000E+00  0.22362595903E+04  0.22362595903E+04  0.50400001928E-02 0. -1.
       -1   -1    0    0    0  501  0.00000000000E+00  0.00000000000E+00 -0.16787792710E+04  0.16787792710E+04  0.50400001928E-02 0.  1.
    10030    2    1    2    0    0  0.00000000000E+00  0.00000000000E+00  0.55748031933E+03  0.39150388613E+04  0.38751445107E+04 0.  0.
        3    1    3    3  502    0 -0.65844435367E+03  0.87918165511E+03  0.18913167391E+04  0.21871415974E+04  0.10100000352E+00 0. -1.
       -3    1    3    3    0  502  0.65844435367E+03 -0.87918165511E+03 -0.13338364197E+04  0.17278972638E+04  0.10100000352E+00 0.  1.
</event>
<event>
 5   0  0.1860500E-07  0.3709680E+04  0.7818609E-02  0.8065820E-01
        1   -1    0    0  501    0  0.00000000000E+00  0.00000000000E+00  0.15527107857E+04  0.15527107857E+04  0.50400001928E-02 0.  1.
       -1   -1    0    0    0  501  0.00000000000E+00  0.00000000000E+00 -0.22157577253E+04  0.22157577253E+04  0.50400001928E-02 0. -1.
    10030    2    1    2    0    0  0.00000000000E+00  0.00000000000E+00 -0.66304693955E+03  0.37684685110E+04  0.37096797267E+04 0.  0.
        4    1    3    3  502    0  0.15793022256E+04  0.10221760202E+03  0.65116666115E+03  0.17113338632E+04  0.12699999809E+01 0.  1.
       -4    1    3    3    0  502 -0.15793022256E+04 -0.10221760202E+03 -0.13142136007E+04  0.20571346478E+04  0.12699999809E+01 0. -1.
</event>
<event>
 5   0  0.2051739E-07  0.2450571E+04  0.7818609E-02  0.8420810E-01
       -1   -1    0    0    0  501  0.00000000000E+00  0.00000000000E+00  0.85320480456E+03  0.85320480458E+03  0.50400001928E-02 0. -1.
        1   -1    0    0  501    0  0.00000000000E+00  0.00000000000E+00 -0.17596298449E+04  0.17596298449E+04  0.50400001928E-02 0.  1.
    10030    2    1    2    0    0  0.00000000000E+00  0.00000000000E+00 -0.90642504038E+03  0.26128346495E+04  0.24505710665E+04 0.  0.
        2    1    3    3  502    0  0.68118026582E+03 -0.98693785103E+03 -0.18501819243E+03  0.12133773559E+04  0.25500000920E-02 0. -1.
       -2    1    3    3    0  502 -0.68118026582E+03  0.98693785103E+03 -0.72140684794E+03  0.13994572936E+04  0.25500000920E-02 0.  1.
</event>
<event>
 5   0  0.5805753E-07  0.2732403E+04  0.7818609E-02  0.8324567E-01
       -2   -1    0    0    0  501  0.00000000000E+00  0.00000000000E+00  0.81971351077E+03  0.81971351077E+03  0.25500000920E-02 0.  1.
        2   -1    0    0  501    0  0.00000000000E+00  0.00000000000E+00 -0.22770234571E+04  0.22770234571E+04  0.25500000920E-02 0. -1.
    10030    2    1    2    0    0  0.00000000000E+00  0.00000000000E+00 -0.14573099463E+04  0.30967369679E+04  0.27324032588E+04 0.  0.
        1    1    3    3  502    0  0.11481199385E+04 -0.73970454769E+03 -0.76733288421E+03  0.15665701281E+04  0.50400001928E-02 0. -1.
       -1    1    3    3    0  502 -0.11481199385E+04  0.73970454769E+03 -0.68997706213E+03  0.15301668397E+04  0.50400001928E-02 0.  1.
</event>
<event>
 5   0  0.3959190E-07  0.3951556E+04  0.7818609E-02  0.8014391E-01
       -2   -1    0    0    0  501  0.00000000000E+00  0.00000000000E+00  0.14505359386E+04  0.14505359386E+04  0.25500000920E-02 0. -1.
        2   -1    0    0  501    0  0.00000000000E+00  0.00000000000E+00 -0.26912106762E+04  0.26912106762E+04  0.25500000920E-02 0.  1.
    10030    2    1    2    0    0  0.00000000000E+00  0.00000000000E+00 -0.12406747376E+04  0.41417466148E+04  0.39515555439E+04 0.  0.
        2    1    3    3  502    0 -0.55104513032E+03 -0.18795632690E+04 -0.34845100421E+03  0.19894287925E+04  0.25500000920E-02 0. -1.
       -2    1    3    3    0  502  0.55104513032E+03  0.18795632690E+04 -0.89222373336E+03  0.21523178223E+04  0.25500000920E-02 0.  1.
</event>
<event>
 5   0  0.5872444E-07  0.3848025E+04  0.7818609E-02  0.8035927E-01
        2   -1    0    0  501    0  0.00000000000E+00  0.00000000000E+00  0.24729564796E+04  0.24729564796E+04  0.25500000920E-02 0. -1.
       -2   -1    0    0    0  501  0.00000000000E+00  0.00000000000E+00 -0.14969228194E+04  0.14969228194E+04  0.25500000920E-02 0.  1.
    10030    2    1    2    0    0  0.00000000000E+00  0.00000000000E+00  0.97603366020E+03  0.39698792991E+04  0.38480254603E+04 0.  0.
        3    1    3    3  502    0 -0.11316611115E+04 -0.90916647534E+03  0.17907729577E+04  0.23052349874E+04  0.10100000352E+00 0. -1.
       -3    1    3    3    0  502  0.11316611115E+04  0.90916647534E+03 -0.81473929748E+03  0.16646443116E+04  0.10100000352E+00 0.  1.
</event>
<event>
 5   0  0.5872444E-07  0.3793458E+04  0.7818609E-02  0.8047560E-01
        2   -1    0    0  501    0  0.00000000000E+00  0.00000000000E+00  0.17867407777E+04  0.17867407777E+04  0.25500000920E-02 0. -1.
       -2   -1    0    0    0  501  0.00000000000E+00  0.00000000000E+00 -0.20134875975E+04  0.20134875975E+04  0.25500000920E-02 0.  1.
    10030    2    1    2    0    0  0.00000000000E+00  0.00000000000E+00 -0.22674681987E+03  0.38002283752E+04  0.37934577345E+04 0.  0.
        3    1    3    3  502    0  0.12625427517E+04 -0.90034084856E+03 -0.12075465016E+04  0.19653998085E+04  0.10100000352E+00 0.  1.
       -3    1    3    3    0  502 -0.12625427517E+04  0.90034084856E+03  0.98079968176E+03  0.18348285667E+04  0.10100000352E+00 0. -1.
</event>
<event>
 5   0  0.1860500E-07  0.3904943E+04  0.7818609E-02  0.8024002E-01
       -1   -1    0    0    0  501  0.00000000000E+00  0.00000000000E+00  0.23353776369E+04  0.23353776369E+04  0.50400001928E-02 0.  1.
        1   -1    0    0  501    0  0.00000000000E+00  0.00000000000E+00 -0.16323463134E+04  0.16323463134E+04  0.50400001928E-02 0. -1.
    10030    2    1    2    0    0  0.00000000000E+00  0.00000000000E+00  0.70303132350E+03  0.39677239503E+04  0.39049430603E+04 0.  0.
        5    1    3    3  502    0  0.13382488010E+04 -0.78702572833E+02 -0.10908199291E+04  0.17282980518E+04  0.46999998093E+01 0. -1.
       -5    1    3    3    0  502 -0.13382488010E+04  0.78702572833E+02  0.17938512526E+04  0.22394258985E+04  0.46999998093E+01 0.  1.
</event>
<event>
 5   0  0.1943459E-07  0.3810664E+04  0.7818609E-02  0.8043870E-01
       -1   -1    0    0    0  501  0.00000000000E+00  0.00000000000E+00  0.13046746329E+04  0.13046746329E+04  0.50400001928E-02 0. -1.
        1   -1    0    0  501    0  0.00000000000E+00  0.00000000000E+00 -0.27825256879E+04  0.27825256879E+04  0.50400001928E-02 0.  1.
    10030    2    1    2    0    0  0.00000000000E+00  0.00000000000E+00 -0.14778510549E+04  0.40872003208E+04  0.38106643412E+04 0.  0.
        2    1    3    3  502    0  0.53752051256E+03  0.18269644667E+04 -0.80295004546E+03  0.20667501638E+04  0.25500000920E-02 0. -1.
       -2    1    3    3    0  502 -0.53752051256E+03 -0.18269644667E+04 -0.67490100948E+03  0.20204501570E+04  0.25500000920E-02 0.  1.
</event>
<event>
 5   0  0.1860500E-07  0.3387712E+04  0.7818609E-02  0.8140929E-01
       -1   -1    0    0    0  501  0.00000000000E+00  0.00000000000E+00  0.35581850822E+04  0.35581850822E+04  0.50400001928E-02 0. -1.
        1   -1    0    0  501    0  0.00000000000E+00  0.00000000000E+00 -0.80635152736E+03  0.80635152738E+03  0.50400001928E-02 0.  1.
    10030    2    1    2    0    0  0.00000000000E+00  0.00000000000E+00  0.27518335549E+04  0.43645366096E+04  0.33877118979E+04 0.  0.
        5    1    3    3  502    0  0.18223209983E+03  0.48575653651E+03  0.34532914484E+04  0.34920498090E+04  0.46999998093E+01 0. -1.
       -5    1    3    3    0  502 -0.18223209983E+03 -0.48575653651E+03 -0.70145789349E+03  0.87248680065E+03  0.46999998093E+01 0.  1.
</event>
<event>
 5   0  0.3959190E-07  0.3831501E+04  0.7818609E-02  0.8039428E-01
       -2   -1    0    0    0  501  0.00000000000E+00  0.00000000000E+00  0.20705259330E+04  0.20705259330E+04  0.25500000920E-02 0.  1.
        2   -1    0    0  501    0  0.00000000000E+00  0.00000000000E+00 -0.17725447374E+04  0.17725447374E+04  0.25500000920E-02 0. -1.
    10030    2    1    2    0    0  0.00000000000E+00  0.00000000000E+00  0.29798119556E+03  0.38430706704E+04  0.38315009311E+04 0.  0.
        2    1    3    3  502    0 -0.11983189182E+04  0.12016153486E+04  0.10406362250E+04  0.19906711000E+04  0.25500000920E-02 0.  1.
       -2    1    3    3    0  502  0.11983189182E+04 -0.12016153486E+04 -0.74265502942E+03  0.18523995704E+04  0.25500000920E-02 0. -1.
</event>
<event>
 5   0  0.6095665E-07  0.3857922E+04  0.7818609E-02  0.8033838E-01
       -2   -1    0    0    0  501  0.00000000000E+00  0.00000000000E+00  0.17235673301E+04  0.17235673301E+04  0.25500000920E-02 0. -1.
        2   -1    0    0  501    0  0.00000000000E+00  0.00000000000E+00 -0.21588304861E+04  0.21588304861E+04  0.25500000920E-02 0.  1.
    10030    2    1    2    0    0  0.00000000000E+00  0.00000000000E+00 -0.43526315601E+03  0.38823978163E+04  0.38579215633E+04 0.  0.
        4    1    3    3  502    0  0.11124181797E+04 -0.15730316029E+04 -0.31302461009E+03  0.19518936061E+04  0.12699999809E+01 0. -1.
       -4    1    3    3    0  502 -0.11124181797E+04  0.15730316029E+04 -0.12223854592E+03  0.19305042101E+04  0.12699999809E+01 0.  1.
</event>
<event>
 5   0  0.6095665E-07  0.2709512E+04  0.7818609E-02  0.8331925E-01
       -2   -1    0    0    0  501  0.00000000000E+00  0.00000000000E+00  0.14134355467E+04  0.14134355468E+04  0.25500000920E-02 0. -1.
        2   -1    0    0  501    0  0.00000000000E+00  0.00000000000E+00 -0.12985123156E+04  0.12985123156E+04  0.25500000920E-02 0.  1.
    10030    2    1    2    0    0  0.00000000000E+00  0.00000000000E+00  0.11492323120E+03  0.27119478623E+04  0.27095117381E+04 0.  0.
        4    1    3    3  502    0  0.85946746785E+02 -0.74162843486E+03  0.11889479567E+04  0.14039225175E+04  0.12699999809E+01 0. -1.
       -4    1    3    3    0  502 -0.85946746785E+02  0.74162843486E+03 -0.10740247255E+04  0.13080253448E+04  0.12699999809E+01 0.  1.
</event>
<event>
 5   0  0.5872444E-07  0.2752840E+04  0.7818609E-02  0.8318061E-01
       -2   -1    0    0    0  501  0.00000000000E+00  0.00000000000E+00  0.12285788807E+04  0.12285788807E+04  0.25500000920E-02 0.  1.
        2   -1    0    0  501    0  0.00000000000E+00  0.00000000000E+00 -0.15420517001E+04  0.15420517001E+04  0.25500000920E-02 0. -1.
    10030    2    1    2    0    0  0.00000000000E+00  0.00000000000E+00 -0.31347281941E+03  0.27706305808E+04  0.27528400983E+04 0.  0.
        3    1    3    3  502    0  0.10853685569E+04 -0.82626157189E+03  0.28296891440E+02  0.13643803772E+04  0.10100000352E+00 0.  1.
       -3    1    3    3    0  502 -0.10853685569E+04  0.82626157189E+03 -0.34176971085E+03  0.14062502035E+04  0.10100000352E+00 0. -1.
</event>
<event>
 5   0  0.1943459E-07  0.3911435E+04  0.7818609E-02  0.8022655E-01
        1   -1    0    0  501    0  0.00000000000E+00  0.00000000000E+00  0.21345485942E+04  0.21345485942E+04  0.50400001928E-02 0. -1.
       -1   -1    0    0    0  501  0.00000000000E+00  0.00000000000E+00 -0.17918687982E+04  0.17918687982E+04  0.50400001928E-02 0.  1.
    10030    2    1    2    0    0  0.00000000000E+00  0.00000000000E+00  0.34267979604E+03  0.39264173924E+04  0.39114350431E+04 0.  0.
        2    1    3    3  502    0 -0.17953093652E+04 -0.62219895752E+03 -0.29364466243E+03  0.19226269652E+04  0.25500000920E-02 0.  1.
       -2    1    3    3    0  502  0.17953093652E+04  0.62219895752E+03  0.63632445847E+03  0.20037904272E+04  0.25500000920E-02 0. -1.
</event>
<event>
 5   0  0.5805753E-07  0.2711115E+04  0.7818609E-02  0.8331407E-01
       -2   -1    0    0    0  501  0.00000000000E+00  0.00000000000E+00  0.69633447767E+03  0.69633447768E+03  0.25500000920E-02 0. -1.
        2   -1    0    0  501    0  0.00000000000E+00  0.00000000000E+00 -0.26388708365E+04  0.26388708365E+04  0.25500000920E-02 0.  1.
    10030    2    1    2    0    0  0.00000000000E+00  0.00000000000E+00 -0.19425363588E+04  0.33352053142E+04  0.27111154498E+04 0.  0.
        1    1    3    3  502    0  0.15230263117E+03  0.12712418979E+04 -0.42347180346E+03  0.13485475234E+04  0.50400001928E-02 0. -1.
       -1    1    3    3    0  502 -0.15230263117E+03 -0.12712418979E+04 -0.15190645554E+04  0.19866577908E+04  0.50400001928E-02 0.  1.
</event>
<event>
 5   0  0.1943459E-07  0.4050677E+04  0.7818609E-02  0.7994401E-01
        1   -1    0    0  501    0  0.00000000000E+00  0.00000000000E+00  0.13391697023E+04  0.13391697023E+04  0.50400001928E-02 0.  1.
       -1   -1    0    0    0  501  0.00000000000E+00  0.00000000000E+00 -0.30630884332E+04  0.30630884332E+04  0.50400001928E-02 0. -1.
    10030    2    1    2    0    0  0.00000000000E+00  0.00000000000E+00 -0.17239187309E+04  0.44022581355E+04  0.40506765979E+04 0.  0.
        2    1    3    3  502    0  0.85645442495E+03 -0.14004710251E+04  0.42723968084E+03  0.16962803480E+04  0.25500000920E-02 0.  1.
       -2    1    3    3    0  502 -0.85645442495E+03  0.14004710251E+04 -0.21511584117E+04  0.27059777875E+04  0.25500000920E-02 0. -1.
</event>
<event>
 5   0  0.5735179E-07  0.2791683E+04  0.7818609E-02  0.8305855E-01
        2   -1    0    0  501    0  0.00000000000E+00  0.00000000000E+00  0.25221421460E+04  0.25221421460E+04  0.25500000920E-02 0.  1.
       -2   -1    0    0    0  501  0.00000000000E+00  0.00000000000E+00 -0.77250733706E+03  0.77250733706E+03  0.25500000920E-02 0. -1.
    10030    2    1    2    0    0  0.00000000000E+00  0.00000000000E+00  0.17496348089E+04  0.32946494830E+04  0.27916828709E+04 0.  0.
        5    1    3    3  502    0  0.12708879074E+04  0.54078435183E+03  0.63658914892E+03  0.15208128165E+04  0.46999998093E+01 0. -1.
       -5    1    3    3    0  502 -0.12708879074E+04 -0.54078435183E+03  0.11130456600E+04  0.17738366665E+04  0.46999998093E+01 0.  1.
</event>
<event>
 5   0  0.5872444E-07  0.3262119E+04  0.7818609E-02  0.8172602E-01
        2   -1    0    0  501    0  0.00000000000E+00  0.00000000000E+00  0.14566650570E+04  0.14566650570E+04  0.25500000920E-02 0.  1.
       -2   -1    0    0    0  501  0.00000000000E+00  0.00000000000E+00 -0.18263321933E+04  0.18263321933E+04  0.25500000920E-02 0. -1.
    10030    2    1    2    0    0  0.00000000000E+00  0.00000000000E+00 -0.36966713629E+03  0.32829972502E+04  0.32621185069E+04 0.  0.
        3    1    3    3  502    0 -0.85148438535E+03 -0.12550306565E+04 -0.78886385760E+03  0.17095127385E+04  0.10100000352E+00 0.  1.
       -3    1    3    3    0  502  0.85148438535E+03  0.12550306565E+04  0.41919672132E+03  0.15734845117E+04  0.10100000352E+00 0. -1.
</event>
<event>
 5   0  0.1943459E-07  0.3818239E+04  0.7818609E-02  0.8042252E-01
        1   -1    0    0  501    0  0.00000000000E+00  0.00000000000E+00  0.17620340752E+04  0.17620340752E+04  0.50400001928E-02 0.  1.
       -1   -1    0    0    0  501  0.00000000000E+00  0.00000000000E+00 -0.20684826771E+04  0.20684826771E+04  0.50400001928E-02 0. -1.
    10030    2    1    2    0    0  0.00000000000E+00  0.00000000000E+00 -0.30644860197E+03  0.38305167523E+04  0.38182388406E+04 0.  0.
        2    1    3    3  502    0  0.47619622925E+02  0.88252957040E+03 -0.18508864960E+04  0.20510745701E+04  0.25500000920E-02 0. -1.
       -2    1    3    3    0  502 -0.47619622925E+02 -0.88252957040E+03  0.15444378941E+04  0.17794421822E+04  0.25500000920E-02 0.  1.
</event>
<event>
 5   0  0.5735179E-07  0.3984329E+04  0.7818609E-02  0.8007715E-01
        2   -1    0    0  501    0  0.00000000000E+00  0.00000000000E+00  0.26288341208E+04  0.26288341208E+04  0.25500000920E-02 0. -1.
       -2   -1    0    0    0  501  0.00000000000E+00  0.00000000000E+00 -0.15096878131E+04  0.15096878131E+04  0.25500000920E-02 0.  1.
    10030    2    1    2    0    0  0.00000000000E+00  0.00000000000E+00  0.11191463077E+04  0.41385219339E+04  0.39843287188E+04 0.  0.
        5    1    3    3  502    0  0.19881445034E+04  0.68658371038E+02  0.44933284955E+03  0.20394495919E+04  0.46999998093E+01 0. -1.
       -5    1    3    3    0  502 -0.19881445034E+04 -0.68658371038E+02  0.66981345811E+03  0.20990723420E+04  0.46999998093E+01 0.  1.
</event>
<event>
 5   0  0.1860500E-07  0.3805154E+04  0.7818609E-02  0.8045050E-01
       -1   -1    0    0    0  501  0.00000000000E+00  0.00000000000E+00  0.16914119939E+04  0.16914119940E+04  0.50400001928E-02 0. -1.
        1   -1    0    0  501    0  0.00000000000E+00  0.00000000000E+00 -0.21401046149E+04  0.21401046149E+04  0.50400001928E-02 0.  1.
    10030    2    1    2    0    0  0.00000000000E+00  0.00000000000E+00 -0.44869262093E+03  0.38315166088E+04  0.38051536704E+04 0.  0.
        5    1    3    3  502    0 -0.14946033554E+04  0.86164881273E+03 -0.10320876954E+04  0.20103494640E+04  0.46999998093E+01 0.  1.
       -5    1    3    3    0  502  0.14946033554E+04 -0.86164881273E+03  0.58339507450E+03  0.18211671448E+04  0.46999998093E+01 0. -1.
</event>
<event>
 5   0  0.3959190E-07  0.3819891E+04  0.7818609E-02  0.8041900E-01
       -2   -1    0    0    0  501  0.00000000000E+00  0.00000000000E+00  0.19451949436E+04  0.19451949436E+04  0.25500000920E-02 0. -1.
        2   -1    0    0  501    0  0.00000000000E+00  0.00000000000E+00 -0.18753351257E+04  0.18753351257E+04  0.25500000920E-02 0.  1.
    10030    2    1    2    0    0  0.00000000000E+00  0.00000000000E+00  0.69859817891E+02  0.38205300694E+04  0.38198913095E+04 0.  0.
        2    1    3    3  502    0 -0.91220761402E+03  0.15454688948E+04  0.68871770655E+03  0.19222197885E+04  0.25500000920E-02 0. -1.
       -2    1    3    3    0  502  0.91220761402E+03 -0.15454688948E+04 -0.61885788866E+03  0.18983102809E+04  0.25500000920E-02 0.  1.
</event>
<event>
 5   0  0.3959190E-07  0.3861376E+04  0.7818609E-02  0.8033110E-01
        2   -1    0    0  501    0  0.00000000000E+00  0.00000000000E+00  0.24932166520E+04  0.24932166520E+04  0.25500000920E-02 0. -1.
       -2   -1    0    0    0  501  0.00000000000E+00  0.00000000000E+00 -0.14950793824E+04  0.14950793824E+04  0.25500000920E-02 0.  1.
    10030    2    1    2    0    0  0.00000000000E+00  0.00000000000E+00  0.99813726962E+03  0.39882960344E+04  0.38613763413E+04 0.  0.
        2    1    3    3  502    0 -0.63808167587E+02 -0.14326507994E+04 -0.83609068819E+03  0.16600022392E+04  0.25500000920E-02 0.  1.
       -2    1    3    3    0  502  0.63808167587E+02  0.14326507994E+04  0.18342279578E+04  0.23282937952E+04  0.25500000920E-02 0. -1.
</event>
<event>
 5   0  0.1876027E-07  0.3900468E+04  0.7818609E-02  0.8024932E-01
       -1   -1    0    0    0  501  0.00000000000E+00  0.00000000000E+00  0.14187856943E+04  0.14187856944E+04  0.50400001928E-02 0.  1.
        1   -1    0    0  501    0  0.00000000000E+00  0.00000000000E+00 -0.26807518774E+04  0.26807518774E+04  0.50400001928E-02 0. -1.
    10030    2    1    2    0    0  0.00000000000E+00  0.00000000000E+00 -0.12619661831E+04  0.40995375718E+04  0.39004678765E+04 0.  0.
        3    1    3    3  502    0 -0.10423180601E+04  0.48855220838E+03  0.10236255842E+04  0.15404283643E+04  0.10100000352E+00 0.  1.
       -3    1    3    3    0  502  0.10423180601E+04 -0.48855220838E+03 -0.22855917673E+04  0.25591092075E+04  0.10100000352E+00 0. -1.
</event>
<event>
 5   0  0.6095665E-07  0.2558270E+04  0.7818609E-02  0.8382516E-01
        2   -1    0    0  501    0  0.00000000000E+00  0.00000000000E+00  0.11558153662E+04  0.11558153662E+04  0.25500000920E-02 0. -1.
       -2   -1    0    0    0  501  0.00000000000E+00  0.00000000000E+00 -0.14156118606E+04  0.14156118606E+04  0.25500000920E-02 0.  1.
    10030    2    1    2    0    0  0.00000000000E+00  0.00000000000E+00 -0.25979649436E+03  0.25714272268E+04  0.25582696817E+04 0.  0.
        4    1    3    3  502    0 -0.77429888888E+03 -0.71735705847E+03  0.59634421646E+03  0.12123398682E+04  0.12699999809E+01 0. -1.
       -4    1    3    3    0  502  0.77429888888E+03  0.71735705847E+03 -0.85614071082E+03  0.13590873586E+04  0.12699999809E+01 0.  1.
</event>
<event>
 5   0  0.2666813E-07  0.2477427E+04  0.7818609E-02  0.8411072E-01
       -1   -1    0    0    0  501  0.00000000000E+00  0.00000000000E+00  0.50407981926E+03  0.50407981929E+03  0.50400001928E-02 0. -1.
        1   -1    0    0  501    0  0.00000000000E+00  0.00000000000E+00 -0.30439852482E+04  0.30439852482E+04  0.50400001928E-02 0.  1.
    10030    2    1    2    0    0  0.00000000000E+00  0.00000000000E+00 -0.25399054290E+04  0.35480650675E+04  0.24774273219E+04 0.  0.
        1    1    3    3  502    0  0.90746988903E+03  0.51535273449E+03 -0.22256656876E+04  0.24581858744E+04  0.50400001928E-02 0.  1.
       -1    1    3    3    0  502 -0.90746988903E+03 -0.51535273449E+03 -0.31423974141E+03  0.10898791931E+04  0.50400001928E-02 0. -1.
</event>
<event>
 5   0  0.3959190E-07  0.4493587E+04  0.7818609E-02  0.7911760E-01
       -2   -1    0    0    0  501  0.00000000000E+00  0.00000000000E+00  0.30974820232E+04  0.30974820232E+04  0.25500000920E-02 0.  1.
        2   -1    0    0  501    0  0.00000000000E+00  0.00000000000E+00 -0.16297368584E+04  0.16297368584E+04  0.25500000920E-02 0. -1.
    10030    2    1    2    0    0  0.00000000000E+00  0.00000000000E+00  0.14677451648E+04  0.47272188815E+04  0.44935868174E+04 0.  0.
        2    1    3    3  502    0 -0.20400800460E+04 -0.94131218328E+03  0.72415084520E+03  0.23605909572E+04  0.25500000920E-02 0. -1.
       -2    1    3    3    0  502  0.20400800460E+04  0.94131218328E+03  0.74359431959E+03  0.23666279244E+04  0.25500000920E-02 0.  1.
</event>
<event>
 5   0  0.1876027E-07  0.3474750E+04  0.7818609E-02  0.8119800E-01
        1   -1    0    0  501    0  0.00000000000E+00  0.00000000000E+00  0.22081803727E+04  0.22081803727E+04  0.50400001928E-02 0. -1.
       -1   -1    0    0    0  501  0.00000000000E+00  0.00000000000E+00 -0.13669499487E+04  0.13669499487E+04  0.50400001928E-02 0.  1.
    10030    2    1    2    0    0  0.00000000000E+00  0.00000000000E+00  0.84123042401E+03  0.35751303214E+04  0.34747500902E+04 0.  0.
        3    1    3    3  502    0  0.25783817239E+03  0.50929436394E+03  0.21089364802E+04  0.21848282221E+04  0.10100000352E+00 0. -1.
       -3    1    3    3    0  502 -0.25783817239E+03 -0.50929436394E+03 -0.12677060562E+04  0.13903020993E+04  0.10100000352E+00 0.  1.
</event>
<event>
 5   0  0.5805753E-07  0.2697394E+04  0.7818609E-02  0.8335851E-01
       -2   -1    0    0    0  501  0.00000000000E+00  0.00000000000E+00  0.88930858823E+03  0.88930858823E+03  0.25500000920E-02 0. -1.
        2   -1    0    0  501    0  0.00000000000E+00  0.00000000000E+00 -0.20453912757E+04  0.20453912757E+04  0.25500000920E-02 0.  1.
    10030    2    1    2    0    0  0.00000000000E+00  0.00000000000E+00 -0.11560826875E+04  0.29346998640E+04  0.26973943188E+04 0.  0.
        1    1    3    3  502    0  0.31733377907E+03 -0.79200793717E+03 -0.17144459040E+04  0.19150201194E+04  0.50400001928E-02 0.  1.
       -1    1    3    3    0  502 -0.31733377907E+03  0.79200793717E+03  0.55836321652E+03  0.10196797446E+04  0.50400001928E-02 0. -1.
</event>
<event>
 5   0  0.5735179E-07  0.3735314E+04  0.7818609E-02  0.8060181E-01
       -2   -1    0    0    0  501  0.00000000000E+00  0.00000000000E+00  0.18821694984E+04  0.18821694984E+04  0.25500000920E-02 0. -1.
        2   -1    0    0  501    0  0.00000000000E+00  0.00000000000E+00 -0.18532561198E+04  0.18532561198E+04  0.25500000920E-02 0.  1.
    10030    2    1    2    0    0  0.00000000000E+00  0.00000000000E+00  0.28913378624E+02  0.37354256183E+04  0.37353137172E+04 0.  0.
        5    1    3    3  502    0 -0.93715499191E+03  0.13902268081E+04  0.83736042948E+03  0.18740823450E+04  0.46999998093E+01 0. -1.
       -5    1    3    3    0  502  0.93715499191E+03 -0.13902268081E+04 -0.80844705086E+03  0.18613432733E+04  0.46999998093E+01 0.  1.
</event>
<event>
 5   0  0.2666813E-07  0.3974841E+04  0.7818609E-02  0.8009641E-01
       -1   -1    0    0    0  501  0.00000000000E+00  0.00000000000E+00  0.26462359957E+04  0.26462359957E+04  0.50400001928E-02 0. -1.
        1   -1    0    0  501    0  0.00000000000E+00  0.00000000000E+00 -0.14926256327E+04  0.14926256328E+04  0.50400001928E-02 0.  1.
    10030    2    1    2    0    0  0.00000000000E+00  0.00000000000E+00  0.11536103630E+04  0.41388616285E+04  0.39748407150E+04 0.  0.
        1    1    3    3  502    0  0.18042185908E+04  0.91001977403E+02  0.14394561883E+04  0.23098744991E+04  0.50400001928E-02 0. -1.
       -1    1    3    3    0  502 -0.18042185908E+04 -0.91001977403E+02 -0.28584582540E+03  0.18289871293E+04  0.50400001928E-02 0.  1.
</event>
<event>
 5   0  0.1943459E-07  0.2488997E+04  0.7818609E-02  0.8406916E-01
       -1   -1    0    0    0  501  0.00000000000E+00  0.00000000000E+00  0.64625465799E+03  0.64625465801E+03  0.50400001928E-02 0.  1.
        1   -1    0    0  501    0  0.00000000000E+00  0.00000000000E+00 -0.23965420182E+04  0.23965420182E+04  0.50400001928E-02 0. -1.
    10030    2    1    2    0    0  0.00000000000E+00  0.00000000000E+00 -0.17502873602E+04  0.30427966762E+04  0.24889969404E+04 0.  0.
        2    1    3    3  502    0 -0.11281042506E+03  0.20476711838E+03  0.61916874807E+03  0.66183510285E+03  0.25500000920E-02 0.  1.
       -2    1    3    3    0  502  0.11281042506E+03 -0.20476711838E+03 -0.23694561082E+04  0.23809615733E+04  0.25500000920E-02 0. -1.
</event>
<event>
 5   0  0.1860500E-07  0.3063623E+04  0.7818609E-02  0.8225793E-01
        1   -1    0    0  501    0  0.00000000000E+00  0.00000000000E+00  0.17526896261E+04  0.17526896261E+04  0.50400001928E-02 0. -1.
       -1   -1    0    0    0  501  0.00000000000E+00  0.00000000000E+00 -0.13387691961E+04  0.13387691961E+04  0.50400001928E-02 0.  1.
    10030    2    1    2    0    0  0.00000000000E+00  0.00000000000E+00  0.41392042995E+03  0.30914588222E+04  0.30636232678E+04 0.  0.
        4    1    3    3  502    0  0.87420433325E+03  0.58248451170E+03  0.13319546315E+04  0.16963567360E+04  0.12699999809E+01 0. -1.
       -4    1    3    3    0  502 -0.87420433325E+03 -0.58248451170E+03 -0.91803420154E+03  0.13951020861E+04  0.12699999809E+01 0.  1.
</event>
<event>
 5   0  0.3959190E-07  0.3391073E+04  0.7818609E-02  0.8140101E-01
       -2   -1    0    0    0  501  0.00000000000E+00  0.00000000000E+00  0.10801604436E+04  0.10801604436E+04  0.25500000920E-02 0. -1.
        2   -1    0    0  501    0  0.00000000000E+00  0.00000000000E+00 -0.26614968533E+04  0.26614968533E+04  0.25500000920E-02 0.  1.
    10030    2    1    2    0    0  0.00000000000E+00  0.00000000000E+00 -0.15813364097E+04  0.37416572969E+04  0.33910727634E+04 0.  0.
        2    1    3    3  502    0 -0.15238693013E+04 -0.66581608475E+03 -0.42579157056E+03  0.17166208573E+04  0.25500000920E-02 0. -1.
       -2    1    3    3    0  502  0.15238693013E+04  0.66581608475E+03 -0.11555448391E+04  0.20250364396E+04  0.25500000920E-02 0.  1.
</event>
<event>
 5   0  0.3959190E-07  0.3642650E+04  0.7818609E-02  0.8080792E-01
       -2   -1    0    0    0  501  0.00000000000E+00  0.00000000000E+00  0.25678913162E+04  0.25678913162E+04  0.25500000920E-02 0. -1.
        2   -1    0    0  501    0  0.00000000000E+00  0.00000000000E+00 -0.12918086879E+04  0.12918086879E+04  0.25500000920E-02 0.  1.
    10030    2    1    2    0    0  0.00000000000E+00  0.00000000000E+00  0.12760826283E+04  0.38597000042E+04  0.36426497564E+04 0.  0.
        2    1    3    3  502    0  0.11263136446E+03  0.10157215390E+04  0.22354695417E+04  0.24579870099E+04  0.25500000920E-02 0. -1.
       -2    1    3    3    0  502 -0.11263136446E+03 -0.10157215390E+04 -0.95938691336E+03  0.14017129943E+04  0.25500000920E-02 0.  1.
</event>
<event>
 5   0  0.6095665E-07  0.4029984E+04  0.7818609E-02  0.7998525E-01
        2   -1    0    0  501    0  0.00000000000E+00  0.00000000000E+00  0.20562758057E+04  0.20562758057E+04  0.25500000920E-02 0. -1.
       -2   -1    0    0    0  501  0.00000000000E+00  0.00000000000E+00 -0.19745365983E+04  0.19745365983E+04  0.25500000920E-02 0.  1.
    10030    2    1    2    0    0  0.00000000000E+00  0.00000000000E+00  0.81739207465E+02  0.40308124040E+04  0.40299835407E+04 0.  0.
        4    1    3    3  502    0 -0.15538804474E+04  0.58766014222E+03 -0.10996724892E+04  0.19922776122E+04  0.12699999809E+01 0. -1.
       -4    1    3    3    0  502  0.15538804474E+04 -0.58766014222E+03  0.11814116967E+04  0.20385347918E+04  0.12699999809E+01 0.  1.
</event>
<event>
 5   0  0.5872444E-07  0.3502093E+04  0.7818609E-02  0.8113294E-01
        2   -1    0    0  501    0  0.00000000000E+00  0.00000000000E+00  0.17710364717E+04  0.17710364717E+04  0.25500000920E-02 0. -1.
       -2   -1    0    0    0  501  0.00000000000E+00  0.00000000000E+00 -0.17312825785E+04  0.17312825785E+04  0.25500000920E-02 0.  1.
    10030    2    1    2    0    0  0.00000000000E+00  0.00000000000E+00  0.39753893246E+02  0.35023190502E+04  0.35020934250E+04 0.  0.
        3    1    3    3  502    0 -0.94690360417E+03  0.64127806283E+03  0.13459716479E+04  0.17662116738E+04  0.10100000352E+00 0. -1.
       -3    1    3    3    0  502  0.94690360417E+03 -0.64127806283E+03 -0.13062177547E+04  0.17361073764E+04  0.10100000352E+00 0.  1.
</event>
<event>
 5   0  0.3959190E-07  0.4075841E+04  0.7818609E-02  0.7989419E-01
       -2   -1    0    0    0  501  0.00000000000E+00  0.00000000000E+00  0.31207890410E+04  0.31207890410E+04  0.25500000920E-02 0.  1.
        2   -1    0    0  501    0  0.00000000000E+00  0.00000000000E+00 -0.13307919090E+04  0.13307919090E+04  0.25500000920E-02 0. -1.
    10030    2    1    2    0    0  0.00000000000E+00  0.00000000000E+00  0.17899971320E+04  0.44515809501E+04  0.40758414128E+04 0.  0.
        2    1    3    3  502    0  0.51328301177E+03 -0.23976927931E+03 -0.12430595061E+04  0.13660694321E+04  0.25500000920E-02 0. -1.
       -2    1    3    3    0  502 -0.51328301177E+03  0.23976927931E+03  0.30330566381E+04  0.30855115180E+04  0.25500000920E-02 0.  1.
</event>
<event>
 5   0  0.6095665E-07  0.2469975E+04  0.7818609E-02  0.8413761E-01
        2   -1    0    0  501    0  0.00000000000E+00  0.00000000000E+00  0.17614903448E+04  0.17614903448E+04  0.25500000920E-02 0.  1.
       -2   -1    0    0    0  501  0.00000000000E+00  0.00000000000E+00 -0.86585457260E+03  0.86585457260E+03  0.25500000920E-02 0. -1.
    10030    2    1    2    0    0  0.00000000000E+00  0.00000000000E+00  0.89563577216E+03  0.26273449174E+04  0.24699752789E+04 0.  0.
        4    1    3    3  502    0 -0.28498547096E+03  0.55775184190E+03 -0.68436912463E+03  0.92772115824E+03  0.12699999809E+01 0. -1.
       -4    1    3    3    0  502  0.28498547096E+03 -0.55775184190E+03  0.15800048968E+04  0.16996237591E+04  0.12699999809E+01 0.  1.
</event>
<event>
 5   0  0.3959190E-07  0.3850782E+04  0.7818609E-02  0.8035344E-01
        2   -1    0    0  501    0  0.00000000000E+00  0.00000000000E+00  0.17220442351E+04  0.17220442351E+04  0.25500000920E-02 0. -1.
       -2   -1    0    0    0  501  0.00000000000E+00  0.00000000000E+00 -0.21527496627E+04  0.21527496627E+04  0.25500000920E-02 0.  1.
    10030    2    1    2    0    0  0.00000000000E+00  0.00000000000E+00 -0.43070542762E+03  0.38747938979E+04  0.38507818148E+04 0.  0.
        2    1    3    3  502    0 -0.18506986319E+04  0.15516249007E+03  0.29572121391E+03  0.18805881688E+04  0.25500000920E-02 0. -1.
       -2    1    3    3    0  502  0.18506986319E+04 -0.15516249007E+03 -0.72642664154E+03  0.19942057291E+04  0.25500000920E-02 0.  1.
</event>
<event>
 5   0  0.6095665E-07  0.3546068E+04  0.7818609E-02  0.8102958E-01
        2   -1    0    0  501    0  0.00000000000E+00  0.00000000000E+00  0.13886519689E+04  0.13886519689E+04  0.25500000920E-02 0.  1.
       -2   -1    0    0    0  501  0.00000000000E+00  0.00000000000E+00 -0.22638133723E+04  0.22638133723E+04  0.25500000920E-02 0. -1.
    10030    2    1    2    0    0  0.00000000000E+00  0.00000000000E+00 -0.87516140332E+03  0.36524653412E+04  0.35460676230E+04 0.  0.
        4    1    3    3  502    0 -0.62216163051E+03 -0.11823212207E+04 -0.16381783187E+04  0.21139059535E+04  0.12699999809E+01 0. -1.
       -4    1    3    3    0  502  0.62216163051E+03  0.11823212207E+04  0.76301691536E+03  0.15385593877E+04  0.12699999809E+01 0.  1.
</event>
<event>
 5   0  0.5872444E-07  0.3914872E+04  0.7818609E-02  0.8021943E-01
        2   -1    0    0  501    0  0.00000000000E+00  0.00000000000E+00  0.15747451701E+04  0.15747451701E+04  0.25500000920E-02 0. -1.
       -2   -1    0    0    0  501  0.00000000000E+00  0.00000000000E+00 -0.24331278213E+04  0.24331278213E+04  0.25500000920E-02 0.  1.
    10030    2    1    2    0    0  0.00000000000E+00  0.00000000000E+00 -0.85838265116E+03  0.40078729915E+04  0.39148723018E+04 0.  0.
        3    1    3    3  502    0 -0.53620364892E+03  0.13997140066E+04  0.85962022898E+03  0.17279064216E+04  0.10100000352E+00 0. -1.
       -3    1    3    3    0  502  0.53620364892E+03 -0.13997140066E+04 -0.17180028801E+04  0.22799665699E+04  0.10100000352E+00 0.  1.
</event>
<event>
 5   0  0.1943459E-07  0.3902737E+04  0.7818609E-02  0.8024460E-01
        1   -1    0    0  501    0  0.00000000000E+00  0.00000000000E+00  0.22001289713E+04  0.22001289713E+04  0.50400001928E-02 0. -1.
       -1   -1    0    0    0  501  0.00000000000E+00  0.00000000000E+00 -0.17307342909E+04  0.17307342909E+04  0.50400001928E-02 0.  1.
    10030    2    1    2    0    0  0.00000000000E+00  0.00000000000E+00  0.46939468035E+03  0.39308632622E+04  0.39027368115E+04 0.  0.
        2    1    3    3  502    0 -0.24068717552E+03 -0.24814470262E+03  0.21690413255E+04  0.21964167140E+04  0.25500000920E-02 0. -1.
       -2    1    3    3    0  502  0.24068717552E+03  0.24814470262E+03 -0.16996466452E+04  0.17344465481E+04  0.25500000920E-02 0.  1.
</event>
<event>
 5   0  0.5872444E-07  0.2636339E+04  0.7818609E-02  0.8355961E-01
        2   -1    0    0  501    0  0.00000000000E+00  0.00000000000E+00  0.12029438379E+04  0.12029438379E+04  0.25500000920E-02 0. -1.
       -2   -1    0    0    0  501  0.00000000000E+00  0.00000000000E+00 -0.14444322034E+04  0.14444322034E+04  0.25500000920E-02 0.  1.
    10030    2    1    2    0    0  0.00000000000E+00  0.00000000000E+00 -0.24148836550E+03  0.26473760413E+04  0.26363389906E+04 0.  0.
        3    1    3    3  502    0 -0.63225499845E+03 -0.77492990667E+03  0.74151707566E+03  0.12450342674E+04  0.10100000352E+00 0.  1.
       -3    1    3    3    0  502  0.63225499845E+03  0.77492990667E+03 -0.98300544116E+03  0.14023417739E+04  0.10100000352E+00 0. -1.
</event>
<event>
 5   0  0.5872444E-07  0.3950947E+04  0.7818609E-02  0.8014516E-01
       -2   -1    0    0    0  501  0.00000000000E+00  0.00000000000E+00  0.13446217194E+04  0.13446217194E+04  0.25500000920E-02 0. -1.
        2   -1    0    0  501    0  0.00000000000E+00  0.00000000000E+00 -0.29023000729E+04  0.29023000729E+04  0.25500000920E-02 0.  1.
    10030    2    1    2    0    0  0.00000000000E+00  0.00000000000E+00 -0.15576783535E+04  0.42469217923E+04  0.39509470835E+04 0.  0.
        3    1    3    3  502    0  0.11416746845E+04  0.72485086682E+03  0.76905917259E+03  0.15557255174E+04  0.10100000352E+00 0. -1.
       -3    1    3    3    0  502 -0.11416746845E+04 -0.72485086682E+03 -0.23267375261E+04  0.26911962749E+04  0.10100000352E+00 0.  1.
</event>
<event>
 5   0  0.5735179E-07  0.3830108E+04  0.7818609E-02  0.8039724E-01
       -2   -1    0    0    0  501  0.00000000000E+00  0.00000000000E+00  0.16044561979E+04  0.16044561979E+04  0.25500000920E-02 0. -1.
        2   -1    0    0  501    0  0.00000000000E+00  0.00000000000E+00 -0.22857790581E+04  0.22857790581E+04  0.25500000920E-02 0.  1.
    10030    2    1    2    0    0  0.00000000000E+00  0.00000000000E+00 -0.68132286019E+03  0.38902352561E+04  0.38301082893E+04 0.  0.
        5    1    3    3  502    0 -0.17929024044E+04 -0.63534796880E+03 -0.11526739636E+03  0.19056428668E+04  0.46999998093E+01 0. -1.
       -5    1    3    3    0  502  0.17929024044E+04  0.63534796880E+03 -0.56605546383E+03  0.19845923892E+04  0.46999998093E+01 0.  1.
</event>
<event>
 5   0  0.1860500E-07  0.2929911E+04  0.7818609E-02  0.8264033E-01
        1   -1    0    0  501    0  0.00000000000E+00  0.00000000000E+00  0.21462978315E+04  0.21462978315E+04  0.50400001928E-02 0. -1.
       -1   -1    0    0    0  501  0.00000000000E+00  0.00000000000E+00 -0.99990533471E+03  0.99990533472E+03  0.50400001928E-02 0.  1.
    10030    2    1    2    0    0  0.00000000000E+00  0.00000000000E+00  0.11463924968E+04  0.31462031663E+04  0.29299110237E+04 0.  0.
        4    1    3    3  502    0  0.28332369876E+03 -0.29890509463E+03 -0.93646030165E+03  0.10230230121E+04  0.12699999809E+01 0.  1.
       -4    1    3    3    0  502 -0.28332369876E+03  0.29890509463E+03  0.20828527985E+04  0.21231801541E+04  0.12699999809E+01 0. -1.
</event>
<event>
 5   0  0.1860500E-07  0.3903183E+04  0.7818609E-02  0.8024368E-01
       -1   -1    0    0    0  501  0.00000000000E+00  0.00000000000E+00  0.26983772078E+04  0.26983772078E+04  0.50400001928E-02 0. -1.
        1   -1    0    0  501    0  0.00000000000E+00  0.00000000000E+00 -0.14114813297E+04  0.14114813297E+04  0.50400001928E-02 0.  1.
    10030    2    1    2    0    0  0.00000000000E+00  0.00000000000E+00  0.12868958781E+04  0.41098585376E+04  0.39031828291E+04 0.  0.
        5    1    3    3  502    0  0.93744052157E+03  0.93385501004E+03  0.21539116794E+04  0.25278919131E+04  0.46999998093E+01 0. -1.
       -5    1    3    3    0  502 -0.93744052157E+03 -0.93385501004E+03 -0.86701580135E+03  0.15819666245E+04  0.46999998093E+01 0.  1.
</event>
<event>
 5   0  0.1860500E-07  0.4086548E+04  0.7818609E-02  0.7987311E-01
       -1   -1    0    0    0  501  0.00000000000E+00  0.00000000000E+00  0.21484421487E+04  0.21484421487E+04  0.50400001928E-02 0.  1.
        1   -1    0    0  501    0  0.00000000000E+00  0.00000000000E+00 -0.19432542656E+04  0.19432542657E+04  0.50400001928E-02 0. -1.
    10030    2    1    2    0    0  0.00000000000E+00  0.00000000000E+00  0.20518788301E+03  0.40916964143E+04  0.40865483577E+04 0.  0.
        5    1    3    3  502    0  0.12378827418E+04 -0.90668362925E+03  0.14535595604E+04  0.21135956027E+04  0.46999998093E+01 0.  1.
       -5    1    3    3    0  502 -0.12378827418E+04  0.90668362925E+03 -0.12483716774E+04  0.19781008116E+04  0.46999998093E+01 0. -1.
</event>
<event>
 5   0  0.5805753E-07  0.3915467E+04  0.7818609E-02  0.8021820E-01
        2   -1    0    0  501    0  0.00000000000E+00  0.00000000000E+00  0.27353748299E+04  0.27353748299E+04  0.25500000920E-02 0. -1.
       -2   -1    0    0    0  501  0.00000000000E+00  0.00000000000E+00 -0.14011681175E+04  0.14011681175E+04  0.25500000920E-02 0.  1.
    10030    2    1    2    0    0  0.00000000000E+00  0.00000000000E+00  0.13342067124E+04  0.41365429473E+04  0.39154667670E+04 0.  0.
        1    1    3    3  502    0 -0.64595876783E+03  0.17972531952E+04  0.21228656115E+03  0.19215741884E+04  0.50400001928E-02 0.  1.
       -1    1    3    3    0  502  0.64595876783E+03 -0.17972531952E+04  0.11219201512E+04  0.22149687590E+04  0.50400001928E-02 0. -1.
</event>
<event>
 5   0  0.5805753E-07  0.3892291E+04  0.7818609E-02  0.8026634E-01
        2   -1    0    0  501    0  0.00000000000E+00  0.00000000000E+00  0.13068555954E+04  0.13068555954E+04  0.25500000920E-02 0. -1.
       -2   -1    0    0    0  501  0.00000000000E+00  0.00000000000E+00 -0.28981642367E+04  0.28981642367E+04  0.25500000920E-02 0.  1.
    10030    2    1    2    0    0  0.00000000000E+00  0.00000000000E+00 -0.15913086412E+04  0.42050198321E+04  0.38922909188E+04 0.  0.
        1    1    3    3  502    0 -0.54933736724E+03 -0.57371954320E+03 -0.27150722113E+04  0.28288765915E+04  0.50400001928E-02 0.  1.
       -1    1    3    3    0  502  0.54933736724E+03  0.57371954320E+03  0.11237635701E+04  0.13761432406E+04  0.50400001928E-02 0. -1.
</event>
<event>
 5   0  0.1860500E-07  0.4226580E+04  0.7818609E-02  0.7960335E-01
       -1   -1    0    0    0  501  0.00000000000E+00  0.00000000000E+00  0.19638643921E+04  0.19638643921E+04  0.50400001928E-02 0. -1.
        1   -1    0    0  501    0  0.00000000000E+00  0.00000000000E+00 -0.22740853713E+04  0.22740853713E+04  0.50400001928E-02 0.  1.
    10030    2    1    2    0    0  0.00000000000E+00  0.00000000000E+00 -0.31022097923E+03  0.42379497634E+04  0.42265803128E+04 0.  0.
        4    1    3    3  502    0 -0.41894749487E+03 -0.10438248097E+04 -0.19490308885E+04  0.22502911487E+04  0.12699999809E+01 0.  1.
       -4    1    3    3    0  502  0.41894749487E+03  0.10438248097E+04  0.16388099093E+04  0.19876586146E+04  0.12699999809E+01 0. -1.
</event>
<event>
 5   0  0.3959190E-07  0.3942680E+04  0.7818609E-02  0.8016211E-01
       -2   -1    0    0    0  501  0.00000000000E+00  0.00000000000E+00  0.28031071548E+04  0.28031071548E+04  0.25500000920E-02 0.  1.
        2   -1    0    0  501    0  0.00000000000E+00  0.00000000000E+00 -0.13863831319E+04  0.13863831319E+04  0.25500000920E-02 0. -1.
    10030    2    1    2    0    0  0.00000000000E+00  0.00000000000E+00  0.14167240229E+04  0.41894902866E+04  0.39426795336E+04 0.  0.
        2    1    3    3  502    0 -0.17101187626E+04 -0.90131370784E+03  0.11189545890E+04  0.22335917162E+04  0.25500000920E-02 0.  1.
       -2    1    3    3    0  502  0.17101187626E+04  0.90131370784E+03  0.29776943389E+03  0.19558985705E+04  0.25500000920E-02 0. -1.
</event>
<event>
 5   0  0.1860500E-07  0.3877897E+04  0.7818609E-02  0.8029642E-01
       -3   -1    0    0    0  501  0.00000000000E+00  0.00000000000E+00  0.17009691086E+04  0.17009691116E+04  0.10100000352E+00 0. -1.
        3   -1    0    0  501    0  0.00000000000E+00  0.00000000000E+00 -0.22102229330E+04  0.22102229353E+04  0.10100000352E+00 0.  1.
    10030    2    1    2    0    0  0.00000000000E+00  0.00000000000E+00 -0.50925382444E+03  0.39111920469E+04  0.38778968230E+04 0.  0.
        1    1    3    3  502    0  0.87627817437E+03 -0.92997624949E+03 -0.17255040190E+04  0.21471104730E+04  0.50400001928E-02 0.  1.
       -1    1    3    3    0  502 -0.87627817437E+03  0.92997624949E+03  0.12162501946E+04  0.17640815739E+04  0.50400001928E-02 0. -1.
</event>
<event>
 5   0  0.5735179E-07  0.4033341E+04  0.7818609E-02  0.7997854E-01
       -2   -1    0    0    0  501  0.00000000000E+00  0.00000000000E+00  0.15291267300E+04  0.15291267300E+04  0.25500000920E-02 0. -1.
        2   -1    0    0  501    0  0.00000000000E+00  0.00000000000E+00 -0.26596619261E+04  0.26596619261E+04  0.25500000920E-02 0.  1.
    10030    2    1    2    0    0  0.00000000000E+00  0.00000000000E+00 -0.11305351961E+04  0.41887886561E+04  0.40333411182E+04 0.  0.
        5    1    3    3  502    0 -0.20887140372E+03 -0.19820949328E+04 -0.88471038804E+03  0.21806104986E+04  0.46999998093E+01 0. -1.
       -5    1    3    3    0  502  0.20887140372E+03  0.19820949328E+04 -0.24582480806E+03  0.20081781575E+04  0.46999998093E+01 0.  1.
</event>
<event>
 5   0  0.5735179E-07  0.3856126E+04  0.7818609E-02  0.8034217E-01
       -2   -1    0    0    0  501  0.00000000000E+00  0.00000000000E+00  0.22789695046E+04  0.22789695046E+04  0.25500000920E-02 0.  1.
        2   -1    0    0  501    0  0.00000000000E+00  0.00000000000E+00 -0.16311873467E+04  0.16311873467E+04  0.25500000920E-02 0. -1.
    10030    2    1    2    0    0  0.00000000000E+00  0.00000000000E+00  0.64778215797E+03  0.39101568513E+04  0.38561256304E+04 0.  0.
        5    1    3    3  502    0 -0.87436775730E+03  0.14812294738E+04 -0.55943158033E+03  0.18087414166E+04  0.46999998093E+01 0. -1.
       -5    1    3    3    0  502  0.87436775730E+03 -0.14812294738E+04  0.12072137383E+04  0.21014154347E+04  0.46999998093E+01 0.  1.
</event>
<event>
 5   0  0.2666813E-07  0.3138840E+04  0.7818609E-02  0.8205159E-01
        1   -1    0    0  501    0  0.00000000000E+00  0.00000000000E+00  0.16893280863E+04  0.16893280863E+04  0.50400001928E-02 0.  1.
       -1   -1    0    0    0  501  0.00000000000E+00  0.00000000000E+00 -0.14580232789E+04  0.14580232789E+04  0.50400001928E-02 0. -1.
    10030    2    1    2    0    0  0.00000000000E+00  0.00000000000E+00  0.23130480740E+03  0.31473513652E+04  0.31388403435E+04 0.  0.
        1    1    3    3  502    0  0.14743025062E+04 -0.36824421413E+03 -0.27772244873E+03  0.15447658203E+04  0.50400001928E-02 0.  1.
       -1    1    3    3    0  502 -0.14743025062E+04  0.36824421413E+03  0.50902725612E+03  0.16025855448E+04  0.50400001928E-02 0. -1.
</event>
<event>
 5   0  0.1943459E-07  0.2938372E+04  0.7818609E-02  0.8261551E-01
       -1   -1    0    0    0  501  0.00000000000E+00  0.00000000000E+00  0.11758333441E+04  0.11758333441E+04  0.50400001928E-02 0. -1.
        1   -1    0    0  501    0  0.00000000000E+00  0.00000000000E+00 -0.18357253110E+04  0.18357253111E+04  0.50400001928E-02 0.  1.
    10030    2    1    2    0    0  0.00000000000E+00  0.00000000000E+00 -0.65989196698E+03  0.30115586551E+04  0.29383716792E+04 0.  0.
        2    1    3    3  502    0 -0.13396505106E+04  0.52765286417E+03 -0.30388880763E+02  0.14401404514E+04  0.25500000920E-02 0. -1.
       -2    1    3    3    0  502  0.13396505106E+04 -0.52765286417E+03 -0.62950308622E+03  0.15714182038E+04  0.25500000920E-02 0.  1.
</event>
<event>
 5   0  0.5872444E-07  0.3935343E+04  0.7818609E-02  0.8017718E-01
        2   -1    0    0  501    0  0.00000000000E+00  0.00000000000E+00  0.23416897877E+04  0.23416897877E+04  0.25500000920E-02 0.  1.
       -2   -1    0    0    0  501  0.00000000000E+00  0.00000000000E+00 -0.16533922833E+04  0.16533922833E+04  0.25500000920E-02 0. -1.
    10030    2    1    2    0    0  0.00000000000E+00  0.00000000000E+00  0.68829750437E+03  0.39950820710E+04  0.39353433521E+04 0.  0.
        3    1    3    3  502    0 -0.66869879135E+03 -0.93059883140E+03  0.19679798001E+04  0.22773047144E+04  0.10100000352E+00 0.  1.
       -3    1    3    3    0  502  0.66869879135E+03  0.93059883140E+03 -0.12796822957E+04  0.17177773565E+04  0.10100000352E+00 0. -1.
</event>
<event>
 5   0  0.6095665E-07  0.3410432E+04  0.7818609E-02  0.8135351E-01
        2   -1    0    0  501    0  0.00000000000E+00  0.00000000000E+00  0.17947896818E+04  0.17947896818E+04  0.25500000920E-02 0.  1.
       -2   -1    0    0    0  501  0.00000000000E+00  0.00000000000E+00 -0.16201128601E+04  0.16201128601E+04  0.25500000920E-02 0. -1.
    10030    2    1    2    0    0  0.00000000000E+00  0.00000000000E+00  0.17467682167E+03  0.34149025420E+04  0.34104321396E+04 0.  0.
        4    1    3    3  502    0  0.64492678904E+03 -0.37791885487E+03 -0.14473176456E+04  0.16289515659E+04  0.12699999809E+01 0. -1.
       -4    1    3    3    0  502 -0.64492678904E+03  0.37791885487E+03  0.16219944672E+04  0.17859509760E+04  0.12699999809E+01 0.  1.
</event>
<event>
 5   0  0.5735179E-07  0.3884480E+04  0.7818609E-02  0.8028265E-01
       -2   -1    0    0    0  501  0.00000000000E+00  0.00000000000E+00  0.24278001089E+04  0.24278001089E+04  0.25500000920E-02 0.  1.
        2   -1    0    0  501    0  0.00000000000E+00  0.00000000000E+00 -0.15537919587E+04  0.15537919587E+04  0.25500000920E-02 0. -1.
    10030    2    1    2    0    0  0.00000000000E+00  0.00000000000E+00  0.87400815018E+03  0.39815920676E+04  0.38844800355E+04 0.  0.
        5    1    3    3  502    0  0.14394588174E+04  0.11876764117E+04  0.98865718494E+03  0.21118906376E+04  0.46999998093E+01 0.  1.
       -5    1    3    3    0  502 -0.14394588174E+04 -0.11876764117E+04 -0.11464903476E+03  0.18697014299E+04  0.46999998093E+01 0. -1.
</event>
<event>
 5   0  0.5735179E-07  0.3799318E+04  0.7818609E-02  0.8046301E-01
       -2   -1    0    0    0  501  0.00000000000E+00  0.00000000000E+00  0.13758866152E+04  0.13758866153E+04  0.25500000920E-02 0.  1.
        2   -1    0    0  501    0  0.00000000000E+00  0.00000000000E+00 -0.26228212192E+04  0.26228212192E+04  0.25500000920E-02 0. -1.
    10030    2    1    2    0    0  0.00000000000E+00  0.00000000000E+00 -0.12469346039E+04  0.39987078344E+04  0.37993181544E+04 0.  0.
        5    1    3    3  502    0  0.93750366202E+03  0.71487187769E+03  0.94424369154E+03  0.15104877215E+04  0.46999998093E+01 0.  1.
       -5    1    3    3    0  502 -0.93750366202E+03 -0.71487187769E+03 -0.21911782955E+04  0.24882201129E+04  0.46999998093E+01 0. -1.
</event>
<event>
 5   0  0.5805753E-07  0.3620478E+04  0.7818609E-02  0.8085817E-01
       -2   -1    0    0    0  501  0.00000000000E+00  0.00000000000E+00  0.10880177325E+04  0.10880177325E+04  0.25500000920E-02 0.  1.
        2   -1    0    0  501    0  0.00000000000E+00  0.00000000000E+00 -0.30118677311E+04  0.30118677311E+04  0.25500000920E-02 0. -1.
    10030    2    1    2    0    0  0.00000000000E+00  0.00000000000E+00 -0.19238499986E+04  0.40998854637E+04  0.36204781450E+04 0.  0.
        1    1    3    3  502    0  0.13347336451E+04  0.64900582089E+03  0.21177490306E+03  0.14991901375E+04  0.50400001928E-02 0.  1.
       -1    1    3    3    0  502 -0.13347336451E+04 -0.64900582089E+03 -0.21356249017E+04  0.26006953262E+04  0.50400001928E-02 0. -1.
</event>
<event>
 5   0  0.3959190E-07  0.2604286E+04  0.7818609E-02  0.8366747E-01
        2   -1    0    0  501    0  0.00000000000E+00  0.00000000000E+00  0.12110274049E+04  0.12110274049E+04  0.25500000920E-02 0. -1.
       -2   -1    0    0    0  501  0.00000000000E+00  0.00000000000E+00 -0.14001145091E+04  0.14001145091E+04  0.25500000920E-02 0.  1.
    10030    2    1    2    0    0  0.00000000000E+00  0.00000000000E+00 -0.18908710416E+03  0.26111419140E+04  0.26042864977E+04 0.  0.
        2    1    3    3  502    0  0.65228839871E+03  0.43540299444E+03 -0.11367610167E+04  0.13810436386E+04  0.25500000920E-02 0.  1.
       -2    1    3    3    0  502 -0.65228839871E+03 -0.43540299444E+03  0.94767391254E+03  0.12300982754E+04  0.25500000920E-02 0. -1.
</event>
<event>
 5   0  0.1860500E-07  0.3073884E+04  0.7818609E-02  0.8222942E-01
       -1   -1    0    0    0  501  0.00000000000E+00  0.00000000000E+00  0.20199134268E+04  0.20199134268E+04  0.50400001928E-02 0.  1.
        1   -1    0    0  501    0  0.00000000000E+00  0.00000000000E+00 -0.11694516911E+04  0.11694516911E+04  0.50400001928E-02 0. -1.
    10030    2    1    2    0    0  0.00000000000E+00  0.00000000000E+00  0.85046173576E+03  0.31893651179E+04  0.30738843003E+04 0.  0.
        5    1    3    3  502    0 -0.15065454624E+04 -0.29434125235E+03  0.34585126120E+03  0.15735155506E+04  0.46999998093E+01 0.  1.
       -5    1    3    3    0  502  0.15065454624E+04  0.29434125235E+03  0.50461047456E+03  0.16158495673E+04  0.46999998093E+01 0. -1.
</event>
<event>
 5   0  0.5872444E-07  0.3907046E+04  0.7818609E-02  0.8023565E-01
        2   -1    0    0  501    0  0.00000000000E+00  0.00000000000E+00  0.26966161808E+04  0.26966161808E+04  0.25500000920E-02 0. -1.
       -2   -1    0    0    0  501  0.00000000000E+00  0.00000000000E+00 -0.14152001690E+04  0.14152001690E+04  0.25500000920E-02 0.  1.
    10030    2    1    2    0    0  0.00000000000E+00  0.00000000000E+00  0.12814160118E+04  0.41118163497E+04  0.39070457764E+04 0.  0.
        3    1    3    3  502    0  0.19657471168E+03  0.13779391431E+04  0.20832760988E+04  0.25054734509E+04  0.10100000352E+00 0. -1.
       -3    1    3    3    0  502 -0.19657471168E+03 -0.13779391431E+04 -0.80186008699E+03  0.16063428988E+04  0.10100000352E+00 0.  1.
</event>
<event>
 5   0  0.3959190E-07  0.2483229E+04  0.7818609E-02  0.8408985E-01
       -2   -1    0    0    0  501  0.00000000000E+00  0.00000000000E+00  0.13529541589E+04  0.13529541589E+04  0.25500000920E-02 0. -1.
        2   -1    0    0  501    0  0.00000000000E+00  0.00000000000E+00 -0.11394371999E+04  0.11394371999E+04  0.25500000920E-02 0.  1.
    10030    2    1    2    0    0  0.00000000000E+00  0.00000000000E+00  0.21351695899E+03  0.24923913588E+04  0.24832287840E+04 0.  0.
        2    1    3    3  502    0 -0.18991788237E+03  0.31832411254E+02  0.13378748072E+04  0.13516623484E+04  0.25500000920E-02 0. -1.
       -2    1    3    3    0  502  0.18991788237E+03 -0.31832411254E+02 -0.11243578482E+04  0.11407290104E+04  0.25500000920E-02 0.  1.
</event>
<event>
 5   0  0.6095665E-07  0.2559014E+04  0.7818609E-02  0.8382258E-01
       -2   -1    0    0    0  501  0.00000000000E+00  0.00000000000E+00  0.12484438329E+04  0.12484438329E+04  0.25500000920E-02 0. -1.
        2   -1    0    0  501    0  0.00000000000E+00  0.00000000000E+00 -0.13113428416E+04  0.13113428416E+04  0.25500000920E-02 0.  1.
    10030    2    1    2    0    0  0.00000000000E+00  0.00000000000E+00 -0.62899008708E+02  0.25597866745E+04  0.25590137815E+04 0.  0.
        4    1    3    3  502    0 -0.87119375438E+03  0.90236769485E+03  0.22139205726E+03  0.12736805213E+04  0.12699999809E+01 0.  1.
       -4    1    3    3    0  502  0.87119375438E+03 -0.90236769485E+03 -0.28429106597E+03  0.12861061533E+04  0.12699999809E+01 0. -1.
</event>
<event>
 5   0  0.1860500E-07  0.3969882E+04  0.7818609E-02  0.8010650E-01
       -1   -1    0    0    0  501  0.00000000000E+00  0.00000000000E+00  0.13368682720E+04  0.13368682720E+04  0.50400001928E-02 0. -1.
        1   -1    0    0  501    0  0.00000000000E+00  0.00000000000E+00 -0.29471796930E+04  0.29471796930E+04  0.50400001928E-02 0.  1.
    10030    2    1    2    0    0  0.00000000000E+00  0.00000000000E+00 -0.16103114210E+04  0.42840479650E+04  0.39698821259E+04 0.  0.
        4    1    3    3  502    0 -0.18041843106E+04 -0.48855786614E+03 -0.15260158836E+04  0.24129848539E+04  0.12699999809E+01 0.  1.
       -4    1    3    3    0  502  0.18041843106E+04  0.48855786614E+03 -0.84295537422E+02  0.18710631111E+04  0.12699999809E+01 0. -1.
</event>
<event>
 5   0  0.5805753E-07  0.3699023E+04  0.7818609E-02  0.8068178E-01
        2   -1    0    0  501    0  0.00000000000E+00  0.00000000000E+00  0.18736662230E+04  0.18736662230E+04  0.25500000920E-02 0. -1.
       -2   -1    0    0    0  501  0.00000000000E+00  0.00000000000E+00 -0.18256679493E+04  0.18256679493E+04  0.25500000920E-02 0.  1.
    10030    2    1    2    0    0  0.00000000000E+00  0.00000000000E+00  0.47998273709E+02  0.36993341724E+04  0.36990227743E+04 0.  0.
        1    1    3    3  502    0 -0.89431057443E+03 -0.58439840442E+03 -0.14858893566E+04  0.18300765226E+04  0.50400001928E-02 0.  1.
       -1    1    3    3    0  502  0.89431057443E+03  0.58439840442E+03  0.15338876303E+04  0.18692576497E+04  0.50400001928E-02 0. -1.
</event>
<event>
 5   0  0.5735179E-07  0.3890840E+04  0.7818609E-02  0.8026937E-01
        2   -1    0    0  501    0  0.00000000000E+00  0.00000000000E+00  0.21359563184E+04  0.21359563184E+04  0.25500000920E-02 0.  1.
       -2   -1    0    0    0  501  0.00000000000E+00  0.00000000000E+00 -0.17718799207E+04  0.17718799207E+04  0.25500000920E-02 0. -1.
    10030    2    1    2    0    0  0.00000000000E+00  0.00000000000E+00  0.36407639769E+03  0.39078362391E+04  0.38908395557E+04 0.  0.
        5    1    3    3  502    0  0.13909945579E+04  0.12051842901E+03 -0.11785920256E+04  0.18271540178E+04  0.46999998093E+01 0. -1.
       -5    1    3    3    0  502 -0.13909945579E+04 -0.12051842901E+03  0.15426684233E+04  0.20806822213E+04  0.46999998093E+01 0.  1.
</event>
<event>
 5   0  0.1876027E-07  0.3906716E+04  0.7818609E-02  0.8023634E-01
        1   -1    0    0  501    0  0.00000000000E+00  0.00000000000E+00  0.14609158476E+04  0.14609158476E+04  0.50400001928E-02 0. -1.
       -1   -1    0    0    0  501  0.00000000000E+00  0.00000000000E+00 -0.26117916891E+04  0.26117916891E+04  0.50400001928E-02 0.  1.
    10030    2    1    2    0    0  0.00000000000E+00  0.00000000000E+00 -0.11508758415E+04  0.40727075367E+04  0.39067162012E+04 0.  0.
        3    1    3    3  502    0  0.12629931954E+04 -0.12507045746E+04 -0.14199143380E+04  0.22749880181E+04  0.10100000352E+00 0. -1.
       -3    1    3    3    0  502 -0.12629931954E+04  0.12507045746E+04  0.26903849654E+03  0.17977195186E+04  0.10100000352E+00 0.  1.
</event>
<event>
 5   0  0.1943459E-07  0.3947115E+04  0.7818609E-02  0.8015301E-01
       -1   -1    0    0    0  501  0.00000000000E+00  0.00000000000E+00  0.16713354749E+04  0.16713354749E+04  0.50400001928E-02 0.  1.
        1   -1    0    0  501    0  0.00000000000E+00  0.00000000000E+00 -0.23304295763E+04  0.23304295763E+04  0.50400001928E-02 0. -1.
    10030    2    1    2    0    0  0.00000000000E+00  0.00000000000E+00 -0.65909410144E+03  0.40017650512E+04  0.39471152112E+04 0.  0.
        2    1    3    3  502    0  0.35203189808E+03 -0.19230127307E+04 -0.60352030623E+03  0.20460061534E+04  0.25500000920E-02 0. -1.
       -2    1    3    3    0  502 -0.35203189808E+03  0.19230127307E+04 -0.55573795217E+02  0.19557588978E+04  0.25500000920E-02 0.  1.
</event>
<event>
 5   0  0.6095665E-07  0.3901571E+04  0.7818609E-02  0.8024703E-01
        2   -1    0    0  501    0  0.00000000000E+00  0.00000000000E+00  0.12648726589E+04  0.12648726589E+04  0.25500000920E-02 0.  1.
       -2   -1    0    0    0  501  0.00000000000E+00  0.00000000000E+00 -0.30086536753E+04  0.30086536753E+04  0.25500000920E-02 0. -1.
    10030    2    1    2    0    0  0.00000000000E+00  0.00000000000E+00 -0.17437810164E+04  0.42735263343E+04  0.39015708499E+04 0.  0.
        4    1    3    3  502    0 -0.15340512664E+04  0.42157421628E+02  0.44728173694E+03  0.15984846265E+04  0.12699999809E+01 0.  1.
       -4    1    3    3    0  502  0.15340512664E+04 -0.42157421628E+02 -0.21910627533E+04  0.26750417077E+04  0.12699999809E+01 0. -1.
</event>
<event>
 5   0  0.1876027E-07  0.4085312E+04  0.7818609E-02  0.7987554E-01
       -1   -1    0    0    0  501  0.00000000000E+00  0.00000000000E+00  0.17362604021E+04  0.17362604021E+04  0.50400001928E-02 0. -1.
        1   -1    0    0  501    0  0.00000000000E+00  0.00000000000E+00 -0.24031203931E+04  0.24031203931E+04  0.50400001928E-02 0.  1.
    10030    2    1    2    0    0  0.00000000000E+00  0.00000000000E+00 -0.66685999100E+03  0.41393807953E+04  0.40853116308E+04 0.  0.
        3    1    3    3  502    0 -0.27475490699E+03 -0.84804772740E+03 -0.21956246273E+04  0.23696925373E+04  0.10100000352E+00 0.  1.
       -3    1    3    3    0  502  0.27475490699E+03  0.84804772740E+03  0.15287646363E+04  0.17696882580E+04  0.10100000352E+00 0. -1.
</event>
<event>
 5   0  0.5735179E-07  0.3412066E+04  0.7818609E-02  0.8134951E-01
       -2   -1    0    0    0  501  0.00000000000E+00  0.00000000000E+00  0.19281211033E+04  0.19281211033E+04  0.25500000920E-02 0. -1.
        2   -1    0    0  501    0  0.00000000000E+00  0.00000000000E+00 -0.15095262257E+04  0.15095262257E+04  0.25500000920E-02 0.  1.
    10030    2    1    2    0    0  0.00000000000E+00  0.00000000000E+00  0.41859487762E+03  0.34376473290E+04  0.34120664540E+04 0.  0.
        5    1    3    3  502    0 -0.12031736434E+04  0.11346775659E+04 -0.21265903544E+03  0.16674429376E+04  0.46999998093E+01 0.  1.
       -5    1    3    3    0  502  0.12031736434E+04 -0.11346775659E+04  0.63125391306E+03  0.17702043914E+04  0.46999998093E+01 0. -1.
</event>
<event>
 5   0  0.3959190E-07  0.3919275E+04  0.7818609E-02  0.8021032E-01
        2   -1    0    0  501    0  0.00000000000E+00  0.00000000000E+00  0.14032931398E+04  0.14032931398E+04  0.25500000920E-02 0.  1.
       -2   -1    0    0    0  501  0.00000000000E+00  0.00000000000E+00 -0.27365477981E+04  0.27365477981E+04  0.25500000920E-02 0. -1.
    10030    2    1    2    0    0  0.00000000000E+00  0.00000000000E+00 -0.13332546583E+04  0.41398409379E+04  0.39192748063E+04 0.  0.
        2    1    3    3  502    0  0.15299881988E+04  0.10863465788E+04 -0.12633688158E+04  0.22621037868E+04  0.25500000920E-02 0. -1.
       -2    1    3    3    0  502 -0.15299881988E+04 -0.10863465788E+04 -0.69885842458E+02  0.18777371511E+04  0.25500000920E-02 0.  1.
</event>
<event>
 5   0  0.5872444E-07  0.3929916E+04  0.7818609E-02  0.8018836E-01
       -2   -1    0    0    0  501  0.00000000000E+00  0.00000000000E+00  0.20244101670E+04  0.20244101670E+04  0.25500000920E-02 0. -1.
        2   -1    0    0  501    0  0.00000000000E+00  0.00000000000E+00 -0.19072513947E+04  0.19072513947E+04  0.25500000920E-02 0.  1.
    10030    2    1    2    0    0  0.00000000000E+00  0.00000000000E+00  0.11715877228E+03  0.39316615616E+04  0.39299155789E+04 0.  0.
        3    1    3    3  502    0 -0.99888303647E+03  0.12071543380E+04 -0.11277257360E+04  0.19304803191E+04  0.10100000352E+00 0.  1.
       -3    1    3    3    0  502  0.99888303647E+03 -0.12071543380E+04  0.12448845083E+04  0.20011812426E+04  0.10100000352E+00 0. -1.
</event>
<event>
 5   0  0.1860500E-07  0.3043950E+04  0.7818609E-02  0.8231291E-01
        1   -1    0    0  501    0  0.00000000000E+00  0.00000000000E+00  0.22302578825E+04  0.22302578825E+04  0.50400001928E-02 0. -1.
       -1   -1    0    0    0  501  0.00000000000E+00  0.00000000000E+00 -0.10386277214E+04  0.10386277214E+04  0.50400001928E-02 0.  1.
    10030    2    1    2    0    0  0.00000000000E+00  0.00000000000E+00  0.11916301611E+04  0.32688856039E+04  0.30439498436E+04 0.  0.
        5    1    3    3  502    0 -0.18517912783E+03 -0.13129612352E+04  0.13981721292E+04  0.19269317340E+04  0.46999998093E+01 0. -1.
       -5    1    3    3    0  502  0.18517912783E+03  0.13129612352E+04 -0.20654196806E+03  0.13419538700E+04  0.46999998093E+01 0.  1.
</event>
<event>
 5   0  0.1943459E-07  0.2510619E+04  0.7818609E-02  0.8399212E-01
       -1   -1    0    0    0  501  0.00000000000E+00  0.00000000000E+00  0.16928619679E+04  0.16928619679E+04  0.50400001928E-02 0. -1.
        1   -1    0    0  501    0  0.00000000000E+00  0.00000000000E+00 -0.93085058830E+03  0.93085058831E+03  0.50400001928E-02 0.  1.
    10030    2    1    2    0    0  0.00000000000E+00  0.00000000000E+00  0.76201137962E+03  0.26237125562E+04  0.25106186957E+04 0.  0.
        2    1    3    3  502    0 -0.28600120966E+03  0.11967680768E+04  0.12131425648E+03  0.12364334476E+04  0.25500000920E-02 0.  1.
       -2    1    3    3    0  502  0.28600120966E+03 -0.11967680768E+04  0.64069712314E+03  0.13872791086E+04  0.25500000920E-02 0. -1.
</event>
<event>
 5   0  0.5872444E-07  0.3454578E+04  0.7818609E-02  0.8124639E-01
       -2   -1    0    0    0  501  0.00000000000E+00  0.00000000000E+00  0.18095645662E+04  0.18095645662E+04  0.25500000920E-02 0. -1.
        2   -1    0    0  501    0  0.00000000000E+00  0.00000000000E+00 -0.16487543437E+04  0.16487543437E+04  0.25500000920E-02 0.  1.
    10030    2    1    2    0    0  0.00000000000E+00  0.00000000000E+00  0.16081022250E+03  0.34583189099E+04  0.34545780864E+04 0.  0.
        3    1    3    3  502    0 -0.59005630797E+03 -0.10361503706E+04  0.13314596834E+04  0.17873329113E+04  0.10100000352E+00 0. -1.
       -3    1    3    3    0  502  0.59005630797E+03  0.10361503706E+04 -0.11706494609E+04  0.16709859986E+04  0.10100000352E+00 0.  1.
</event>
<event>
 5   0  0.5735179E-07  0.3827475E+04  0.7818609E-02  0.8040284E-01
        2   -1    0    0  501    0  0.00000000000E+00  0.00000000000E+00  0.16894622351E+04  0.16894622351E+04  0.25500000920E-02 0.  1.
       -2   -1    0    0    0  501  0.00000000000E+00  0.00000000000E+00 -0.21677849547E+04  0.21677849547E+04  0.25500000920E-02 0. -1.
    10030    2    1    2    0    0  0.00000000000E+00  0.00000000000E+00 -0.47832271965E+03  0.38572471898E+04  0.38274747888E+04 0.  0.
        5    1    3    3  502    0  0.55933042755E+03  0.13346816243E+04 -0.15011573834E+04  0.20851189763E+04  0.46999998093E+01 0. -1.
       -5    1    3    3    0  502 -0.55933042755E+03 -0.13346816243E+04  0.10228346638E+04  0.17721282135E+04  0.46999998093E+01 0.  1.
</event>
<event>
 5   0  0.6095665E-07  0.3109948E+04  0.7818609E-02  0.8213013E-01
       -2   -1    0    0    0  501  0.00000000000E+00  0.00000000000E+00  0.11846337464E+04  0.11846337464E+04  0.25500000920E-02 0.  1.
        2   -1    0    0  501    0  0.00000000000E+00  0.00000000000E+00 -0.20410903096E+04  0.20410903096E+04  0.25500000920E-02 0. -1.
    10030    2    1    2    0    0  0.00000000000E+00  0.00000000000E+00 -0.85645656321E+03  0.32257240560E+04  0.31099482054E+04 0.  0.
        4    1    3    3  502    0 -0.25084118187E+02 -0.55734222050E+03  0.10772471809E+04  0.12131457726E+04  0.12699999809E+01 0.  1.
       -4    1    3    3    0  502  0.25084118187E+02  0.55734222050E+03 -0.19337037442E+04  0.20125782834E+04  0.12699999809E+01 0. -1.
</event>
<event>
 5   0  0.1860500E-07  0.3824323E+04  0.7818609E-02  0.8040955E-01
        1   -1    0    0  501    0  0.00000000000E+00  0.00000000000E+00  0.14539094110E+04  0.14539094110E+04  0.50400001928E-02 0.  1.
       -1   -1    0    0    0  501  0.00000000000E+00  0.00000000000E+00 -0.25148485182E+04  0.25148485182E+04  0.50400001928E-02 0. -1.
    10030    2    1    2    0    0  0.00000000000E+00  0.00000000000E+00 -0.10609391072E+04  0.39687579293E+04  0.38243231704E+04 0.  0.
        4    1    3    3  502    0  0.28704748145E+03  0.13060864674E+04 -0.19488748403E+04  0.23635509034E+04  0.12699999809E+01 0. -1.
       -4    1    3    3    0  502 -0.28704748145E+03 -0.13060864674E+04  0.88793573308E+03  0.16052070259E+04  0.12699999809E+01 0.  1.
</event>
<event>
 5   0  0.2666813E-07  0.3960769E+04  0.7818609E-02  0.8012508E-01
        1   -1    0    0  501    0  0.00000000000E+00  0.00000000000E+00  0.24102233717E+04  0.24102233717E+04  0.50400001928E-02 0.  1.
       -1   -1    0    0    0  501  0.00000000000E+00  0.00000000000E+00 -0.16272028892E+04  0.16272028892E+04  0.50400001928E-02 0. -1.
    10030    2    1    2    0    0  0.00000000000E+00  0.00000000000E+00  0.78302048247E+03  0.40374262610E+04  0.39607688315E+04 0.  0.
        1    1    3    3  502    0  0.91951685933E+03 -0.12630313002E+04  0.16320953158E+04  0.22593128247E+04  0.50400001928E-02 0.  1.
       -1    1    3    3    0  502 -0.91951685933E+03  0.12630313002E+04 -0.84907483331E+03  0.17781134363E+04  0.50400001928E-02 0. -1.
</event>
<event>
 5   0  0.1860500E-07  0.3901775E+04  0.7818609E-02  0.8024660E-01
        1   -1    0    0  501    0  0.00000000000E+00  0.00000000000E+00  0.20062658007E+04  0.20062658007E+04  0.50400001928E-02 0.  1.
       -1   -1    0    0    0  501  0.00000000000E+00  0.00000000000E+00 -0.18970375009E+04  0.18970375009E+04  0.50400001928E-02 0. -1.
    10030    2    1    2    0    0  0.00000000000E+00  0.00000000000E+00  0.10922829978E+03  0.39033033016E+04  0.39017747043E+04 0.  0.
        5    1    3    3  502    0  0.13701647848E+04 -0.84121463532E+02  0.14413431384E+04  0.19904572567E+04  0.46999998093E+01 0.  1.
       -5    1    3    3    0  502 -0.13701647848E+04  0.84121463532E+02 -0.13321148386E+04  0.19128460449E+04  0.46999998093E+01 0. -1.
</event>
<event>
 5   0  0.1876027E-07  0.3894863E+04  0.7818609E-02  0.8026099E-01
       -1   -1    0    0    0  501  0.00000000000E+00  0.00000000000E+00  0.14573174581E+04  0.14573174582E+04  0.50400001928E-02 0. -1.
        1   -1    0    0  501    0  0.00000000000E+00  0.00000000000E+00 -0.26023763959E+04  0.26023763959E+04  0.50400001928E-02 0.  1.
    10030    2    1    2    0    0  0.00000000000E+00  0.00000000000E+00 -0.11450589377E+04  0.40596938540E+04  0.38948625415E+04 0.  0.
        3    1    3    3  502    0  0.13091949391E+03  0.19416909246E+04 -0.49747529559E+03  0.20086774854E+04  0.10100000352E+00 0. -1.
       -3    1    3    3    0  502 -0.13091949391E+03 -0.19416909246E+04 -0.64758364213E+03  0.20510163686E+04  0.10100000352E+00 0.  1.
</event>
<event>
 5   0  0.3959190E-07  0.3917339E+04  0.7818609E-02  0.8021433E-01
       -2   -1    0    0    0  501  0.00000000000E+00  0.00000000000E+00  0.13619479181E+04  0.13619479181E+04  0.25500000920E-02 0. -1.
        2   -1    0    0  501    0  0.00000000000E+00  0.00000000000E+00 -0.28168372261E+04  0.28168372261E+04  0.25500000920E-02 0.  1.
    10030    2    1    2    0    0  0.00000000000E+00  0.00000000000E+00 -0.14548893080E+04  0.41787851442E+04  0.39173386863E+04 0.  0.
        2    1    3    3  502    0  0.13504401876E+04  0.17970082291E+03  0.77374607588E+03  0.15667367603E+04  0.25500000920E-02 0. -1.
       -2    1    3    3    0  502 -0.13504401876E+04 -0.17970082291E+03 -0.22286353839E+04  0.26120483840E+04  0.25500000920E-02 0.  1.
</event>
<event>
 5   0  0.1860500E-07  0.2659333E+04  0.7818609E-02  0.8348322E-01
        1   -1    0    0  501    0  0.00000000000E+00  0.00000000000E+00  0.13887133158E+04  0.13887133158E+04  0.50400001928E-02 0.  1.
       -1   -1    0    0    0  501  0.00000000000E+00  0.00000000000E+00 -0.12731304675E+04  0.12731304675E+04  0.50400001928E-02 0. -1.
    10030    2    1    2    0    0  0.00000000000E+00  0.00000000000E+00  0.11558284832E+03  0.26618437833E+04  0.26593331743E+04 0.  0.
        4    1    3    3  502    0 -0.57723744743E+03 -0.55716506243E+03  0.11191582947E+04  0.13770086706E+04  0.12699999809E+01 0.  1.
       -4    1    3    3    0  502  0.57723744743E+03  0.55716506243E+03 -0.10035754463E+04  0.12848351127E+04  0.12699999809E+01 0. -1.
</event>
<event>
 5   0  0.5872444E-07  0.2852827E+04  0.7818609E-02  0.8287053E-01
        2   -1    0    0  501    0  0.00000000000E+00  0.00000000000E+00  0.12102309424E+04  0.12102309424E+04  0.25500000920E-02 0. -1.
       -2   -1    0    0    0  501  0.00000000000E+00  0.00000000000E+00 -0.16812121672E+04  0.16812121672E+04  0.25500000920E-02 0.  1.
    10030    2    1    2    0    0  0.00000000000E+00  0.00000000000E+00 -0.47098122478E+03  0.28914431096E+04  0.28528266582E+04 0.  0.
        3    1    3    3  502    0 -0.31113812533E+03  0.51892218453E+03  0.10737250673E+04  0.12324661038E+04  0.10100000352E+00 0. -1.
       -3    1    3    3    0  502  0.31113812533E+03 -0.51892218453E+03 -0.15447062921E+04  0.16589770058E+04  0.10100000352E+00 0.  1.
</event>
<event>
 5   0  0.3959190E-07  0.3931384E+04  0.7818609E-02  0.8018533E-01
       -2   -1    0    0    0  501  0.00000000000E+00  0.00000000000E+00  0.13042817176E+04  0.13042817176E+04  0.25500000920E-02 0.  1.
        2   -1    0    0  501    0  0.00000000000E+00  0.00000000000E+00 -0.29625075034E+04  0.29625075034E+04  0.25500000920E-02 0. -1.
    10030    2    1    2    0    0  0.00000000000E+00  0.00000000000E+00 -0.16582257858E+04  0.42667892211E+04  0.39313836623E+04 0.  0.
        2    1    3    3  502    0  0.12409872072E+04 -0.15145241283E+04 -0.64078091910E+03  0.20602021187E+04  0.25500000920E-02 0.  1.
       -2    1    3    3    0  502 -0.12409872072E+04  0.15145241283E+04 -0.10174448667E+04  0.22065871024E+04  0.25500000920E-02 0. -1.
</event>
<event>
 5   0  0.2666813E-07  0.3873748E+04  0.7818609E-02  0.8030511E-01
       -1   -1    0    0    0  501  0.00000000000E+00  0.00000000000E+00  0.28635807823E+04  0.28635807823E+04  0.50400001928E-02 0.  1.
        1   -1    0    0  501    0  0.00000000000E+00  0.00000000000E+00 -0.13100666194E+04  0.13100666194E+04  0.50400001928E-02 0. -1.
    10030    2    1    2    0    0  0.00000000000E+00  0.00000000000E+00  0.15535141629E+04  0.41736474017E+04  0.38737483630E+04 0.  0.
        1    1    3    3  502    0 -0.12688015720E+04  0.18261738008E+03  0.23411577250E+04  0.26691245812E+04  0.50400001928E-02 0.  1.
       -1    1    3    3    0  502  0.12688015720E+04 -0.18261738008E+03 -0.78764356209E+03  0.15045228205E+04  0.50400001928E-02 0. -1.
</event>
<event>
 5   0  0.5872444E-07  0.3983422E+04  0.7818609E-02  0.8007899E-01
       -2   -1    0    0    0  501  0.00000000000E+00  0.00000000000E+00  0.20925911101E+04  0.20925911101E+04  0.25500000920E-02 0.  1.
        2   -1    0    0  501    0  0.00000000000E+00  0.00000000000E+00 -0.18956941651E+04  0.18956941651E+04  0.25500000920E-02 0. -1.
    10030    2    1    2    0    0  0.00000000000E+00  0.00000000000E+00  0.19689694500E+03  0.39882852751E+04  0.39834220249E+04 0.  0.
        3    1    3    3  502    0 -0.19090903344E+04  0.56637212494E+03  0.59549291847E+02  0.19922222308E+04  0.10100000352E+00 0.  1.
       -3    1    3    3    0  502  0.19090903344E+04 -0.56637212494E+03  0.13734765315E+03  0.19960630443E+04  0.10100000352E+00 0. -1.
</event>
<event>
 5   0  0.5805753E-07  0.3924734E+04  0.7818609E-02  0.8019905E-01
       -2   -1    0    0    0  501  0.00000000000E+00  0.00000000000E+00  0.15833646089E+04  0.15833646089E+04  0.25500000920E-02 0.  1.
        2   -1    0    0  501    0  0.00000000000E+00  0.00000000000E+00 -0.24320890280E+04  0.24320890280E+04  0.25500000920E-02 0. -1.
    10030    2    1    2    0    0  0.00000000000E+00  0.00000000000E+00 -0.84872441918E+03  0.40154536369E+04  0.39247337197E+04 0.  0.
        1    1    3    3  502    0 -0.14513635863E+04 -0.40847053091E+03  0.86068775211E+03  0.17361128538E+04  0.50400001928E-02 0.  1.
       -1    1    3    3    0  502  0.14513635863E+04  0.40847053091E+03 -0.17094121713E+04  0.22793407831E+04  0.50400001928E-02 0. -1.
</event>
<event>
 5   0  0.5872444E-07  0.3998156E+04  0.7818609E-02  0.8004919E-01
       -2   -1    0    0    0  501  0.00000000000E+00  0.00000000000E+00  0.20525316708E+04  0.20525316708E+04  0.25500000920E-02 0. -1.
        2   -1    0    0  501    0  0.00000000000E+00  0.00000000000E+00 -0.19470166409E+04  0.19470166409E+04  0.25500000920E-02 0.  1.
    10030    2    1    2    0    0  0.00000000000E+00  0.00000000000E+00  0.10551502998E+03  0.39995483117E+04  0.39981562346E+04 0.  0.
        3    1    3    3  502    0  0.12500409957E+04 -0.17148444810E+03  0.16038791909E+04  0.20406954393E+04  0.10100000352E+00 0. -1.
       -3    1    3    3    0  502 -0.12500409957E+04  0.17148444810E+03 -0.14983641609E+04  0.19588528724E+04  0.10100000352E+00 0.  1.
</event>
<event>
 5   0  0.1860500E-07  0.3904463E+04  0.7818609E-02  0.8024102E-01
        1   -1    0    0  501    0  0.00000000000E+00  0.00000000000E+00  0.16466288348E+04  0.16466288348E+04  0.50400001928E-02 0. -1.
       -1   -1    0    0    0  501  0.00000000000E+00  0.00000000000E+00 -0.23145520105E+04  0.23145520105E+04  0.50400001928E-02 0.  1.
    10030    2    1    2    0    0  0.00000000000E+00  0.00000000000E+00 -0.66792317569E+03  0.39611808453E+04  0.39044631283E+04 0.  0.
        4    1    3    3  502    0  0.15357892123E+04 -0.10429144537E+04 -0.94679548732E+03  0.20839247515E+04  0.12699999809E+01 0.  1.
       -4    1    3    3    0  502 -0.15357892123E+04  0.10429144537E+04  0.27887231163E+03  0.18772560937E+04  0.12699999809E+01 0. -1.
</event>
<event>
 5   0  0.5735179E-07  0.3769608E+04  0.7818609E-02  0.8052709E-01
       -2   -1    0    0    0  501  0.00000000000E+00  0.00000000000E+00  0.15244216588E+04  0.15244216588E+04  0.25500000920E-02 0. -1.
        2   -1    0    0  501    0  0.00000000000E+00  0.00000000000E+00 -0.23303830494E+04  0.23303830494E+04  0.25500000920E-02 0.  1.
    10030    2    1    2    0    0  0.00000000000E+00  0.00000000000E+00 -0.80596139061E+03  0.38548047082E+04  0.37696081461E+04 0.  0.
        5    1    3    3  502    0 -0.16791820574E+03 -0.16167149411E+04  0.57278666483E+03  0.17233892126E+04  0.46999998093E+01 0. -1.
       -5    1    3    3    0  502  0.16791820574E+03  0.16167149411E+04 -0.13787480554E+04  0.21314154956E+04  0.46999998093E+01 0.  1.
</event>
<event>
 5   0  0.5805753E-07  0.3891445E+04  0.7818609E-02  0.8026811E-01
        2   -1    0    0  501    0  0.00000000000E+00  0.00000000000E+00  0.18230972811E+04  0.18230972811E+04  0.25500000920E-02 0.  1.
       -2   -1    0    0    0  501  0.00000000000E+00  0.00000000000E+00 -0.20765959709E+04  0.20765959709E+04  0.25500000920E-02 0. -1.
    10030    2    1    2    0    0  0.00000000000E+00  0.00000000000E+00 -0.25349868977E+03  0.38996932520E+04  0.38914452166E+04 0.  0.
        1    1    3    3  502    0  0.13652964765E+04 -0.90848886225E+03 -0.11760838150E+04  0.20180583791E+04  0.50400001928E-02 0. -1.
       -1    1    3    3    0  502 -0.13652964765E+04  0.90848886225E+03  0.92258512526E+03  0.18816348729E+04  0.50400001928E-02 0.  1.
</event>
<event>
 5   0  0.5805753E-07  0.3810865E+04  0.7818609E-02  0.8043827E-01
        2   -1    0    0  501    0  0.00000000000E+00  0.00000000000E+00  0.31544337070E+04  0.31544337070E+04  0.25500000920E-02 0.  1.
       -2   -1    0    0    0  501  0.00000000000E+00  0.00000000000E+00 -0.11509747413E+04  0.11509747413E+04  0.25500000920E-02 0. -1.
    10030    2    1    2    0    0  0.00000000000E+00  0.00000000000E+00  0.20034589657E+04  0.43054084483E+04  0.38108652665E+04 0.  0.
        1    1    3    3  502    0 -0.40837271039E+03 -0.10528678390E+03  0.31010450674E+04  0.31295900830E+04  0.50400001928E-02 0.  1.
       -1    1    3    3    0  502  0.40837271039E+03  0.10528678390E+03 -0.10975861017E+04  0.11758183653E+04  0.50400001928E-02 0. -1.
</event>
<event>
 5   0  0.1860500E-07  0.3245868E+04  0.7818609E-02  0.8176808E-01
       -1   -1    0    0    0  501  0.00000000000E+00  0.00000000000E+00  0.18834796475E+04  0.18834796475E+04  0.50400001928E-02 0. -1.
        1   -1    0    0  501    0  0.00000000000E+00  0.00000000000E+00 -0.13984300401E+04  0.13984300401E+04  0.50400001928E-02 0.  1.
    10030    2    1    2    0    0  0.00000000000E+00  0.00000000000E+00  0.48504960744E+03  0.32819096876E+04  0.32458678464E+04 0.  0.
        5    1    3    3  502    0 -0.14564746419E+02  0.92198785355E+03 -0.11078265991E+04  0.14413797549E+04  0.46999998093E+01 0.  1.
       -5    1    3    3    0  502  0.14564746419E+02 -0.92198785355E+03  0.15928762066E+04  0.18405299328E+04  0.46999998093E+01 0. -1.
</event>
<event>
 5   0  0.5872444E-07  0.3911162E+04  0.7818609E-02  0.8022712E-01
        2   -1    0    0  501    0  0.00000000000E+00  0.00000000000E+00  0.22139274307E+04  0.22139274307E+04  0.25500000920E-02 0.  1.
       -2   -1    0    0    0  501  0.00000000000E+00  0.00000000000E+00 -0.17273817414E+04  0.17273817414E+04  0.25500000920E-02 0. -1.
    10030    2    1    2    0    0  0.00000000000E+00  0.00000000000E+00  0.48654568938E+03  0.39413091721E+04  0.39111623953E+04 0.  0.
        3    1    3    3  502    0 -0.98101986191E+03 -0.78780918760E+03 -0.12653484896E+04  0.17844186997E+04  0.10100000352E+00 0. -1.
       -3    1    3    3    0  502  0.98101986191E+03  0.78780918760E+03  0.17518941790E+04  0.21568904724E+04  0.10100000352E+00 0.  1.
</event>
<event>
 5   0  0.1943459E-07  0.3933018E+04  0.7818609E-02  0.8018197E-01
       -1   -1    0    0    0  501  0.00000000000E+00  0.00000000000E+00  0.17387221843E+04  0.17387221843E+04  0.50400001928E-02 0. -1.
        1   -1    0    0  501    0  0.00000000000E+00  0.00000000000E+00 -0.22241371926E+04  0.22241371926E+04  0.50400001928E-02 0.  1.
    10030    2    1    2    0    0  0.00000000000E+00  0.00000000000E+00 -0.48541500827E+03  0.39628593769E+04  0.39330175071E+04 0.  0.
        2    1    3    3  502    0 -0.16528133680E+04  0.27449005967E+03 -0.12800920694E+04  0.21085000660E+04  0.25500000920E-02 0.  1.
       -2    1    3    3    0  502  0.16528133680E+04 -0.27449005967E+03  0.79467706114E+03  0.18543593109E+04  0.25500000920E-02 0. -1.
</event>
<event>
 5   0  0.1860500E-07  0.2800459E+04  0.7818609E-02  0.8303126E-01
        1   -1    0    0  501    0  0.00000000000E+00  0.00000000000E+00  0.11648572037E+04  0.11648572037E+04  0.50400001928E-02 0. -1.
       -1   -1    0    0    0  501  0.00000000000E+00  0.00000000000E+00 -0.16831611942E+04  0.16831611942E+04  0.50400001928E-02 0.  1.
    10030    2    1    2    0    0  0.00000000000E+00  0.00000000000E+00 -0.51830399050E+03  0.28480183979E+04  0.28004588495E+04 0.  0.
        4    1    3    3  502    0 -0.36199848250E+03 -0.12702126868E+04 -0.73197533710E+03  0.15100571771E+04  0.12699999809E+01 0.  1.
       -4    1    3    3    0  502  0.36199848250E+03  0.12702126868E+04  0.21367134661E+03  0.13379612208E+04  0.12699999809E+01 0. -1.
</event>
<event>
 5   0  0.5805753E-07  0.3976803E+04  0.7818609E-02  0.8009243E-01
       -2   -1    0    0    0  501  0.00000000000E+00  0.00000000000E+00  0.13961444450E+04  0.13961444450E+04  0.25500000920E-02 0.  1.
        2   -1    0    0  501    0  0.00000000000E+00  0.00000000000E+00 -0.28318991156E+04  0.28318991156E+04  0.25500000920E-02 0. -1.
    10030    2    1    2    0    0  0.00000000000E+00  0.00000000000E+00 -0.14357546706E+04  0.42280435606E+04  0.39768028460E+04 0.  0.
        1    1    3    3  502    0 -0.23122922854E+03  0.71834547952E+03 -0.26737330156E+04  0.27781892345E+04  0.50400001928E-02 0. -1.
       -1    1    3    3    0  502  0.23122922854E+03 -0.71834547952E+03  0.12379783450E+04  0.14498543261E+04  0.50400001928E-02 0.  1.
</event>
<event>
 5   0  0.1876027E-07  0.3930399E+04  0.7818609E-02  0.8018736E-01
       -1   -1    0    0    0  501  0.00000000000E+00  0.00000000000E+00  0.16513662412E+04  0.16513662412E+04  0.50400001928E-02 0. -1.
        1   -1    0    0  501    0  0.00000000000E+00  0.00000000000E+00 -0.23386749731E+04  0.23386749731E+04  0.50400001928E-02 0.  1.
    10030    2    1    2    0    0  0.00000000000E+00  0.00000000000E+00 -0.68730873193E+03  0.39900412143E+04  0.39303989109E+04 0.  0.
        3    1    3    3  502    0 -0.12520711968E+04  0.64305296043E+03  0.10485825832E+04  0.17551993721E+04  0.10100000352E+00 0. -1.
       -3    1    3    3    0  502  0.12520711968E+04 -0.64305296043E+03 -0.17358913151E+04  0.22348418423E+04  0.10100000352E+00 0.  1.
</event>
<event>
 5   0  0.1860500E-07  0.3721714E+04  0.7818609E-02  0.8063167E-01
        1   -1    0    0  501    0  0.00000000000E+00  0.00000000000E+00  0.11764886579E+04  0.11764886579E+04  0.50400001928E-02 0. -1.
       -1   -1    0    0    0  501  0.00000000000E+00  0.00000000000E+00 -0.29433249556E+04  0.29433249556E+04  0.50400001928E-02 0.  1.
    10030    2    1    2    0    0  0.00000000000E+00  0.00000000000E+00 -0.17668362978E+04  0.41198136135E+04  0.37217138131E+04 0.  0.
        4    1    3    3  502    0 -0.15435138919E+04 -0.10370313447E+04 -0.96104540916E+03  0.20931982791E+04  0.12699999809E+01 0. -1.
       -4    1    3    3    0  502  0.15435138919E+04  0.10370313447E+04 -0.80579088861E+03  0.20266153344E+04  0.12699999809E+01 0.  1.
</event>
<event>
 5   0  0.1943459E-07  0.3854618E+04  0.7818609E-02  0.8034535E-01
        1   -1    0    0  501    0  0.00000000000E+00  0.00000000000E+00  0.16704192488E+04  0.16704192488E+04  0.50400001928E-02 0. -1.
       -1   -1    0    0    0  501  0.00000000000E+00  0.00000000000E+00 -0.22237047143E+04  0.22237047143E+04  0.50400001928E-02 0.  1.
    10030    2    1    2    0    0  0.00000000000E+00  0.00000000000E+00 -0.55328546547E+03  0.38941239631E+04  0.38546175729E+04 0.  0.
        2    1    3    3  502    0 -0.69777349426E+03  0.16261153636E+04  0.49497871953E+03  0.18374283544E+04  0.25500000920E-02 0. -1.
       -2    1    3    3    0  502  0.69777349426E+03 -0.16261153636E+04 -0.10482641850E+04  0.20566956086E+04  0.25500000920E-02 0.  1.
</event>
<event>
 5   0  0.3959190E-07  0.3907163E+04  0.7818609E-02  0.8023541E-01
        2   -1    0    0  501    0  0.00000000000E+00  0.00000000000E+00  0.26036336243E+04  0.26036336243E+04  0.25500000920E-02 0. -1.
       -2   -1    0    0    0  501  0.00000000000E+00  0.00000000000E+00 -0.14658285790E+04  0.14658285790E+04  0.25500000920E-02 0.  1.
    10030    2    1    2    0    0  0.00000000000E+00  0.00000000000E+00  0.11378050453E+04  0.40694622033E+04  0.39071629481E+04 0.  0.
        2    1    3    3  502    0  0.74086167316E+02  0.17120912114E+04 -0.40800072612E+03  0.17615929350E+04  0.25500000920E-02 0. -1.
       -2    1    3    3    0  502 -0.74086167316E+02 -0.17120912114E+04  0.15458057714E+04  0.23078692682E+04  0.25500000920E-02 0.  1.
</event>
<event>
 5   0  0.3959190E-07  0.2408009E+04  0.7818609E-02  0.8436511E-01
       -2   -1    0    0    0  501  0.00000000000E+00  0.00000000000E+00  0.90768664260E+03  0.90768664260E+03  0.25500000920E-02 0.  1.
        2   -1    0    0  501    0  0.00000000000E+00  0.00000000000E+00 -0.15970568230E+04  0.15970568230E+04  0.25500000920E-02 0. -1.
    10030    2    1    2    0    0  0.00000000000E+00  0.00000000000E+00 -0.68937018043E+03  0.25047434656E+04  0.24080092572E+04 0.  0.
        2    1    3    3  502    0 -0.10198893840E+04  0.63514189647E+03 -0.42557516729E+03  0.12746347740E+04  0.25500000920E-02 0.  1.
       -2    1    3    3    0  502  0.10198893840E+04 -0.63514189647E+03 -0.26379501314E+03  0.12301086916E+04  0.25500000920E-02 0. -1.
</event>
<event>
 5   0  0.3959190E-07  0.4003918E+04  0.7818609E-02  0.8003757E-01
       -2   -1    0    0    0  501  0.00000000000E+00  0.00000000000E+00  0.19769186881E+04  0.19769186881E+04  0.25500000920E-02 0.  1.
        2   -1    0    0  501    0  0.00000000000E+00  0.00000000000E+00 -0.20273168852E+04  0.20273168852E+04  0.25500000920E-02 0. -1.
    10030    2    1    2    0    0  0.00000000000E+00  0.00000000000E+00 -0.50398197079E+02  0.40042355733E+04  0.40039183993E+04 0.  0.
        2    1    3    3  502    0 -0.13398469882E+04 -0.12242213305E+04  0.81981328784E+03  0.19914822733E+04  0.25500000920E-02 0.  1.
       -2    1    3    3    0  502  0.13398469882E+04  0.12242213305E+04 -0.87021148491E+03  0.20127533000E+04  0.25500000920E-02 0. -1.
</event>
<event>
 5   0  0.5735179E-07  0.3830495E+04  0.7818609E-02  0.8039642E-01
       -2   -1    0    0    0  501  0.00000000000E+00  0.00000000000E+00  0.13865407521E+04  0.13865407521E+04  0.25500000920E-02 0. -1.
        2   -1    0    0  501    0  0.00000000000E+00  0.00000000000E+00 -0.26455575563E+04  0.26455575563E+04  0.25500000920E-02 0.  1.
    10030    2    1    2    0    0  0.00000000000E+00  0.00000000000E+00 -0.12590168043E+04  0.40320983084E+04  0.38304951971E+04 0.  0.
        5    1    3    3  502    0 -0.15820051388E+04 -0.45406518195E+03 -0.16604614462E+04  0.23379627356E+04  0.46999998093E+01 0.  1.
       -5    1    3    3    0  502  0.15820051388E+04  0.45406518195E+03  0.40144464197E+03  0.16941355728E+04  0.46999998093E+01 0. -1.
</event>
<event>
 5   0  0.1860500E-07  0.3913939E+04  0.7818609E-02  0.8022136E-01
       -1   -1    0    0    0  501  0.00000000000E+00  0.00000000000E+00  0.16884283894E+04  0.16884283894E+04  0.50400001928E-02 0.  1.
        1   -1    0    0  501    0  0.00000000000E+00  0.00000000000E+00 -0.22682217052E+04  0.22682217052E+04  0.50400001928E-02 0. -1.
    10030    2    1    2    0    0  0.00000000000E+00  0.00000000000E+00 -0.57979331582E+03  0.39566500947E+04  0.39139391516E+04 0.  0.
        4    1    3    3  502    0  0.13589532646E+04  0.32569429765E+03  0.10950525944E+04  0.17753795505E+04  0.12699999809E+01 0.  1.
       -4    1    3    3    0  502 -0.13589532646E+04 -0.32569429765E+03 -0.16748459103E+04  0.21812705442E+04  0.12699999809E+01 0. -1.
</event>
<event>
 5   0  0.1876027E-07  0.3750784E+04  0.7818609E-02  0.8056800E-01
       -1   -1    0    0    0  501  0.00000000000E+00  0.00000000000E+00  0.16567746512E+04  0.16567746513E+04  0.50400001928E-02 0.  1.
        1   -1    0    0  501    0  0.00000000000E+00  0.00000000000E+00 -0.21228569644E+04  0.21228569644E+04  0.50400001928E-02 0. -1.
    10030    2    1    2    0    0  0.00000000000E+00  0.00000000000E+00 -0.46608231313E+03  0.37796316156E+04  0.37507842416E+04 0.  0.
        3    1    3    3  502    0 -0.23496736544E+03  0.18092224319E+04 -0.67066238359E+03  0.19437807268E+04  0.10100000352E+00 0. -1.
       -3    1    3    3    0  502  0.23496736544E+03 -0.18092224319E+04  0.20458007046E+03  0.18358508889E+04  0.10100000352E+00 0.  1.
</event>
<event>
 5   0  0.5872444E-07  0.3784182E+04  0.7818609E-02  0.8049558E-01
       -2   -1    0    0    0  501  0.00000000000E+00  0.00000000000E+00  0.15164681430E+04  0.15164681430E+04  0.25500000920E-02 0. -1.
        2   -1    0    0  501    0  0.00000000000E+00  0.00000000000E+00 -0.23607539885E+04  0.23607539885E+04  0.25500000920E-02 0.  1.
    10030    2    1    2    0    0  0.00000000000E+00  0.00000000000E+00 -0.84428584551E+03  0.38772221315E+04  0.37841819285E+04 0.  0.
        3    1    3    3  502    0  0.10134891451E+04 -0.66170143800E+03 -0.19122029897E+04  0.22630796107E+04  0.10100000352E+00 0.  1.
       -3    1    3    3    0  502 -0.10134891451E+04  0.66170143800E+03  0.10679171442E+04  0.16141425208E+04  0.10100000352E+00 0. -1.
</event>
<event>
 5   0  0.1943459E-07  0.3158435E+04  0.7818609E-02  0.8199881E-01
        1   -1    0    0  501    0  0.00000000000E+00  0.00000000000E+00  0.80766433593E+03  0.80766433594E+03  0.50400001928E-02 0. -1.
       -1   -1    0    0    0  501  0.00000000000E+00  0.00000000000E+00 -0.30878281821E+04  0.30878281821E+04  0.50400001928E-02 0.  1.
    10030    2    1    2    0    0  0.00000000000E+00  0.00000000000E+00 -0.22801638462E+04  0.38954925180E+04  0.31584354976E+04 0.  0.
        2    1    3    3  502    0  0.31822982687E+03  0.88678141716E+03 -0.27032317580E+04  0.28627108555E+04  0.25500000920E-02 0.  1.
       -2    1    3    3    0  502 -0.31822982687E+03 -0.88678141716E+03  0.42306791183E+03  0.10327816626E+04  0.25500000920E-02 0. -1.
</event>
<event>
 5   0  0.5872444E-07  0.3937431E+04  0.7818609E-02  0.8017289E-01
        2   -1    0    0  501    0  0.00000000000E+00  0.00000000000E+00  0.16831846775E+04  0.16831846775E+04  0.25500000920E-02 0.  1.
       -2   -1    0    0    0  501  0.00000000000E+00  0.00000000000E+00 -0.23026830635E+04  0.23026830635E+04  0.25500000920E-02 0. -1.
    10030    2    1    2    0    0  0.00000000000E+00  0.00000000000E+00 -0.61949838597E+03  0.39858677409E+04  0.39374310658E+04 0.  0.
        3    1    3    3  502    0 -0.17873841471E+04  0.34382534440E+03 -0.10692337390E+04  0.21109757828E+04  0.10100000352E+00 0. -1.
       -3    1    3    3    0  502  0.17873841471E+04 -0.34382534440E+03  0.44973535308E+03  0.18748919581E+04  0.10100000352E+00 0.  1.
</event>
<event>
 5   0  0.1860500E-07  0.3935646E+04  0.7818609E-02  0.8017656E-01
        1   -1    0    0  501    0  0.00000000000E+00  0.00000000000E+00  0.24432475889E+04  0.24432475889E+04  0.50400001928E-02 0.  1.
       -1   -1    0    0    0  501  0.00000000000E+00  0.00000000000E+00 -0.15849095742E+04  0.15849095742E+04  0.50400001928E-02 0. -1.
    10030    2    1    2    0    0  0.00000000000E+00  0.00000000000E+00  0.85833801469E+03  0.40281571630E+04  0.39356455611E+04 0.  0.
        4    1    3    3  502    0  0.15173724752E+04 -0.60563510295E+03  0.15518165137E+04  0.22532974086E+04  0.12699999809E+01 0.  1.
       -4    1    3    3    0  502 -0.15173724752E+04  0.60563510295E+03 -0.69347849903E+03  0.17748597544E+04  0.12699999809E+01 0. -1.
</event>
<event>
 5   0  0.1860500E-07  0.3910912E+04  0.7818609E-02  0.8022763E-01
        1   -1    0    0  501    0  0.00000000000E+00  0.00000000000E+00  0.25253928026E+04  0.25253928026E+04  0.50400001928E-02 0. -1.
       -1   -1    0    0    0  501  0.00000000000E+00  0.00000000000E+00 -0.15141441257E+04  0.15141441257E+04  0.50400001928E-02 0.  1.
    10030    2    1    2    0    0  0.00000000000E+00  0.00000000000E+00  0.10112486769E+04  0.40395369283E+04  0.39109122604E+04 0.  0.
        5    1    3    3  502    0  0.11944388721E+04  0.13550861371E+04  0.12791496355E+04  0.22134110640E+04  0.46999998093E+01 0. -1.
       -5    1    3    3    0  502 -0.11944388721E+04 -0.13550861371E+04 -0.26790095862E+03  0.18261258642E+04  0.46999998093E+01 0.  1.
</event>
<event>
 5   0  0.1876027E-07  0.3758759E+04  0.7818609E-02  0.8055063E-01
        1   -1    0    0  501    0  0.00000000000E+00  0.00000000000E+00  0.20956309026E+04  0.20956309027E+04  0.50400001928E-02 0. -1.
       -1   -1    0    0    0  501  0.00000000000E+00  0.00000000000E+00 -0.16854434058E+04  0.16854434058E+04  0.50400001928E-02 0.  1.
    10030    2    1    2    0    0  0.00000000000E+00  0.00000000000E+00  0.41018749684E+03  0.37810743085E+04  0.37587589898E+04 0.  0.
        3    1    3    3  502    0  0.14355236291E+03 -0.17498199089E+04 -0.46940195877E+03  0.18173649066E+04  0.10100000352E+00 0.  1.
       -3    1    3    3    0  502 -0.14355236291E+03  0.17498199089E+04  0.87958945561E+03  0.19637094019E+04  0.10100000352E+00 0. -1.
</event>
<event>
 5   0  0.2914109E-07  0.2456619E+04  0.7818609E-02  0.8418605E-01
        1   -1    0    0  501    0  0.00000000000E+00  0.00000000000E+00  0.11393958689E+04  0.11393958689E+04  0.50400001928E-02 0.  1.
       -1   -1    0    0    0  501  0.00000000000E+00  0.00000000000E+00 -0.13241610744E+04  0.13241610744E+04  0.50400001928E-02 0. -1.
    10030    2    1    2    0    0  0.00000000000E+00  0.00000000000E+00 -0.18476520551E+03  0.24635569433E+04  0.24566185361E+04 0.  0.
        1    1    3    3  502    0  0.22895448078E+03 -0.77007622736E+03 -0.10241495218E+04  0.13016603986E+04  0.50400001928E-02 0. -1.
       -1    1    3    3    0  502 -0.22895448078E+03  0.77007622736E+03  0.83938431628E+03  0.11618965447E+04  0.50400001928E-02 0.  1.
</event>
<event>
 5   0  0.3959190E-07  0.3906759E+04  0.7818609E-02  0.8023625E-01
        2   -1    0    0  501    0  0.00000000000E+00  0.00000000000E+00  0.27655750592E+04  0.27655750592E+04  0.25500000920E-02 0.  1.
       -2   -1    0    0    0  501  0.00000000000E+00  0.00000000000E+00 -0.13797099912E+04  0.13797099912E+04  0.25500000920E-02 0. -1.
    10030    2    1    2    0    0  0.00000000000E+00  0.00000000000E+00  0.13858650680E+04  0.41452850504E+04  0.39067590356E+04 0.  0.
        2    1    3    3  502    0  0.14112076086E+04  0.66198842392E+03 -0.55621141603E+03  0.16550246909E+04  0.25500000920E-02 0. -1.
       -2    1    3    3    0  502 -0.14112076086E+04 -0.66198842392E+03  0.19420764841E+04  0.24902603595E+04  0.25500000920E-02 0.  1.
</event>
<event>
 5   0  0.3959190E-07  0.3919355E+04  0.7818609E-02  0.8021016E-01
        2   -1    0    0  501    0  0.00000000000E+00  0.00000000000E+00  0.20851826159E+04  0.20851826159E+04  0.25500000920E-02 0.  1.
       -2   -1    0    0    0  501  0.00000000000E+00  0.00000000000E+00 -0.18417268638E+04  0.18417268638E+04  0.25500000920E-02 0. -1.
    10030    2    1    2    0    0  0.00000000000E+00  0.00000000000E+00  0.24345575205E+03  0.39269094797E+04  0.39193554774E+04 0.  0.
        2    1    3    3  502    0 -0.12089027359E+04 -0.13837976230E+04 -0.56075688329E+03  0.19211428808E+04  0.25500000920E-02 0. -1.
       -2    1    3    3    0  502  0.12089027359E+04  0.13837976230E+04  0.80421263534E+03  0.20057665989E+04  0.25500000920E-02 0.  1.
</event>
<event>
 5   0  0.1876027E-07  0.3661852E+04  0.7818609E-02  0.8076469E-01
       -1   -1    0    0    0  501  0.00000000000E+00  0.00000000000E+00  0.20836694589E+04  0.20836694589E+04  0.50400001928E-02 0. -1.
        1   -1    0    0  501    0  0.00000000000E+00  0.00000000000E+00 -0.16088394173E+04  0.16088394173E+04  0.50400001928E-02 0.  1.
    10030    2    1    2    0    0  0.00000000000E+00  0.00000000000E+00  0.47483004160E+03  0.36925088762E+04  0.36618517491E+04 0.  0.
        3    1    3    3  502    0 -0.11872895849E+04  0.13534534382E+04  0.57306324984E+03  0.18894163824E+04  0.10100000352E+00 0.  1.
       -3    1    3    3    0  502  0.11872895849E+04 -0.13534534382E+04 -0.98233208236E+02  0.18030924938E+04  0.10100000352E+00 0. -1.
</event>
<event>
 5   0  0.5805753E-07  0.3107389E+04  0.7818609E-02  0.8213713E-01
       -2   -1    0    0    0  501  0.00000000000E+00  0.00000000000E+00  0.18029981532E+04  0.18029981532E+04  0.25500000920E-02 0.  1.
        2   -1    0    0  501    0  0.00000000000E+00  0.00000000000E+00 -0.13388624408E+04  0.13388624408E+04  0.25500000920E-02 0. -1.
    10030    2    1    2    0    0  0.00000000000E+00  0.00000000000E+00  0.46413571247E+03  0.31418605940E+04  0.31073889413E+04 0.  0.
        1    1    3    3  502    0 -0.13378299079E+04  0.78995098802E+03  0.24465919987E+03  0.15727903707E+04  0.50400001928E-02 0. -1.
       -1    1    3    3    0  502  0.13378299079E+04 -0.78995098802E+03  0.21947651259E+03  0.15690702233E+04  0.50400001928E-02 0.  1.
</event>
<event>
 5   0  0.1860500E-07  0.3083510E+04  0.7818609E-02  0.8220278E-01
       -1   -1    0    0    0  501  0.00000000000E+00  0.00000000000E+00  0.92188167684E+03  0.92188167685E+03  0.50400001928E-02 0. -1.
        1   -1    0    0  501    0  0.00000000000E+00  0.00000000000E+00 -0.25784307463E+04  0.25784307463E+04  0.50400001928E-02 0.  1.
    10030    2    1    2    0    0  0.00000000000E+00  0.00000000000E+00 -0.16565490695E+04  0.35003124232E+04  0.30835097276E+04 0.  0.
        4    1    3    3  502    0 -0.35321879932E+03  0.11047154456E+04  0.32483105837E+03  0.12044403536E+04  0.12699999809E+01 0. -1.
       -4    1    3    3    0  502  0.35321879932E+03 -0.11047154456E+04 -0.19813801278E+04  0.22958720696E+04  0.12699999809E+01 0.  1.
</event>
<event>
 5   0  0.1860500E-07  0.3763964E+04  0.7818609E-02  0.8053933E-01
        1   -1    0    0  501    0  0.00000000000E+00  0.00000000000E+00  0.22207207846E+04  0.22207207846E+04  0.50400001928E-02 0. -1.
       -1   -1    0    0    0  501  0.00000000000E+00  0.00000000000E+00 -0.15949125264E+04  0.15949125264E+04  0.50400001928E-02 0.  1.
    10030    2    1    2    0    0  0.00000000000E+00  0.00000000000E+00  0.62580825818E+03  0.38156333109E+04  0.37639635476E+04 0.  0.
        4    1    3    3  502    0  0.11768168745E+04 -0.10303972339E+04  0.13738063273E+04  0.20818169597E+04  0.12699999809E+01 0. -1.
       -4    1    3    3    0  502 -0.11768168745E+04  0.10303972339E+04 -0.74799806908E+03  0.17338163513E+04  0.12699999809E+01 0.  1.
</event>
<event>
 5   0  0.1860500E-07  0.3689172E+04  0.7818609E-02  0.8070366E-01
       -1   -1    0    0    0  501  0.00000000000E+00  0.00000000000E+00  0.29438329081E+04  0.29438329081E+04  0.50400001928E-02 0. -1.
        1   -1    0    0  501    0  0.00000000000E+00  0.00000000000E+00 -0.11558049964E+04  0.11558049964E+04  0.50400001928E-02 0.  1.
    10030    2    1    2    0    0  0.00000000000E+00  0.00000000000E+00  0.17880279117E+04  0.40996379045E+04  0.36891716056E+04 0.  0.
        5    1    3    3  502    0  0.72155897159E+03 -0.11088211007E+04 -0.53444168905E+03  0.14268081833E+04  0.46999998093E+01 0.  1.
       -5    1    3    3    0  502 -0.72155897159E+03  0.11088211007E+04  0.23224696007E+04  0.26728297213E+04  0.46999998093E+01 0. -1.
</event>
<event>
 5   0  0.5872444E-07  0.3922576E+04  0.7818609E-02  0.8020350E-01
       -2   -1    0    0    0  501  0.00000000000E+00  0.00000000000E+00  0.27926511572E+04  0.27926511572E+04  0.25500000920E-02 0.  1.
        2   -1    0    0  501    0  0.00000000000E+00  0.00000000000E+00 -0.13774188917E+04  0.13774188917E+04  0.25500000920E-02 0. -1.
    10030    2    1    2    0    0  0.00000000000E+00  0.00000000000E+00  0.14152322655E+04  0.41700700489E+04  0.39225759200E+04 0.  0.
        3    1    3    3  502    0  0.59981912649E+03 -0.86891019194E+03 -0.10495038361E+04  0.14887062230E+04  0.10100000352E+00 0. -1.
       -3    1    3    3    0  502 -0.59981912649E+03  0.86891019194E+03  0.24647361016E+04  0.26813638259E+04  0.10100000352E+00 0.  1.
</event>
<event>
 5   0  0.1860500E-07  0.3924296E+04  0.7818609E-02  0.8019995E-01
        1   -1    0    0  501    0  0.00000000000E+00  0.00000000000E+00  0.21433297708E+04  0.21433297708E+04  0.50400001928E-02 0.  1.
       -1   -1    0    0    0  501  0.00000000000E+00  0.00000000000E+00 -0.17962816631E+04  0.17962816631E+04  0.50400001928E-02 0. -1.
    10030    2    1    2    0    0  0.00000000000E+00  0.00000000000E+00  0.34704810764E+03  0.39396114339E+04  0.39242955879E+04 0.  0.
        4    1    3    3  502    0 -0.12779683385E+04  0.57910971779E+03  0.15505374262E+04  0.20911095290E+04  0.12699999809E+01 0.  1.
       -4    1    3    3    0  502  0.12779683385E+04 -0.57910971779E+03 -0.12034893186E+04  0.18485019049E+04  0.12699999809E+01 0. -1.
</event>
<event>
 5   0  0.5805753E-07  0.3810130E+04  0.7818609E-02  0.8043985E-01
       -2   -1    0    0    0  501  0.00000000000E+00  0.00000000000E+00  0.16482666390E+04  0.16482666390E+04  0.25500000920E-02 0.  1.
        2   -1    0    0  501    0  0.00000000000E+00  0.00000000000E+00 -0.22018717610E+04  0.22018717610E+04  0.25500000920E-02 0. -1.
    10030    2    1    2    0    0  0.00000000000E+00  0.00000000000E+00 -0.55360512197E+03  0.38501384000E+04  0.38101295343E+04 0.  0.
        1    1    3    3  502    0  0.57061506976E+03  0.10835041540E+04  0.11978669119E+04  0.17130288813E+04  0.50400001928E-02 0.  1.
       -1    1    3    3    0  502 -0.57061506976E+03 -0.10835041540E+04 -0.17514720339E+04  0.21371095187E+04  0.50400001928E-02 0. -1.
</event>
<event>
 5   0  0.1860500E-07  0.3828568E+04  0.7818609E-02  0.8040052E-01
        1   -1    0    0  501    0  0.00000000000E+00  0.00000000000E+00  0.19379890855E+04  0.19379890855E+04  0.50400001928E-02 0. -1.
       -1   -1    0    0    0  501  0.00000000000E+00  0.00000000000E+00 -0.18908691497E+04  0.18908691497E+04  0.50400001928E-02 0.  1.
    10030    2    1    2    0    0  0.00000000000E+00  0.00000000000E+00  0.47119935815E+02  0.38288582352E+04  0.38285682829E+04 0.  0.
        4    1    3    3  502    0 -0.73412468382E+03  0.18900640727E+03 -0.17343614506E+04  0.18927952154E+04  0.12699999809E+01 0.  1.
       -4    1    3    3    0  502  0.73412468382E+03 -0.18900640727E+03  0.17814813864E+04  0.19360630197E+04  0.12699999809E+01 0. -1.
</event>
<event>
 5   0  0.1860500E-07  0.3906862E+04  0.7818609E-02  0.8023604E-01
        1   -1    0    0  501    0  0.00000000000E+00  0.00000000000E+00  0.25748690390E+04  0.25748690390E+04  0.50400001928E-02 0.  1.
       -1   -1    0    0    0  501  0.00000000000E+00  0.00000000000E+00 -0.14819751939E+04  0.14819751939E+04  0.50400001928E-02 0. -1.
    10030    2    1    2    0    0  0.00000000000E+00  0.00000000000E+00  0.10928938452E+04  0.40568442329E+04  0.39068616783E+04 0.  0.
        5    1    3    3  502    0  0.44802893114E+03  0.18692069547E+04  0.90795771327E+03  0.21258113420E+04  0.46999998093E+01 0. -1.
       -5    1    3    3    0  502 -0.44802893114E+03 -0.18692069547E+04  0.18493613190E+03  0.19310328909E+04  0.46999998093E+01 0.  1.
</event>
<event>
 5   0  0.5735179E-07  0.3852665E+04  0.7818609E-02  0.8034947E-01
        2   -1    0    0  501    0  0.00000000000E+00  0.00000000000E+00  0.19920653830E+04  0.19920653830E+04  0.25500000920E-02 0.  1.
       -2   -1    0    0    0  501  0.00000000000E+00  0.00000000000E+00 -0.18627689358E+04  0.18627689358E+04  0.25500000920E-02 0. -1.
    10030    2    1    2    0    0  0.00000000000E+00  0.00000000000E+00  0.12929644716E+03  0.38548343188E+04  0.38526653182E+04 0.  0.
        5    1    3    3  502    0 -0.75707649667E+03  0.61435631355E+03 -0.15976530846E+04  0.18716612862E+04  0.46999998093E+01 0. -1.
       -5    1    3    3    0  502  0.75707649667E+03 -0.61435631355E+03  0.17269495317E+04  0.19831730325E+04  0.46999998093E+01 0.  1.
</event>
<event>
 5   0  0.1943459E-07  0.3900290E+04  0.7818609E-02  0.8024969E-01
        1   -1    0    0  501    0  0.00000000000E+00  0.00000000000E+00  0.12689857295E+04  0.12689857296E+04  0.50400001928E-02 0. -1.
       -1   -1    0    0    0  501  0.00000000000E+00  0.00000000000E+00 -0.29969325164E+04  0.29969325164E+04  0.50400001928E-02 0.  1.
    10030    2    1    2    0    0  0.00000000000E+00  0.00000000000E+00 -0.17279467868E+04  0.42659182459E+04  0.39002895255E+04 0.  0.
        2    1    3    3  502    0  0.10470586160E+04 -0.11774789267E+04  0.39277426083E+03  0.16239027028E+04  0.25500000920E-02 0. -1.
       -2    1    3    3    0  502 -0.10470586160E+04  0.11774789267E+04 -0.21207210477E+04  0.26420155431E+04  0.25500000920E-02 0.  1.
</event>
<event>
 5   0  0.1860500E-07  0.2516517E+04  0.7818609E-02  0.8397125E-01
        1   -1    0    0  501    0  0.00000000000E+00  0.00000000000E+00  0.12250392996E+04  0.12250392996E+04  0.50400001928E-02 0. -1.
       -1   -1    0    0    0  501  0.00000000000E+00  0.00000000000E+00 -0.12923788588E+04  0.12923788588E+04  0.50400001928E-02 0.  1.
    10030    2    1    2    0    0  0.00000000000E+00  0.00000000000E+00 -0.67339559259E+02  0.25174181584E+04  0.25165173491E+04 0.  0.
        5    1    3    3  502    0  0.85261667163E+03 -0.92384653134E+03  0.18743629993E+02  0.12573070492E+04  0.46999998093E+01 0. -1.
       -5    1    3    3    0  502 -0.85261667163E+03  0.92384653134E+03 -0.86083189252E+02  0.12601111093E+04  0.46999998093E+01 0.  1.
</event>
<event>
 5   0  0.3959190E-07  0.3644616E+04  0.7818609E-02  0.8080348E-01
       -2   -1    0    0    0  501  0.00000000000E+00  0.00000000000E+00  0.13762168182E+04  0.13762168182E+04  0.25500000920E-02 0.  1.
        2   -1    0    0  501    0  0.00000000000E+00  0.00000000000E+00 -0.24129969807E+04  0.24129969807E+04  0.25500000920E-02 0. -1.
    10030    2    1    2    0    0  0.00000000000E+00  0.00000000000E+00 -0.10367801624E+04  0.37892137989E+04  0.36446163184E+04 0.  0.
        2    1    3    3  502    0  0.45115796985E+03 -0.17385909494E+04 -0.83810475095E+03  0.19820851587E+04  0.25500000920E-02 0. -1.
       -2    1    3    3    0  502 -0.45115796985E+03  0.17385909494E+04 -0.19867541150E+03  0.18071286402E+04  0.25500000920E-02 0.  1.
</event>
<event>
 5   0  0.1860500E-07  0.3896546E+04  0.7818609E-02  0.8025748E-01
        1   -1    0    0  501    0  0.00000000000E+00  0.00000000000E+00  0.14372099836E+04  0.14372099836E+04  0.50400001928E-02 0. -1.
       -1   -1    0    0    0  501  0.00000000000E+00  0.00000000000E+00 -0.26410664752E+04  0.26410664752E+04  0.50400001928E-02 0.  1.
    10030    2    1    2    0    0  0.00000000000E+00  0.00000000000E+00 -0.12038564917E+04  0.40782764588E+04  0.38965457038E+04 0.  0.
        4    1    3    3  502    0  0.16732661846E+04  0.41829692768E+02 -0.16455254416E+04  0.23471951430E+04  0.12699999809E+01 0.  1.
       -4    1    3    3    0  502 -0.16732661846E+04 -0.41829692768E+02  0.44166894991E+03  0.17310813158E+04  0.12699999809E+01 0. -1.
</event>
<event>
 5   0  0.1860500E-07  0.3288666E+04  0.7818609E-02  0.8165785E-01
       -1   -1    0    0    0  501  0.00000000000E+00  0.00000000000E+00  0.11574495934E+04  0.11574495934E+04  0.50400001928E-02 0.  1.
        1   -1    0    0  501    0  0.00000000000E+00  0.00000000000E+00 -0.23360252890E+04  0.23360252890E+04  0.50400001928E-02 0. -1.
    10030    2    1    2    0    0  0.00000000000E+00  0.00000000000E+00 -0.11785756956E+04  0.34934748825E+04  0.32886663078E+04 0.  0.
        4    1    3    3  502    0  0.66189128287E+03  0.91194327406E+03 -0.18614015023E+04  0.21759038975E+04  0.12699999809E+01 0. -1.
       -4    1    3    3    0  502 -0.66189128287E+03 -0.91194327406E+03  0.68282580667E+03  0.13175709850E+04  0.12699999809E+01 0.  1.
</event>
<event>
 5   0  0.2666813E-07  0.3871619E+04  0.7818609E-02  0.8030958E-01
       -1   -1    0    0    0  501  0.00000000000E+00  0.00000000000E+00  0.19528546788E+04  0.19528546788E+04  0.50400001928E-02 0. -1.
        1   -1    0    0  501    0  0.00000000000E+00  0.00000000000E+00 -0.19189128349E+04  0.19189128350E+04  0.50400001928E-02 0.  1.
    10030    2    1    2    0    0  0.00000000000E+00  0.00000000000E+00  0.33941843814E+02  0.38717675137E+04  0.38716187353E+04 0.  0.
        1    1    3    3  502    0  0.12125287083E+04 -0.14010000169E+04  0.57764475812E+03  0.19407989032E+04  0.50400001928E-02 0. -1.
       -1    1    3    3    0  502 -0.12125287083E+04  0.14010000169E+04 -0.54370291431E+03  0.19309686106E+04  0.50400001928E-02 0.  1.
</event>
<event>
 5   0  0.3959190E-07  0.3867044E+04  0.7818609E-02  0.8031918E-01
        2   -1    0    0  501    0  0.00000000000E+00  0.00000000000E+00  0.28481414803E+04  0.28481414803E+04  0.25500000920E-02 0. -1.
       -2   -1    0    0    0  501  0.00000000000E+00  0.00000000000E+00 -0.13126131612E+04  0.13126131612E+04  0.25500000920E-02 0.  1.
    10030    2    1    2    0    0  0.00000000000E+00  0.00000000000E+00  0.15355283190E+04  0.41607546415E+04  0.38670443453E+04 0.  0.
        2    1    3    3  502    0  0.67000646111E+03  0.14695959456E+04 -0.37593151176E+03  0.16582959334E+04  0.25500000920E-02 0. -1.
       -2    1    3    3    0  502 -0.67000646111E+03 -0.14695959456E+04  0.19114598308E+04  0.25024587081E+04  0.25500000920E-02 0.  1.
</event>
<event>
 5   0  0.1876027E-07  0.3928527E+04  0.7818609E-02  0.8019122E-01
        1   -1    0    0  501    0  0.00000000000E+00  0.00000000000E+00  0.25644848832E+04  0.25644848832E+04  0.50400001928E-02 0.  1.
       -1   -1    0    0    0  501  0.00000000000E+00  0.00000000000E+00 -0.15045245065E+04  0.15045245065E+04  0.50400001928E-02 0. -1.
    10030    2    1    2    0    0  0.00000000000E+00  0.00000000000E+00  0.10599603767E+04  0.40690093897E+04  0.39285266212E+04 0.  0.
        3    1    3    3  502    0 -0.18616199104E+04 -0.60117071057E+03  0.34674897895E+03  0.19867737109E+04  0.10100000352E+00 0. -1.
       -3    1    3    3    0  502  0.18616199104E+04  0.60117071057E+03  0.71321139775E+03  0.20822356788E+04  0.10100000352E+00 0.  1.
</event>
<event>
 5   0  0.6095665E-07  0.3898915E+04  0.7818609E-02  0.8025255E-01
       -2   -1    0    0    0  501  0.00000000000E+00  0.00000000000E+00  0.16954238182E+04  0.16954238182E+04  0.25500000920E-02 0. -1.
        2   -1    0    0  501    0  0.00000000000E+00  0.00000000000E+00 -0.22415542743E+04  0.22415542743E+04  0.25500000920E-02 0.  1.
    10030    2    1    2    0    0  0.00000000000E+00  0.00000000000E+00 -0.54613045616E+03  0.39369780925E+04  0.38989149806E+04 0.  0.
        4    1    3    3  502    0  0.10011001063E+04 -0.52696100225E+02 -0.19613339331E+04  0.22026826172E+04  0.12699999809E+01 0.  1.
       -4    1    3    3    0  502 -0.10011001063E+04  0.52696100225E+02  0.14152034770E+04  0.17342954754E+04  0.12699999809E+01 0. -1.
</event>
<event>
 5   0  0.5805753E-07  0.3956140E+04  0.7818609E-02  0.8013453E-01
       -2   -1    0    0    0  501  0.00000000000E+00  0.00000000000E+00  0.13621953196E+04  0.13621953196E+04  0.25500000920E-02 0. -1.
        2   -1    0    0  501    0  0.00000000000E+00  0.00000000000E+00 -0.28723939723E+04  0.28723939723E+04  0.25500000920E-02 0.  1.
    10030    2    1    2    0    0  0.00000000000E+00  0.00000000000E+00 -0.15101986528E+04  0.42345892919E+04  0.39561403540E+04 0.  0.
        1    1    3    3  502    0  0.98047430828E+02  0.64763255753E+03  0.12427431834E+04  0.14047960165E+04  0.50400001928E-02 0. -1.
       -1    1    3    3    0  502 -0.98047430828E+02 -0.64763255753E+03 -0.27529418361E+04  0.28297932754E+04  0.50400001928E-02 0.  1.
</event>
<event>
 5   0  0.6095665E-07  0.3901681E+04  0.7818609E-02  0.8024680E-01
        2   -1    0    0  501    0  0.00000000000E+00  0.00000000000E+00  0.24886917069E+04  0.24886917069E+04  0.25500000920E-02 0.  1.
       -2   -1    0    0    0  501  0.00000000000E+00  0.00000000000E+00 -0.15292288015E+04  0.15292288015E+04  0.25500000920E-02 0. -1.
    10030    2    1    2    0    0  0.00000000000E+00  0.00000000000E+00  0.95946290539E+03  0.40179205084E+04  0.39016811947E+04 0.  0.
        4    1    3    3  502    0 -0.17648329000E+04  0.70932743731E+03  0.33227980711E+02  0.19023370600E+04  0.12699999809E+01 0.  1.
       -4    1    3    3    0  502  0.17648329000E+04 -0.70932743731E+03  0.92623492468E+03  0.21155834484E+04  0.12699999809E+01 0. -1.
</event>
<event>
 5   0  0.6095665E-07  0.3836622E+04  0.7818609E-02  0.8038341E-01
        2   -1    0    0  501    0  0.00000000000E+00  0.00000000000E+00  0.20040663648E+04  0.20040663648E+04  0.25500000920E-02 0. -1.
       -2   -1    0    0    0  501  0.00000000000E+00  0.00000000000E+00 -0.18362247846E+04  0.18362247846E+04  0.25500000920E-02 0.  1.
    10030    2    1    2    0    0  0.00000000000E+00  0.00000000000E+00  0.16784158014E+03  0.38402911494E+04  0.38366216019E+04 0.  0.
        4    1    3    3  502    0 -0.11794675923E+04 -0.44088694363E+03  0.15325055834E+04  0.19834565976E+04  0.12699999809E+01 0. -1.
       -4    1    3    3    0  502  0.11794675923E+04  0.44088694363E+03 -0.13646640032E+04  0.18568345519E+04  0.12699999809E+01 0.  1.
</event>
<event>
 5   0  0.1876027E-07  0.3512389E+04  0.7818609E-02  0.8110860E-01
       -1   -1    0    0    0  501  0.00000000000E+00  0.00000000000E+00  0.13763731450E+04  0.13763731450E+04  0.50400001928E-02 0. -1.
        1   -1    0    0  501    0  0.00000000000E+00  0.00000000000E+00 -0.22408309274E+04  0.22408309274E+04  0.50400001928E-02 0.  1.
    10030    2    1    2    0    0  0.00000000000E+00  0.00000000000E+00 -0.86445778242E+03  0.36172040723E+04  0.35123892215E+04 0.  0.
        3    1    3    3  502    0 -0.16027190302E+04  0.70836320038E+03 -0.55291289791E+03  0.18374437124E+04  0.10100000352E+00 0.  1.
       -3    1    3    3    0  502  0.16027190302E+04 -0.70836320038E+03 -0.31154488451E+03  0.17797603599E+04  0.10100000352E+00 0. -1.
</event>
<event>
 5   0  0.5805753E-07  0.3879118E+04  0.7818609E-02  0.8029386E-01
        2   -1    0    0  501    0  0.00000000000E+00  0.00000000000E+00  0.19472179771E+04  0.19472179771E+04  0.25500000920E-02 0. -1.
       -2   -1    0    0    0  501  0.00000000000E+00  0.00000000000E+00 -0.19319299053E+04  0.19319299053E+04  0.25500000920E-02 0.  1.
    10030    2    1    2    0    0  0.00000000000E+00  0.00000000000E+00  0.15288071810E+02  0.38791478824E+04  0.38791177565E+04 0.  0.
        1    1    3    3  502    0 -0.16822322217E+04 -0.87962623274E+03 -0.39015433380E+03  0.19380061820E+04  0.50400001928E-02 0. -1.
       -1    1    3    3    0  502  0.16822322217E+04  0.87962623274E+03  0.40544240561E+03  0.19411417005E+04  0.50400001928E-02 0.  1.
</event>
<event>
 5   0  0.1876027E-07  0.3644939E+04  0.7818609E-02  0.8080275E-01
        1   -1    0    0  501    0  0.00000000000E+00  0.00000000000E+00  0.14633084690E+04  0.14633084690E+04  0.50400001928E-02 0.  1.
       -1   -1    0    0    0  501  0.00000000000E+00  0.00000000000E+00 -0.22697841353E+04  0.22697841353E+04  0.50400001928E-02 0. -1.
    10030    2    1    2    0    0  0.00000000000E+00  0.00000000000E+00 -0.80647566632E+03  0.37330926044E+04  0.36449385993E+04 0.  0.
        3    1    3    3  502    0 -0.14817028208E+04  0.10489799114E+04 -0.23939303871E+03  0.18311502234E+04  0.10100000352E+00 0.  1.
       -3    1    3    3    0  502  0.14817028208E+04 -0.10489799114E+04 -0.56708262761E+03  0.19019423809E+04  0.10100000352E+00 0. -1.
</event>
<event>
 5   0  0.3959190E-07  0.3108938E+04  0.7818609E-02  0.8213289E-01
       -2   -1    0    0    0  501  0.00000000000E+00  0.00000000000E+00  0.79029640370E+03  0.79029640370E+03  0.25500000920E-02 0. -1.
        2   -1    0    0  501    0  0.00000000000E+00  0.00000000000E+00 -0.30575530112E+04  0.30575530112E+04  0.25500000920E-02 0.  1.
    10030    2    1    2    0    0  0.00000000000E+00  0.00000000000E+00 -0.22672566075E+04  0.38478494149E+04  0.31089375348E+04 0.  0.
        2    1    3    3  502    0  0.35406142656E+03 -0.10180026005E+04  0.25272305914E+03  0.11070491105E+04  0.25500000920E-02 0. -1.
       -2    1    3    3    0  502 -0.35406142656E+03  0.10180026005E+04 -0.25199796666E+04  0.27408003044E+04  0.25500000920E-02 0.  1.
</event>
<event>
 5   0  0.3959190E-07  0.2996617E+04  0.7818609E-02  0.8244698E-01
        2   -1    0    0  501    0  0.00000000000E+00  0.00000000000E+00  0.16574424523E+04  0.16574424523E+04  0.25500000920E-02 0. -1.
       -2   -1    0    0    0  501  0.00000000000E+00  0.00000000000E+00 -0.13544529229E+04  0.13544529229E+04  0.25500000920E-02 0.  1.
    10030    2    1    2    0    0  0.00000000000E+00  0.00000000000E+00  0.30298952935E+03  0.30118953752E+04  0.29966166081E+04 0.  0.
        2    1    3    3  502    0  0.11748037213E+04  0.91417773573E+03 -0.19794391632E+02  0.14887164048E+04  0.25500000920E-02 0.  1.
       -2    1    3    3    0  502 -0.11748037213E+04 -0.91417773573E+03  0.32278392098E+03  0.15231789703E+04  0.25500000920E-02 0. -1.
</event>
<event>
 5   0  0.5805753E-07  0.3882184E+04  0.7818609E-02  0.8028745E-01
       -2   -1    0    0    0  501  0.00000000000E+00  0.00000000000E+00  0.31709266724E+04  0.31709266725E+04  0.25500000920E-02 0.  1.
        2   -1    0    0  501    0  0.00000000000E+00  0.00000000000E+00 -0.11882449918E+04  0.11882449919E+04  0.25500000920E-02 0. -1.
    10030    2    1    2    0    0  0.00000000000E+00  0.00000000000E+00  0.19826816806E+04  0.43591716643E+04  0.38821837865E+04 0.  0.
        1    1    3    3  502    0  0.60271723408E+03  0.17511465951E+04  0.16442033642E+04  0.24765272389E+04  0.50400001928E-02 0.  1.
       -1    1    3    3    0  502 -0.60271723408E+03 -0.17511465951E+04  0.33847831641E+03  0.18826444254E+04  0.50400001928E-02 0. -1.
</event>
<event>
 5   0  0.5805753E-07  0.3913911E+04  0.7818609E-02  0.8022142E-01
        2   -1    0    0  501    0  0.00000000000E+00  0.00000000000E+00  0.12360845225E+04  0.12360845225E+04  0.25500000920E-02 0. -1.
       -2   -1    0    0    0  501  0.00000000000E+00  0.00000000000E+00 -0.30982311469E+04  0.30982311469E+04  0.25500000920E-02 0.  1.
    10030    2    1    2    0    0  0.00000000000E+00  0.00000000000E+00 -0.18621466244E+04  0.43343156694E+04  0.39139113775E+04 0.  0.
        1    1    3    3  502    0  0.14086538717E+03 -0.10064968828E+04 -0.27830690662E+04  0.29628284560E+04  0.50400001928E-02 0.  1.
       -1    1    3    3    0  502 -0.14086538717E+03  0.10064968828E+04  0.92092244183E+03  0.13714872133E+04  0.50400001928E-02 0. -1.
</event>
<event>
 5   0  0.3959190E-07  0.2405276E+04  0.7818609E-02  0.8437531E-01
       -2   -1    0    0    0  501  0.00000000000E+00  0.00000000000E+00  0.27264702877E+04  0.27264702877E+04  0.25500000920E-02 0. -1.
        2   -1    0    0  501    0  0.00000000000E+00  0.00000000000E+00 -0.53048026044E+03  0.53048026045E+03  0.25500000920E-02 0.  1.
    10030    2    1    2    0    0  0.00000000000E+00  0.00000000000E+00  0.21959900272E+04  0.32569505481E+04  0.24052764235E+04 0.  0.
        2    1    3    3  502    0 -0.46344641126E+03  0.56140063655E+03  0.23942345240E+04  0.25024612299E+04  0.25500000920E-02 0. -1.
       -2    1    3    3    0  502  0.46344641126E+03 -0.56140063655E+03 -0.19824449682E+03  0.75448931825E+03  0.25500000920E-02 0.  1.
</event>
<event>
 5   0  0.1943459E-07  0.3938340E+04  0.7818609E-02  0.8017102E-01
        1   -1    0    0  501    0  0.00000000000E+00  0.00000000000E+00  0.28226888060E+04  0.28226888060E+04  0.50400001928E-02 0.  1.
       -1   -1    0    0    0  501  0.00000000000E+00  0.00000000000E+00 -0.13737363109E+04  0.13737363109E+04  0.50400001928E-02 0. -1.
    10030    2    1    2    0    0  0.00000000000E+00  0.00000000000E+00  0.14489524951E+04  0.41964251169E+04  0.39383398062E+04 0.  0.
        2    1    3    3  502    0 -0.72914776988E+02 -0.38171713072E+03 -0.13324703059E+04  0.13879847436E+04  0.25500000920E-02 0. -1.
       -2    1    3    3    0  502  0.72914776988E+02  0.38171713072E+03  0.27814228009E+04  0.28084403732E+04  0.25500000920E-02 0.  1.
</event>
<event>
 5   0  0.1943459E-07  0.3851388E+04  0.7818609E-02  0.8035216E-01
        1   -1    0    0  501    0  0.00000000000E+00  0.00000000000E+00  0.21514718057E+04  0.21514718058E+04  0.50400001928E-02 0.  1.
       -1   -1    0    0    0  501  0.00000000000E+00  0.00000000000E+00 -0.17236096781E+04  0.17236096781E+04  0.50400001928E-02 0. -1.
    10030    2    1    2    0    0  0.00000000000E+00  0.00000000000E+00  0.42786212768E+03  0.38750814838E+04  0.38513881272E+04 0.  0.
        2    1    3    3  502    0  0.75650413251E+03 -0.11772758771E+04  0.15449527654E+04  0.20845037876E+04  0.25500000920E-02 0.  1.
       -2    1    3    3    0  502 -0.75650413251E+03  0.11772758771E+04 -0.11170906377E+04  0.17905776962E+04  0.25500000920E-02 0. -1.
</event>
<event>
 5   0  0.1860500E-07  0.3968941E+04  0.7818609E-02  0.8010842E-01
        1   -1    0    0  501    0  0.00000000000E+00  0.00000000000E+00  0.26988438162E+04  0.26988438162E+04  0.50400001928E-02 0. -1.
       -1   -1    0    0    0  501  0.00000000000E+00  0.00000000000E+00 -0.14591888885E+04  0.14591888885E+04  0.50400001928E-02 0.  1.
    10030    2    1    2    0    0  0.00000000000E+00  0.00000000000E+00  0.12396549277E+04  0.41580327047E+04  0.39689408705E+04 0.  0.
        4    1    3    3  502    0 -0.19033917589E+04  0.44021090968E+03  0.98490577926E+03  0.21878589625E+04  0.12699999809E+01 0. -1.
       -4    1    3    3    0  502  0.19033917589E+04 -0.44021090968E+03  0.25474914843E+03  0.19701737422E+04  0.12699999809E+01 0.  1.
</event>
<event>
 5   0  0.1860500E-07  0.3699847E+04  0.7818609E-02  0.8067996E-01
       -1   -1    0    0    0  501  0.00000000000E+00  0.00000000000E+00  0.13950088070E+04  0.13950088070E+04  0.50400001928E-02 0.  1.
        1   -1    0    0  501    0  0.00000000000E+00  0.00000000000E+00 -0.24531862617E+04  0.24531862617E+04  0.50400001928E-02 0. -1.
    10030    2    1    2    0    0  0.00000000000E+00  0.00000000000E+00 -0.10581774547E+04  0.38481950687E+04  0.36998467213E+04 0.  0.
        5    1    3    3  502    0 -0.17925366819E+04 -0.33077749087E+03 -0.85732563915E+03  0.20143561864E+04  0.46999998093E+01 0.  1.
       -5    1    3    3    0  502  0.17925366819E+04  0.33077749087E+03 -0.20085181554E+03  0.18338388823E+04  0.46999998093E+01 0. -1.
</event>
<event>
 5   0  0.1860500E-07  0.3430827E+04  0.7818609E-02  0.8130382E-01
       -1   -1    0    0    0  501  0.00000000000E+00  0.00000000000E+00  0.13704361740E+04  0.13704361740E+04  0.50400001928E-02 0. -1.
        1   -1    0    0  501    0  0.00000000000E+00  0.00000000000E+00 -0.21472307723E+04  0.21472307723E+04  0.50400001928E-02 0.  1.
    10030    2    1    2    0    0  0.00000000000E+00  0.00000000000E+00 -0.77679459833E+03  0.35176669463E+04  0.34308265618E+04 0.  0.
        5    1    3    3  502    0  0.14981311375E+04 -0.50394785225E+03  0.29500227320E+03  0.16079206368E+04  0.46999998093E+01 0. -1.
       -5    1    3    3    0  502 -0.14981311375E+04  0.50394785225E+03 -0.10717968715E+04  0.19097463095E+04  0.46999998093E+01 0.  1.
</event>
<event>
 5   0  0.5872444E-07  0.3818469E+04  0.7818609E-02  0.8042203E-01
       -2   -1    0    0    0  501  0.00000000000E+00  0.00000000000E+00  0.29247430199E+04  0.29247430199E+04  0.25500000920E-02 0. -1.
        2   -1    0    0  501    0  0.00000000000E+00  0.00000000000E+00 -0.12463238627E+04  0.12463238627E+04  0.25500000920E-02 0.  1.
    10030    2    1    2    0    0  0.00000000000E+00  0.00000000000E+00  0.16784191572E+04  0.41710668826E+04  0.38184693363E+04 0.  0.
        3    1    3    3  502    0 -0.12705590454E+04  0.12444485732E+04  0.15977408010E+04  0.23907631034E+04  0.10100000352E+00 0.  1.
       -3    1    3    3    0  502  0.12705590454E+04 -0.12444485732E+04  0.80678356213E+02  0.17803037793E+04  0.10100000352E+00 0. -1.
</event>
<event>
 5   0  0.5805753E-07  0.4036140E+04  0.7818609E-02  0.7997295E-01
       -2   -1    0    0    0  501  0.00000000000E+00  0.00000000000E+00  0.16263196971E+04  0.16263196971E+04  0.25500000920E-02 0.  1.
        2   -1    0    0  501    0  0.00000000000E+00  0.00000000000E+00 -0.25041861222E+04  0.25041861222E+04  0.25500000920E-02 0. -1.
    10030    2    1    2    0    0  0.00000000000E+00  0.00000000000E+00 -0.87786642508E+03  0.41305058193E+04  0.40361403423E+04 0.  0.
        1    1    3    3  502    0 -0.12126959682E+04  0.75318320606E+03 -0.18987091017E+04  0.23755026217E+04  0.50400001928E-02 0. -1.
       -1    1    3    3    0  502  0.12126959682E+04 -0.75318320606E+03  0.10208426766E+04  0.17550031976E+04  0.50400001928E-02 0.  1.
</event>
<event>
 5   0  0.1860500E-07  0.3837718E+04  0.7818609E-02  0.8038109E-01
       -1   -1    0    0    0  501  0.00000000000E+00  0.00000000000E+00  0.29602128166E+04  0.29602128166E+04  0.50400001928E-02 0. -1.
        1   -1    0    0  501    0  0.00000000000E+00  0.00000000000E+00 -0.12438363680E+04  0.12438363680E+04  0.50400001928E-02 0.  1.
    10030    2    1    2    0    0  0.00000000000E+00  0.00000000000E+00  0.17163764486E+04  0.42040491846E+04  0.38377182587E+04 0.  0.
        5    1    3    3  502    0 -0.59042904107E+02  0.12745271923E+03 -0.12381905872E+04  0.12461413566E+04  0.46999998093E+01 0.  1.
       -5    1    3    3    0  502  0.59042904107E+02 -0.12745271923E+03  0.29545670358E+04  0.29579078281E+04  0.46999998093E+01 0. -1.
</event>
<event>
 5   0  0.5805753E-07  0.3769428E+04  0.7818609E-02  0.8052748E-01
        2   -1    0    0  501    0  0.00000000000E+00  0.00000000000E+00  0.25462558206E+04  0.25462558206E+04  0.25500000920E-02 0.  1.
       -2   -1    0    0    0  501  0.00000000000E+00  0.00000000000E+00 -0.13950471586E+04  0.13950471586E+04  0.25500000920E-02 0. -1.
    10030    2    1    2    0    0  0.00000000000E+00  0.00000000000E+00  0.11512086620E+04  0.39413029792E+04  0.37694280455E+04 0.  0.
        1    1    3    3  502    0  0.84788171527E+02  0.34020512485E+03  0.25118565832E+04  0.25362082043E+04  0.50400001928E-02 0.  1.
       -1    1    3    3    0  502 -0.84788171527E+02 -0.34020512485E+03 -0.13606479212E+04  0.14050947749E+04  0.50400001928E-02 0. -1.
</event>
<event>
 5   0  0.1943459E-07  0.3824061E+04  0.7818609E-02  0.8041011E-01
        1   -1    0    0  501    0  0.00000000000E+00  0.00000000000E+00  0.24424390346E+04  0.24424390346E+04  0.50400001928E-02 0. -1.
       -1   -1    0    0    0  501  0.00000000000E+00  0.00000000000E+00 -0.14968069690E+04  0.14968069690E+04  0.50400001928E-02 0.  1.
    10030    2    1    2    0    0  0.00000000000E+00  0.00000000000E+00  0.94563206559E+03  0.39392460037E+04  0.38240605479E+04 0.  0.
        2    1    3    3  502    0  0.90160575703E+03  0.69232442596E+03  0.20565428428E+04  0.23498030803E+04  0.25500000920E-02 0. -1.
       -2    1    3    3    0  502 -0.90160575703E+03 -0.69232442596E+03 -0.11109107772E+04  0.15894429234E+04  0.25500000920E-02 0.  1.
</event>
<event>
 5   0  0.5805753E-07  0.3798443E+04  0.7818609E-02  0.8046489E-01
       -2   -1    0    0    0  501  0.00000000000E+00  0.00000000000E+00  0.12457282758E+04  0.12457282758E+04  0.25500000920E-02 0.  1.
        2   -1    0    0  501    0  0.00000000000E+00  0.00000000000E+00 -0.28955282138E+04  0.28955282138E+04  0.25500000920E-02 0. -1.
    10030    2    1    2    0    0  0.00000000000E+00  0.00000000000E+00 -0.16497999380E+04  0.41412564896E+04  0.37984425068E+04 0.  0.
        1    1    3    3  502    0 -0.12183155202E+04  0.14384991169E+04 -0.10770026203E+04  0.21710612751E+04  0.50400001928E-02 0.  1.
       -1    1    3    3    0  502  0.12183155202E+04 -0.14384991169E+04 -0.57279731770E+03  0.19701952145E+04  0.50400001928E-02 0. -1.
</event>
<event>
 5   0  0.3959190E-07  0.3732298E+04  0.7818609E-02  0.8060842E-01
        2   -1    0    0  501    0  0.00000000000E+00  0.00000000000E+00  0.18617306952E+04  0.18617306952E+04  0.25500000920E-02 0. -1.
       -2   -1    0    0    0  501  0.00000000000E+00  0.00000000000E+00 -0.18705779533E+04  0.18705779533E+04  0.25500000920E-02 0.  1.
    10030    2    1    2    0    0  0.00000000000E+00  0.00000000000E+00 -0.88472581102E+01  0.37323086485E+04  0.37322981625E+04 0.  0.
        2    1    3    3  502    0  0.21184223339E+03 -0.61772348360E+03 -0.17525855585E+04  0.18702982580E+04  0.25500000920E-02 0.  1.
       -2    1    3    3    0  502 -0.21184223339E+03  0.61772348360E+03  0.17437383004E+04  0.18620103905E+04  0.25500000920E-02 0. -1.
</event>
<event>
 5   0  0.5735179E-07  0.3920006E+04  0.7818609E-02  0.8020881E-01
        2   -1    0    0  501    0  0.00000000000E+00  0.00000000000E+00  0.20242439676E+04  0.20242439676E+04  0.25500000920E-02 0. -1.
       -2   -1    0    0    0  501  0.00000000000E+00  0.00000000000E+00 -0.18978006342E+04  0.18978006342E+04  0.25500000920E-02 0.  1.
    10030    2    1    2    0    0  0.00000000000E+00  0.00000000000E+00  0.12644333345E+03  0.39220446018E+04  0.39200058600E+04 0.  0.
        5    1    3    3  502    0  0.35429539208E+03  0.14583777949E+04  0.13245114229E+04  0.20016851942E+04  0.46999998093E+01 0. -1.
       -5    1    3    3    0  502 -0.35429539208E+03 -0.14583777949E+04 -0.11980680894E+04  0.19203594076E+04  0.46999998093E+01 0.  1.
</event>
<event>
 5   0  0.2666813E-07  0.3998334E+04  0.7818609E-02  0.8004883E-01
       -1   -1    0    0    0  501  0.00000000000E+00  0.00000000000E+00  0.22027429693E+04  0.22027429693E+04  0.50400001928E-02 0. -1.
        1   -1    0    0  501    0  0.00000000000E+00  0.00000000000E+00 -0.18144049693E+04  0.18144049693E+04  0.50400001928E-02 0.  1.
    10030    2    1    2    0    0  0.00000000000E+00  0.00000000000E+00  0.38833799999E+03  0.40171479386E+04  0.39983335476E+04 0.  0.
        1    1    3    3  502    0 -0.19104934811E+04 -0.51406103520E+03  0.48261522438E+03  0.20364580880E+04  0.50400001928E-02 0. -1.
       -1    1    3    3    0  502  0.19104934811E+04  0.51406103520E+03 -0.94277224393E+02  0.19806898506E+04  0.50400001928E-02 0.  1.
</event>
<event>
 5   0  0.1876027E-07  0.3848834E+04  0.7818609E-02  0.8035756E-01
        1   -1    0    0  501    0  0.00000000000E+00  0.00000000000E+00  0.30241288424E+04  0.30241288424E+04  0.50400001928E-02 0. -1.
       -1   -1    0    0    0  501  0.00000000000E+00  0.00000000000E+00 -0.12246105092E+04  0.12246105092E+04  0.50400001928E-02 0.  1.
    10030    2    1    2    0    0  0.00000000000E+00  0.00000000000E+00  0.17995183332E+04  0.42487393516E+04  0.38488335695E+04 0.  0.
        3    1    3    3  502    0  0.16059361733E+04 -0.37510922580E+03 -0.19507790765E+03  0.16606605084E+04  0.10100000352E+00 0.  1.
       -3    1    3    3    0  502 -0.16059361733E+04  0.37510922580E+03  0.19945962409E+04  0.25880788432E+04  0.10100000352E+00 0. -1.
</event>
<event>
 5   0  0.1860500E-07  0.3623944E+04  0.7818609E-02  0.8085029E-01
        1   -1    0    0  501    0  0.00000000000E+00  0.00000000000E+00  0.17686837073E+04  0.17686837073E+04  0.50400001928E-02 0.  1.
       -1   -1    0    0    0  501  0.00000000000E+00  0.00000000000E+00 -0.18563193091E+04  0.18563193091E+04  0.50400001928E-02 0. -1.
    10030    2    1    2    0    0  0.00000000000E+00  0.00000000000E+00 -0.87635601805E+02  0.36250030164E+04  0.36239435523E+04 0.  0.
        4    1    3    3  502    0 -0.68185210300E+03  0.16401350014E+04 -0.40207749038E+03  0.18211625502E+04  0.12699999809E+01 0. -1.
       -4    1    3    3    0  502  0.68185210300E+03 -0.16401350014E+04  0.31444188858E+03  0.18038404662E+04  0.12699999809E+01 0.  1.
</event>
<event>
 5   0  0.1860500E-07  0.2706087E+04  0.7818609E-02  0.8333033E-01
        1   -1    0    0  501    0  0.00000000000E+00  0.00000000000E+00  0.11265921000E+04  0.11265921000E+04  0.50400001928E-02 0. -1.
       -1   -1    0    0    0  501  0.00000000000E+00  0.00000000000E+00 -0.16250134606E+04  0.16250134606E+04  0.50400001928E-02 0.  1.
    10030    2    1    2    0    0  0.00000000000E+00  0.00000000000E+00 -0.49842136065E+03  0.27516055606E+04  0.27060874539E+04 0.  0.
        5    1    3    3  502    0  0.53813511214E+03  0.96173541227E+03 -0.10473862737E+04  0.15203830105E+04  0.46999998093E+01 0.  1.
       -5    1    3    3    0  502 -0.53813511214E+03 -0.96173541227E+03  0.54896491308E+03  0.12312225501E+04  0.46999998093E+01 0. -1.
</event>
<event>
 5   0  0.5805753E-07  0.3817124E+04  0.7818609E-02  0.8042490E-01
        2   -1    0    0  501    0  0.00000000000E+00  0.00000000000E+00  0.22428097562E+04  0.22428097562E+04  0.25500000920E-02 0. -1.
       -2   -1    0    0    0  501  0.00000000000E+00  0.00000000000E+00 -0.16241276447E+04  0.16241276447E+04  0.25500000920E-02 0.  1.
    10030    2    1    2    0    0  0.00000000000E+00  0.00000000000E+00  0.61868211156E+03  0.38669374009E+04  0.38171242195E+04 0.  0.
        1    1    3    3  502    0 -0.16300252908E+04 -0.29500016090E+03 -0.65097565535E+03  0.17798249485E+04  0.50400001928E-02 0.  1.
       -1    1    3    3    0  502  0.16300252908E+04  0.29500016090E+03  0.12696577669E+04  0.20871124523E+04  0.50400001928E-02 0. -1.
</event>
<event>
 5   0  0.1943459E-07  0.3853751E+04  0.7818609E-02  0.8034718E-01
       -1   -1    0    0    0  501  0.00000000000E+00  0.00000000000E+00  0.19298945620E+04  0.19298945620E+04  0.50400001928E-02 0. -1.
        1   -1    0    0  501    0  0.00000000000E+00  0.00000000000E+00 -0.19238607380E+04  0.19238607380E+04  0.50400001928E-02 0.  1.
    10030    2    1    2    0    0  0.00000000000E+00  0.00000000000E+00  0.60338240274E+01  0.38537553000E+04  0.38537505765E+04 0.  0.
        2    1    3    3  502    0 -0.69282873500E+03  0.13972448707E+03 -0.17895571214E+04  0.19240710172E+04  0.25500000920E-02 0.  1.
       -2    1    3    3    0  502  0.69282873500E+03 -0.13972448707E+03  0.17955909454E+04  0.19296842829E+04  0.25500000920E-02 0. -1.
</event>
<event>
 5   0  0.1943459E-07  0.3922912E+04  0.7818609E-02  0.8020281E-01
        1   -1    0    0  501    0  0.00000000000E+00  0.00000000000E+00  0.19623807443E+04  0.19623807443E+04  0.50400001928E-02 0.  1.
       -1   -1    0    0    0  501  0.00000000000E+00  0.00000000000E+00 -0.19605318663E+04  0.19605318663E+04  0.50400001928E-02 0. -1.
    10030    2    1    2    0    0  0.00000000000E+00  0.00000000000E+00  0.18488779688E+01  0.39229126106E+04  0.39229121749E+04 0.  0.
        2    1    3    3  502    0  0.16246057135E+04 -0.10000304629E+04 -0.45504198323E+03  0.19612414073E+04  0.25500000920E-02 0. -1.
       -2    1    3    3    0  502 -0.16246057135E+04  0.10000304629E+04  0.45689086120E+03  0.19616712034E+04  0.25500000920E-02 0.  1.
</event>
<event>
 5   0  0.1876027E-07  0.2863510E+04  0.7818609E-02  0.8283818E-01
        1   -1    0    0  501    0  0.00000000000E+00  0.00000000000E+00  0.15938556543E+04  0.15938556543E+04  0.50400001928E-02 0. -1.
       -1   -1    0    0    0  501  0.00000000000E+00  0.00000000000E+00 -0.12861407059E+04  0.12861407059E+04  0.50400001928E-02 0.  1.
    10030    2    1    2    0    0  0.00000000000E+00  0.00000000000E+00  0.30771494840E+03  0.28799963601E+04  0.28635101789E+04 0.  0.
        3    1    3    3  502    0  0.34745537806E+03  0.96679649134E+03 -0.84913118600E+03  0.13328332516E+04  0.10100000352E+00 0.  1.
       -3    1    3    3    0  502 -0.34745537806E+03 -0.96679649134E+03  0.11568461344E+04  0.15471631085E+04  0.10100000352E+00 0. -1.
</event>
<event>
 5   0  0.1860500E-07  0.2985314E+04  0.7818609E-02  0.8247937E-01
        1   -1    0    0  501    0  0.00000000000E+00  0.00000000000E+00  0.17183362975E+04  0.17183362975E+04  0.50400001928E-02 0.  1.
       -1   -1    0    0    0  501  0.00000000000E+00  0.00000000000E+00 -0.12966174071E+04  0.12966174071E+04  0.50400001928E-02 0. -1.
    10030    2    1    2    0    0  0.00000000000E+00  0.00000000000E+00  0.42171889039E+03  0.30149537046E+04  0.29853138894E+04 0.  0.
        4    1    3    3  502    0  0.12713432975E+03  0.14787708172E+04  0.37085225326E+03  0.15298559652E+04  0.12699999809E+01 0.  1.
       -4    1    3    3    0  502 -0.12713432975E+03 -0.14787708172E+04  0.50866637135E+02  0.14850977393E+04  0.12699999809E+01 0. -1.
</event>
<event>
 5   0  0.3959190E-07  0.3883734E+04  0.7818609E-02  0.8028421E-01
       -2   -1    0    0    0  501  0.00000000000E+00  0.00000000000E+00  0.30638260720E+04  0.30638260720E+04  0.25500000920E-02 0. -1.
        2   -1    0    0  501    0  0.00000000000E+00  0.00000000000E+00 -0.12307644153E+04  0.12307644154E+04  0.25500000920E-02 0.  1.
    10030    2    1    2    0    0  0.00000000000E+00  0.00000000000E+00  0.18330616567E+04  0.42945904874E+04  0.38837343391E+04 0.  0.
        2    1    3    3  502    0  0.11383772541E+04 -0.74241353609E+03  0.24502594827E+04  0.28019372163E+04  0.25500000920E-02 0. -1.
       -2    1    3    3    0  502 -0.11383772541E+04  0.74241353609E+03 -0.61719782607E+03  0.14926532711E+04  0.25500000920E-02 0.  1.
</event>
<event>
 5   0  0.5872444E-07  0.3874832E+04  0.7818609E-02  0.8030284E-01
        2   -1    0    0  501    0  0.00000000000E+00  0.00000000000E+00  0.17130129923E+04  0.17130129923E+04  0.25500000920E-02 0. -1.
       -2   -1    0    0    0  501  0.00000000000E+00  0.00000000000E+00 -0.21912161004E+04  0.21912161004E+04  0.25500000920E-02 0.  1.
    10030    2    1    2    0    0  0.00000000000E+00  0.00000000000E+00 -0.47820310803E+03  0.39042290927E+04  0.38748324604E+04 0.  0.
        3    1    3    3  502    0  0.58549954701E+03 -0.14056744921E+04  0.96783874355E+03  0.18042844401E+04  0.10100000352E+00 0. -1.
       -3    1    3    3    0  502 -0.58549954701E+03  0.14056744921E+04 -0.14460418516E+04  0.20999446526E+04  0.10100000352E+00 0.  1.
</event>
<event>
 5   0  0.5805753E-07  0.3888704E+04  0.7818609E-02  0.8027383E-01
        2   -1    0    0  501    0  0.00000000000E+00  0.00000000000E+00  0.15436587968E+04  0.15436587968E+04  0.25500000920E-02 0. -1.
       -2   -1    0    0    0  501  0.00000000000E+00  0.00000000000E+00 -0.24490546930E+04  0.24490546930E+04  0.25500000920E-02 0.  1.
    10030    2    1    2    0    0  0.00000000000E+00  0.00000000000E+00 -0.90539589620E+03  0.39927134898E+04  0.38887040621E+04 0.  0.
        1    1    3    3  502    0 -0.15736665822E+04 -0.14695574468E+03 -0.16154549042E+04  0.22600258960E+04  0.50400001928E-02 0.  1.
       -1    1    3    3    0  502  0.15736665822E+04  0.14695574468E+03  0.71005900803E+03  0.17326875938E+04  0.50400001928E-02 0. -1.
</event>
<event>
 5   0  0.5735179E-07  0.3907443E+04  0.7818609E-02  0.8023483E-01
       -2   -1    0    0    0  501  0.00000000000E+00  0.00000000000E+00  0.14197863321E+04  0.14197863321E+04  0.25500000920E-02 0.  1.
        2   -1    0    0  501    0  0.00000000000E+00  0.00000000000E+00 -0.26884526512E+04  0.26884526512E+04  0.25500000920E-02 0. -1.
    10030    2    1    2    0    0  0.00000000000E+00  0.00000000000E+00 -0.12686663191E+04  0.41082389833E+04  0.39074433220E+04 0.  0.
        5    1    3    3  502    0 -0.66443216976E+03 -0.23626829858E+03  0.12813042485E+04  0.14625510194E+04  0.46999998093E+01 0.  1.
       -5    1    3    3    0  502  0.66443216976E+03  0.23626829858E+03 -0.25499705675E+04  0.26456879639E+04  0.46999998093E+01 0. -1.
</event>
<event>
 5   0  0.1860500E-07  0.3834170E+04  0.7818609E-02  0.8038862E-01
        1   -1    0    0  501    0  0.00000000000E+00  0.00000000000E+00  0.18255811904E+04  0.18255811904E+04  0.50400001928E-02 0. -1.
       -1   -1    0    0    0  501  0.00000000000E+00  0.00000000000E+00 -0.20131757380E+04  0.20131757380E+04  0.50400001928E-02 0.  1.
    10030    2    1    2    0    0  0.00000000000E+00  0.00000000000E+00 -0.18759454760E+03  0.38387569284E+04  0.38341704502E+04 0.  0.
        4    1    3    3  502    0 -0.12064710271E+04  0.13947448255E+04 -0.61818776049E+03  0.19450046755E+04  0.12699999809E+01 0. -1.
       -4    1    3    3    0  502  0.12064710271E+04 -0.13947448255E+04  0.43059321289E+03  0.18937522529E+04  0.12699999809E+01 0.  1.
</event>
<event>
 5   0  0.1876027E-07  0.3901307E+04  0.7818609E-02  0.8024757E-01
        1   -1    0    0  501    0  0.00000000000E+00  0.00000000000E+00  0.27449568906E+04  0.27449568906E+04  0.50400001928E-02 0. -1.
       -1   -1    0    0    0  501  0.00000000000E+00  0.00000000000E+00 -0.13861965507E+04  0.13861965508E+04  0.50400001928E-02 0.  1.
    10030    2    1    2    0    0  0.00000000000E+00  0.00000000000E+00  0.13587603398E+04  0.41311534413E+04  0.39013073571E+04 0.  0.
        3    1    3    3  502    0 -0.14956301241E+04  0.93149397780E+03 -0.20686238797E+03  0.17740864005E+04  0.10100000352E+00 0.  1.
       -3    1    3    3    0  502  0.14956301241E+04 -0.93149397780E+03  0.15656227278E+04  0.23570670408E+04  0.10100000352E+00 0. -1.
</event>
<event>
 5   0  0.1876027E-07  0.3856371E+04  0.7818609E-02  0.8034165E-01
        1   -1    0    0  501    0  0.00000000000E+00  0.00000000000E+00  0.18214971876E+04  0.18214971876E+04  0.50400001928E-02 0. -1.
       -1   -1    0    0    0  501  0.00000000000E+00  0.00000000000E+00 -0.20411224231E+04  0.20411224231E+04  0.50400001928E-02 0.  1.
    10030    2    1    2    0    0  0.00000000000E+00  0.00000000000E+00 -0.21962523550E+03  0.38626196107E+04  0.38563707048E+04 0.  0.
        3    1    3    3  502    0 -0.13485477352E+04 -0.11253120557E+04  0.68708361023E+03  0.18859989699E+04  0.10100000352E+00 0. -1.
       -3    1    3    3    0  502  0.13485477352E+04  0.11253120557E+04 -0.90670884573E+03  0.19766206408E+04  0.10100000352E+00 0.  1.
</event>
<event>
 5   0  0.1860500E-07  0.3906669E+04  0.7818609E-02  0.8023644E-01
        1   -1    0    0  501    0  0.00000000000E+00  0.00000000000E+00  0.14244901514E+04  0.14244901514E+04  0.50400001928E-02 0. -1.
       -1   -1    0    0    0  501  0.00000000000E+00  0.00000000000E+00 -0.26785133566E+04  0.26785133567E+04  0.50400001928E-02 0.  1.
    10030    2    1    2    0    0  0.00000000000E+00  0.00000000000E+00 -0.12540232053E+04  0.41030035080E+04  0.39066691167E+04 0.  0.
        5    1    3    3  502    0  0.77296343929E+03 -0.13081331293E+04 -0.19162236882E+04  0.24455306328E+04  0.46999998093E+01 0.  1.
       -5    1    3    3    0  502 -0.77296343929E+03  0.13081331293E+04  0.66220048296E+03  0.16574728752E+04  0.46999998093E+01 0. -1.
</event>
<event>
 5   0  0.3959190E-07  0.3843533E+04  0.7818609E-02  0.8036877E-01
        2   -1    0    0  501    0  0.00000000000E+00  0.00000000000E+00  0.22227529545E+04  0.22227529545E+04  0.25500000920E-02 0. -1.
       -2   -1    0    0    0  501  0.00000000000E+00  0.00000000000E+00 -0.16615373778E+04  0.16615373778E+04  0.25500000920E-02 0.  1.
    10030    2    1    2    0    0  0.00000000000E+00  0.00000000000E+00  0.56121557675E+03  0.38842903323E+04  0.38435333304E+04 0.  0.
        2    1    3    3  502    0 -0.69020665426E+03 -0.11528577510E+04 -0.11079051278E+04  0.17415280623E+04  0.25500000920E-02 0.  1.
       -2    1    3    3    0  502  0.69020665426E+03  0.11528577510E+04  0.16691207045E+04  0.21427622700E+04  0.25500000920E-02 0. -1.
</event>
<event>
 5   0  0.5872444E-07  0.3825324E+04  0.7818609E-02  0.8040742E-01
        2   -1    0    0  501    0  0.00000000000E+00  0.00000000000E+00  0.25333627003E+04  0.25333627003E+04  0.25500000920E-02 0.  1.
       -2   -1    0    0    0  501  0.00000000000E+00  0.00000000000E+00 -0.14440393550E+04  0.14440393550E+04  0.25500000920E-02 0. -1.
    10030    2    1    2    0    0  0.00000000000E+00  0.00000000000E+00  0.10893233453E+04  0.39774020553E+04  0.38253237456E+04 0.  0.
        3    1    3    3  502    0  0.95116776360E+03  0.13800998398E+03 -0.11747146468E+04  0.15178014962E+04  0.10100000352E+00 0. -1.
       -3    1    3    3    0  502 -0.95116776360E+03 -0.13800998398E+03  0.22640379922E+04  0.24596005591E+04  0.10100000352E+00 0.  1.
</event>
<event>
 5   0  0.5872444E-07  0.2647965E+04  0.7818609E-02  0.8352089E-01
        2   -1    0    0  501    0  0.00000000000E+00  0.00000000000E+00  0.23246957020E+04  0.23246957020E+04  0.25500000920E-02 0.  1.
       -2   -1    0    0    0  501  0.00000000000E+00  0.00000000000E+00 -0.75404679234E+03  0.75404679234E+03  0.25500000920E-02 0. -1.
    10030    2    1    2    0    0  0.00000000000E+00  0.00000000000E+00  0.15706489096E+04  0.30787424943E+04  0.26479647560E+04 0.  0.
        3    1    3    3  502    0 -0.97334592699E+02 -0.84513152791E+03 -0.39421573595E+03  0.93761792809E+03  0.10100000352E+00 0. -1.
       -3    1    3    3    0  502  0.97334592699E+02  0.84513152791E+03  0.19648646456E+04  0.21411245662E+04  0.10100000352E+00 0.  1.
</event>
<event>
 5   0  0.1943459E-07  0.3560224E+04  0.7818609E-02  0.8099664E-01
        1   -1    0    0  501    0  0.00000000000E+00  0.00000000000E+00  0.22262246553E+04  0.22262246553E+04  0.50400001928E-02 0.  1.
       -1   -1    0    0    0  501  0.00000000000E+00  0.00000000000E+00 -0.14233961382E+04  0.14233961382E+04  0.50400001928E-02 0. -1.
    10030    2    1    2    0    0  0.00000000000E+00  0.00000000000E+00  0.80282851714E+03  0.36496207935E+04  0.35602244744E+04 0.  0.
        2    1    3    3  502    0 -0.59444530215E+03 -0.70598622849E+02  0.21199489661E+04  0.22028465679E+04  0.25500000920E-02 0.  1.
       -2    1    3    3    0  502  0.59444530215E+03  0.70598622849E+02 -0.13171204490E+04  0.14467742256E+04  0.25500000920E-02 0. -1.
</event>
<event>
 5   0  0.6095665E-07  0.3811197E+04  0.7818609E-02  0.8043756E-01
       -2   -1    0    0    0  501  0.00000000000E+00  0.00000000000E+00  0.18856032448E+04  0.18856032448E+04  0.25500000920E-02 0.  1.
        2   -1    0    0  501    0  0.00000000000E+00  0.00000000000E+00 -0.19258060091E+04  0.19258060091E+04  0.25500000920E-02 0. -1.
    10030    2    1    2    0    0  0.00000000000E+00  0.00000000000E+00 -0.40202764344E+02  0.38114092539E+04  0.38111972185E+04 0.  0.
        4    1    3    3  502    0  0.14440148806E+04 -0.55901235996E+03  0.10906496800E+04  0.18939884190E+04  0.12699999809E+01 0.  1.
       -4    1    3    3    0  502 -0.14440148806E+04  0.55901235996E+03 -0.11308524444E+04  0.19174208348E+04  0.12699999809E+01 0. -1.
</event>
<event>
 5   0  0.5805753E-07  0.3835475E+04  0.7818609E-02  0.8038585E-01
       -2   -1    0    0    0  501  0.00000000000E+00  0.00000000000E+00  0.19229669727E+04  0.19229669727E+04  0.25500000920E-02 0.  1.
        2   -1    0    0  501    0  0.00000000000E+00  0.00000000000E+00 -0.19125224888E+04  0.19125224888E+04  0.25500000920E-02 0. -1.
    10030    2    1    2    0    0  0.00000000000E+00  0.00000000000E+00  0.10444483960E+02  0.38354894615E+04  0.38354752407E+04 0.  0.
        1    1    3    3  502    0 -0.12363145264E+04 -0.92883980952E+03  0.11394665368E+04  0.19208334099E+04  0.50400001928E-02 0.  1.
       -1    1    3    3    0  502  0.12363145264E+04  0.92883980952E+03 -0.11290220529E+04  0.19146560516E+04  0.50400001928E-02 0. -1.
</event>
<event>
 5   0  0.5872444E-07  0.2511681E+04  0.7818609E-02  0.8398836E-01
       -2   -1    0    0    0  501  0.00000000000E+00  0.00000000000E+00  0.73516227216E+03  0.73516227216E+03  0.25500000920E-02 0. -1.
        2   -1    0    0  501    0  0.00000000000E+00  0.00000000000E+00 -0.21452895284E+04  0.21452895284E+04  0.25500000920E-02 0.  1.
    10030    2    1    2    0    0  0.00000000000E+00  0.00000000000E+00 -0.14101272562E+04  0.28804518006E+04  0.25116814481E+04 0.  0.
        3    1    3    3  502    0 -0.52396037807E+03  0.18549662478E+03 -0.19965464511E+04  0.20724722476E+04  0.10100000352E+00 0.  1.
       -3    1    3    3    0  502  0.52396037807E+03 -0.18549662478E+03  0.58641919488E+03  0.80797955291E+03  0.10100000352E+00 0. -1.
</event>
<event>
 5   0  0.5805753E-07  0.3811454E+04  0.7818609E-02  0.8043701E-01
        2   -1    0    0  501    0  0.00000000000E+00  0.00000000000E+00  0.14230837984E+04  0.14230837984E+04  0.25500000920E-02 0. -1.
       -2   -1    0    0    0  501  0.00000000000E+00  0.00000000000E+00 -0.25520605670E+04  0.25520605671E+04  0.25500000920E-02 0.  1.
    10030    2    1    2    0    0  0.00000000000E+00  0.00000000000E+00 -0.11289767686E+04  0.39751443655E+04  0.38114543395E+04 0.  0.
        1    1    3    3  502    0  0.72063873981E+03  0.15966925704E+04  0.21810317508E+03  0.17653091380E+04  0.50400001928E-02 0.  1.
       -1    1    3    3    0  502 -0.72063873981E+03 -0.15966925704E+04 -0.13470799437E+04  0.22098352275E+04  0.50400001928E-02 0. -1.
</event>
<event>
 5   0  0.5735179E-07  0.3894133E+04  0.7818609E-02  0.8026251E-01
        2   -1    0    0  501    0  0.00000000000E+00  0.00000000000E+00  0.19902815396E+04  0.19902815396E+04  0.25500000920E-02 0.  1.
       -2   -1    0    0    0  501  0.00000000000E+00  0.00000000000E+00 -0.19047896827E+04  0.19047896827E+04  0.25500000920E-02 0. -1.
    10030    2    1    2    0    0  0.00000000000E+00  0.00000000000E+00  0.85491856932E+02  0.38950712223E+04  0.38941328906E+04 0.  0.
        5    1    3    3  502    0  0.72784266785E+03 -0.40365142691E+03  0.18033848951E+04  0.19861793961E+04  0.46999998093E+01 0.  1.
       -5    1    3    3    0  502 -0.72784266785E+03  0.40365142691E+03 -0.17178930382E+04  0.19088918262E+04  0.46999998093E+01 0. -1.
</event>
<event>
 5   0  0.2240436E-07  0.2497195E+04  0.7818609E-02  0.8403986E-01
        1   -1    0    0  501    0  0.00000000000E+00  0.00000000000E+00  0.17269278503E+04  0.17269278503E+04  0.50400001928E-02 0.  1.
       -1   -1    0    0    0  501  0.00000000000E+00  0.00000000000E+00 -0.90275662517E+03  0.90275662519E+03  0.50400001928E-02 0. -1.
    10030    2    1    2    0    0  0.00000000000E+00  0.00000000000E+00  0.82417122514E+03  0.26296844755E+04  0.24971948727E+04 0.  0.
        3    1    3    3  502    0  0.58102587546E+03  0.44952756970E+02  0.15749294774E+04  0.16792899354E+04  0.10100000352E+00 0.  1.
       -3    1    3    3    0  502 -0.58102587546E+03 -0.44952756970E+02 -0.75075825223E+03  0.95039454008E+03  0.10100000352E+00 0. -1.
</event>
<event>
 5   0  0.1943459E-07  0.3956590E+04  0.7818609E-02  0.8013361E-01
        1   -1    0    0  501    0  0.00000000000E+00  0.00000000000E+00  0.14528457335E+04  0.14528457335E+04  0.50400001928E-02 0. -1.
       -1   -1    0    0    0  501  0.00000000000E+00  0.00000000000E+00 -0.26937829945E+04  0.26937829945E+04  0.50400001928E-02 0.  1.
    10030    2    1    2    0    0  0.00000000000E+00  0.00000000000E+00 -0.12409372610E+04  0.41466287280E+04  0.39565900119E+04 0.  0.
        2    1    3    3  502    0 -0.92828729580E+03 -0.20644558124E+03  0.11975898892E+04  0.15292346531E+04  0.25500000920E-02 0. -1.
       -2    1    3    3    0  502  0.92828729580E+03  0.20644558124E+03 -0.24385271502E+04  0.26173940750E+04  0.25500000920E-02 0.  1.
</event>
<event>
 5   0  0.1860500E-07  0.3675892E+04  0.7818609E-02  0.8073326E-01
       -1   -1    0    0    0  501  0.00000000000E+00  0.00000000000E+00  0.28589498814E+04  0.28589498814E+04  0.50400001928E-02 0. -1.
        1   -1    0    0  501    0  0.00000000000E+00  0.00000000000E+00 -0.11815683660E+04  0.11815683660E+04  0.50400001928E-02 0.  1.
    10030    2    1    2    0    0  0.00000000000E+00  0.00000000000E+00  0.16773815154E+04  0.40405182473E+04  0.36758915869E+04 0.  0.
        4    1    3    3  502    0  0.45037161969E+03  0.12313849077E+04  0.22544338383E+04  0.26079909760E+04  0.12699999809E+01 0. -1.
       -4    1    3    3    0  502 -0.45037161969E+03 -0.12313849077E+04 -0.57705232291E+03  0.14325272713E+04  0.12699999809E+01 0.  1.
</event>
<event>
 5   0  0.5805753E-07  0.3921848E+04  0.7818609E-02  0.8020501E-01
        2   -1    0    0  501    0  0.00000000000E+00  0.00000000000E+00  0.19508562049E+04  0.19508562049E+04  0.25500000920E-02 0. -1.
       -2   -1    0    0    0  501  0.00000000000E+00  0.00000000000E+00 -0.19710436258E+04  0.19710436258E+04  0.25500000920E-02 0.  1.
    10030    2    1    2    0    0  0.00000000000E+00  0.00000000000E+00 -0.20187420852E+02  0.39218998307E+04  0.39218478745E+04 0.  0.
        1    1    3    3  502    0 -0.17972220632E+04 -0.77620882263E+03  0.10267039655E+03  0.19603694782E+04  0.50400001928E-02 0.  1.
       -1    1    3    3    0  502  0.17972220632E+04  0.77620882263E+03 -0.12285781740E+03  0.19615303526E+04  0.50400001928E-02 0. -1.
</event>
<event>
 5   0  0.5805753E-07  0.3889671E+04  0.7818609E-02  0.8027181E-01
        2   -1    0    0  501    0  0.00000000000E+00  0.00000000000E+00  0.20747048903E+04  0.20747048903E+04  0.25500000920E-02 0.  1.
       -2   -1    0    0    0  501  0.00000000000E+00  0.00000000000E+00 -0.18230953214E+04  0.18230953214E+04  0.25500000920E-02 0. -1.
    10030    2    1    2    0    0  0.00000000000E+00  0.00000000000E+00  0.25160956885E+03  0.38978002117E+04  0.38896708235E+04 0.  0.
        1    1    3    3  502    0 -0.13451627929E+04  0.13708386819E+04  0.43258698494E+03  0.19687034136E+04  0.50400001928E-02 0.  1.
       -1    1    3    3    0  502  0.13451627929E+04 -0.13708386819E+04 -0.18097741608E+03  0.19290967981E+04  0.50400001928E-02 0. -1.
</event>
<event>
 5   0  0.6095665E-07  0.3867463E+04  0.7818609E-02  0.8031831E-01
        2   -1    0    0  501    0  0.00000000000E+00  0.00000000000E+00  0.24698719883E+04  0.24698719883E+04  0.25500000920E-02 0. -1.
       -2   -1    0    0    0  501  0.00000000000E+00  0.00000000000E+00 -0.15139720147E+04  0.15139720147E+04  0.25500000920E-02 0.  1.
    10030    2    1    2    0    0  0.00000000000E+00  0.00000000000E+00  0.95589997368E+03  0.39838440030E+04  0.38674627704E+04 0.  0.
        4    1    3    3  502    0  0.35043127074E+03 -0.67865868503E+03 -0.13520043822E+04  0.15528351969E+04  0.12699999809E+01 0.  1.
       -4    1    3    3    0  502 -0.35043127074E+03  0.67865868503E+03  0.23079043559E+04  0.24310088061E+04  0.12699999809E+01 0. -1.
</event>
<event>
 5   0  0.2666813E-07  0.3889084E+04  0.7818609E-02  0.8027303E-01
        1   -1    0    0  501    0  0.00000000000E+00  0.00000000000E+00  0.25657777724E+04  0.25657777724E+04  0.50400001928E-02 0.  1.
       -1   -1    0    0    0  501  0.00000000000E+00  0.00000000000E+00 -0.14737223620E+04  0.14737223620E+04  0.50400001928E-02 0. -1.
    10030    2    1    2    0    0  0.00000000000E+00  0.00000000000E+00  0.10920554104E+04  0.40395001344E+04  0.38890842517E+04 0.  0.
        1    1    3    3  502    0 -0.17833794468E+03  0.18679219842E+04  0.16091859731E+02  0.18764849879E+04  0.50400001928E-02 0. -1.
       -1    1    3    3    0  502  0.17833794468E+03 -0.18679219842E+04  0.10759635507E+04  0.21630151465E+04  0.50400001928E-02 0.  1.
</event>
<event>
 5   0  0.3959190E-07  0.3652921E+04  0.7818609E-02  0.8078476E-01
        2   -1    0    0  501    0  0.00000000000E+00  0.00000000000E+00  0.26543434973E+04  0.26543434973E+04  0.25500000920E-02 0. -1.
       -2   -1    0    0    0  501  0.00000000000E+00  0.00000000000E+00 -0.12567922381E+04  0.12567922381E+04  0.25500000920E-02 0.  1.
    10030    2    1    2    0    0  0.00000000000E+00  0.00000000000E+00  0.13975512592E+04  0.39111357354E+04  0.36529211898E+04 0.  0.
        2    1    3    3  502    0 -0.33440465254E+03  0.15744633831E+04  0.16230440233E+04  0.22858331780E+04  0.25500000920E-02 0. -1.
       -2    1    3    3    0  502  0.33440465254E+03 -0.15744633831E+04 -0.22549276413E+03  0.16253025573E+04  0.25500000920E-02 0.  1.
</event>
<event>
 5   0  0.5872444E-07  0.4044069E+04  0.7818609E-02  0.7995715E-01
       -2   -1    0    0    0  501  0.00000000000E+00  0.00000000000E+00  0.33269824659E+04  0.33269824659E+04  0.25500000920E-02 0. -1.
        2   -1    0    0  501    0  0.00000000000E+00  0.00000000000E+00 -0.12289286499E+04  0.12289286499E+04  0.25500000920E-02 0.  1.
    10030    2    1    2    0    0  0.00000000000E+00  0.00000000000E+00  0.20980538159E+04  0.45559111158E+04  0.40440692724E+04 0.  0.
        3    1    3    3  502    0  0.79312653438E+03 -0.12012758122E+04 -0.55074081709E+03  0.15412425942E+04  0.10100000352E+00 0.  1.
       -3    1    3    3    0  502 -0.79312653438E+03  0.12012758122E+04  0.26487946330E+04  0.30146685215E+04  0.10100000352E+00 0. -1.
</event>
<event>
 5   0  0.2666813E-07  0.3838828E+04  0.7818609E-02  0.8037873E-01
       -1   -1    0    0    0  501  0.00000000000E+00  0.00000000000E+00  0.18875218208E+04  0.18875218208E+04  0.50400001928E-02 0.  1.
        1   -1    0    0  501    0  0.00000000000E+00  0.00000000000E+00 -0.19518454867E+04  0.19518454868E+04  0.50400001928E-02 0. -1.
    10030    2    1    2    0    0  0.00000000000E+00  0.00000000000E+00 -0.64323665961E+02  0.38393673075E+04  0.38388284395E+04 0.  0.
        1    1    3    3  502    0  0.94908673912E+03 -0.11502001024E+03 -0.16967739412E+04  0.19475720908E+04  0.50400001928E-02 0. -1.
       -1    1    3    3    0  502 -0.94908673912E+03  0.11502001024E+03  0.16324502752E+04  0.18917952168E+04  0.50400001928E-02 0.  1.
</event>
<event>
 5   0  0.6095665E-07  0.4434413E+04  0.7818609E-02  0.7922221E-01
       -2   -1    0    0    0  501  0.00000000000E+00  0.00000000000E+00  0.15294303361E+04  0.15294303361E+04  0.25500000920E-02 0. -1.
        2   -1    0    0  501    0  0.00000000000E+00  0.00000000000E+00 -0.32142721019E+04  0.32142721019E+04  0.25500000920E-02 0.  1.
    10030    2    1    2    0    0  0.00000000000E+00  0.00000000000E+00 -0.16848417657E+04  0.47437024380E+04  0.44344132695E+04 0.  0.
        4    1    3    3  502    0  0.11641360494E+04  0.74488712515E+03 -0.26971094706E+04  0.30305891638E+04  0.12699999809E+01 0.  1.
       -4    1    3    3    0  502 -0.11641360494E+04 -0.74488712515E+03  0.10122677048E+04  0.17131132741E+04  0.12699999809E+01 0. -1.
</event>
<event>
 5   0  0.1860500E-07  0.3827192E+04  0.7818609E-02  0.8040345E-01
        1   -1    0    0  501    0  0.00000000000E+00  0.00000000000E+00  0.24662070155E+04  0.24662070155E+04  0.50400001928E-02 0.  1.
       -1   -1    0    0    0  501  0.00000000000E+00  0.00000000000E+00 -0.14848100745E+04  0.14848100745E+04  0.50400001928E-02 0. -1.
    10030    2    1    2    0    0  0.00000000000E+00  0.00000000000E+00  0.98139694101E+03  0.39510170900E+04  0.38271916714E+04 0.  0.
        5    1    3    3  502    0  0.11525165293E+04 -0.87967557442E+03 -0.79858885687E+03  0.16552612238E+04  0.46999998093E+01 0. -1.
       -5    1    3    3    0  502 -0.11525165293E+04  0.87967557442E+03  0.17799857979E+04  0.22957558662E+04  0.46999998093E+01 0.  1.
</event>
<event>
 5   0  0.5872444E-07  0.3902731E+04  0.7818609E-02  0.8024462E-01
        2   -1    0    0  501    0  0.00000000000E+00  0.00000000000E+00  0.31215239554E+04  0.31215239554E+04  0.25500000920E-02 0. -1.
       -2   -1    0    0    0  501  0.00000000000E+00  0.00000000000E+00 -0.12198613614E+04  0.12198613614E+04  0.25500000920E-02 0.  1.
    10030    2    1    2    0    0  0.00000000000E+00  0.00000000000E+00  0.19016625940E+04  0.43413853168E+04  0.39027305630E+04 0.  0.
        3    1    3    3  502    0  0.16626702460E+04 -0.61287639327E+03  0.18598281183E+04  0.25688617052E+04  0.10100000352E+00 0. -1.
       -3    1    3    3    0  502 -0.16626702460E+04  0.61287639327E+03  0.41834475705E+02  0.17725236117E+04  0.10100000352E+00 0.  1.
</event>
<event>
 5   0  0.3959190E-07  0.4019254E+04  0.7818609E-02  0.8000674E-01
        2   -1    0    0  501    0  0.00000000000E+00  0.00000000000E+00  0.18879328654E+04  0.18879328654E+04  0.25500000920E-02 0.  1.
       -2   -1    0    0    0  501  0.00000000000E+00  0.00000000000E+00 -0.21391653219E+04  0.21391653219E+04  0.25500000920E-02 0. -1.
    10030    2    1    2    0    0  0.00000000000E+00  0.00000000000E+00 -0.25123245648E+03  0.40270981874E+04  0.40192539188E+04 0.  0.
        2    1    3    3  502    0  0.11604804237E+04 -0.57987181764E+03  0.14121868167E+04  0.19176125114E+04  0.25500000920E-02 0.  1.
       -2    1    3    3    0  502 -0.11604804237E+04  0.57987181764E+03 -0.16634192732E+04  0.21094856760E+04  0.25500000920E-02 0. -1.
</event>
<event>
 5   0  0.5872444E-07  0.3676690E+04  0.7818609E-02  0.8073147E-01
       -2   -1    0    0    0  501  0.00000000000E+00  0.00000000000E+00  0.16089693856E+04  0.16089693856E+04  0.25500000920E-02 0.  1.
        2   -1    0    0  501    0  0.00000000000E+00  0.00000000000E+00 -0.21004209124E+04  0.21004209124E+04  0.25500000920E-02 0. -1.
    10030    2    1    2    0    0  0.00000000000E+00  0.00000000000E+00 -0.49145152679E+03  0.37093902980E+04  0.36766903296E+04 0.  0.
        3    1    3    3  502    0  0.13010947436E+04 -0.12359176011E+04  0.15678759437E+03  0.18013667612E+04  0.10100000352E+00 0. -1.
       -3    1    3    3    0  502 -0.13010947436E+04  0.12359176011E+04 -0.64823912116E+03  0.19080235368E+04  0.10100000352E+00 0.  1.
</event>
<event>
 5   0  0.5872444E-07  0.3197271E+04  0.7818609E-02  0.8189538E-01
        2   -1    0    0  501    0  0.00000000000E+00  0.00000000000E+00  0.14295290465E+04  0.14295290465E+04  0.25500000920E-02 0.  1.
       -2   -1    0    0    0  501  0.00000000000E+00  0.00000000000E+00 -0.17877459592E+04  0.17877459592E+04  0.25500000920E-02 0. -1.
    10030    2    1    2    0    0  0.00000000000E+00  0.00000000000E+00 -0.35821691272E+03  0.32172750056E+04  0.31972705712E+04 0.  0.
        3    1    3    3  502    0  0.97104640820E+03  0.12383446638E+04  0.10408825127E+03  0.15771058961E+04  0.10100000352E+00 0.  1.
       -3    1    3    3    0  502 -0.97104640820E+03 -0.12383446638E+04 -0.46230516399E+03  0.16401691096E+04  0.10100000352E+00 0. -1.
</event>
<event>
 5   0  0.3959190E-07  0.3850309E+04  0.7818609E-02  0.8035444E-01
       -2   -1    0    0    0  501  0.00000000000E+00  0.00000000000E+00  0.18559461644E+04  0.18559461644E+04  0.25500000920E-02 0.  1.
        2   -1    0    0  501    0  0.00000000000E+00  0.00000000000E+00 -0.19969433980E+04  0.19969433980E+04  0.25500000920E-02 0. -1.
    10030    2    1    2    0    0  0.00000000000E+00  0.00000000000E+00 -0.14099723359E+03  0.38528895625E+04  0.38503087877E+04 0.  0.
        2    1    3    3  502    0 -0.13405552476E+04  0.13170768286E+04  0.34744111603E+03  0.19111501964E+04  0.25500000920E-02 0.  1.
       -2    1    3    3    0  502  0.13405552476E+04 -0.13170768286E+04 -0.48843834962E+03  0.19417393660E+04  0.25500000920E-02 0. -1.
</event>
<event>
 5   0  0.5805753E-07  0.3909259E+04  0.7818609E-02  0.8023106E-01
        2   -1    0    0  501    0  0.00000000000E+00  0.00000000000E+00  0.21712341177E+04  0.21712341177E+04  0.25500000920E-02 0.  1.
       -2   -1    0    0    0  501  0.00000000000E+00  0.00000000000E+00 -0.17596339766E+04  0.17596339766E+04  0.25500000920E-02 0. -1.
    10030    2    1    2    0    0  0.00000000000E+00  0.00000000000E+00  0.41160014112E+03  0.39308680942E+04  0.39092594309E+04 0.  0.
        1    1    3    3  502    0  0.33650227507E+03  0.11142790458E+03 -0.17270444964E+04  0.17630464123E+04  0.50400001928E-02 0. -1.
       -1    1    3    3    0  502 -0.33650227507E+03 -0.11142790458E+03  0.21386446376E+04  0.21678216820E+04  0.50400001928E-02 0.  1.
</event>
<event>
 5   0  0.1860500E-07  0.3896898E+04  0.7818609E-02  0.8025675E-01
       -1   -1    0    0    0  501  0.00000000000E+00  0.00000000000E+00  0.21586855997E+04  0.21586855997E+04  0.50400001928E-02 0.  1.
        1   -1    0    0  501    0  0.00000000000E+00  0.00000000000E+00 -0.17586872206E+04  0.17586872206E+04  0.50400001928E-02 0. -1.
    10030    2    1    2    0    0  0.00000000000E+00  0.00000000000E+00  0.39999837913E+03  0.39173728204E+04  0.38968976264E+04 0.  0.
        5    1    3    3  502    0 -0.14117749069E+04 -0.11128007197E+04 -0.55561294787E+03  0.18815317343E+04  0.46999998093E+01 0. -1.
       -5    1    3    3    0  502  0.14117749069E+04  0.11128007197E+04  0.95561132699E+03  0.20358410860E+04  0.46999998093E+01 0.  1.
</event>
<event>
 5   0  0.5805753E-07  0.3001571E+04  0.7818609E-02  0.8243282E-01
        2   -1    0    0  501    0  0.00000000000E+00  0.00000000000E+00  0.23842317047E+04  0.23842317047E+04  0.25500000920E-02 0.  1.
       -2   -1    0    0    0  501  0.00000000000E+00  0.00000000000E+00 -0.94468882643E+03  0.94468882643E+03  0.25500000920E-02 0. -1.
    10030    2    1    2    0    0  0.00000000000E+00  0.00000000000E+00  0.14395428783E+04  0.33289205312E+04  0.30015709561E+04 0.  0.
        1    1    3    3  502    0  0.97660511142E+03  0.93002581339E+01  0.19835703198E+04  0.22109715629E+04  0.50400001928E-02 0.  1.
       -1    1    3    3    0  502 -0.97660511142E+03 -0.93002581339E+01 -0.54402744150E+03  0.11179489682E+04  0.50400001928E-02 0. -1.
</event>
<event>
 5   0  0.1876027E-07  0.3821576E+04  0.7818609E-02  0.8041541E-01
       -1   -1    0    0    0  501  0.00000000000E+00  0.00000000000E+00  0.15271703227E+04  0.15271703227E+04  0.50400001928E-02 0. -1.
        1   -1    0    0  501    0  0.00000000000E+00  0.00000000000E+00 -0.23907685955E+04  0.23907685955E+04  0.50400001928E-02 0.  1.
    10030    2    1    2    0    0  0.00000000000E+00  0.00000000000E+00 -0.86359827278E+03  0.39179389183E+04  0.38215760349E+04 0.  0.
        3    1    3    3  502    0  0.56324375759E+03  0.14173408288E+04 -0.16119162491E+04  0.22190927335E+04  0.10100000352E+00 0.  1.
       -3    1    3    3    0  502 -0.56324375759E+03 -0.14173408288E+04  0.74831797633E+03  0.16988461848E+04  0.10100000352E+00 0. -1.
</event>
<event>
 5   0  0.6095665E-07  0.3525831E+04  0.7818609E-02  0.8107696E-01
        2   -1    0    0  501    0  0.00000000000E+00  0.00000000000E+00  0.19182157283E+04  0.19182157283E+04  0.25500000920E-02 0.  1.
       -2   -1    0    0    0  501  0.00000000000E+00  0.00000000000E+00 -0.16201883691E+04  0.16201883691E+04  0.25500000920E-02 0. -1.
    10030    2    1    2    0    0  0.00000000000E+00  0.00000000000E+00  0.29802735918E+03  0.35384040974E+04  0.35258308595E+04 0.  0.
        4    1    3    3  502    0 -0.52908884519E+03 -0.61870149116E+03  0.17182850656E+04  0.19013762702E+04  0.12699999809E+01 0.  1.
       -4    1    3    3    0  502  0.52908884519E+03  0.61870149116E+03 -0.14202577065E+04  0.16370278272E+04  0.12699999809E+01 0. -1.
</event>
<event>
 5   0  0.6095665E-07  0.3889672E+04  0.7818609E-02  0.8027181E-01
        2   -1    0    0  501    0  0.00000000000E+00  0.00000000000E+00  0.21969705340E+04  0.21969705340E+04  0.25500000920E-02 0. -1.
       -2   -1    0    0    0  501  0.00000000000E+00  0.00000000000E+00 -0.17216372954E+04  0.17216372954E+04  0.25500000920E-02 0.  1.
    10030    2    1    2    0    0  0.00000000000E+00  0.00000000000E+00  0.47533323859E+03  0.39186078293E+04  0.38896716612E+04 0.  0.
        4    1    3    3  502    0 -0.75828506043E+03  0.10352566695E+04  0.17099184000E+04  0.21378903508E+04  0.12699999809E+01 0. -1.
       -4    1    3    3    0  502  0.75828506043E+03 -0.10352566695E+04 -0.12345851614E+04  0.17807174785E+04  0.12699999809E+01 0.  1.
</event>
<event>
 5   0  0.1860500E-07  0.3995635E+04  0.7818609E-02  0.8005428E-01
       -3   -1    0    0    0  501  0.00000000000E+00  0.00000000000E+00  0.23616201222E+04  0.23616201244E+04  0.10100000352E+00 0. -1.
        3   -1    0    0  501    0  0.00000000000E+00  0.00000000000E+00 -0.16900582806E+04  0.16900582836E+04  0.10100000352E+00 0.  1.
    10030    2    1    2    0    0  0.00000000000E+00  0.00000000000E+00  0.67156184161E+03  0.40516784080E+04  0.39956354457E+04 0.  0.
        1    1    3    3  502    0  0.17103088514E+03 -0.19284652918E+04  0.83569237560E+03  0.21086990521E+04  0.50400001928E-02 0. -1.
       -1    1    3    3    0  502 -0.17103088514E+03  0.19284652918E+04 -0.16413053399E+03  0.19429793560E+04  0.50400001928E-02 0.  1.
</event>
<event>
 5   0  0.3959190E-07  0.2580510E+04  0.7818609E-02  0.8374852E-01
        2   -1    0    0  501    0  0.00000000000E+00  0.00000000000E+00  0.55484178442E+03  0.55484178443E+03  0.25500000920E-02 0.  1.
       -2   -1    0    0    0  501  0.00000000000E+00  0.00000000000E+00 -0.30004200322E+04  0.30004200322E+04  0.25500000920E-02 0. -1.
    10030    2    1    2    0    0  0.00000000000E+00  0.00000000000E+00 -0.24455782478E+04  0.35552618167E+04  0.25805103408E+04 0.  0.
        2    1    3    3  502    0  0.71024908126E+03  0.60354610931E+03  0.64391509571E+01  0.93207463551E+03  0.25500000920E-02 0.  1.
       -2    1    3    3    0  502 -0.71024908126E+03 -0.60354610931E+03 -0.24520173988E+04  0.26231871811E+04  0.25500000920E-02 0. -1.
</event>
<event>
 5   0  0.5805753E-07  0.2783338E+04  0.7818609E-02  0.8308460E-01
       -2   -1    0    0    0  501  0.00000000000E+00  0.00000000000E+00  0.94344639273E+03  0.94344639273E+03  0.25500000920E-02 0.  1.
        2   -1    0    0  501    0  0.00000000000E+00  0.00000000000E+00 -0.20528377578E+04  0.20528377578E+04  0.25500000920E-02 0. -1.
    10030    2    1    2    0    0  0.00000000000E+00  0.00000000000E+00 -0.11093913650E+04  0.29962841505E+04  0.27833378361E+04 0.  0.
        1    1    3    3  502    0 -0.18904345212E+03 -0.20563663596E+03  0.91295900935E+03  0.95473452101E+03  0.50400001928E-02 0.  1.
       -1    1    3    3    0  502  0.18904345212E+03  0.20563663596E+03 -0.20223503744E+04  0.20415496295E+04  0.50400001928E-02 0. -1.
</event>
<event>
 5   0  0.1860500E-07  0.3860211E+04  0.7818609E-02  0.8033356E-01
        1   -1    0    0  501    0  0.00000000000E+00  0.00000000000E+00  0.22305105635E+04  0.22305105635E+04  0.50400001928E-02 0. -1.
       -1   -1    0    0    0  501  0.00000000000E+00  0.00000000000E+00 -0.16701588229E+04  0.16701588229E+04  0.50400001928E-02 0.  1.
    10030    2    1    2    0    0  0.00000000000E+00  0.00000000000E+00  0.56035174061E+03  0.39006693864E+04  0.38602108218E+04 0.  0.
        4    1    3    3  502    0  0.11386586324E+04  0.12111412568E+04 -0.71086776703E+03  0.18079660451E+04  0.12699999809E+01 0.  1.
       -4    1    3    3    0  502 -0.11386586324E+04 -0.12111412568E+04  0.12712195076E+04  0.20927033413E+04  0.12699999809E+01 0. -1.
</event>
<event>
 5   0  0.1860500E-07  0.3914386E+04  0.7818609E-02  0.8022044E-01
        3   -1    0    0  501    0  0.00000000000E+00  0.00000000000E+00  0.20527434664E+04  0.20527434688E+04  0.10100000352E+00 0. -1.
       -3   -1    0    0    0  501  0.00000000000E+00  0.00000000000E+00 -0.18660902740E+04  0.18660902767E+04  0.10100000352E+00 0.  1.
    10030    2    1    2    0    0  0.00000000000E+00  0.00000000000E+00  0.18665319238E+03  0.39188337456E+04  0.39143860963E+04 0.  0.
        5    1    3    3  502    0 -0.68328906330E+03 -0.18329835076E+04  0.31046147451E+02  0.19564504687E+04  0.46999998093E+01 0. -1.
       -5    1    3    3    0  502  0.68328906330E+03  0.18329835076E+04  0.15560704493E+03  0.19623832769E+04  0.46999998093E+01 0.  1.
</event>
<event>
 5   0  0.1860500E-07  0.2604008E+04  0.7818609E-02  0.8366841E-01
       -1   -1    0    0    0  501  0.00000000000E+00  0.00000000000E+00  0.28308626699E+04  0.28308626699E+04  0.50400001928E-02 0. -1.
        1   -1    0    0  501    0  0.00000000000E+00  0.00000000000E+00 -0.59883322497E+03  0.59883322499E+03  0.50400001928E-02 0.  1.
    10030    2    1    2    0    0  0.00000000000E+00  0.00000000000E+00  0.22320294449E+04  0.34296958949E+04  0.26040081583E+04 0.  0.
        5    1    3    3  502    0 -0.31839423754E+03  0.96344631038E+02  0.27739372772E+04  0.27938159006E+04  0.46999998093E+01 0. -1.
       -5    1    3    3    0  502  0.31839423754E+03 -0.96344631038E+02 -0.54190783231E+03  0.63587999429E+03  0.46999998093E+01 0.  1.
</event>
<event>
 5   0  0.6095665E-07  0.2479448E+04  0.7818609E-02  0.8410344E-01
        2   -1    0    0  501    0  0.00000000000E+00  0.00000000000E+00  0.16703704991E+04  0.16703704991E+04  0.25500000920E-02 0. -1.
       -2   -1    0    0    0  501  0.00000000000E+00  0.00000000000E+00 -0.92010443982E+03  0.92010443983E+03  0.25500000920E-02 0.  1.
    10030    2    1    2    0    0  0.00000000000E+00  0.00000000000E+00  0.75026605927E+03  0.25904749389E+04  0.24794477711E+04 0.  0.
        4    1    3    3  502    0 -0.46035492771E+03 -0.84608183979E+03  0.11905511123E+04  0.15314028546E+04  0.12699999809E+01 0. -1.
       -4    1    3    3    0  502  0.46035492771E+03  0.84608183979E+03 -0.44028505300E+03  0.10590720844E+04  0.12699999809E+01 0.  1.
</event>
<event>
 5   0  0.5805753E-07  0.3696491E+04  0.7818609E-02  0.8068740E-01
        2   -1    0    0  501    0  0.00000000000E+00  0.00000000000E+00  0.25319416262E+04  0.25319416262E+04  0.25500000920E-02 0.  1.
       -2   -1    0    0    0  501  0.00000000000E+00  0.00000000000E+00 -0.13491667923E+04  0.13491667923E+04  0.25500000920E-02 0. -1.
    10030    2    1    2    0    0  0.00000000000E+00  0.00000000000E+00  0.11827748339E+04  0.38811084186E+04  0.36964910725E+04 0.  0.
        1    1    3    3  502    0 -0.17300466818E+04  0.62722366138E+03  0.41092981601E+03  0.18855594279E+04  0.50400001928E-02 0.  1.
       -1    1    3    3    0  502  0.17300466818E+04 -0.62722366138E+03  0.77184501792E+03  0.19955489907E+04  0.50400001928E-02 0. -1.
</event>
<event>
 5   0  0.3959190E-07  0.2918845E+04  0.7818609E-02  0.8267292E-01
       -2   -1    0    0    0  501  0.00000000000E+00  0.00000000000E+00  0.12802697025E+04  0.12802697025E+04  0.25500000920E-02 0. -1.
        2   -1    0    0  501    0  0.00000000000E+00  0.00000000000E+00 -0.16636453384E+04  0.16636453384E+04  0.25500000920E-02 0.  1.
    10030    2    1    2    0    0  0.00000000000E+00  0.00000000000E+00 -0.38337563590E+03  0.29439150408E+04  0.29188454720E+04 0.  0.
        2    1    3    3  502    0  0.35731265906E+03  0.17065084238E+03  0.12250549122E+04  0.12874601292E+04  0.25500000920E-02 0. -1.
       -2    1    3    3    0  502 -0.35731265906E+03 -0.17065084238E+03 -0.16084305481E+04  0.16564549117E+04  0.25500000920E-02 0.  1.
</event>
<event>
 5   0  0.5872444E-07  0.4023087E+04  0.7818609E-02  0.7999905E-01
       -2   -1    0    0    0  501  0.00000000000E+00  0.00000000000E+00  0.16110984982E+04  0.16110984982E+04  0.25500000920E-02 0.  1.
        2   -1    0    0  501    0  0.00000000000E+00  0.00000000000E+00 -0.25115208531E+04  0.25115208531E+04  0.25500000920E-02 0. -1.
    10030    2    1    2    0    0  0.00000000000E+00  0.00000000000E+00 -0.90042235487E+03  0.41226193513E+04  0.40230871105E+04 0.  0.
        3    1    3    3  502    0  0.19818723060E+04 -0.29677822991E+03 -0.27150543733E+03  0.20222785089E+04  0.10100000352E+00 0. -1.
       -3    1    3    3    0  502 -0.19818723060E+04  0.29677822991E+03 -0.62891691754E+03  0.21003408424E+04  0.10100000352E+00 0.  1.
</event>
<event>
 5   0  0.3959190E-07  0.2461529E+04  0.7818609E-02  0.8416820E-01
       -2   -1    0    0    0  501  0.00000000000E+00  0.00000000000E+00  0.10117210331E+04  0.10117210331E+04  0.25500000920E-02 0. -1.
        2   -1    0    0  501    0  0.00000000000E+00  0.00000000000E+00 -0.14972325804E+04  0.14972325804E+04  0.25500000920E-02 0.  1.
    10030    2    1    2    0    0  0.00000000000E+00  0.00000000000E+00 -0.48551154724E+03  0.25089536135E+04  0.24615293563E+04 0.  0.
        2    1    3    3  502    0  0.83620500621E+03  0.58340421589E+03 -0.94537137095E+03  0.13904410525E+04  0.25500000920E-02 0.  1.
       -2    1    3    3    0  502 -0.83620500621E+03 -0.58340421589E+03  0.45985982372E+03  0.11185125609E+04  0.25500000920E-02 0. -1.
</event>
<event>
 5   0  0.1876027E-07  0.3904375E+04  0.7818609E-02  0.8024120E-01
       -1   -1    0    0    0  501  0.00000000000E+00  0.00000000000E+00  0.16877261693E+04  0.16877261693E+04  0.50400001928E-02 0.  1.
        1   -1    0    0  501    0  0.00000000000E+00  0.00000000000E+00 -0.22580888704E+04  0.22580888704E+04  0.50400001928E-02 0. -1.
    10030    2    1    2    0    0  0.00000000000E+00  0.00000000000E+00 -0.57036270114E+03  0.39458150397E+04  0.39043748177E+04 0.  0.
        3    1    3    3  502    0  0.65270444957E+03 -0.11046052631E+04  0.12017814610E+04  0.17579688780E+04  0.10100000352E+00 0.  1.
       -3    1    3    3    0  502 -0.65270444957E+03  0.11046052631E+04 -0.17721441622E+04  0.21878461617E+04  0.10100000352E+00 0. -1.
</event>
<event>
 5   0  0.6095665E-07  0.2529773E+04  0.7818609E-02  0.8392455E-01
       -2   -1    0    0    0  501  0.00000000000E+00  0.00000000000E+00  0.69978533282E+03  0.69978533283E+03  0.25500000920E-02 0.  1.
        2   -1    0    0  501    0  0.00000000000E+00  0.00000000000E+00 -0.22863269559E+04  0.22863269559E+04  0.25500000920E-02 0. -1.
    10030    2    1    2    0    0  0.00000000000E+00  0.00000000000E+00 -0.15865416231E+04  0.29861122888E+04  0.25297731675E+04 0.  0.
        4    1    3    3  502    0 -0.42642238468E+03 -0.34183696583E+03  0.55322365493E+03  0.77765454196E+03  0.12699999809E+01 0.  1.
       -4    1    3    3    0  502  0.42642238468E+03  0.34183696583E+03 -0.21397652780E+04  0.22084577468E+04  0.12699999809E+01 0. -1.
</event>
<event>
 5   0  0.1943459E-07  0.3899711E+04  0.7818609E-02  0.8025089E-01
       -1   -1    0    0    0  501  0.00000000000E+00  0.00000000000E+00  0.14294170283E+04  0.14294170283E+04  0.50400001928E-02 0.  1.
        1   -1    0    0  501    0  0.00000000000E+00  0.00000000000E+00 -0.26597813101E+04  0.26597813101E+04  0.50400001928E-02 0. -1.
    10030    2    1    2    0    0  0.00000000000E+00  0.00000000000E+00 -0.12303642818E+04  0.40891983384E+04  0.38997111155E+04 0.  0.
        2    1    3    3  502    0  0.17152540500E+04  0.92484158596E+03 -0.54477588754E+03  0.20234152275E+04  0.25500000920E-02 0. -1.
       -2    1    3    3    0  502 -0.17152540500E+04 -0.92484158596E+03 -0.68558839423E+03  0.20657831109E+04  0.25500000920E-02 0.  1.
</event>
<event>
 5   0  0.1860500E-07  0.3915388E+04  0.7818609E-02  0.8021836E-01
       -1   -1    0    0    0  501  0.00000000000E+00  0.00000000000E+00  0.29825510589E+04  0.29825510589E+04  0.50400001928E-02 0. -1.
        1   -1    0    0  501    0  0.00000000000E+00  0.00000000000E+00 -0.12849958724E+04  0.12849958724E+04  0.50400001928E-02 0.  1.
    10030    2    1    2    0    0  0.00000000000E+00  0.00000000000E+00  0.16975551865E+04  0.42675469313E+04  0.39153880011E+04 0.  0.
        4    1    3    3  502    0  0.79445541977E+03  0.71096857652E+03 -0.94082945566E+03  0.14218992258E+04  0.12699999809E+01 0.  1.
       -4    1    3    3    0  502 -0.79445541977E+03 -0.71096857652E+03  0.26383846422E+04  0.28456477055E+04  0.12699999809E+01 0. -1.
</event>
<event>
 5   0  0.5872444E-07  0.3723706E+04  0.7818609E-02  0.8062729E-01
        2   -1    0    0  501    0  0.00000000000E+00  0.00000000000E+00  0.25522974994E+04  0.25522974994E+04  0.25500000920E-02 0.  1.
       -2   -1    0    0    0  501  0.00000000000E+00  0.00000000000E+00 -0.13581867412E+04  0.13581867412E+04  0.25500000920E-02 0. -1.
    10030    2    1    2    0    0  0.00000000000E+00  0.00000000000E+00  0.11941107582E+04  0.39104842406E+04  0.37237060159E+04 0.  0.
        3    1    3    3  502    0  0.17253154069E+04 -0.12324659366E+03 -0.12640726138E+03  0.17343245896E+04  0.10100000352E+00 0.  1.
       -3    1    3    3    0  502 -0.17253154069E+04  0.12324659366E+03  0.13205180196E+04  0.21761596509E+04  0.10100000352E+00 0. -1.
</event>
<event>
 5   0  0.5872444E-07  0.3906421E+04  0.7818609E-02  0.8023695E-01
       -2   -1    0    0    0  501  0.00000000000E+00  0.00000000000E+00  0.23156529468E+04  0.23156529468E+04  0.25500000920E-02 0. -1.
        2   -1    0    0  501    0  0.00000000000E+00  0.00000000000E+00 -0.16474969948E+04  0.16474969948E+04  0.25500000920E-02 0.  1.
    10030    2    1    2    0    0  0.00000000000E+00  0.00000000000E+00  0.66815595197E+03  0.39631499416E+04  0.39064210069E+04 0.  0.
        3    1    3    3  502    0  0.42814175631E+03 -0.18363680261E+04 -0.18270956787E+03  0.18944486500E+04  0.10100000352E+00 0. -1.
       -3    1    3    3    0  502 -0.42814175631E+03  0.18363680261E+04  0.85086551983E+03  0.20687012916E+04  0.10100000352E+00 0.  1.
</event>
<event>
 5   0  0.1860500E-07  0.3733768E+04  0.7818609E-02  0.8060519E-01
        3   -1    0    0  501    0  0.00000000000E+00  0.00000000000E+00  0.26556147488E+04  0.26556147507E+04  0.10100000352E+00 0. -1.
       -3   -1    0    0    0  501  0.00000000000E+00  0.00000000000E+00 -0.13124103615E+04  0.13124103654E+04  0.10100000352E+00 0.  1.
    10030    2    1    2    0    0  0.00000000000E+00  0.00000000000E+00  0.13432043872E+04  0.39680251161E+04  0.37337682435E+04 0.  0.
        3    1    3    3  502    0 -0.74850185553E+03 -0.12565075201E+04 -0.56144658439E+03  0.15666168814E+04  0.10100000352E+00 0.  1.
       -3    1    3    3    0  502  0.74850185553E+03  0.12565075201E+04  0.19046509716E+04  0.24014082347E+04  0.10100000352E+00 0. -1.
</event>
<event>
 5   0  0.5872444E-07  0.3836284E+04  0.7818609E-02  0.8038413E-01
        2   -1    0    0  501    0  0.00000000000E+00  0.00000000000E+00  0.13031970994E+04  0.13031970994E+04  0.25500000920E-02 0.  1.
       -2   -1    0    0    0  501  0.00000000000E+00  0.00000000000E+00 -0.28232630561E+04  0.28232630561E+04  0.25500000920E-02 0. -1.
    10030    2    1    2    0    0  0.00000000000E+00  0.00000000000E+00 -0.15200659567E+04  0.41264601555E+04  0.38362837359E+04 0.  0.
        3    1    3    3  502    0 -0.17896886790E+04 -0.67584929566E+03 -0.91027788903E+03  0.21185758621E+04  0.10100000352E+00 0.  1.
       -3    1    3    3    0  502  0.17896886790E+04  0.67584929566E+03 -0.60978806766E+03  0.20078842934E+04  0.10100000352E+00 0. -1.
</event>
<event>
 5   0  0.5805753E-07  0.4115452E+04  0.7818609E-02  0.7981653E-01
        2   -1    0    0  501    0  0.00000000000E+00  0.00000000000E+00  0.21984630373E+04  0.21984630373E+04  0.25500000920E-02 0. -1.
       -2   -1    0    0    0  501  0.00000000000E+00  0.00000000000E+00 -0.19259988365E+04  0.19259988365E+04  0.25500000920E-02 0.  1.
    10030    2    1    2    0    0  0.00000000000E+00  0.00000000000E+00  0.27246420079E+03  0.41244618738E+04  0.41154524669E+04 0.  0.
        1    1    3    3  502    0  0.69841618754E+03 -0.15076799072E+04  0.13527070357E+04  0.21425919346E+04  0.50400001928E-02 0. -1.
       -1    1    3    3    0  502 -0.69841618754E+03  0.15076799072E+04 -0.10802428349E+04  0.19818699392E+04  0.50400001928E-02 0.  1.
</event>
<event>
 5   0  0.1860500E-07  0.3884253E+04  0.7818609E-02  0.8028312E-01
       -1   -1    0    0    0  501  0.00000000000E+00  0.00000000000E+00  0.27881471461E+04  0.27881471461E+04  0.50400001928E-02 0. -1.
        1   -1    0    0  501    0  0.00000000000E+00  0.00000000000E+00 -0.13528179039E+04  0.13528179039E+04  0.50400001928E-02 0.  1.
    10030    2    1    2    0    0  0.00000000000E+00  0.00000000000E+00  0.14353292422E+04  0.41409650500E+04  0.38842530185E+04 0.  0.
        4    1    3    3  502    0 -0.19171112336E+04 -0.31066177944E+03  0.72325950195E+03  0.20724218063E+04  0.12699999809E+01 0.  1.
       -4    1    3    3    0  502  0.19171112336E+04  0.31066177944E+03  0.71206974023E+03  0.20685432437E+04  0.12699999809E+01 0. -1.
</event>
<event>
 5   0  0.1860500E-07  0.2819944E+04  0.7818609E-02  0.8297103E-01
       -1   -1    0    0    0  501  0.00000000000E+00  0.00000000000E+00  0.76760405611E+03  0.76760405613E+03  0.50400001928E-02 0.  1.
        1   -1    0    0  501    0  0.00000000000E+00  0.00000000000E+00 -0.25899041306E+04  0.25899041306E+04  0.50400001928E-02 0. -1.
    10030    2    1    2    0    0  0.00000000000E+00  0.00000000000E+00 -0.18223000745E+04  0.33575081867E+04  0.28199439112E+04 0.  0.
        5    1    3    3  502    0  0.18909050366E+03  0.13491153645E+03 -0.25669566586E+04  0.25774493047E+04  0.46999998093E+01 0. -1.
       -5    1    3    3    0  502 -0.18909050366E+03 -0.13491153645E+03  0.74465658408E+03  0.78005888204E+03  0.46999998093E+01 0.  1.
</event>
<event>
 5   0  0.5735179E-07  0.3888080E+04  0.7818609E-02  0.8027513E-01
        2   -1    0    0  501    0  0.00000000000E+00  0.00000000000E+00  0.22223031786E+04  0.22223031786E+04  0.25500000920E-02 0. -1.
       -2   -1    0    0    0  501  0.00000000000E+00  0.00000000000E+00 -0.17006196062E+04  0.17006196062E+04  0.25500000920E-02 0.  1.
    10030    2    1    2    0    0  0.00000000000E+00  0.00000000000E+00  0.52168357234E+03  0.39229227848E+04  0.38880804294E+04 0.  0.
        5    1    3    3  502    0 -0.13247195623E+04  0.88189405483E+03 -0.86569921710E+03  0.18116501503E+04  0.46999998093E+01 0.  1.
       -5    1    3    3    0  502  0.13247195623E+04 -0.88189405483E+03  0.13873827894E+04  0.21112726345E+04  0.46999998093E+01 0. -1.
</event>
<event>
 5   0  0.3959190E-07  0.3894539E+04  0.7818609E-02  0.8026166E-01
        2   -1    0    0  501    0  0.00000000000E+00  0.00000000000E+00  0.19337481290E+04  0.19337481290E+04  0.25500000920E-02 0.  1.
       -2   -1    0    0    0  501  0.00000000000E+00  0.00000000000E+00 -0.19608856345E+04  0.19608856345E+04  0.25500000920E-02 0. -1.
    10030    2    1    2    0    0  0.00000000000E+00  0.00000000000E+00 -0.27137505519E+02  0.38946337635E+04  0.38945392164E+04 0.  0.
        2    1    3    3  502    0 -0.14167408074E+04  0.66008945719E+03 -0.11750556529E+04  0.19554100323E+04  0.25500000920E-02 0. -1.
       -2    1    3    3    0  502  0.14167408074E+04 -0.66008945719E+03  0.11479181474E+04  0.19392237313E+04  0.25500000920E-02 0.  1.
</event>
<event>
 5   0  0.5805753E-07  0.4043567E+04  0.7818609E-02  0.7995815E-01
        2   -1    0    0  501    0  0.00000000000E+00  0.00000000000E+00  0.26535823281E+04  0.26535823281E+04  0.25500000920E-02 0. -1.
       -2   -1    0    0    0  501  0.00000000000E+00  0.00000000000E+00 -0.15404111581E+04  0.15404111581E+04  0.25500000920E-02 0.  1.
    10030    2    1    2    0    0  0.00000000000E+00  0.00000000000E+00  0.11131711700E+04  0.41939934861E+04  0.40435666568E+04 0.  0.
        1    1    3    3  502    0  0.82863488503E+03  0.99366796543E+03  0.21679561875E+04  0.25246872735E+04  0.50400001928E-02 0. -1.
       -1    1    3    3    0  502 -0.82863488503E+03 -0.99366796543E+03 -0.10547850175E+04  0.16693062126E+04  0.50400001928E-02 0.  1.
</event>
<event>
 5   0  0.2666813E-07  0.2615875E+04  0.7818609E-02  0.8362829E-01
       -1   -1    0    0    0  501  0.00000000000E+00  0.00000000000E+00  0.24186070017E+04  0.24186070017E+04  0.50400001928E-02 0.  1.
        1   -1    0    0  501    0  0.00000000000E+00  0.00000000000E+00 -0.70730837697E+03  0.70730837699E+03  0.50400001928E-02 0. -1.
    10030    2    1    2    0    0  0.00000000000E+00  0.00000000000E+00  0.17112986247E+04  0.31259153787E+04  0.26158753739E+04 0.  0.
        1    1    3    3  502    0 -0.14468007565E+03 -0.10682963339E+04 -0.29370678315E+02  0.10784488945E+04  0.50400001928E-02 0. -1.
       -1    1    3    3    0  502  0.14468007565E+03  0.10682963339E+04  0.17406693030E+04  0.20474664842E+04  0.50400001928E-02 0.  1.
</event>
<event>
 5   0  0.5872444E-07  0.2895164E+04  0.7818609E-02  0.8274318E-01
        2   -1    0    0  501    0  0.00000000000E+00  0.00000000000E+00  0.20122516511E+04  0.20122516511E+04  0.25500000920E-02 0. -1.
       -2   -1    0    0    0  501  0.00000000000E+00  0.00000000000E+00 -0.10413678011E+04  0.10413678011E+04  0.25500000920E-02 0.  1.
    10030    2    1    2    0    0  0.00000000000E+00  0.00000000000E+00  0.97088385002E+03  0.30536194521E+04  0.28951642973E+04 0.  0.
        3    1    3    3  502    0  0.98562902395E+03  0.91610577254E+03 -0.77412673799E+02  0.13478527707E+04  0.10100000352E+00 0.  1.
       -3    1    3    3    0  502 -0.98562902395E+03 -0.91610577254E+03  0.10482965238E+04  0.17057666814E+04  0.10100000352E+00 0. -1.
</event>
<event>
 5   0  0.5735179E-07  0.3865164E+04  0.7818609E-02  0.8032314E-01
       -2   -1    0    0    0  501  0.00000000000E+00  0.00000000000E+00  0.26110610320E+04  0.26110610320E+04  0.25500000920E-02 0. -1.
        2   -1    0    0  501    0  0.00000000000E+00  0.00000000000E+00 -0.14304040571E+04  0.14304040571E+04  0.25500000920E-02 0.  1.
    10030    2    1    2    0    0  0.00000000000E+00  0.00000000000E+00  0.11806569748E+04  0.40414650891E+04  0.38651635379E+04 0.  0.
        5    1    3    3  502    0 -0.13663415597E+03 -0.31499737868E+03  0.25789067525E+04  0.26016676131E+04  0.46999998093E+01 0. -1.
       -5    1    3    3    0  502  0.13663415597E+03  0.31499737868E+03 -0.13982497777E+04  0.14397974760E+04  0.46999998093E+01 0.  1.
</event>
<event>
 5   0  0.1860500E-07  0.2502528E+04  0.7818609E-02  0.8402085E-01
        1   -1    0    0  501    0  0.00000000000E+00  0.00000000000E+00  0.17258675882E+04  0.17258675882E+04  0.50400001928E-02 0. -1.
       -1   -1    0    0    0  501  0.00000000000E+00  0.00000000000E+00 -0.90717385651E+03  0.90717385653E+03  0.50400001928E-02 0.  1.
    10030    2    1    2    0    0  0.00000000000E+00  0.00000000000E+00  0.81869373167E+03  0.26330414447E+04  0.25025282862E+04 0.  0.
        4    1    3    3  502    0 -0.18388664124E+03 -0.35722983803E+03  0.16561511052E+04  0.17041905851E+04  0.12699999809E+01 0. -1.
       -4    1    3    3    0  502  0.18388664124E+03  0.35722983803E+03 -0.83745737357E+03  0.92885085964E+03  0.12699999809E+01 0.  1.
</event>
<event>
 5   0  0.5735179E-07  0.2726479E+04  0.7818609E-02  0.8326464E-01
        2   -1    0    0  501    0  0.00000000000E+00  0.00000000000E+00  0.15151798485E+04  0.15151798485E+04  0.25500000920E-02 0.  1.
       -2   -1    0    0    0  501  0.00000000000E+00  0.00000000000E+00 -0.12265358913E+04  0.12265358913E+04  0.25500000920E-02 0. -1.
    10030    2    1    2    0    0  0.00000000000E+00  0.00000000000E+00  0.28864395724E+03  0.27417157398E+04  0.27264793899E+04 0.  0.
        5    1    3    3  502    0 -0.10593727258E+04 -0.76972889609E+03 -0.23680424738E+03  0.13307334396E+04  0.46999998093E+01 0. -1.
       -5    1    3    3    0  502  0.10593727258E+04  0.76972889609E+03  0.52544820462E+03  0.14109823002E+04  0.46999998093E+01 0.  1.
</event>
<event>
 5   0  0.6095665E-07  0.3820627E+04  0.7818609E-02  0.8041743E-01
        2   -1    0    0  501    0  0.00000000000E+00  0.00000000000E+00  0.20565085268E+04  0.20565085268E+04  0.25500000920E-02 0.  1.
       -2   -1    0    0    0  501  0.00000000000E+00  0.00000000000E+00 -0.17745115739E+04  0.17745115739E+04  0.25500000920E-02 0. -1.
    10030    2    1    2    0    0  0.00000000000E+00  0.00000000000E+00  0.28199695292E+03  0.38310201007E+04  0.38206272693E+04 0.  0.
        4    1    3    3  502    0 -0.18165602607E+04 -0.58960475394E+03  0.98793326353E+02  0.19124033782E+04  0.12699999809E+01 0. -1.
       -4    1    3    3    0  502  0.18165602607E+04  0.58960475394E+03  0.18320362657E+03  0.19186167226E+04  0.12699999809E+01 0.  1.
</event>
<event>
 5   0  0.6095665E-07  0.3921840E+04  0.7818609E-02  0.8020502E-01
        2   -1    0    0  501    0  0.00000000000E+00  0.00000000000E+00  0.13941089910E+04  0.13941089910E+04  0.25500000920E-02 0. -1.
       -2   -1    0    0    0  501  0.00000000000E+00  0.00000000000E+00 -0.27581821978E+04  0.27581821978E+04  0.25500000920E-02 0.  1.
    10030    2    1    2    0    0  0.00000000000E+00  0.00000000000E+00 -0.13640732068E+04  0.41522911888E+04  0.39218396708E+04 0.  0.
        4    1    3    3  502    0  0.95783832016E+03 -0.11081812646E+04  0.69829105605E+03  0.16226928159E+04  0.12699999809E+01 0. -1.
       -4    1    3    3    0  502 -0.95783832016E+03  0.11081812646E+04 -0.20623642629E+04  0.25295983730E+04  0.12699999809E+01 0.  1.
</event>
<event>
 5   0  0.3959190E-07  0.2842137E+04  0.7818609E-02  0.8290305E-01
       -2   -1    0    0    0  501  0.00000000000E+00  0.00000000000E+00  0.10468246340E+04  0.10468246340E+04  0.25500000920E-02 0.  1.
        2   -1    0    0  501    0  0.00000000000E+00  0.00000000000E+00 -0.19291058548E+04  0.19291058548E+04  0.25500000920E-02 0. -1.
    10030    2    1    2    0    0  0.00000000000E+00  0.00000000000E+00 -0.88228122074E+03  0.29759304888E+04  0.28421368935E+04 0.  0.
        2    1    3    3  502    0 -0.12189960529E+04  0.53598279962E+02  0.32158103197E+03  0.12618393371E+04  0.25500000920E-02 0.  1.
       -2    1    3    3    0  502  0.12189960529E+04 -0.53598279962E+02 -0.12038622527E+04  0.17140911516E+04  0.25500000920E-02 0. -1.
</event>
<event>
 5   0  0.5805753E-07  0.3513471E+04  0.7818609E-02  0.8110605E-01
        2   -1    0    0  501    0  0.00000000000E+00  0.00000000000E+00  0.24369876286E+04  0.24369876286E+04  0.25500000920E-02 0.  1.
       -2   -1    0    0    0  501  0.00000000000E+00  0.00000000000E+00 -0.12663662062E+04  0.12663662062E+04  0.25500000920E-02 0. -1.
    10030    2    1    2    0    0  0.00000000000E+00  0.00000000000E+00  0.11706214224E+04  0.37033538347E+04  0.35134705222E+04 0.  0.
        1    1    3    3  502    0  0.45241118775E+02 -0.42768759136E+03 -0.12100196945E+04  0.12841772057E+04  0.50400001928E-02 0. -1.
       -1    1    3    3    0  502 -0.45241118775E+02  0.42768759136E+03  0.23806411169E+04  0.24191766290E+04  0.50400001928E-02 0.  1.
</event>
<event>
 5   0  0.6095665E-07  0.4027135E+04  0.7818609E-02  0.7999095E-01
       -2   -1    0    0    0  501  0.00000000000E+00  0.00000000000E+00  0.13730210040E+04  0.13730210040E+04  0.25500000920E-02 0. -1.
        2   -1    0    0  501    0  0.00000000000E+00  0.00000000000E+00 -0.29529446877E+04  0.29529446877E+04  0.25500000920E-02 0.  1.
    10030    2    1    2    0    0  0.00000000000E+00  0.00000000000E+00 -0.15799236837E+04  0.43259656917E+04  0.40271354981E+04 0.  0.
        4    1    3    3  502    0 -0.18710343989E+04 -0.53171399280E+03 -0.23079346040E+03  0.19587640813E+04  0.12699999809E+01 0. -1.
       -4    1    3    3    0  502  0.18710343989E+04  0.53171399280E+03 -0.13491302233E+04  0.23672016104E+04  0.12699999809E+01 0.  1.
</event>
<event>
 5   0  0.5872444E-07  0.3849868E+04  0.7818609E-02  0.8035537E-01
       -2   -1    0    0    0  501  0.00000000000E+00  0.00000000000E+00  0.14031750903E+04  0.14031750903E+04  0.25500000920E-02 0.  1.
        2   -1    0    0  501    0  0.00000000000E+00  0.00000000000E+00 -0.26407041958E+04  0.26407041958E+04  0.25500000920E-02 0. -1.
    10030    2    1    2    0    0  0.00000000000E+00  0.00000000000E+00 -0.12375291055E+04  0.40438792860E+04  0.38498677111E+04 0.  0.
        3    1    3    3  502    0  0.22009359558E+03 -0.48422531749E+03 -0.25619813192E+04  0.26166130090E+04  0.10100000352E+00 0. -1.
       -3    1    3    3    0  502 -0.22009359558E+03  0.48422531749E+03  0.13244522137E+04  0.14272662770E+04  0.10100000352E+00 0.  1.
</event>
<event>
 5   0  0.2666813E-07  0.2853464E+04  0.7818609E-02  0.8286860E-01
        1   -1    0    0  501    0  0.00000000000E+00  0.00000000000E+00  0.21452796005E+04  0.21452796006E+04  0.50400001928E-02 0. -1.
       -1   -1    0    0    0  501  0.00000000000E+00  0.00000000000E+00 -0.94885724357E+03  0.94885724358E+03  0.50400001928E-02 0.  1.
    10030    2    1    2    0    0  0.00000000000E+00  0.00000000000E+00  0.11964223570E+04  0.30941368441E+04  0.28534639220E+04 0.  0.
        1    1    3    3  502    0 -0.17026434060E+03  0.24258357197E+03  0.21115327165E+04  0.21322305570E+04  0.50400001928E-02 0. -1.
       -1    1    3    3    0  502  0.17026434060E+03 -0.24258357197E+03 -0.91511035956E+03  0.96190628716E+03  0.50400001928E-02 0.  1.
</event>
<event>
 5   0  0.1876027E-07  0.3259241E+04  0.7818609E-02  0.8173345E-01
       -1   -1    0    0    0  501  0.00000000000E+00  0.00000000000E+00  0.17174624557E+04  0.17174624557E+04  0.50400001928E-02 0. -1.
        1   -1    0    0  501    0  0.00000000000E+00  0.00000000000E+00 -0.15462711581E+04  0.15462711581E+04  0.50400001928E-02 0.  1.
    10030    2    1    2    0    0  0.00000000000E+00  0.00000000000E+00  0.17119129757E+03  0.32637336138E+04  0.32592408076E+04 0.  0.
        3    1    3    3  502    0  0.15271333834E+03  0.13281785309E+04  0.10186972256E+04  0.16808104061E+04  0.10100000352E+00 0. -1.
       -3    1    3    3    0  502 -0.15271333834E+03 -0.13281785309E+04 -0.84750592798E+03  0.15829232078E+04  0.10100000352E+00 0.  1.
</event>
<event>
 5   0  0.1860500E-07  0.3965221E+04  0.7818609E-02  0.8011600E-01
       -1   -1    0    0    0  501  0.00000000000E+00  0.00000000000E+00  0.33608890561E+04  0.33608890562E+04  0.50400001928E-02 0.  1.
        1   -1    0    0  501    0  0.00000000000E+00  0.00000000000E+00 -0.11695550195E+04  0.11695550195E+04  0.50400001928E-02 0. -1.
    10030    2    1    2    0    0  0.00000000000E+00  0.00000000000E+00  0.21913340366E+04  0.45304440757E+04  0.39652211367E+04 0.  0.
        4    1    3    3  502    0  0.14838986133E+04  0.37332863427E+03 -0.34476191339E+03  0.15684998418E+04  0.12699999809E+01 0. -1.
       -4    1    3    3    0  502 -0.14838986133E+04 -0.37332863427E+03  0.25360959500E+04  0.29619442339E+04  0.12699999809E+01 0.  1.
</event>
<event>
 5   0  0.2666813E-07  0.3767748E+04  0.7818609E-02  0.8053112E-01
        1   -1    0    0  501    0  0.00000000000E+00  0.00000000000E+00  0.16681731033E+04  0.16681731033E+04  0.50400001928E-02 0.  1.
       -1   -1    0    0    0  501  0.00000000000E+00  0.00000000000E+00 -0.21274655829E+04  0.21274655829E+04  0.50400001928E-02 0. -1.
    10030    2    1    2    0    0  0.00000000000E+00  0.00000000000E+00 -0.45929247958E+03  0.37956386862E+04  0.37677477960E+04 0.  0.
        1    1    3    3  502    0  0.36797608865E+03 -0.10077629910E+03  0.16288458797E+04  0.16729319066E+04  0.50400001928E-02 0.  1.
       -1    1    3    3    0  502 -0.36797608865E+03  0.10077629910E+03 -0.20881383593E+04  0.21227067796E+04  0.50400001928E-02 0. -1.
</event>
<event>
 5   0  0.6095665E-07  0.3815811E+04  0.7818609E-02  0.8042770E-01
        2   -1    0    0  501    0  0.00000000000E+00  0.00000000000E+00  0.25913197118E+04  0.25913197118E+04  0.25500000920E-02 0.  1.
       -2   -1    0    0    0  501  0.00000000000E+00  0.00000000000E+00 -0.14047296663E+04  0.14047296663E+04  0.25500000920E-02 0. -1.
    10030    2    1    2    0    0  0.00000000000E+00  0.00000000000E+00  0.11865900456E+04  0.39960493781E+04  0.38158111452E+04 0.  0.
        4    1    3    3  502    0  0.10469433512E+04 -0.12498236071E+02 -0.10769884768E+04  0.15020493929E+04  0.12699999809E+01 0. -1.
       -4    1    3    3    0  502 -0.10469433512E+04  0.12498236071E+02  0.22635785223E+04  0.24939999852E+04  0.12699999809E+01 0.  1.
</event>
<event>
 5   0  0.3959190E-07  0.2997228E+04  0.7818609E-02  0.8244523E-01
       -2   -1    0    0    0  501  0.00000000000E+00  0.00000000000E+00  0.94974277488E+03  0.94974277488E+03  0.25500000920E-02 0.  1.
        2   -1    0    0  501    0  0.00000000000E+00  0.00000000000E+00 -0.23646857378E+04  0.23646857378E+04  0.25500000920E-02 0. -1.
    10030    2    1    2    0    0  0.00000000000E+00  0.00000000000E+00 -0.14149429629E+04  0.33144285127E+04  0.29972275151E+04 0.  0.
        2    1    3    3  502    0 -0.46305673249E+03  0.11967910276E+04  0.14846843185E+03  0.12918100389E+04  0.25500000920E-02 0.  1.
       -2    1    3    3    0  502  0.46305673249E+03 -0.11967910276E+04 -0.15634113948E+04  0.20226184738E+04  0.25500000920E-02 0. -1.
</event>
<event>
 5   0  0.3959190E-07  0.3871915E+04  0.7818609E-02  0.8030896E-01
        2   -1    0    0  501    0  0.00000000000E+00  0.00000000000E+00  0.17423761422E+04  0.17423761422E+04  0.25500000920E-02 0.  1.
       -2   -1    0    0    0  501  0.00000000000E+00  0.00000000000E+00 -0.21510460175E+04  0.21510460175E+04  0.25500000920E-02 0. -1.
    10030    2    1    2    0    0  0.00000000000E+00  0.00000000000E+00 -0.40866987531E+03  0.38934221596E+04  0.38719149069E+04 0.  0.
        2    1    3    3  502    0  0.10989528418E+04  0.14004292986E+04 -0.96950304429E+03  0.20270263248E+04  0.25500000920E-02 0. -1.
       -2    1    3    3    0  502 -0.10989528418E+04 -0.14004292986E+04  0.56083316898E+03  0.18663958348E+04  0.25500000920E-02 0.  1.
</event>
<event>
 5   0  0.1860500E-07  0.2805512E+04  0.7818609E-02  0.8301559E-01
        1   -1    0    0  501    0  0.00000000000E+00  0.00000000000E+00  0.14610238214E+04  0.14610238214E+04  0.50400001928E-02 0. -1.
       -1   -1    0    0    0  501  0.00000000000E+00  0.00000000000E+00 -0.13468120678E+04  0.13468120678E+04  0.50400001928E-02 0.  1.
    10030    2    1    2    0    0  0.00000000000E+00  0.00000000000E+00  0.11421175361E+03  0.28078358892E+04  0.28055120844E+04 0.  0.
        5    1    3    3  502    0  0.18458056647E+03 -0.69432436144E+03 -0.11486933377E+04  0.13548707608E+04  0.46999998093E+01 0.  1.
       -5    1    3    3    0  502 -0.18458056647E+03  0.69432436144E+03  0.12629050914E+04  0.14529651283E+04  0.46999998093E+01 0. -1.
</event>
<event>
 5   0  0.1876027E-07  0.3838370E+04  0.7818609E-02  0.8037971E-01
        1   -1    0    0  501    0  0.00000000000E+00  0.00000000000E+00  0.30003400137E+04  0.30003400137E+04  0.50400001928E-02 0.  1.
       -1   -1    0    0    0  501  0.00000000000E+00  0.00000000000E+00 -0.12276179985E+04  0.12276179986E+04  0.50400001928E-02 0. -1.
    10030    2    1    2    0    0  0.00000000000E+00  0.00000000000E+00  0.17727220151E+04  0.42279580122E+04  0.38383701763E+04 0.  0.
        3    1    3    3  502    0  0.11492477440E+04 -0.74109139337E+03 -0.59689730693E+03  0.14920701176E+04  0.10100000352E+00 0. -1.
       -3    1    3    3    0  502 -0.11492477440E+04  0.74109139337E+03  0.23696193221E+04  0.27358878947E+04  0.10100000352E+00 0.  1.
</event>
<event>
 5   0  0.5805753E-07  0.3829152E+04  0.7818609E-02  0.8039928E-01
        2   -1    0    0  501    0  0.00000000000E+00  0.00000000000E+00  0.26255166979E+04  0.26255166979E+04  0.25500000920E-02 0. -1.
       -2   -1    0    0    0  501  0.00000000000E+00  0.00000000000E+00 -0.13961447839E+04  0.13961447839E+04  0.25500000920E-02 0.  1.
    10030    2    1    2    0    0  0.00000000000E+00  0.00000000000E+00  0.12293719140E+04  0.40216614818E+04  0.38291520956E+04 0.  0.
        1    1    3    3  502    0  0.17373580733E+04 -0.42542750781E+03 -0.10242925915E+03  0.17916175352E+04  0.50400001928E-02 0.  1.
       -1    1    3    3    0  502 -0.17373580733E+04  0.42542750781E+03  0.13318011731E+04  0.22300439466E+04  0.50400001928E-02 0. -1.
</event>
<event>
 5   0  0.1860500E-07  0.2466732E+04  0.7818609E-02  0.8414934E-01
       -1   -1    0    0    0  501  0.00000000000E+00  0.00000000000E+00  0.11642363976E+04  0.11642363977E+04  0.50400001928E-02 0.  1.
        1   -1    0    0  501    0  0.00000000000E+00  0.00000000000E+00 -0.13066000724E+04  0.13066000724E+04  0.50400001928E-02 0. -1.
    10030    2    1    2    0    0  0.00000000000E+00  0.00000000000E+00 -0.14236367473E+03  0.24708364700E+04  0.24667317337E+04 0.  0.
        4    1    3    3  502    0 -0.10604836609E+04 -0.39247944174E+03 -0.56446862165E+03  0.12638402371E+04  0.12699999809E+01 0. -1.
       -4    1    3    3    0  502  0.10604836609E+04  0.39247944174E+03  0.42210494692E+03  0.12069962329E+04  0.12699999809E+01 0.  1.
</event>
<event>
 5   0  0.1876027E-07  0.3889090E+04  0.7818609E-02  0.8027302E-01
        1   -1    0    0  501    0  0.00000000000E+00  0.00000000000E+00  0.20062878136E+04  0.20062878136E+04  0.50400001928E-02 0. -1.
       -1   -1    0    0    0  501  0.00000000000E+00  0.00000000000E+00 -0.18847026700E+04  0.18847026700E+04  0.50400001928E-02 0.  1.
    10030    2    1    2    0    0  0.00000000000E+00  0.00000000000E+00  0.12158514362E+03  0.38909904836E+04  0.38890903816E+04 0.  0.
        3    1    3    3  502    0  0.13673152964E+04 -0.98589568784E+03 -0.90906980144E+03  0.19151891137E+04  0.10100000352E+00 0.  1.
       -3    1    3    3    0  502 -0.13673152964E+04  0.98589568784E+03  0.10306549451E+04  0.19758013699E+04  0.10100000352E+00 0. -1.
</event>
<event>
 5   0  0.2666813E-07  0.3733799E+04  0.7818609E-02  0.8060513E-01
        1   -1    0    0  501    0  0.00000000000E+00  0.00000000000E+00  0.11590622830E+04  0.11590622831E+04  0.50400001928E-02 0.  1.
       -1   -1    0    0    0  501  0.00000000000E+00  0.00000000000E+00 -0.30070110950E+04  0.30070110950E+04  0.50400001928E-02 0. -1.
    10030    2    1    2    0    0  0.00000000000E+00  0.00000000000E+00 -0.18479488119E+04  0.41660733780E+04  0.37337986796E+04 0.  0.
        1    1    3    3  502    0  0.54839619789E+03 -0.12258858037E+04 -0.23709474737E+04  0.27248717982E+04  0.50400001928E-02 0. -1.
       -1    1    3    3    0  502 -0.54839619789E+03  0.12258858037E+04  0.52299866175E+03  0.14412015799E+04  0.50400001928E-02 0.  1.
</event>
<event>
 5   0  0.1860500E-07  0.3898272E+04  0.7818609E-02  0.8025389E-01
        1   -1    0    0  501    0  0.00000000000E+00  0.00000000000E+00  0.32772647889E+04  0.32772647889E+04  0.50400001928E-02 0.  1.
       -1   -1    0    0    0  501  0.00000000000E+00  0.00000000000E+00 -0.11592383240E+04  0.11592383240E+04  0.50400001928E-02 0. -1.
    10030    2    1    2    0    0  0.00000000000E+00  0.00000000000E+00  0.21180264650E+04  0.44365031129E+04  0.38982718946E+04 0.  0.
        5    1    3    3  502    0  0.10013485686E+04  0.96575439746E+03 -0.49466101865E+03  0.14765135033E+04  0.46999998093E+01 0. -1.
       -5    1    3    3    0  502 -0.10013485686E+04 -0.96575439746E+03  0.26126874836E+04  0.29599896096E+04  0.46999998093E+01 0.  1.
</event>
<event>
 5   0  0.1876027E-07  0.2710943E+04  0.7818609E-02  0.8331463E-01
        1   -1    0    0  501    0  0.00000000000E+00  0.00000000000E+00  0.19034946948E+04  0.19034946948E+04  0.50400001928E-02 0. -1.
       -1   -1    0    0    0  501  0.00000000000E+00  0.00000000000E+00 -0.96522621814E+03  0.96522621816E+03  0.50400001928E-02 0.  1.
    10030    2    1    2    0    0  0.00000000000E+00  0.00000000000E+00  0.93826847669E+03  0.28687209130E+04  0.27109429987E+04 0.  0.
        3    1    3    3  502    0  0.66811883483E+03  0.10343911582E+04  0.10686354621E+04  0.16304384707E+04  0.10100000352E+00 0. -1.
       -3    1    3    3    0  502 -0.66811883483E+03 -0.10343911582E+04 -0.13036698545E+03  0.12382824423E+04  0.10100000352E+00 0.  1.
</event>
<event>
 5   0  0.6095665E-07  0.2540688E+04  0.7818609E-02  0.8388632E-01
        2   -1    0    0  501    0  0.00000000000E+00  0.00000000000E+00  0.11242132975E+04  0.11242132975E+04  0.25500000920E-02 0. -1.
       -2   -1    0    0    0  501  0.00000000000E+00  0.00000000000E+00 -0.14354694164E+04  0.14354694164E+04  0.25500000920E-02 0.  1.
    10030    2    1    2    0    0  0.00000000000E+00  0.00000000000E+00 -0.31125611892E+03  0.25596827138E+04  0.25406879431E+04 0.  0.
        4    1    3    3  502    0 -0.77281128546E+03  0.86666922320E+03 -0.67466840111E+03  0.13429563990E+04  0.12699999809E+01 0.  1.
       -4    1    3    3    0  502  0.77281128546E+03 -0.86666922320E+03  0.36341228220E+03  0.12167263148E+04  0.12699999809E+01 0. -1.
</event>
<event>
 5   0  0.6095665E-07  0.3889450E+04  0.7818609E-02  0.8027227E-01
       -2   -1    0    0    0  501  0.00000000000E+00  0.00000000000E+00  0.30075563437E+04  0.30075563437E+04  0.25500000920E-02 0.  1.
        2   -1    0    0  501    0  0.00000000000E+00  0.00000000000E+00 -0.12574843463E+04  0.12574843463E+04  0.25500000920E-02 0. -1.
    10030    2    1    2    0    0  0.00000000000E+00  0.00000000000E+00  0.17500719974E+04  0.42650406900E+04  0.38894498443E+04 0.  0.
        4    1    3    3  502    0 -0.11041554540E+04 -0.14964986603E+04  0.25154758556E+03  0.18766846586E+04  0.12699999809E+01 0. -1.
       -4    1    3    3    0  502  0.11041554540E+04  0.14964986603E+04  0.14985244118E+04  0.23883560314E+04  0.12699999809E+01 0.  1.
</event>
<event>
 5   0  0.1860500E-07  0.3853924E+04  0.7818609E-02  0.8034681E-01
       -1   -1    0    0    0  501  0.00000000000E+00  0.00000000000E+00  0.10337707943E+04  0.10337707944E+04  0.50400001928E-02 0.  1.
        1   -1    0    0  501    0  0.00000000000E+00  0.00000000000E+00 -0.35918818273E+04  0.35918818273E+04  0.50400001928E-02 0. -1.
    10030    2    1    2    0    0  0.00000000000E+00  0.00000000000E+00 -0.25581110329E+04  0.46256526216E+04  0.38539239898E+04 0.  0.
        4    1    3    3  502    0  0.11904199953E+04 -0.94302150736E+03 -0.27026449356E+04  0.31001097705E+04  0.12699999809E+01 0. -1.
       -4    1    3    3    0  502 -0.11904199953E+04  0.94302150736E+03  0.14453390264E+03  0.15255428511E+04  0.12699999809E+01 0.  1.
</event>
<event>
 5   0  0.5735179E-07  0.3350295E+04  0.7818609E-02  0.8150215E-01
        2   -1    0    0  501    0  0.00000000000E+00  0.00000000000E+00  0.20360931778E+04  0.20360931778E+04  0.25500000920E-02 0.  1.
       -2   -1    0    0    0  501  0.00000000000E+00  0.00000000000E+00 -0.13781876124E+04  0.13781876124E+04  0.25500000920E-02 0. -1.
    10030    2    1    2    0    0  0.00000000000E+00  0.00000000000E+00  0.65790556538E+03  0.34142807901E+04  0.33502945514E+04 0.  0.
        5    1    3    3  502    0 -0.12263221892E+04 -0.55367490447E+03 -0.68793935823E+03  0.15111931253E+04  0.46999998093E+01 0. -1.
       -5    1    3    3    0  502  0.12263221892E+04  0.55367490447E+03  0.13458449236E+04  0.19030876648E+04  0.46999998093E+01 0.  1.
</event>
<event>
 5   0  0.1943459E-07  0.3933376E+04  0.7818609E-02  0.8018123E-01
        1   -1    0    0  501    0  0.00000000000E+00  0.00000000000E+00  0.29998434816E+04  0.29998434816E+04  0.50400001928E-02 0.  1.
       -1   -1    0    0    0  501  0.00000000000E+00  0.00000000000E+00 -0.12893545863E+04  0.12893545863E+04  0.50400001928E-02 0. -1.
    10030    2    1    2    0    0  0.00000000000E+00  0.00000000000E+00  0.17104888953E+04  0.42891980679E+04  0.39333761332E+04 0.  0.
        2    1    3    3  502    0  0.11258416666E+04  0.41340210902E+03  0.25549113544E+04  0.28224090403E+04  0.25500000920E-02 0.  1.
       -2    1    3    3    0  502 -0.11258416666E+04 -0.41340210902E+03 -0.84442245909E+03  0.14667890276E+04  0.25500000920E-02 0. -1.
</event>
<event>
 5   0  0.2666813E-07  0.3854516E+04  0.7818609E-02  0.8034556E-01
       -1   -1    0    0    0  501  0.00000000000E+00  0.00000000000E+00  0.13724787675E+04  0.13724787675E+04  0.50400001928E-02 0.  1.
        1   -1    0    0  501    0  0.00000000000E+00  0.00000000000E+00 -0.27062886457E+04  0.27062886457E+04  0.50400001928E-02 0. -1.
    10030    2    1    2    0    0  0.00000000000E+00  0.00000000000E+00 -0.13338098783E+04  0.40787674132E+04  0.38545161590E+04 0.  0.
        1    1    3    3  502    0 -0.13720490457E+04  0.60363240619E+03 -0.19487579173E+04  0.24585662663E+04  0.50400001928E-02 0. -1.
       -1    1    3    3    0  502  0.13720490457E+04 -0.60363240619E+03  0.61494803904E+03  0.16202011469E+04  0.50400001928E-02 0.  1.
</event>
<event>
 5   0  0.2666813E-07  0.3868541E+04  0.7818609E-02  0.8031604E-01
       -1   -1    0    0    0  501  0.00000000000E+00  0.00000000000E+00  0.12061131313E+04  0.12061131313E+04  0.50400001928E-02 0. -1.
        1   -1    0    0  501    0  0.00000000000E+00  0.00000000000E+00 -0.31020324685E+04  0.31020324685E+04  0.50400001928E-02 0.  1.
    10030    2    1    2    0    0  0.00000000000E+00  0.00000000000E+00 -0.18959193372E+04  0.43081455998E+04  0.38685408587E+04 0.  0.
        1    1    3    3  502    0  0.10720266466E+04  0.15529233364E+04 -0.47471021394E+03  0.19458062101E+04  0.50400001928E-02 0. -1.
       -1    1    3    3    0  502 -0.10720266466E+04 -0.15529233364E+04 -0.14212091233E+04  0.23623393897E+04  0.50400001928E-02 0.  1.
</event>
<event>
 5   0  0.1876027E-07  0.3881115E+04  0.7818609E-02  0.8028968E-01
       -1   -1    0    0    0  501  0.00000000000E+00  0.00000000000E+00  0.16527269364E+04  0.16527269364E+04  0.50400001928E-02 0.  1.
        1   -1    0    0  501    0  0.00000000000E+00  0.00000000000E+00 -0.22785153094E+04  0.22785153095E+04  0.50400001928E-02 0. -1.
    10030    2    1    2    0    0  0.00000000000E+00  0.00000000000E+00 -0.62578837307E+03  0.39312422458E+04  0.38811151114E+04 0.  0.
        3    1    3    3  502    0 -0.18426722150E+04 -0.38866308411E+03  0.16140969985E+03  0.18901198338E+04  0.10100000352E+00 0.  1.
       -3    1    3    3    0  502  0.18426722150E+04  0.38866308411E+03 -0.78719807292E+03  0.20411224120E+04  0.10100000352E+00 0. -1.
</event>
<event>
 5   0  0.5872444E-07  0.3876654E+04  0.7818609E-02  0.8029902E-01
       -2   -1    0    0    0  501  0.00000000000E+00  0.00000000000E+00  0.14244673209E+04  0.14244673209E+04  0.25500000920E-02 0. -1.
        2   -1    0    0  501    0  0.00000000000E+00  0.00000000000E+00 -0.26375555248E+04  0.26375555248E+04  0.25500000920E-02 0.  1.
    10030    2    1    2    0    0  0.00000000000E+00  0.00000000000E+00 -0.12130882038E+04  0.40620228457E+04  0.38766540481E+04 0.  0.
        3    1    3    3  502    0  0.66128170756E+03  0.75314142604E+02 -0.25140730119E+04  0.26006785338E+04  0.10100000352E+00 0.  1.
       -3    1    3    3    0  502 -0.66128170756E+03 -0.75314142604E+02  0.13009848081E+04  0.14613443119E+04  0.10100000352E+00 0. -1.
</event>
<event>
 5   0  0.5805753E-07  0.3860499E+04  0.7818609E-02  0.8033295E-01
       -2   -1    0    0    0  501  0.00000000000E+00  0.00000000000E+00  0.19213317592E+04  0.19213317592E+04  0.25500000920E-02 0. -1.
        2   -1    0    0  501    0  0.00000000000E+00  0.00000000000E+00 -0.19392089255E+04  0.19392089255E+04  0.25500000920E-02 0.  1.
    10030    2    1    2    0    0  0.00000000000E+00  0.00000000000E+00 -0.17877166292E+02  0.38605406847E+04  0.38604992922E+04 0.  0.
        1    1    3    3  502    0 -0.17451846656E+04  0.58060471303E+03  0.57680854980E+03  0.19275578988E+04  0.50400001928E-02 0. -1.
       -1    1    3    3    0  502  0.17451846656E+04 -0.58060471303E+03 -0.59468571609E+03  0.19329827860E+04  0.50400001928E-02 0.  1.
</event>
<event>
 5   0  0.1860500E-07  0.3837526E+04  0.7818609E-02  0.8038150E-01
       -1   -1    0    0    0  501  0.00000000000E+00  0.00000000000E+00  0.13220037647E+04  0.13220037647E+04  0.50400001928E-02 0.  1.
        1   -1    0    0  501    0  0.00000000000E+00  0.00000000000E+00 -0.27849018577E+04  0.27849018577E+04  0.50400001928E-02 0. -1.
    10030    2    1    2    0    0  0.00000000000E+00  0.00000000000E+00 -0.14628980929E+04  0.41069056224E+04  0.38375256300E+04 0.  0.
        4    1    3    3  502    0 -0.95202237084E+03 -0.39953673464E+03 -0.24622819900E+04  0.26699832224E+04  0.12699999809E+01 0. -1.
       -4    1    3    3    0  502  0.95202237084E+03  0.39953673464E+03  0.99938389707E+03  0.14369224000E+04  0.12699999809E+01 0.  1.
</event>
<event>
 5   0  0.1994164E-07  0.2491417E+04  0.7818609E-02  0.8406050E-01
       -1   -1    0    0    0  501  0.00000000000E+00  0.00000000000E+00  0.86850885976E+03  0.86850885977E+03  0.50400001928E-02 0. -1.
        1   -1    0    0  501    0  0.00000000000E+00  0.00000000000E+00 -0.17867279846E+04  0.17867279846E+04  0.50400001928E-02 0.  1.
    10030    2    1    2    0    0  0.00000000000E+00  0.00000000000E+00 -0.91821912488E+03  0.26552368444E+04  0.24914165326E+04 0.  0.
        3    1    3    3  502    0  0.95339718487E+03  0.58345109661E+03 -0.10451847652E+04  0.15302916643E+04  0.10100000352E+00 0.  1.
       -3    1    3    3    0  502 -0.95339718487E+03 -0.58345109661E+03  0.12696564031E+03  0.11249451801E+04  0.10100000352E+00 0. -1.
</event>
<event>
 5   0  0.5872444E-07  0.3939836E+04  0.7818609E-02  0.8016795E-01
       -2   -1    0    0    0  501  0.00000000000E+00  0.00000000000E+00  0.14536991078E+04  0.14536991078E+04  0.25500000920E-02 0.  1.
        2   -1    0    0  501    0  0.00000000000E+00  0.00000000000E+00 -0.26694500615E+04  0.26694500615E+04  0.25500000920E-02 0. -1.
    10030    2    1    2    0    0  0.00000000000E+00  0.00000000000E+00 -0.12157509537E+04  0.41231491692E+04  0.39398361248E+04 0.  0.
        3    1    3    3  502    0 -0.14533322199E+04 -0.37263693160E+03  0.72805537667E+03  0.16676622757E+04  0.10100000352E+00 0.  1.
       -3    1    3    3    0  502  0.14533322199E+04  0.37263693160E+03 -0.19438063304E+04  0.24554868935E+04  0.10100000352E+00 0. -1.
</event>
<event>
 5   0  0.1876027E-07  0.3860130E+04  0.7818609E-02  0.8033373E-01
        1   -1    0    0  501    0  0.00000000000E+00  0.00000000000E+00  0.25733896207E+04  0.25733896208E+04  0.50400001928E-02 0.  1.
       -1   -1    0    0    0  501  0.00000000000E+00  0.00000000000E+00 -0.14475655685E+04  0.14475655685E+04  0.50400001928E-02 0. -1.
    10030    2    1    2    0    0  0.00000000000E+00  0.00000000000E+00  0.11258240522E+04  0.40209551893E+04  0.38601296400E+04 0.  0.
        3    1    3    3  502    0  0.80796348312E+03 -0.67419026687E+03 -0.11224632838E+04  0.15385906992E+04  0.10100000352E+00 0. -1.
       -3    1    3    3    0  502 -0.80796348312E+03  0.67419026687E+03  0.22482873360E+04  0.24823644901E+04  0.10100000352E+00 0.  1.
</event>
<event>
 5   0  0.1876027E-07  0.3923578E+04  0.7818609E-02  0.8020143E-01
        1   -1    0    0  501    0  0.00000000000E+00  0.00000000000E+00  0.26631193162E+04  0.26631193162E+04  0.50400001928E-02 0. -1.
       -1   -1    0    0    0  501  0.00000000000E+00  0.00000000000E+00 -0.14451534772E+04  0.14451534772E+04  0.50400001928E-02 0.  1.
    10030    2    1    2    0    0  0.00000000000E+00  0.00000000000E+00  0.12179658389E+04  0.41082727934E+04  0.39235780304E+04 0.  0.
        3    1    3    3  502    0  0.57866108880E+02 -0.40929052847E+02 -0.14438123845E+04  0.14455510665E+04  0.10100000352E+00 0.  1.
       -3    1    3    3    0  502 -0.57866108880E+02  0.40929052847E+02  0.26617782235E+04  0.26627217269E+04  0.10100000352E+00 0. -1.
</event>
<event>
 5   0  0.6095665E-07  0.3591022E+04  0.7818609E-02  0.8092551E-01
       -2   -1    0    0    0  501  0.00000000000E+00  0.00000000000E+00  0.12512088110E+04  0.12512088110E+04  0.25500000920E-02 0.  1.
        2   -1    0    0  501    0  0.00000000000E+00  0.00000000000E+00 -0.25765956574E+04  0.25765956574E+04  0.25500000920E-02 0. -1.
    10030    2    1    2    0    0  0.00000000000E+00  0.00000000000E+00 -0.13253868464E+04  0.38278044684E+04  0.35910216869E+04 0.  0.
        4    1    3    3  502    0 -0.15761902872E+04  0.85855581241E+03 -0.71451674880E+03  0.19318461900E+04  0.12699999809E+01 0. -1.
       -4    1    3    3    0  502  0.15761902872E+04 -0.85855581241E+03 -0.61087009764E+03  0.18959582784E+04  0.12699999809E+01 0.  1.
</event>
<event>
 5   0  0.3959190E-07  0.3944927E+04  0.7818609E-02  0.8015750E-01
       -2   -1    0    0    0  501  0.00000000000E+00  0.00000000000E+00  0.21740791172E+04  0.21740791172E+04  0.25500000920E-02 0. -1.
        2   -1    0    0  501    0  0.00000000000E+00  0.00000000000E+00 -0.17895447742E+04  0.17895447742E+04  0.25500000920E-02 0.  1.
    10030    2    1    2    0    0  0.00000000000E+00  0.00000000000E+00  0.38453434294E+03  0.39636238914E+04  0.39449268297E+04 0.  0.
        2    1    3    3  502    0 -0.10006956721E+04 -0.16555933462E+04 -0.19456506888E+03  0.19442830869E+04  0.25500000920E-02 0.  1.
       -2    1    3    3    0  502  0.10006956721E+04  0.16555933462E+04  0.57909941183E+03  0.20193408045E+04  0.25500000920E-02 0. -1.
</event>
<event>
 5   0  0.5735179E-07  0.3914445E+04  0.7818609E-02  0.8022032E-01
       -2   -1    0    0    0  501  0.00000000000E+00  0.00000000000E+00  0.28189547773E+04  0.28189547773E+04  0.25500000920E-02 0.  1.
        2   -1    0    0  501    0  0.00000000000E+00  0.00000000000E+00 -0.13589147861E+04  0.13589147861E+04  0.25500000920E-02 0. -1.
    10030    2    1    2    0    0  0.00000000000E+00  0.00000000000E+00  0.14600399913E+04  0.41778695634E+04  0.39144447004E+04 0.  0.
        5    1    3    3  502    0 -0.55427517745E+03 -0.17592219378E+04  0.14287640307E+04  0.23331248454E+04  0.46999998093E+01 0.  1.
       -5    1    3    3    0  502  0.55427517745E+03  0.17592219378E+04  0.31275960529E+02  0.18447447180E+04  0.46999998093E+01 0. -1.
</event>
<event>
 5   0  0.3959190E-07  0.3961482E+04  0.7818609E-02  0.8012362E-01
       -2   -1    0    0    0  501  0.00000000000E+00  0.00000000000E+00  0.18332432840E+04  0.18332432840E+04  0.25500000920E-02 0.  1.
        2   -1    0    0  501    0  0.00000000000E+00  0.00000000000E+00 -0.21401057689E+04  0.21401057689E+04  0.25500000920E-02 0. -1.
    10030    2    1    2    0    0  0.00000000000E+00  0.00000000000E+00 -0.30686248494E+03  0.39733490529E+04  0.39614818076E+04 0.  0.
        2    1    3    3  502    0  0.29434523507E+03 -0.42873121584E+03 -0.20704088963E+04  0.21347230665E+04  0.25500000920E-02 0. -1.
       -2    1    3    3    0  502 -0.29434523507E+03  0.42873121584E+03  0.17635464114E+04  0.18386259864E+04  0.25500000920E-02 0.  1.
</event>
<event>
 5   0  0.1943459E-07  0.3816509E+04  0.7818609E-02  0.8042621E-01
       -1   -1    0    0    0  501  0.00000000000E+00  0.00000000000E+00  0.18826031380E+04  0.18826031380E+04  0.50400001928E-02 0.  1.
        1   -1    0    0  501    0  0.00000000000E+00  0.00000000000E+00 -0.19342549183E+04  0.19342549183E+04  0.50400001928E-02 0. -1.
    10030    2    1    2    0    0  0.00000000000E+00  0.00000000000E+00 -0.51651780234E+02  0.38168580563E+04  0.38165085504E+04 0.  0.
        2    1    3    3  502    0  0.10664962566E+04 -0.37684337352E+03  0.15111977982E+04  0.18876291952E+04  0.25500000920E-02 0.  1.
       -2    1    3    3    0  502 -0.10664962566E+04  0.37684337352E+03 -0.15628495784E+04  0.19292288610E+04  0.25500000920E-02 0. -1.
</event>
<event>
 5   0  0.1860500E-07  0.2958000E+04  0.7818609E-02  0.8255827E-01
       -3   -1    0    0    0  501  0.00000000000E+00  0.00000000000E+00  0.17982330695E+04  0.17982330724E+04  0.10100000352E+00 0. -1.
        3   -1    0    0  501    0  0.00000000000E+00  0.00000000000E+00 -0.12164390609E+04  0.12164390651E+04  0.10100000352E+00 0.  1.
    10030    2    1    2    0    0  0.00000000000E+00  0.00000000000E+00  0.58179400858E+03  0.30146721375E+04  0.29579999709E+04 0.  0.
        1    1    3    3  502    0 -0.10238111487E+04  0.25725450307E+03 -0.76484138659E+03  0.13035917667E+04  0.50400001928E-02 0.  1.
       -1    1    3    3    0  502  0.10238111487E+04 -0.25725450307E+03  0.13466353952E+04  0.17110803708E+04  0.50400001928E-02 0. -1.
</event>
<event>
 5   0  0.2666813E-07  0.3683739E+04  0.7818609E-02  0.8071575E-01
       -1   -1    0    0    0  501  0.00000000000E+00  0.00000000000E+00  0.14625088451E+04  0.14625088451E+04  0.50400001928E-02 0. -1.
        1   -1    0    0  501    0  0.00000000000E+00  0.00000000000E+00 -0.23196324290E+04  0.23196324290E+04  0.50400001928E-02 0.  1.
    10030    2    1    2    0    0  0.00000000000E+00  0.00000000000E+00 -0.85712358384E+03  0.37821412741E+04  0.36837388316E+04 0.  0.
        1    1    3    3  502    0  0.44485149709E+03 -0.43651488100E+03 -0.22080787087E+04  0.22943516905E+04  0.50400001928E-02 0.  1.
       -1    1    3    3    0  502 -0.44485149709E+03  0.43651488100E+03  0.13509551248E+04  0.14877895836E+04  0.50400001928E-02 0. -1.
</event>
<event>
 5   0  0.3959190E-07  0.2692943E+04  0.7818609E-02  0.8337298E-01
       -2   -1    0    0    0  501  0.00000000000E+00  0.00000000000E+00  0.18655139431E+04  0.18655139431E+04  0.25500000920E-02 0.  1.
        2   -1    0    0  501    0  0.00000000000E+00  0.00000000000E+00 -0.97184224365E+03  0.97184224365E+03  0.25500000920E-02 0. -1.
    10030    2    1    2    0    0  0.00000000000E+00  0.00000000000E+00  0.89367169949E+03  0.28373561868E+04  0.26929428186E+04 0.  0.
        2    1    3    3  502    0  0.17114740256E+02  0.94313754087E+03 -0.56551451186E+03  0.10998218030E+04  0.25500000920E-02 0. -1.
       -2    1    3    3    0  502 -0.17114740256E+02 -0.94313754087E+03  0.14591862113E+04  0.17375343838E+04  0.25500000920E-02 0.  1.
</event>
<event>
 5   0  0.6095665E-07  0.3933208E+04  0.7818609E-02  0.8018158E-01
       -2   -1    0    0    0  501  0.00000000000E+00  0.00000000000E+00  0.19477570889E+04  0.19477570889E+04  0.25500000920E-02 0.  1.
        2   -1    0    0  501    0  0.00000000000E+00  0.00000000000E+00 -0.19856333772E+04  0.19856333772E+04  0.25500000920E-02 0. -1.
    10030    2    1    2    0    0  0.00000000000E+00  0.00000000000E+00 -0.37876288347E+02  0.39333904661E+04  0.39332080984E+04 0.  0.
        4    1    3    3  502    0  0.44024352561E+03 -0.93926142851E+03 -0.16897949151E+04  0.19827846229E+04  0.12699999809E+01 0. -1.
       -4    1    3    3    0  502 -0.44024352561E+03  0.93926142851E+03  0.16519186268E+04  0.19506058431E+04  0.12699999809E+01 0.  1.
</event>
<event>
 5   0  0.6095665E-07  0.3901959E+04  0.7818609E-02  0.8024622E-01
        2   -1    0    0  501    0  0.00000000000E+00  0.00000000000E+00  0.22290295242E+04  0.22290295242E+04  0.25500000920E-02 0.  1.
       -2   -1    0    0    0  501  0.00000000000E+00  0.00000000000E+00 -0.17076133319E+04  0.17076133319E+04  0.25500000920E-02 0. -1.
    10030    2    1    2    0    0  0.00000000000E+00  0.00000000000E+00  0.52141619235E+03  0.39366428561E+04  0.39019587557E+04 0.  0.
        4    1    3    3  502    0  0.82943853277E+03 -0.15095537404E+04 -0.66373264440E+03  0.18458774095E+04  0.12699999809E+01 0.  1.
       -4    1    3    3    0  502 -0.82943853277E+03  0.15095537404E+04  0.11851488367E+04  0.20907654466E+04  0.12699999809E+01 0. -1.
</event>
<event>
 5   0  0.6095665E-07  0.3168554E+04  0.7818609E-02  0.8197172E-01
       -2   -1    0    0    0  501  0.00000000000E+00  0.00000000000E+00  0.16974785970E+04  0.16974785970E+04  0.25500000920E-02 0.  1.
        2   -1    0    0  501    0  0.00000000000E+00  0.00000000000E+00 -0.14786246587E+04  0.14786246587E+04  0.25500000920E-02 0. -1.
    10030    2    1    2    0    0  0.00000000000E+00  0.00000000000E+00  0.21885393829E+03  0.31761032556E+04  0.31685540621E+04 0.  0.
        4    1    3    3  502    0 -0.24619046299E+03 -0.11771083115E+04  0.11432611942E+04  0.16592894540E+04  0.12699999809E+01 0.  1.
       -4    1    3    3    0  502  0.24619046299E+03  0.11771083115E+04 -0.92440725590E+03  0.15168138016E+04  0.12699999809E+01 0. -1.
</event>
<event>
 5   0  0.5735179E-07  0.2511698E+04  0.7818609E-02  0.8398830E-01
       -2   -1    0    0    0  501  0.00000000000E+00  0.00000000000E+00  0.11805288573E+04  0.11805288574E+04  0.25500000920E-02 0. -1.
        2   -1    0    0  501    0  0.00000000000E+00  0.00000000000E+00 -0.13359742180E+04  0.13359742180E+04  0.25500000920E-02 0.  1.
    10030    2    1    2    0    0  0.00000000000E+00  0.00000000000E+00 -0.15544536068E+03  0.25165030754E+04  0.25116975272E+04 0.  0.
        5    1    3    3  502    0  0.11327949001E+04 -0.32300094111E+03 -0.51396374020E+03  0.12851983154E+04  0.46999998093E+01 0.  1.
       -5    1    3    3    0  502 -0.11327949001E+04  0.32300094111E+03  0.35851837952E+03  0.12313047600E+04  0.46999998093E+01 0. -1.
</event>
<event>
 5   0  0.5735179E-07  0.2766911E+04  0.7818609E-02  0.8313615E-01
        2   -1    0    0  501    0  0.00000000000E+00  0.00000000000E+00  0.12713228517E+04  0.12713228517E+04  0.25500000920E-02 0.  1.
       -2   -1    0    0    0  501  0.00000000000E+00  0.00000000000E+00 -0.15054786797E+04  0.15054786797E+04  0.25500000920E-02 0. -1.
    10030    2    1    2    0    0  0.00000000000E+00  0.00000000000E+00 -0.23415582801E+03  0.27768015315E+04  0.27669112370E+04 0.  0.
        5    1    3    3  502    0  0.18426806034E+03 -0.13088239579E+04  0.29298081409E+03  0.13538222624E+04  0.46999998093E+01 0.  1.
       -5    1    3    3    0  502 -0.18426806034E+03  0.13088239579E+04 -0.52713664210E+03  0.14229792691E+04  0.46999998093E+01 0. -1.
</event>
<event>
 5   0  0.6095665E-07  0.2420201E+04  0.7818609E-02  0.8431979E-01
       -2   -1    0    0    0  501  0.00000000000E+00  0.00000000000E+00  0.14479452805E+04  0.14479452805E+04  0.25500000920E-02 0. -1.
        2   -1    0    0  501    0  0.00000000000E+00  0.00000000000E+00 -0.10113246372E+04  0.10113246372E+04  0.25500000920E-02 0.  1.
    10030    2    1    2    0    0  0.00000000000E+00  0.00000000000E+00  0.43662064332E+03  0.24592699176E+04  0.24202005995E+04 0.  0.
        4    1    3    3  502    0 -0.32400713067E+03 -0.18275582784E+03 -0.95178212883E+03  0.10218958592E+04  0.12699999809E+01 0.  1.
       -4    1    3    3    0  502  0.32400713067E+03  0.18275582784E+03  0.13884027721E+04  0.14373740585E+04  0.12699999809E+01 0. -1.
</event>
<event>
 5   0  0.5735179E-07  0.3895249E+04  0.7818609E-02  0.8026018E-01
        2   -1    0    0  501    0  0.00000000000E+00  0.00000000000E+00  0.16627862282E+04  0.16627862282E+04  0.25500000920E-02 0. -1.
       -2   -1    0    0    0  501  0.00000000000E+00  0.00000000000E+00 -0.22812558668E+04  0.22812558668E+04  0.25500000920E-02 0.  1.
    10030    2    1    2    0    0  0.00000000000E+00  0.00000000000E+00 -0.61846963866E+03  0.39440420950E+04  0.38952488179E+04 0.  0.
        5    1    3    3  502    0  0.10626996060E+04 -0.58700875021E+03 -0.18512393363E+04  0.22138244952E+04  0.46999998093E+01 0.  1.
       -5    1    3    3    0  502 -0.10626996060E+04  0.58700875021E+03  0.12327696976E+04  0.17302175998E+04  0.46999998093E+01 0. -1.
</event>
<event>
 5   0  0.6095665E-07  0.3794627E+04  0.7818609E-02  0.8047309E-01
       -2   -1    0    0    0  501  0.00000000000E+00  0.00000000000E+00  0.13141562039E+04  0.13141562039E+04  0.25500000920E-02 0. -1.
        2   -1    0    0  501    0  0.00000000000E+00  0.00000000000E+00 -0.27392475893E+04  0.27392475893E+04  0.25500000920E-02 0.  1.
    10030    2    1    2    0    0  0.00000000000E+00  0.00000000000E+00 -0.14250913854E+04  0.40534037932E+04  0.37946273670E+04 0.  0.
        4    1    3    3  502    0 -0.17551568412E+04  0.71359264128E+03 -0.60568553011E+03  0.19891321145E+04  0.12699999809E+01 0. -1.
       -4    1    3    3    0  502  0.17551568412E+04 -0.71359264128E+03 -0.81940585533E+03  0.20642716787E+04  0.12699999809E+01 0.  1.
</event>
<event>
 5   0  0.2666813E-07  0.3992922E+04  0.7818609E-02  0.8005976E-01
        1   -1    0    0  501    0  0.00000000000E+00  0.00000000000E+00  0.23612282753E+04  0.23612282753E+04  0.50400001928E-02 0. -1.
       -1   -1    0    0    0  501  0.00000000000E+00  0.00000000000E+00 -0.16880434046E+04  0.16880434046E+04  0.50400001928E-02 0.  1.
    10030    2    1    2    0    0  0.00000000000E+00  0.00000000000E+00  0.67318487075E+03  0.40492716799E+04  0.39929216456E+04 0.  0.
        1    1    3    3  502    0  0.64546520207E+03 -0.16614500154E+04  0.12486254263E+04  0.21762598503E+04  0.50400001928E-02 0. -1.
       -1    1    3    3    0  502 -0.64546520207E+03  0.16614500154E+04 -0.57544055555E+03  0.18730118296E+04  0.50400001928E-02 0.  1.
</event>
<event>
 5   0  0.5872444E-07  0.3884545E+04  0.7818609E-02  0.8028251E-01
       -2   -1    0    0    0  501  0.00000000000E+00  0.00000000000E+00  0.19887655503E+04  0.19887655503E+04  0.25500000920E-02 0. -1.
        2   -1    0    0  501    0  0.00000000000E+00  0.00000000000E+00 -0.18968660766E+04  0.18968660766E+04  0.25500000920E-02 0.  1.
    10030    2    1    2    0    0  0.00000000000E+00  0.00000000000E+00  0.91899473721E+02  0.38856316269E+04  0.38845447130E+04 0.  0.
        3    1    3    3  502    0 -0.71023609012E+03 -0.39364142424E+03 -0.17189228785E+04  0.19010746295E+04  0.10100000352E+00 0.  1.
       -3    1    3    3    0  502  0.71023609012E+03  0.39364142424E+03  0.18108223522E+04  0.19845569974E+04  0.10100000352E+00 0. -1.
</event>
<event>
 5   0  0.5805753E-07  0.3744232E+04  0.7818609E-02  0.8058230E-01
       -2   -1    0    0    0  501  0.00000000000E+00  0.00000000000E+00  0.17364259771E+04  0.17364259771E+04  0.25500000920E-02 0.  1.
        2   -1    0    0  501    0  0.00000000000E+00  0.00000000000E+00 -0.20184091507E+04  0.20184091507E+04  0.25500000920E-02 0. -1.
    10030    2    1    2    0    0  0.00000000000E+00  0.00000000000E+00 -0.28198317356E+03  0.37548351278E+04  0.37442318741E+04 0.  0.
        1    1    3    3  502    0 -0.18188830085E+04 -0.43705615479E+03 -0.66859308593E+02  0.18718503274E+04  0.50400001928E-02 0.  1.
       -1    1    3    3    0  502  0.18188830085E+04  0.43705615479E+03 -0.21512386496E+03  0.18829848004E+04  0.50400001928E-02 0. -1.
</event>
<event>
 5   0  0.1860500E-07  0.3112510E+04  0.7818609E-02  0.8212313E-01
       -1   -1    0    0    0  501  0.00000000000E+00  0.00000000000E+00  0.17474658582E+04  0.17474658582E+04  0.50400001928E-02 0.  1.
        1   -1    0    0  501    0  0.00000000000E+00  0.00000000000E+00 -0.13859664092E+04  0.13859664093E+04  0.50400001928E-02 0. -1.
    10030    2    1    2    0    0  0.00000000000E+00  0.00000000000E+00  0.36149944890E+03  0.31334322674E+04  0.31125095860E+04 0.  0.
        4    1    3    3  502    0  0.10142663719E+04  0.99868133963E+02  0.13647582877E+04  0.17033134515E+04  0.12699999809E+01 0.  1.
       -4    1    3    3    0  502 -0.10142663719E+04 -0.99868133963E+02 -0.10032588387E+04  0.14301188160E+04  0.12699999809E+01 0. -1.
</event>
<event>
 5   0  0.5872444E-07  0.4114541E+04  0.7818609E-02  0.7981830E-01
       -2   -1    0    0    0  501  0.00000000000E+00  0.00000000000E+00  0.27249596055E+04  0.27249596055E+04  0.25500000920E-02 0. -1.
        2   -1    0    0  501    0  0.00000000000E+00  0.00000000000E+00 -0.15531837176E+04  0.15531837176E+04  0.25500000920E-02 0.  1.
    10030    2    1    2    0    0  0.00000000000E+00  0.00000000000E+00  0.11717758878E+04  0.42781433231E+04  0.41145414765E+04 0.  0.
        3    1    3    3  502    0  0.18016624850E+04 -0.99307409990E+03  0.57197677816E+03  0.21352614179E+04  0.10100000352E+00 0.  1.
       -3    1    3    3    0  502 -0.18016624850E+04  0.99307409990E+03  0.59979910968E+03  0.21428819052E+04  0.10100000352E+00 0. -1.
</event>
<event>
 5   0  0.5805753E-07  0.3851071E+04  0.7818609E-02  0.8035283E-01
       -2   -1    0    0    0  501  0.00000000000E+00  0.00000000000E+00  0.21348080643E+04  0.21348080643E+04  0.25500000920E-02 0.  1.
        2   -1    0    0  501    0  0.00000000000E+00  0.00000000000E+00 -0.17367779933E+04  0.17367779933E+04  0.25500000920E-02 0. -1.
    10030    2    1    2    0    0  0.00000000000E+00  0.00000000000E+00  0.39803007092E+03  0.38715860576E+04  0.38510713657E+04 0.  0.
        1    1    3    3  502    0 -0.44134448874E+03 -0.97794627950E+03  0.18064457741E+04  0.21010497896E+04  0.50400001928E-02 0.  1.
       -1    1    3    3    0  502  0.44134448874E+03  0.97794627950E+03 -0.14084157032E+04  0.17705362680E+04  0.50400001928E-02 0. -1.
</event>
<event>
 5   0  0.1943459E-07  0.3359427E+04  0.7818609E-02  0.8147937E-01
        1   -1    0    0  501    0  0.00000000000E+00  0.00000000000E+00  0.19294710113E+04  0.19294710113E+04  0.50400001928E-02 0. -1.
       -1   -1    0    0    0  501  0.00000000000E+00  0.00000000000E+00 -0.14622854770E+04  0.14622854770E+04  0.50400001928E-02 0.  1.
    10030    2    1    2    0    0  0.00000000000E+00  0.00000000000E+00  0.46718553439E+03  0.33917564883E+04  0.33594269976E+04 0.  0.
        2    1    3    3  502    0  0.11788677656E+04 -0.11850852826E+04  0.66833333423E+02  0.16729085541E+04  0.25500000920E-02 0.  1.
       -2    1    3    3    0  502 -0.11788677656E+04  0.11850852826E+04  0.40035220097E+03  0.17188479342E+04  0.25500000920E-02 0. -1.
</event>
<event>
 5   0  0.5735179E-07  0.3875171E+04  0.7818609E-02  0.8030213E-01
        2   -1    0    0  501    0  0.00000000000E+00  0.00000000000E+00  0.13532692833E+04  0.13532692833E+04  0.25500000920E-02 0.  1.
       -2   -1    0    0    0  501  0.00000000000E+00  0.00000000000E+00 -0.27741978741E+04  0.27741978741E+04  0.25500000920E-02 0. -1.
    10030    2    1    2    0    0  0.00000000000E+00  0.00000000000E+00 -0.14209285908E+04  0.41274671574E+04  0.38751705866E+04 0.  0.
        5    1    3    3  502    0  0.79673533522E+03  0.66761577332E+03 -0.24520726225E+04  0.26633025084E+04  0.46999998093E+01 0. -1.
       -5    1    3    3    0  502 -0.79673533522E+03 -0.66761577332E+03  0.10311440317E+04  0.14641646490E+04  0.46999998093E+01 0.  1.
</event>
<event>
 5   0  0.2666813E-07  0.3171431E+04  0.7818609E-02  0.8196403E-01
        1   -1    0    0  501    0  0.00000000000E+00  0.00000000000E+00  0.25402757571E+04  0.25402757571E+04  0.50400001928E-02 0.  1.
       -1   -1    0    0    0  501  0.00000000000E+00  0.00000000000E+00 -0.98985089412E+03  0.98985089413E+03  0.50400001928E-02 0. -1.
    10030    2    1    2    0    0  0.00000000000E+00  0.00000000000E+00  0.15504248630E+04  0.35301266512E+04  0.31714313674E+04 0.  0.
        1    1    3    3  502    0  0.11499488276E+04  0.27588231852E+03  0.19511038912E+04  0.22815126022E+04  0.50400001928E-02 0.  1.
       -1    1    3    3    0  502 -0.11499488276E+04 -0.27588231852E+03 -0.40067902819E+03  0.12486140490E+04  0.50400001928E-02 0. -1.
</event>
<event>
 5   0  0.5805753E-07  0.3837142E+04  0.7818609E-02  0.8038231E-01
        2   -1    0    0  501    0  0.00000000000E+00  0.00000000000E+00  0.23173412693E+04  0.23173412693E+04  0.25500000920E-02 0.  1.
       -2   -1    0    0    0  501  0.00000000000E+00  0.00000000000E+00 -0.15884212765E+04  0.15884212766E+04  0.25500000920E-02 0. -1.
    10030    2    1    2    0    0  0.00000000000E+00  0.00000000000E+00  0.72891999275E+03  0.39057625459E+04  0.38371417369E+04 0.  0.
        1    1    3    3  502    0 -0.75168389918E+03 -0.27849897846E+03 -0.14097908602E+04  0.16217585008E+04  0.50400001928E-02 0. -1.
       -1    1    3    3    0  502  0.75168389918E+03  0.27849897846E+03  0.21387108530E+04  0.22840040451E+04  0.50400001928E-02 0.  1.
</event>
<event>
 5   0  0.3959190E-07  0.3895766E+04  0.7818609E-02  0.8025910E-01
        2   -1    0    0  501    0  0.00000000000E+00  0.00000000000E+00  0.16114982898E+04  0.16114982898E+04  0.25500000920E-02 0.  1.
       -2   -1    0    0    0  501  0.00000000000E+00  0.00000000000E+00 -0.23544842865E+04  0.23544842865E+04  0.25500000920E-02 0. -1.
    10030    2    1    2    0    0  0.00000000000E+00  0.00000000000E+00 -0.74298599668E+03  0.39659825763E+04  0.38957655992E+04 0.  0.
        2    1    3    3  502    0 -0.11070443563E+04 -0.16007624895E+04 -0.45203694137E+03  0.19980803665E+04  0.25500000920E-02 0. -1.
       -2    1    3    3    0  502  0.11070443563E+04  0.16007624895E+04 -0.29094905531E+03  0.19679022098E+04  0.25500000920E-02 0.  1.
</event>
<event>
 5   0  0.1860500E-07  0.3910489E+04  0.7818609E-02  0.8022851E-01
       -1   -1    0    0    0  501  0.00000000000E+00  0.00000000000E+00  0.12068664596E+04  0.12068664596E+04  0.50400001928E-02 0. -1.
        1   -1    0    0  501    0  0.00000000000E+00  0.00000000000E+00 -0.31676916978E+04  0.31676916978E+04  0.50400001928E-02 0.  1.
    10030    2    1    2    0    0  0.00000000000E+00  0.00000000000E+00 -0.19608252382E+04  0.43745581573E+04  0.39104889026E+04 0.  0.
        5    1    3    3  502    0 -0.51697409967E+03 -0.98418679807E+03 -0.27797287370E+04  0.29937935491E+04  0.46999998093E+01 0.  1.
       -5    1    3    3    0  502  0.51697409967E+03  0.98418679807E+03  0.81890349875E+03  0.13807646083E+04  0.46999998093E+01 0. -1.
</event>
<event>
 5   0  0.1876027E-07  0.4106853E+04  0.7818609E-02  0.7983331E-01
       -1   -1    0    0    0  501  0.00000000000E+00  0.00000000000E+00  0.19872653843E+04  0.19872653843E+04  0.50400001928E-02 0. -1.
        1   -1    0    0  501    0  0.00000000000E+00  0.00000000000E+00 -0.21217907816E+04  0.21217907816E+04  0.50400001928E-02 0.  1.
    10030    2    1    2    0    0  0.00000000000E+00  0.00000000000E+00 -0.13452539730E+03  0.41090561659E+04  0.41068534782E+04 0.  0.
        3    1    3    3  502    0  0.24560739247E+03 -0.11227175995E+04  0.16353384371E+04  0.19987870356E+04  0.10100000352E+00 0. -1.
       -3    1    3    3    0  502 -0.24560739247E+03  0.11227175995E+04 -0.17698638344E+04  0.21102691303E+04  0.10100000352E+00 0.  1.
</event>
<event>
 5   0  0.5805753E-07  0.3429343E+04  0.7818609E-02  0.8130742E-01
       -2   -1    0    0    0  501  0.00000000000E+00  0.00000000000E+00  0.14988699254E+04  0.14988699254E+04  0.25500000920E-02 0. -1.
        2   -1    0    0  501    0  0.00000000000E+00  0.00000000000E+00 -0.19615431877E+04  0.19615431877E+04  0.25500000920E-02 0.  1.
    10030    2    1    2    0    0  0.00000000000E+00  0.00000000000E+00 -0.46267326238E+03  0.34604131131E+04  0.34293428475E+04 0.  0.
        1    1    3    3  502    0  0.69635317448E+03  0.45754422490E+03 -0.17435281594E+04  0.19323935686E+04  0.50400001928E-02 0.  1.
       -1    1    3    3    0  502 -0.69635317448E+03 -0.45754422490E+03  0.12808548970E+04  0.15280195445E+04  0.50400001928E-02 0. -1.
</event>
<event>
 5   0  0.5735179E-07  0.3926188E+04  0.7818609E-02  0.8019605E-01
        2   -1    0    0  501    0  0.00000000000E+00  0.00000000000E+00  0.20083601036E+04  0.20083601036E+04  0.25500000920E-02 0.  1.
       -2   -1    0    0    0  501  0.00000000000E+00  0.00000000000E+00 -0.19188482313E+04  0.19188482313E+04  0.25500000920E-02 0. -1.
    10030    2    1    2    0    0  0.00000000000E+00  0.00000000000E+00  0.89511872284E+02  0.39272083349E+04  0.39261880915E+04 0.  0.
        5    1    3    3  502    0  0.49399017460E+03  0.13451037247E+04  0.13868891721E+04  0.19941950729E+04  0.46999998093E+01 0.  1.
       -5    1    3    3    0  502 -0.49399017460E+03 -0.13451037247E+04 -0.12973772999E+04  0.19330132620E+04  0.46999998093E+01 0. -1.
</event>
<event>
 5   0  0.1860500E-07  0.3870981E+04  0.7818609E-02  0.8031092E-01
       -1   -1    0    0    0  501  0.00000000000E+00  0.00000000000E+00  0.13977976725E+04  0.13977976725E+04  0.50400001928E-02 0. -1.
        1   -1    0    0  501    0  0.00000000000E+00  0.00000000000E+00 -0.26800185442E+04  0.26800185442E+04  0.50400001928E-02 0.  1.
    10030    2    1    2    0    0  0.00000000000E+00  0.00000000000E+00 -0.12822208717E+04  0.40778162167E+04  0.38709811074E+04 0.  0.
        5    1    3    3  502    0 -0.52725361737E+03  0.17511772201E+04  0.26372980725E+02  0.18290258766E+04  0.46999998093E+01 0. -1.
       -5    1    3    3    0  502  0.52725361737E+03 -0.17511772201E+04 -0.13085938524E+04  0.22487903401E+04  0.46999998093E+01 0.  1.
</event>
<event>
 5   0  0.6095665E-07  0.3894594E+04  0.7818609E-02  0.8026154E-01
        2   -1    0    0  501    0  0.00000000000E+00  0.00000000000E+00  0.25790007055E+04  0.25790007055E+04  0.25500000920E-02 0. -1.
       -2   -1    0    0    0  501  0.00000000000E+00  0.00000000000E+00 -0.14703239509E+04  0.14703239509E+04  0.25500000920E-02 0.  1.
    10030    2    1    2    0    0  0.00000000000E+00  0.00000000000E+00  0.11086767546E+04  0.40493246565E+04  0.38945944625E+04 0.  0.
        4    1    3    3  502    0  0.75034439299E+03  0.17939294847E+04  0.66221595927E+03  0.20541984553E+04  0.12699999809E+01 0. -1.
       -4    1    3    3    0  502 -0.75034439299E+03 -0.17939294847E+04  0.44646079536E+03  0.19951262012E+04  0.12699999809E+01 0.  1.
</event>
<event>
 5   0  0.1860500E-07  0.3556329E+04  0.7818609E-02  0.8100569E-01
       -1   -1    0    0    0  501  0.00000000000E+00  0.00000000000E+00  0.11768088693E+04  0.11768088693E+04  0.50400001928E-02 0.  1.
        1   -1    0    0  501    0  0.00000000000E+00  0.00000000000E+00 -0.26868164328E+04  0.26868164328E+04  0.50400001928E-02 0. -1.
    10030    2    1    2    0    0  0.00000000000E+00  0.00000000000E+00 -0.15100075635E+04  0.38636253021E+04  0.35563292358E+04 0.  0.
        4    1    3    3  502    0 -0.14520261815E+04  0.81168347084E+03 -0.72502713459E+02  0.16650730750E+04  0.12699999809E+01 0.  1.
       -4    1    3    3    0  502  0.14520261815E+04 -0.81168347084E+03 -0.14375048500E+04  0.21985522271E+04  0.12699999809E+01 0. -1.
</event>
<event>
 5   0  0.5805753E-07  0.3936163E+04  0.7818609E-02  0.8017550E-01
        2   -1    0    0  501    0  0.00000000000E+00  0.00000000000E+00  0.22660104278E+04  0.22660104278E+04  0.25500000920E-02 0. -1.
       -2   -1    0    0    0  501  0.00000000000E+00  0.00000000000E+00 -0.17093238707E+04  0.17093238707E+04  0.25500000920E-02 0.  1.
    10030    2    1    2    0    0  0.00000000000E+00  0.00000000000E+00  0.55668655715E+03  0.39753342985E+04  0.39361634699E+04 0.  0.
        1    1    3    3  502    0 -0.14100018504E+04 -0.94540833022E+03 -0.72727818245E+03  0.18468447914E+04  0.50400001928E-02 0.  1.
       -1    1    3    3    0  502  0.14100018504E+04  0.94540833022E+03  0.12839647396E+04  0.21284895070E+04  0.50400001928E-02 0. -1.
</event>
<event>
 5   0  0.3959190E-07  0.3819103E+04  0.7818609E-02  0.8042068E-01
        2   -1    0    0  501    0  0.00000000000E+00  0.00000000000E+00  0.17781994047E+04  0.17781994047E+04  0.25500000920E-02 0. -1.
       -2   -1    0    0    0  501  0.00000000000E+00  0.00000000000E+00 -0.20506061765E+04  0.20506061765E+04  0.25500000920E-02 0.  1.
    10030    2    1    2    0    0  0.00000000000E+00  0.00000000000E+00 -0.27240677179E+03  0.38288055813E+04  0.38191028698E+04 0.  0.
        2    1    3    3  502    0  0.92364751625E+03 -0.75618966346E+03 -0.16304392903E+04  0.20207127012E+04  0.25500000920E-02 0.  1.
       -2    1    3    3    0  502 -0.92364751625E+03  0.75618966346E+03  0.13580325185E+04  0.18080928800E+04  0.25500000920E-02 0. -1.
</event>
<event>
 5   0  0.3959190E-07  0.3907792E+04  0.7818609E-02  0.8023411E-01
        2   -1    0    0  501    0  0.00000000000E+00  0.00000000000E+00  0.15899813735E+04  0.15899813735E+04  0.25500000920E-02 0.  1.
       -2   -1    0    0    0  501  0.00000000000E+00  0.00000000000E+00 -0.24011030823E+04  0.24011030823E+04  0.25500000920E-02 0. -1.
    10030    2    1    2    0    0  0.00000000000E+00  0.00000000000E+00 -0.81112170872E+03  0.39910844558E+04  0.39077917942E+04 0.  0.
        2    1    3    3  502    0  0.10177784647E+04  0.51857755427E+02 -0.21081711559E+04  0.23415695276E+04  0.25500000920E-02 0. -1.
       -2    1    3    3    0  502 -0.10177784647E+04 -0.51857755427E+02  0.12970494471E+04  0.16495149282E+04  0.25500000920E-02 0.  1.
</event>
<event>
 5   0  0.3959190E-07  0.3820184E+04  0.7818609E-02  0.8041837E-01
        2   -1    0    0  501    0  0.00000000000E+00  0.00000000000E+00  0.25681141251E+04  0.25681141251E+04  0.25500000920E-02 0.  1.
       -2   -1    0    0    0  501  0.00000000000E+00  0.00000000000E+00 -0.14206736745E+04  0.14206736745E+04  0.25500000920E-02 0. -1.
    10030    2    1    2    0    0  0.00000000000E+00  0.00000000000E+00  0.11474404505E+04  0.39887877996E+04  0.38201843571E+04 0.  0.
        2    1    3    3  502    0 -0.13108408750E+04 -0.11492550870E+04 -0.24134800529E+03  0.17599261104E+04  0.25500000920E-02 0. -1.
       -2    1    3    3    0  502  0.13108408750E+04  0.11492550870E+04  0.13887884558E+04  0.22288616892E+04  0.25500000920E-02 0.  1.
</event>
<event>
 5   0  0.5805753E-07  0.3541458E+04  0.7818609E-02  0.8104035E-01
        2   -1    0    0  501    0  0.00000000000E+00  0.00000000000E+00  0.22831536458E+04  0.22831536458E+04  0.25500000920E-02 0. -1.
       -2   -1    0    0    0  501  0.00000000000E+00  0.00000000000E+00 -0.13733113875E+04  0.13733113875E+04  0.25500000920E-02 0.  1.
    10030    2    1    2    0    0  0.00000000000E+00  0.00000000000E+00  0.90984225832E+03  0.36564650332E+04  0.35414578360E+04 0.  0.
        1    1    3    3  502    0  0.59149253377E+03 -0.15328796253E+04 -0.22674475175E+03  0.16586128378E+04  0.50400001928E-02 0. -1.
       -1    1    3    3    0  502 -0.59149253377E+03  0.15328796253E+04  0.11365870101E+04  0.19978521954E+04  0.50400001928E-02 0.  1.
</event>
<event>
 5   0  0.1860500E-07  0.3715442E+04  0.7818609E-02  0.8064548E-01
       -1   -1    0    0    0  501  0.00000000000E+00  0.00000000000E+00  0.18414062138E+04  0.18414062138E+04  0.50400001928E-02 0. -1.
        1   -1    0    0  501    0  0.00000000000E+00  0.00000000000E+00 -0.18741802397E+04  0.18741802397E+04  0.50400001928E-02 0.  1.
    10030    2    1    2    0    0  0.00000000000E+00  0.00000000000E+00 -0.32774025882E+02  0.37155864535E+04  0.37154419059E+04 0.  0.
        5    1    3    3  502    0  0.14342989798E+04  0.80109679523E+03  0.85090413456E+03  0.18501431228E+04  0.46999998093E+01 0. -1.
       -5    1    3    3    0  502 -0.14342989798E+04 -0.80109679523E+03 -0.88367816044E+03  0.18654433307E+04  0.46999998093E+01 0.  1.
</event>
<event>
 5   0  0.2666813E-07  0.3053712E+04  0.7818609E-02  0.8228557E-01
        1   -1    0    0  501    0  0.00000000000E+00  0.00000000000E+00  0.12289179934E+04  0.12289179934E+04  0.50400001928E-02 0.  1.
       -1   -1    0    0    0  501  0.00000000000E+00  0.00000000000E+00 -0.18970256873E+04  0.18970256873E+04  0.50400001928E-02 0. -1.
    10030    2    1    2    0    0  0.00000000000E+00  0.00000000000E+00 -0.66810769385E+03  0.31259436807E+04  0.30537118404E+04 0.  0.
        1    1    3    3  502    0 -0.12781839986E+04 -0.41484122174E+03 -0.10760732327E+04  0.17215635845E+04  0.50400001928E-02 0. -1.
       -1    1    3    3    0  502  0.12781839986E+04  0.41484122174E+03  0.40796553880E+03  0.14043800961E+04  0.50400001928E-02 0.  1.
</event>
<event>
 5   0  0.5805753E-07  0.2696185E+04  0.7818609E-02  0.8336244E-01
       -2   -1    0    0    0  501  0.00000000000E+00  0.00000000000E+00  0.13362035243E+04  0.13362035243E+04  0.25500000920E-02 0. -1.
        2   -1    0    0  501    0  0.00000000000E+00  0.00000000000E+00 -0.13600875112E+04  0.13600875112E+04  0.25500000920E-02 0.  1.
    10030    2    1    2    0    0  0.00000000000E+00  0.00000000000E+00 -0.23883986892E+02  0.26962910355E+04  0.26961852502E+04 0.  0.
        1    1    3    3  502    0 -0.11296953970E+03 -0.66844696724E+03  0.11533377188E+04  0.13378233660E+04  0.50400001928E-02 0. -1.
       -1    1    3    3    0  502  0.11296953970E+03  0.66844696724E+03 -0.11772217057E+04  0.13584676696E+04  0.50400001928E-02 0.  1.
</event>
<event>
 5   0  0.1943459E-07  0.2524831E+04  0.7818609E-02  0.8394192E-01
        1   -1    0    0  501    0  0.00000000000E+00  0.00000000000E+00  0.20063816064E+04  0.20063816064E+04  0.50400001928E-02 0. -1.
       -1   -1    0    0    0  501  0.00000000000E+00  0.00000000000E+00 -0.79431201654E+03  0.79431201655E+03  0.50400001928E-02 0.  1.
    10030    2    1    2    0    0  0.00000000000E+00  0.00000000000E+00  0.12120695899E+04  0.28006936230E+04  0.25248310991E+04 0.  0.
        2    1    3    3  502    0  0.81581782025E+03  0.21376412342E+03 -0.43598427874E+03  0.94938722744E+03  0.25500000920E-02 0.  1.
       -2    1    3    3    0  502 -0.81581782025E+03 -0.21376412342E+03  0.16480538686E+04  0.18513063955E+04  0.25500000920E-02 0. -1.
</event>
<event>
 5   0  0.1876027E-07  0.3908617E+04  0.7818609E-02  0.8023239E-01
       -1   -1    0    0    0  501  0.00000000000E+00  0.00000000000E+00  0.24880780789E+04  0.24880780789E+04  0.50400001928E-02 0. -1.
        1   -1    0    0  501    0  0.00000000000E+00  0.00000000000E+00 -0.15350489464E+04  0.15350489464E+04  0.50400001928E-02 0.  1.
    10030    2    1    2    0    0  0.00000000000E+00  0.00000000000E+00  0.95302913257E+03  0.40231270253E+04  0.39086169593E+04 0.  0.
        3    1    3    3  502    0  0.63057409029E+03 -0.18496831439E+04  0.45671010638E+03  0.20068720806E+04  0.10100000352E+00 0.  1.
       -3    1    3    3    0  502 -0.63057409029E+03  0.18496831439E+04  0.49631902619E+03  0.20162549447E+04  0.10100000352E+00 0. -1.
</event>
<event>
 5   0  0.1860500E-07  0.2698363E+04  0.7818609E-02  0.8335536E-01
       -1   -1    0    0    0  501  0.00000000000E+00  0.00000000000E+00  0.11099126365E+04  0.11099126365E+04  0.50400001928E-02 0. -1.
        1   -1    0    0  501    0  0.00000000000E+00  0.00000000000E+00 -0.16400300220E+04  0.16400300220E+04  0.50400001928E-02 0.  1.
    10030    2    1    2    0    0  0.00000000000E+00  0.00000000000E+00 -0.53011738555E+03  0.27499426586E+04  0.26983625003E+04 0.  0.
        4    1    3    3  502    0 -0.82469733381E+03  0.83477592553E+03  0.41348534279E+03  0.12441656963E+04  0.12699999809E+01 0. -1.
       -4    1    3    3    0  502  0.82469733381E+03 -0.83477592553E+03 -0.94360272833E+03  0.15057769623E+04  0.12699999809E+01 0.  1.
</event>
<event>
 5   0  0.6095665E-07  0.2620799E+04  0.7818609E-02  0.8361170E-01
       -2   -1    0    0    0  501  0.00000000000E+00  0.00000000000E+00  0.10035795881E+04  0.10035795881E+04  0.25500000920E-02 0.  1.
        2   -1    0    0  501    0  0.00000000000E+00  0.00000000000E+00 -0.17110222202E+04  0.17110222202E+04  0.25500000920E-02 0. -1.
    10030    2    1    2    0    0  0.00000000000E+00  0.00000000000E+00 -0.70744263214E+03  0.27146018083E+04  0.26207990956E+04 0.  0.
        4    1    3    3  502    0  0.92607755404E+03 -0.63647291437E+03 -0.10519616366E+04  0.15392668075E+04  0.12699999809E+01 0. -1.
       -4    1    3    3    0  502 -0.92607755404E+03  0.63647291437E+03  0.34451900444E+03  0.11753350008E+04  0.12699999809E+01 0.  1.
</event>
<event>
 5   0  0.1943459E-07  0.3074636E+04  0.7818609E-02  0.8222733E-01
        1   -1    0    0  501    0  0.00000000000E+00  0.00000000000E+00  0.17901679857E+04  0.17901679857E+04  0.50400001928E-02 0. -1.
       -1   -1    0    0    0  501  0.00000000000E+00  0.00000000000E+00 -0.13201814918E+04  0.13201814918E+04  0.50400001928E-02 0.  1.
    10030    2    1    2    0    0  0.00000000000E+00  0.00000000000E+00  0.46998649387E+03  0.31103494775E+04  0.30746360057E+04 0.  0.
        2    1    3    3  502    0 -0.71226669298E+02 -0.11427144394E+04  0.12728127086E+04  0.17119934929E+04  0.25500000920E-02 0. -1.
       -2    1    3    3    0  502  0.71226669298E+02  0.11427144394E+04 -0.80282621477E+03  0.13983559846E+04  0.25500000920E-02 0.  1.
</event>
<event>
 5   0  0.1876027E-07  0.3880537E+04  0.7818609E-02  0.8029089E-01
       -1   -1    0    0    0  501  0.00000000000E+00  0.00000000000E+00  0.23469083539E+04  0.23469083539E+04  0.50400001928E-02 0.  1.
        1   -1    0    0  501    0  0.00000000000E+00  0.00000000000E+00 -0.16040851702E+04  0.16040851703E+04  0.50400001928E-02 0. -1.
    10030    2    1    2    0    0  0.00000000000E+00  0.00000000000E+00  0.74282318369E+03  0.39509935242E+04  0.38805365023E+04 0.  0.
        3    1    3    3  502    0  0.18346743478E+04  0.43438159098E+03 -0.95081399408E+02  0.18877917819E+04  0.10100000352E+00 0.  1.
       -3    1    3    3    0  502 -0.18346743478E+04 -0.43438159098E+03  0.83790458310E+03  0.20632017423E+04  0.10100000352E+00 0. -1.
</event>
<event>
 5   0  0.1860500E-07  0.3862483E+04  0.7818609E-02  0.8032877E-01
        1   -1    0    0  501    0  0.00000000000E+00  0.00000000000E+00  0.18028957711E+04  0.18028957711E+04  0.50400001928E-02 0.  1.
       -1   -1    0    0    0  501  0.00000000000E+00  0.00000000000E+00 -0.20687245116E+04  0.20687245116E+04  0.50400001928E-02 0. -1.
    10030    2    1    2    0    0  0.00000000000E+00  0.00000000000E+00 -0.26582874055E+03  0.38716202827E+04  0.38624834879E+04 0.  0.
        5    1    3    3  502    0  0.17284274527E+04 -0.77204990620E+03  0.25028574362E+03  0.19094992957E+04  0.46999998093E+01 0.  1.
       -5    1    3    3    0  502 -0.17284274527E+04  0.77204990620E+03 -0.51611448416E+03  0.19621209870E+04  0.46999998093E+01 0. -1.
</event>
<event>
 5   0  0.5805753E-07  0.2875953E+04  0.7818609E-02  0.8280068E-01
       -2   -1    0    0    0  501  0.00000000000E+00  0.00000000000E+00  0.12991221686E+04  0.12991221686E+04  0.25500000920E-02 0. -1.
        2   -1    0    0  501    0  0.00000000000E+00  0.00000000000E+00 -0.15916715418E+04  0.15916715418E+04  0.25500000920E-02 0.  1.
    10030    2    1    2    0    0  0.00000000000E+00  0.00000000000E+00 -0.29254937317E+03  0.28907937104E+04  0.28759525623E+04 0.  0.
        1    1    3    3  502    0 -0.12195396800E+04 -0.68176831333E+02 -0.90903892362E+03  0.15225888730E+04  0.50400001928E-02 0.  1.
       -1    1    3    3    0  502  0.12195396800E+04  0.68176831333E+02  0.61648955045E+03  0.13682048374E+04  0.50400001928E-02 0. -1.
</event>
<event>
 5   0  0.1860500E-07  0.2488062E+04  0.7818609E-02  0.8407251E-01
        1   -1    0    0  501    0  0.00000000000E+00  0.00000000000E+00  0.69113757602E+03  0.69113757604E+03  0.50400001928E-02 0. -1.
       -1   -1    0    0    0  501  0.00000000000E+00  0.00000000000E+00 -0.22392253925E+04  0.22392253925E+04  0.50400001928E-02 0.  1.
    10030    2    1    2    0    0  0.00000000000E+00  0.00000000000E+00 -0.15480878165E+04  0.29303629685E+04  0.24880617436E+04 0.  0.
        5    1    3    3  502    0 -0.18402193095E+03  0.30230118941E+03 -0.21786743403E+04  0.22072367457E+04  0.46999998093E+01 0.  1.
       -5    1    3    3    0  502  0.18402193095E+03 -0.30230118941E+03  0.63058652384E+03  0.72312622290E+03  0.46999998093E+01 0. -1.
</event>
<event>
 5   0  0.3959190E-07  0.3361124E+04  0.7818609E-02  0.8147514E-01
        2   -1    0    0  501    0  0.00000000000E+00  0.00000000000E+00  0.16292943729E+04  0.16292943729E+04  0.25500000920E-02 0.  1.
       -2   -1    0    0    0  501  0.00000000000E+00  0.00000000000E+00 -0.17334432977E+04  0.17334432977E+04  0.25500000920E-02 0. -1.
    10030    2    1    2    0    0  0.00000000000E+00  0.00000000000E+00 -0.10414892480E+03  0.33627376705E+04  0.33611244610E+04 0.  0.
        2    1    3    3  502    0  0.99570980132E+03  0.11689267887E+04  0.63123325691E+03  0.16602057916E+04  0.25500000920E-02 0.  1.
       -2    1    3    3    0  502 -0.99570980132E+03 -0.11689267887E+04 -0.73538218171E+03  0.17025318790E+04  0.25500000920E-02 0. -1.
</event>
<event>
 5   0  0.1943459E-07  0.2855498E+04  0.7818609E-02  0.8286243E-01
       -1   -1    0    0    0  501  0.00000000000E+00  0.00000000000E+00  0.15407920081E+04  0.15407920081E+04  0.50400001928E-02 0. -1.
        1   -1    0    0  501    0  0.00000000000E+00  0.00000000000E+00 -0.13229991606E+04  0.13229991606E+04  0.50400001928E-02 0.  1.
    10030    2    1    2    0    0  0.00000000000E+00  0.00000000000E+00  0.21779284757E+03  0.28637911687E+04  0.28554975282E+04 0.  0.
        2    1    3    3  502    0  0.13629507436E+03  0.24837435474E+03 -0.12945250604E+04  0.13251646311E+04  0.25500000920E-02 0.  1.
       -2    1    3    3    0  502 -0.13629507436E+03 -0.24837435474E+03  0.15123179080E+04  0.15386265376E+04  0.25500000920E-02 0. -1.
</event>
<event>
 5   0  0.5735179E-07  0.3945033E+04  0.7818609E-02  0.8015728E-01
       -2   -1    0    0    0  501  0.00000000000E+00  0.00000000000E+00  0.12137616344E+04  0.12137616344E+04  0.25500000920E-02 0.  1.
        2   -1    0    0  501    0  0.00000000000E+00  0.00000000000E+00 -0.32055891584E+04  0.32055891584E+04  0.25500000920E-02 0. -1.
    10030    2    1    2    0    0  0.00000000000E+00  0.00000000000E+00 -0.19918275239E+04  0.44193507928E+04  0.39450328953E+04 0.  0.
        5    1    3    3  502    0  0.95349413295E+03 -0.81929921107E+03 -0.26986647182E+04  0.29771153169E+04  0.46999998093E+01 0. -1.
       -5    1    3    3    0  502 -0.95349413295E+03  0.81929921107E+03  0.70683719425E+03  0.14422354759E+04  0.46999998093E+01 0.  1.
</event>
<event>
 5   0  0.6095665E-07  0.3922329E+04  0.7818609E-02  0.8020401E-01
       -2   -1    0    0    0  501  0.00000000000E+00  0.00000000000E+00  0.18179929487E+04  0.18179929487E+04  0.25500000920E-02 0.  1.
        2   -1    0    0  501    0  0.00000000000E+00  0.00000000000E+00 -0.21156113543E+04  0.21156113543E+04  0.25500000920E-02 0. -1.
    10030    2    1    2    0    0  0.00000000000E+00  0.00000000000E+00 -0.29761840563E+03  0.39336043030E+04  0.39223291673E+04 0.  0.
        4    1    3    3  502    0  0.23591881577E+03  0.10087567598E+04 -0.18188038145E+04  0.20931547522E+04  0.12699999809E+01 0. -1.
       -4    1    3    3    0  502 -0.23591881577E+03 -0.10087567598E+04  0.15211854088E+04  0.18404495508E+04  0.12699999809E+01 0.  1.
</event>
<event>
 5   0  0.6095665E-07  0.3256104E+04  0.7818609E-02  0.8174155E-01
       -2   -1    0    0    0  501  0.00000000000E+00  0.00000000000E+00  0.13474310658E+04  0.13474310658E+04  0.25500000920E-02 0.  1.
        2   -1    0    0  501    0  0.00000000000E+00  0.00000000000E+00 -0.19671165336E+04  0.19671165336E+04  0.25500000920E-02 0. -1.
    10030    2    1    2    0    0  0.00000000000E+00  0.00000000000E+00 -0.61968546774E+03  0.33145475994E+04  0.32561043764E+04 0.  0.
        4    1    3    3  502    0 -0.15344487581E+04 -0.29893377255E+03  0.15291317424E+03  0.15707572834E+04  0.12699999809E+01 0.  1.
       -4    1    3    3    0  502  0.15344487581E+04  0.29893377255E+03 -0.77259864199E+03  0.17437903160E+04  0.12699999809E+01 0. -1.
</event>
<event>
 5   0  0.1860500E-07  0.3442967E+04  0.7818609E-02  0.8127441E-01
       -1   -1    0    0    0  501  0.00000000000E+00  0.00000000000E+00  0.27989393355E+04  0.27989393355E+04  0.50400001928E-02 0.  1.
        1   -1    0    0  501    0  0.00000000000E+00  0.00000000000E+00 -0.10587957671E+04  0.10587957671E+04  0.50400001928E-02 0. -1.
    10030    2    1    2    0    0  0.00000000000E+00  0.00000000000E+00  0.17401435685E+04  0.38577351026E+04  0.34429668141E+04 0.  0.
        5    1    3    3  502    0  0.89544090691E+03 -0.12362206364E+04  0.17618316108E+04  0.23311217460E+04  0.46999998093E+01 0.  1.
       -5    1    3    3    0  502 -0.89544090691E+03  0.12362206364E+04 -0.21688042345E+02  0.15266133567E+04  0.46999998093E+01 0. -1.
</event>
<event>
 5   0  0.1860500E-07  0.2641527E+04  0.7818609E-02  0.8354231E-01
       -1   -1    0    0    0  501  0.00000000000E+00  0.00000000000E+00  0.15932614522E+04  0.15932614522E+04  0.50400001928E-02 0.  1.
        1   -1    0    0  501    0  0.00000000000E+00  0.00000000000E+00 -0.10948715438E+04  0.10948715438E+04  0.50400001928E-02 0. -1.
    10030    2    1    2    0    0  0.00000000000E+00  0.00000000000E+00  0.49838990843E+03  0.26881329960E+04  0.26415273051E+04 0.  0.
        5    1    3    3  502    0  0.59025848791E+03  0.18806196902E+03  0.14362323902E+04  0.15641476770E+04  0.46999998093E+01 0.  1.
       -5    1    3    3    0  502 -0.59025848791E+03 -0.18806196902E+03 -0.93784248178E+03  0.11239853190E+04  0.46999998093E+01 0. -1.
</event>
<event>
 5   0  0.1860500E-07  0.3838212E+04  0.7818609E-02  0.8038004E-01
       -1   -1    0    0    0  501  0.00000000000E+00  0.00000000000E+00  0.14615104828E+04  0.14615104828E+04  0.50400001928E-02 0.  1.
        1   -1    0    0  501    0  0.00000000000E+00  0.00000000000E+00 -0.25199738466E+04  0.25199738466E+04  0.50400001928E-02 0. -1.
    10030    2    1    2    0    0  0.00000000000E+00  0.00000000000E+00 -0.10584633638E+04  0.39814843293E+04  0.38382121844E+04 0.  0.
        5    1    3    3  502    0  0.18066346473E+04  0.40005227988E+03 -0.10571240631E+04  0.21310804655E+04  0.46999998093E+01 0. -1.
       -5    1    3    3    0  502 -0.18066346473E+04 -0.40005227988E+03 -0.13393006699E+01  0.18504038638E+04  0.46999998093E+01 0.  1.
</event>
<event>
 5   0  0.6095665E-07  0.4034828E+04  0.7818609E-02  0.7997557E-01
        2   -1    0    0  501    0  0.00000000000E+00  0.00000000000E+00  0.23868354898E+04  0.23868354898E+04  0.25500000920E-02 0.  1.
       -2   -1    0    0    0  501  0.00000000000E+00  0.00000000000E+00 -0.17051698190E+04  0.17051698190E+04  0.25500000920E-02 0. -1.
    10030    2    1    2    0    0  0.00000000000E+00  0.00000000000E+00  0.68166567075E+03  0.40920053088E+04  0.40348282939E+04 0.  0.
        4    1    3    3  502    0 -0.56792703895E+03  0.12318771248E+04 -0.11736118692E+04  0.17937192658E+04  0.12699999809E+01 0. -1.
       -4    1    3    3    0  502  0.56792703895E+03 -0.12318771248E+04  0.18552775400E+04  0.22982860430E+04  0.12699999809E+01 0.  1.
</event>
<event>
 5   0  0.5872444E-07  0.3867176E+04  0.7818609E-02  0.8031891E-01
        2   -1    0    0  501    0  0.00000000000E+00  0.00000000000E+00  0.15267576211E+04  0.15267576211E+04  0.25500000920E-02 0. -1.
       -2   -1    0    0    0  501  0.00000000000E+00  0.00000000000E+00 -0.24488248371E+04  0.24488248371E+04  0.25500000920E-02 0.  1.
    10030    2    1    2    0    0  0.00000000000E+00  0.00000000000E+00 -0.92206721597E+03  0.39755824581E+04  0.38671757047E+04 0.  0.
        3    1    3    3  502    0 -0.14013428818E+04  0.90079372940E+03 -0.14701672081E+04  0.22218422188E+04  0.10100000352E+00 0.  1.
       -3    1    3    3    0  502  0.14013428818E+04 -0.90079372940E+03  0.54809999218E+03  0.17537402393E+04  0.10100000352E+00 0. -1.
</event>
<event>
 5   0  0.1876027E-07  0.3705290E+04  0.7818609E-02  0.8066791E-01
       -1   -1    0    0    0  501  0.00000000000E+00  0.00000000000E+00  0.17267345804E+04  0.17267345804E+04  0.50400001928E-02 0. -1.
        1   -1    0    0  501    0  0.00000000000E+00  0.00000000000E+00 -0.19877365222E+04  0.19877365223E+04  0.50400001928E-02 0.  1.
    10030    2    1    2    0    0  0.00000000000E+00  0.00000000000E+00 -0.26100194184E+03  0.37144711027E+04  0.37052899426E+04 0.  0.
        3    1    3    3  502    0  0.57325556405E+03  0.11648958041E+04 -0.14553994584E+04  0.19503311949E+04  0.10100000352E+00 0.  1.
       -3    1    3    3    0  502 -0.57325556405E+03 -0.11648958041E+04  0.11943975166E+04  0.17641399077E+04  0.10100000352E+00 0. -1.
</event>
<event>
 5   0  0.3959190E-07  0.3908223E+04  0.7818609E-02  0.8023321E-01
        2   -1    0    0  501    0  0.00000000000E+00  0.00000000000E+00  0.21366321644E+04  0.21366321644E+04  0.25500000920E-02 0. -1.
       -2   -1    0    0    0  501  0.00000000000E+00  0.00000000000E+00 -0.17871822387E+04  0.17871822387E+04  0.25500000920E-02 0.  1.
    10030    2    1    2    0    0  0.00000000000E+00  0.00000000000E+00  0.34944992576E+03  0.39238144031E+04  0.39082226420E+04 0.  0.
        2    1    3    3  502    0  0.75378102260E+03 -0.56397974244E+03  0.18939501848E+04  0.21150192156E+04  0.25500000920E-02 0. -1.
       -2    1    3    3    0  502 -0.75378102260E+03  0.56397974244E+03 -0.15445002591E+04  0.18087951875E+04  0.25500000920E-02 0.  1.
</event>
<event>
 5   0  0.5805753E-07  0.3790576E+04  0.7818609E-02  0.8048180E-01
       -2   -1    0    0    0  501  0.00000000000E+00  0.00000000000E+00  0.12195358791E+04  0.12195358791E+04  0.25500000920E-02 0. -1.
        2   -1    0    0  501    0  0.00000000000E+00  0.00000000000E+00 -0.29454788896E+04  0.29454788896E+04  0.25500000920E-02 0.  1.
    10030    2    1    2    0    0  0.00000000000E+00  0.00000000000E+00 -0.17259430105E+04  0.41650147686E+04  0.37905763081E+04 0.  0.
        1    1    3    3  502    0 -0.28350469486E+03 -0.13246704839E+04  0.59347988407E+03  0.14789676047E+04  0.50400001928E-02 0. -1.
       -1    1    3    3    0  502  0.28350469486E+03  0.13246704839E+04 -0.23194228946E+04  0.26860471639E+04  0.50400001928E-02 0.  1.
</event>
<event>
 5   0  0.1876027E-07  0.3919802E+04  0.7818609E-02  0.8020923E-01
       -1   -1    0    0    0  501  0.00000000000E+00  0.00000000000E+00  0.16696017513E+04  0.16696017514E+04  0.50400001928E-02 0.  1.
        1   -1    0    0  501    0  0.00000000000E+00  0.00000000000E+00 -0.23006750946E+04  0.23006750946E+04  0.50400001928E-02 0. -1.
    10030    2    1    2    0    0  0.00000000000E+00  0.00000000000E+00 -0.63107334329E+03  0.39702768460E+04  0.39198016110E+04 0.  0.
        3    1    3    3  502    0 -0.43100411846E+03  0.11931914136E+04  0.11976014960E+04  0.17446259350E+04  0.10100000352E+00 0.  1.
       -3    1    3    3    0  502  0.43100411846E+03 -0.11931914136E+04 -0.18286748393E+04  0.22256509110E+04  0.10100000352E+00 0. -1.
</event>
<event>
 5   0  0.5872444E-07  0.3890939E+04  0.7818609E-02  0.8026916E-01
       -2   -1    0    0    0  501  0.00000000000E+00  0.00000000000E+00  0.26766391129E+04  0.26766391129E+04  0.25500000920E-02 0. -1.
        2   -1    0    0  501    0  0.00000000000E+00  0.00000000000E+00 -0.14140312257E+04  0.14140312257E+04  0.25500000920E-02 0.  1.
    10030    2    1    2    0    0  0.00000000000E+00  0.00000000000E+00  0.12626078872E+04  0.40906703386E+04  0.38909388510E+04 0.  0.
        3    1    3    3  502    0  0.12819123334E+04  0.14332279568E+04  0.32047617333E+03  0.19493964693E+04  0.10100000352E+00 0. -1.
       -3    1    3    3    0  502 -0.12819123334E+04 -0.14332279568E+04  0.94213171389E+03  0.21412738693E+04  0.10100000352E+00 0.  1.
</event>
<event>
 5   0  0.1876027E-07  0.3883772E+04  0.7818609E-02  0.8028413E-01
        1   -1    0    0  501    0  0.00000000000E+00  0.00000000000E+00  0.14897882837E+04  0.14897882837E+04  0.50400001928E-02 0. -1.
       -1   -1    0    0    0  501  0.00000000000E+00  0.00000000000E+00 -0.25311791615E+04  0.25311791615E+04  0.50400001928E-02 0.  1.
    10030    2    1    2    0    0  0.00000000000E+00  0.00000000000E+00 -0.10413908777E+04  0.40209674452E+04  0.38837719083E+04 0.  0.
        3    1    3    3  502    0  0.78968488178E+02 -0.99299120351E+03 -0.22465096356E+04  0.24574525642E+04  0.10100000352E+00 0.  1.
       -3    1    3    3    0  502 -0.78968488178E+02  0.99299120351E+03  0.12051187579E+04  0.15635148810E+04  0.10100000352E+00 0. -1.
</event>
<event>
 5   0  0.1860500E-07  0.3771714E+04  0.7818609E-02  0.8052252E-01
       -1   -1    0    0    0  501  0.00000000000E+00  0.00000000000E+00  0.10668124122E+04  0.10668124122E+04  0.50400001928E-02 0. -1.
        1   -1    0    0  501    0  0.00000000000E+00  0.00000000000E+00 -0.33337221617E+04  0.33337221617E+04  0.50400001928E-02 0.  1.
    10030    2    1    2    0    0  0.00000000000E+00  0.00000000000E+00 -0.22669097496E+04  0.44005345739E+04  0.37717137648E+04 0.  0.
        5    1    3    3  502    0  0.11372731042E+04 -0.12673503408E+04 -0.18785923065E+03  0.17131491996E+04  0.46999998093E+01 0. -1.
       -5    1    3    3    0  502 -0.11372731042E+04  0.12673503408E+04 -0.20790505189E+04  0.26873853743E+04  0.46999998093E+01 0.  1.
</event>
<event>
 5   0  0.2666813E-07  0.4082298E+04  0.7818609E-02  0.7988147E-01
        1   -1    0    0  501    0  0.00000000000E+00  0.00000000000E+00  0.25409082761E+04  0.25409082761E+04  0.50400001928E-02 0. -1.
       -1   -1    0    0    0  501  0.00000000000E+00  0.00000000000E+00 -0.16396851666E+04  0.16396851666E+04  0.50400001928E-02 0.  1.
    10030    2    1    2    0    0  0.00000000000E+00  0.00000000000E+00  0.90122310944E+03  0.41805934427E+04  0.40822981812E+04 0.  0.
        1    1    3    3  502    0  0.19096101886E+04  0.68269813366E+03  0.68770682036E+03  0.21414080613E+04  0.50400001928E-02 0.  1.
       -1    1    3    3    0  502 -0.19096101886E+04 -0.68269813366E+03  0.21351628909E+03  0.20391853814E+04  0.50400001928E-02 0. -1.
</event>
<event>
 5   0  0.1860500E-07  0.3801435E+04  0.7818609E-02  0.8045847E-01
        1   -1    0    0  501    0  0.00000000000E+00  0.00000000000E+00  0.13715680749E+04  0.13715680749E+04  0.50400001928E-02 0. -1.
       -1   -1    0    0    0  501  0.00000000000E+00  0.00000000000E+00 -0.26340124024E+04  0.26340124024E+04  0.50400001928E-02 0.  1.
    10030    2    1    2    0    0  0.00000000000E+00  0.00000000000E+00 -0.12624443275E+04  0.40055804773E+04  0.38014351605E+04 0.  0.
        4    1    3    3  502    0  0.65685465329E+03 -0.17619803469E+04 -0.92302904944E+03  0.20947594175E+04  0.12699999809E+01 0.  1.
       -4    1    3    3    0  502 -0.65685465329E+03  0.17619803469E+04 -0.33941527807E+03  0.19108210597E+04  0.12699999809E+01 0. -1.
</event>
<event>
 5   0  0.5872444E-07  0.4001587E+04  0.7818609E-02  0.8004226E-01
       -2   -1    0    0    0  501  0.00000000000E+00  0.00000000000E+00  0.24657604588E+04  0.24657604588E+04  0.25500000920E-02 0. -1.
        2   -1    0    0  501    0  0.00000000000E+00  0.00000000000E+00 -0.16235053701E+04  0.16235053701E+04  0.25500000920E-02 0.  1.
    10030    2    1    2    0    0  0.00000000000E+00  0.00000000000E+00  0.84225508865E+03  0.40892658289E+04  0.40015873581E+04 0.  0.
        3    1    3    3  502    0 -0.39678402448E+02 -0.64123457832E+02  0.24643078206E+04  0.24654612628E+04  0.10100000352E+00 0. -1.
       -3    1    3    3    0  502  0.39678402448E+02  0.64123457832E+02 -0.16220527319E+04  0.16238045661E+04  0.10100000352E+00 0.  1.
</event>
<event>
 5   0  0.2666813E-07  0.3827953E+04  0.7818609E-02  0.8040183E-01
       -1   -1    0    0    0  501  0.00000000000E+00  0.00000000000E+00  0.14559051563E+04  0.14559051564E+04  0.50400001928E-02 0. -1.
        1   -1    0    0  501    0  0.00000000000E+00  0.00000000000E+00 -0.25161713114E+04  0.25161713114E+04  0.50400001928E-02 0.  1.
    10030    2    1    2    0    0  0.00000000000E+00  0.00000000000E+00 -0.10602661551E+04  0.39720764678E+04  0.38279533887E+04 0.  0.
        1    1    3    3  502    0  0.16760657960E+04  0.66180860232E+03 -0.11994935307E+04  0.21647105832E+04  0.50400001928E-02 0.  1.
       -1    1    3    3    0  502 -0.16760657960E+04 -0.66180860232E+03  0.13922737567E+03  0.18073658846E+04  0.50400001928E-02 0. -1.
</event>
<event>
 5   0  0.1943459E-07  0.2800100E+04  0.7818609E-02  0.8303237E-01
        1   -1    0    0  501    0  0.00000000000E+00  0.00000000000E+00  0.26294262079E+04  0.26294262079E+04  0.50400001928E-02 0.  1.
       -1   -1    0    0    0  501  0.00000000000E+00  0.00000000000E+00 -0.74546301424E+03  0.74546301426E+03  0.50400001928E-02 0. -1.
    10030    2    1    2    0    0  0.00000000000E+00  0.00000000000E+00  0.18839631936E+04  0.33748892221E+04  0.28000999887E+04 0.  0.
        2    1    3    3  502    0 -0.89971665267E+03  0.10474924122E+04  0.66343647635E+03  0.15319524689E+04  0.25500000920E-02 0.  1.
       -2    1    3    3    0  502  0.89971665267E+03 -0.10474924122E+04  0.12205267173E+04  0.18429367532E+04  0.25500000920E-02 0. -1.
</event>
<event>
 5   0  0.1860500E-07  0.2511896E+04  0.7818609E-02  0.8398760E-01
        1   -1    0    0  501    0  0.00000000000E+00  0.00000000000E+00  0.23102252470E+04  0.23102252470E+04  0.50400001928E-02 0. -1.
       -1   -1    0    0    0  501  0.00000000000E+00  0.00000000000E+00 -0.68279263177E+03  0.68279263179E+03  0.50400001928E-02 0.  1.
    10030    2    1    2    0    0  0.00000000000E+00  0.00000000000E+00  0.16274326152E+04  0.29930178788E+04  0.25118955204E+04 0.  0.
        5    1    3    3  502    0  0.46874589053E+03 -0.11580269567E+04  0.66004239952E+03  0.14129498227E+04  0.46999998093E+01 0.  1.
       -5    1    3    3    0  502 -0.46874589053E+03  0.11580269567E+04  0.96739021567E+03  0.15800680560E+04  0.46999998093E+01 0. -1.
</event>
<event>
 5   0  0.6095665E-07  0.3828612E+04  0.7818609E-02  0.8040043E-01
       -2   -1    0    0    0  501  0.00000000000E+00  0.00000000000E+00  0.15939757211E+04  0.15939757211E+04  0.25500000920E-02 0.  1.
        2   -1    0    0  501    0  0.00000000000E+00  0.00000000000E+00 -0.22990107108E+04  0.22990107108E+04  0.25500000920E-02 0. -1.
    10030    2    1    2    0    0  0.00000000000E+00  0.00000000000E+00 -0.70503498962E+03  0.38929864319E+04  0.38286118924E+04 0.  0.
        4    1    3    3  502    0 -0.21612328716E+03  0.32189837279E+03 -0.22586676961E+04  0.22917044338E+04  0.12699999809E+01 0. -1.
       -4    1    3    3    0  502  0.21612328716E+03 -0.32189837279E+03  0.15536327065E+04  0.16012819981E+04  0.12699999809E+01 0.  1.
</event>
<event>
 5   0  0.5872444E-07  0.2766253E+04  0.7818609E-02  0.8313823E-01
       -2   -1    0    0    0  501  0.00000000000E+00  0.00000000000E+00  0.10814462962E+04  0.10814462962E+04  0.25500000920E-02 0. -1.
        2   -1    0    0  501    0  0.00000000000E+00  0.00000000000E+00 -0.17689638800E+04  0.17689638800E+04  0.25500000920E-02 0.  1.
    10030    2    1    2    0    0  0.00000000000E+00  0.00000000000E+00 -0.68751758385E+03  0.28504101762E+04  0.27662533768E+04 0.  0.
        3    1    3    3  502    0 -0.44850915195E+03 -0.45430667827E+03  0.92055109406E+03  0.11202541427E+04  0.10100000352E+00 0. -1.
       -3    1    3    3    0  502  0.44850915195E+03  0.45430667827E+03 -0.16080686779E+04  0.17301560335E+04  0.10100000352E+00 0.  1.
</event>
<event>
 5   0  0.1860500E-07  0.3928893E+04  0.7818609E-02  0.8019047E-01
        1   -1    0    0  501    0  0.00000000000E+00  0.00000000000E+00  0.20741066494E+04  0.20741066494E+04  0.50400001928E-02 0. -1.
       -1   -1    0    0    0  501  0.00000000000E+00  0.00000000000E+00 -0.18605838570E+04  0.18605838571E+04  0.50400001928E-02 0.  1.
    10030    2    1    2    0    0  0.00000000000E+00  0.00000000000E+00  0.21352279235E+03  0.39346905065E+04  0.39288926428E+04 0.  0.
        4    1    3    3  502    0  0.13334398802E+04  0.61411101869E+03  0.14140050384E+04  0.20382850927E+04  0.12699999809E+01 0. -1.
       -4    1    3    3    0  502 -0.13334398802E+04 -0.61411101869E+03 -0.12004822460E+04  0.18964054138E+04  0.12699999809E+01 0.  1.
</event>
<event>
 5   0  0.5735179E-07  0.3928377E+04  0.7818609E-02  0.8019153E-01
       -2   -1    0    0    0  501  0.00000000000E+00  0.00000000000E+00  0.28221904664E+04  0.28221904664E+04  0.25500000920E-02 0.  1.
        2   -1    0    0  501    0  0.00000000000E+00  0.00000000000E+00 -0.13670361676E+04  0.13670361676E+04  0.25500000920E-02 0. -1.
    10030    2    1    2    0    0  0.00000000000E+00  0.00000000000E+00  0.14551542989E+04  0.41892266340E+04  0.39283769877E+04 0.  0.
        5    1    3    3  502    0 -0.16840680322E+04 -0.21790618903E+03  0.17802649979E+04  0.24602710820E+04  0.46999998093E+01 0.  1.
       -5    1    3    3    0  502  0.16840680322E+04  0.21790618903E+03 -0.32511069900E+03  0.17289555520E+04  0.46999998093E+01 0. -1.
</event>
<event>
 5   0  0.1943459E-07  0.4020037E+04  0.7818609E-02  0.8000517E-01
       -1   -1    0    0    0  501  0.00000000000E+00  0.00000000000E+00  0.17084538936E+04  0.17084538936E+04  0.50400001928E-02 0. -1.
        1   -1    0    0  501    0  0.00000000000E+00  0.00000000000E+00 -0.23648128357E+04  0.23648128357E+04  0.50400001928E-02 0.  1.
    10030    2    1    2    0    0  0.00000000000E+00  0.00000000000E+00 -0.65635894206E+03  0.40732667293E+04  0.40200366649E+04 0.  0.
        2    1    3    3  502    0 -0.85532380225E+03 -0.18005504937E+04 -0.58969152505E+03  0.20787729510E+04  0.25500000920E-02 0.  1.
       -2    1    3    3    0  502  0.85532380225E+03  0.18005504937E+04 -0.66667417007E+02  0.19944937783E+04  0.25500000920E-02 0. -1.
</event>
<event>
 5   0  0.2666813E-07  0.3748145E+04  0.7818609E-02  0.8057375E-01
       -1   -1    0    0    0  501  0.00000000000E+00  0.00000000000E+00  0.15653390946E+04  0.15653390946E+04  0.50400001928E-02 0.  1.
        1   -1    0    0  501    0  0.00000000000E+00  0.00000000000E+00 -0.22436976045E+04  0.22436976045E+04  0.50400001928E-02 0. -1.
    10030    2    1    2    0    0  0.00000000000E+00  0.00000000000E+00 -0.67835850991E+03  0.38090366991E+04  0.37481449155E+04 0.  0.
        1    1    3    3  502    0  0.17991995022E+04  0.54660584108E+02 -0.86922813800E+03  0.19989157521E+04  0.50400001928E-02 0.  1.
       -1    1    3    3    0  502 -0.17991995022E+04 -0.54660584108E+02  0.19086962808E+03  0.18101209470E+04  0.50400001928E-02 0. -1.
</event>
<event>
 5   0  0.1860500E-07  0.3903445E+04  0.7818609E-02  0.8024313E-01
        3   -1    0    0  501    0  0.00000000000E+00  0.00000000000E+00  0.15205082068E+04  0.15205082102E+04  0.10100000352E+00 0.  1.
       -3   -1    0    0    0  501  0.00000000000E+00  0.00000000000E+00 -0.25052290471E+04  0.25052290491E+04  0.10100000352E+00 0. -1.
    10030    2    1    2    0    0  0.00000000000E+00  0.00000000000E+00 -0.98472084023E+03  0.40257372593E+04  0.39034453176E+04 0.  0.
        3    1    3    3  502    0 -0.26239417141E+03 -0.19307899448E+04 -0.37742010954E+03  0.19847535014E+04  0.10100000352E+00 0.  1.
       -3    1    3    3    0  502  0.26239417141E+03  0.19307899448E+04 -0.60730073069E+03  0.20409837579E+04  0.10100000352E+00 0. -1.
</event>
<event>
 5   0  0.1860500E-07  0.3904319E+04  0.7818609E-02  0.8024132E-01
        1   -1    0    0  501    0  0.00000000000E+00  0.00000000000E+00  0.13061044820E+04  0.13061044820E+04  0.50400001928E-02 0.  1.
       -1   -1    0    0    0  501  0.00000000000E+00  0.00000000000E+00 -0.29177807852E+04  0.29177807852E+04  0.50400001928E-02 0. -1.
    10030    2    1    2    0    0  0.00000000000E+00  0.00000000000E+00 -0.16116763032E+04  0.42238852672E+04  0.39043189219E+04 0.  0.
        4    1    3    3  502    0  0.20755083035E+03  0.11291826502E+04 -0.25139253403E+04  0.27636846842E+04  0.12699999809E+01 0. -1.
       -4    1    3    3    0  502 -0.20755083035E+03 -0.11291826502E+04  0.90224903710E+03  0.14602005829E+04  0.12699999809E+01 0.  1.
</event>
<event>
 5   0  0.6095665E-07  0.3623996E+04  0.7818609E-02  0.8085017E-01
        2   -1    0    0  501    0  0.00000000000E+00  0.00000000000E+00  0.25186026126E+04  0.25186026126E+04  0.25500000920E-02 0.  1.
       -2   -1    0    0    0  501  0.00000000000E+00  0.00000000000E+00 -0.13036344409E+04  0.13036344409E+04  0.25500000920E-02 0. -1.
    10030    2    1    2    0    0  0.00000000000E+00  0.00000000000E+00  0.12149681717E+04  0.38222370535E+04  0.36239961969E+04 0.  0.
        4    1    3    3  502    0  0.14115687264E+04  0.74328235197E+03 -0.29878726624E+03  0.16230435507E+04  0.12699999809E+01 0. -1.
       -4    1    3    3    0  502 -0.14115687264E+04 -0.74328235197E+03  0.15137554379E+04  0.21991935028E+04  0.12699999809E+01 0.  1.
</event>
<event>
 5   0  0.3959190E-07  0.3736331E+04  0.7818609E-02  0.8059958E-01
        2   -1    0    0  501    0  0.00000000000E+00  0.00000000000E+00  0.13667929254E+04  0.13667929254E+04  0.25500000920E-02 0. -1.
       -2   -1    0    0    0  501  0.00000000000E+00  0.00000000000E+00 -0.25534535362E+04  0.25534535362E+04  0.25500000920E-02 0.  1.
    10030    2    1    2    0    0  0.00000000000E+00  0.00000000000E+00 -0.11866606108E+04  0.39202464615E+04  0.37363309428E+04 0.  0.
        2    1    3    3  502    0  0.14518490705E+04 -0.96016095140E+03  0.11849458096E+03  0.17446534733E+04  0.25500000920E-02 0. -1.
       -2    1    3    3    0  502 -0.14518490705E+04  0.96016095140E+03 -0.13051551918E+04  0.21755929883E+04  0.25500000920E-02 0.  1.
</event>
<event>
 5   0  0.2666813E-07  0.3651615E+04  0.7818609E-02  0.8078770E-01
       -1   -1    0    0    0  501  0.00000000000E+00  0.00000000000E+00  0.17561749243E+04  0.17561749243E+04  0.50400001928E-02 0.  1.
        1   -1    0    0  501    0  0.00000000000E+00  0.00000000000E+00 -0.18982012310E+04  0.18982012310E+04  0.50400001928E-02 0. -1.
    10030    2    1    2    0    0  0.00000000000E+00  0.00000000000E+00 -0.14202630669E+03  0.36543761552E+04  0.36516152059E+04 0.  0.
        1    1    3    3  502    0  0.31875723552E+03 -0.17765715033E+04 -0.34646828384E+03  0.18378935642E+04  0.50400001928E-02 0. -1.
       -1    1    3    3    0  502 -0.31875723552E+03  0.17765715033E+04  0.20444197716E+03  0.18164825911E+04  0.50400001928E-02 0.  1.
</event>
<event>
 5   0  0.1860500E-07  0.3861551E+04  0.7818609E-02  0.8033074E-01
        1   -1    0    0  501    0  0.00000000000E+00  0.00000000000E+00  0.18893684739E+04  0.18893684739E+04  0.50400001928E-02 0. -1.
       -1   -1    0    0    0  501  0.00000000000E+00  0.00000000000E+00 -0.19730901007E+04  0.19730901007E+04  0.50400001928E-02 0.  1.
    10030    2    1    2    0    0  0.00000000000E+00  0.00000000000E+00 -0.83721626845E+02  0.38624585746E+04  0.38615511041E+04 0.  0.
        4    1    3    3  502    0 -0.16271245489E+04 -0.43569790016E+03 -0.98575925104E+03  0.19516889793E+04  0.12699999809E+01 0.  1.
       -4    1    3    3    0  502  0.16271245489E+04  0.43569790016E+03  0.90203762419E+03  0.19107695953E+04  0.12699999809E+01 0. -1.
</event>
<event>
 5   0  0.6095665E-07  0.3955810E+04  0.7818609E-02  0.8013521E-01
        2   -1    0    0  501    0  0.00000000000E+00  0.00000000000E+00  0.12068502169E+04  0.12068502169E+04  0.25500000920E-02 0. -1.
       -2   -1    0    0    0  501  0.00000000000E+00  0.00000000000E+00 -0.32415851080E+04  0.32415851080E+04  0.25500000920E-02 0.  1.
    10030    2    1    2    0    0  0.00000000000E+00  0.00000000000E+00 -0.20347348911E+04  0.44484353249E+04  0.39558097480E+04 0.  0.
        4    1    3    3  502    0  0.70031132028E+03 -0.14513056543E+04  0.27235968805E+03  0.16342905067E+04  0.12699999809E+01 0. -1.
       -4    1    3    3    0  502 -0.70031132028E+03  0.14513056543E+04 -0.23070945792E+04  0.28141448182E+04  0.12699999809E+01 0.  1.
</event>
<event>
 5   0  0.6095665E-07  0.3875774E+04  0.7818609E-02  0.8030087E-01
        2   -1    0    0  501    0  0.00000000000E+00  0.00000000000E+00  0.23866325793E+04  0.23866325793E+04  0.25500000920E-02 0.  1.
       -2   -1    0    0    0  501  0.00000000000E+00  0.00000000000E+00 -0.15735162301E+04  0.15735162301E+04  0.25500000920E-02 0. -1.
    10030    2    1    2    0    0  0.00000000000E+00  0.00000000000E+00  0.81311634921E+03  0.39601488095E+04  0.38757735223E+04 0.  0.
        4    1    3    3  502    0 -0.91012462678E+02  0.16859404602E+04  0.13784354007E+04  0.21796248004E+04  0.12699999809E+01 0. -1.
       -4    1    3    3    0  502  0.91012462678E+02 -0.16859404602E+04 -0.56531905151E+03  0.17805240090E+04  0.12699999809E+01 0.  1.
</event>
<event>
 5   0  0.5735179E-07  0.2691829E+04  0.7818609E-02  0.8337661E-01
        2   -1    0    0  501    0  0.00000000000E+00  0.00000000000E+00  0.20317330247E+04  0.20317330247E+04  0.25500000920E-02 0.  1.
       -2   -1    0    0    0  501  0.00000000000E+00  0.00000000000E+00 -0.89159671391E+03  0.89159671391E+03  0.25500000920E-02 0. -1.
    10030    2    1    2    0    0  0.00000000000E+00  0.00000000000E+00  0.11401363108E+04  0.29233297387E+04  0.26918294808E+04 0.  0.
        5    1    3    3  502    0  0.93488268130E+03  0.87451440552E+03  0.10213578962E+04  0.16376736902E+04  0.46999998093E+01 0.  1.
       -5    1    3    3    0  502 -0.93488268130E+03 -0.87451440552E+03  0.11877841460E+03  0.12856560485E+04  0.46999998093E+01 0. -1.
</event>
<event>
 5   0  0.5805753E-07  0.2903810E+04  0.7818609E-02  0.8271745E-01
       -2   -1    0    0    0  501  0.00000000000E+00  0.00000000000E+00  0.10630557227E+04  0.10630557227E+04  0.25500000920E-02 0.  1.
        2   -1    0    0  501    0  0.00000000000E+00  0.00000000000E+00 -0.19829886731E+04  0.19829886731E+04  0.25500000920E-02 0. -1.
    10030    2    1    2    0    0  0.00000000000E+00  0.00000000000E+00 -0.91993295044E+03  0.30460443958E+04  0.29038095371E+04 0.  0.
        1    1    3    3  502    0 -0.22588273260E+03 -0.10756913671E+04  0.53512596099E+03  0.12224952843E+04  0.50400001928E-02 0. -1.
       -1    1    3    3    0  502  0.22588273260E+03  0.10756913671E+04 -0.14550589114E+04  0.18235491114E+04  0.50400001928E-02 0.  1.
</event>
<event>
 5   0  0.1860500E-07  0.3278291E+04  0.7818609E-02  0.8168441E-01
        1   -1    0    0  501    0  0.00000000000E+00  0.00000000000E+00  0.22048390167E+04  0.22048390167E+04  0.50400001928E-02 0.  1.
       -1   -1    0    0    0  501  0.00000000000E+00  0.00000000000E+00 -0.12185913298E+04  0.12185913298E+04  0.50400001928E-02 0. -1.
    10030    2    1    2    0    0  0.00000000000E+00  0.00000000000E+00  0.98624768690E+03  0.34234303465E+04  0.32782908408E+04 0.  0.
        5    1    3    3  502    0  0.17344787484E+03  0.33411340457E+03  0.21590778285E+04  0.21916557877E+04  0.46999998093E+01 0.  1.
       -5    1    3    3    0  502 -0.17344787484E+03 -0.33411340457E+03 -0.11728301416E+04  0.12317745587E+04  0.46999998093E+01 0. -1.
</event>
<event>
 5   0  0.5872444E-07  0.2513879E+04  0.7818609E-02  0.8398058E-01
        2   -1    0    0  501    0  0.00000000000E+00  0.00000000000E+00  0.17925974080E+04  0.17925974080E+04  0.25500000920E-02 0. -1.
       -2   -1    0    0    0  501  0.00000000000E+00  0.00000000000E+00 -0.88134510735E+03  0.88134510736E+03  0.25500000920E-02 0.  1.
    10030    2    1    2    0    0  0.00000000000E+00  0.00000000000E+00  0.91125230061E+03  0.26739425153E+04  0.25138790384E+04 0.  0.
        3    1    3    3  502    0 -0.65054964258E+03  0.10605872928E+04  0.26583685047E+03  0.12722930026E+04  0.10100000352E+00 0.  1.
       -3    1    3    3    0  502  0.65054964258E+03 -0.10605872928E+04  0.64541545014E+03  0.14016495128E+04  0.10100000352E+00 0. -1.
</event>
<event>
 5   0  0.5735179E-07  0.4188511E+04  0.7818609E-02  0.7967561E-01
       -2   -1    0    0    0  501  0.00000000000E+00  0.00000000000E+00  0.15596010859E+04  0.15596010859E+04  0.25500000920E-02 0.  1.
        2   -1    0    0  501    0  0.00000000000E+00  0.00000000000E+00 -0.28121971147E+04  0.28121971147E+04  0.25500000920E-02 0. -1.
    10030    2    1    2    0    0  0.00000000000E+00  0.00000000000E+00 -0.12525960288E+04  0.43717982007E+04  0.41885107969E+04 0.  0.
        5    1    3    3  502    0  0.11882276840E+03 -0.22457289473E+03 -0.27960458904E+04  0.28075695088E+04  0.46999998093E+01 0. -1.
       -5    1    3    3    0  502 -0.11882276840E+03  0.22457289473E+03  0.15434498616E+04  0.15642286919E+04  0.46999998093E+01 0.  1.
</event>
<event>
 5   0  0.5872444E-07  0.3947657E+04  0.7818609E-02  0.8015190E-01
       -2   -1    0    0    0  501  0.00000000000E+00  0.00000000000E+00  0.17201948441E+04  0.17201948441E+04  0.25500000920E-02 0. -1.
        2   -1    0    0  501    0  0.00000000000E+00  0.00000000000E+00 -0.22648587963E+04  0.22648587963E+04  0.25500000920E-02 0.  1.
    10030    2    1    2    0    0  0.00000000000E+00  0.00000000000E+00 -0.54466395216E+03  0.39850536403E+04  0.39476567348E+04 0.  0.
        3    1    3    3  502    0 -0.16403475994E+04 -0.90407068774E+03 -0.90105985347E+03  0.20784592671E+04  0.10100000352E+00 0.  1.
       -3    1    3    3    0  502  0.16403475994E+04  0.90407068774E+03  0.35639590131E+03  0.19065943732E+04  0.10100000352E+00 0. -1.
</event>
<event>
 5   0  0.1876027E-07  0.2862382E+04  0.7818609E-02  0.8284159E-01
       -1   -1    0    0    0  501  0.00000000000E+00  0.00000000000E+00  0.17676575970E+04  0.17676575970E+04  0.50400001928E-02 0. -1.
        1   -1    0    0  501    0  0.00000000000E+00  0.00000000000E+00 -0.11587696328E+04  0.11587696328E+04  0.50400001928E-02 0.  1.
    10030    2    1    2    0    0  0.00000000000E+00  0.00000000000E+00  0.60888796426E+03  0.29264272298E+04  0.28623821860E+04 0.  0.
        3    1    3    3  502    0  0.74588758394E+03 -0.11845533088E+04  0.60909296384E+03  0.15266004972E+04  0.10100000352E+00 0. -1.
       -3    1    3    3    0  502 -0.74588758394E+03  0.11845533088E+04 -0.20499958314E+00  0.13998267326E+04  0.10100000352E+00 0.  1.
</event>
<event>
 5   0  0.1943459E-07  0.3972826E+04  0.7818609E-02  0.8010051E-01
        1   -1    0    0  501    0  0.00000000000E+00  0.00000000000E+00  0.18495970474E+04  0.18495970474E+04  0.50400001928E-02 0. -1.
       -1   -1    0    0    0  501  0.00000000000E+00  0.00000000000E+00 -0.21333492898E+04  0.21333492898E+04  0.50400001928E-02 0.  1.
    10030    2    1    2    0    0  0.00000000000E+00  0.00000000000E+00 -0.28375224238E+03  0.39829463372E+04  0.39728259703E+04 0.  0.
        2    1    3    3  502    0  0.11539501197E+04  0.12047465131E+04  0.93921286269E+03  0.19144544500E+04  0.25500000920E-02 0. -1.
       -2    1    3    3    0  502 -0.11539501197E+04 -0.12047465131E+04 -0.12229651051E+04  0.20684918873E+04  0.25500000920E-02 0.  1.
</event>
<event>
 5   0  0.1876027E-07  0.3689713E+04  0.7818609E-02  0.8070245E-01
        1   -1    0    0  501    0  0.00000000000E+00  0.00000000000E+00  0.23345958944E+04  0.23345958944E+04  0.50400001928E-02 0.  1.
       -1   -1    0    0    0  501  0.00000000000E+00  0.00000000000E+00 -0.14578521001E+04  0.14578521001E+04  0.50400001928E-02 0. -1.
    10030    2    1    2    0    0  0.00000000000E+00  0.00000000000E+00  0.87674379431E+03  0.37924479945E+04  0.36897130119E+04 0.  0.
        3    1    3    3  502    0  0.18561979013E+02  0.11775824802E+04 -0.10211843160E+04  0.15588016109E+04  0.10100000352E+00 0. -1.
       -3    1    3    3    0  502 -0.18561979013E+02 -0.11775824802E+04  0.18979281103E+04  0.22336463836E+04  0.10100000352E+00 0.  1.
</event>
<event>
 5   0  0.1876027E-07  0.3824692E+04  0.7818609E-02  0.8040877E-01
       -1   -1    0    0    0  501  0.00000000000E+00  0.00000000000E+00  0.18807351453E+04  0.18807351453E+04  0.50400001928E-02 0.  1.
        1   -1    0    0  501    0  0.00000000000E+00  0.00000000000E+00 -0.19444886060E+04  0.19444886060E+04  0.50400001928E-02 0. -1.
    10030    2    1    2    0    0  0.00000000000E+00  0.00000000000E+00 -0.63753460694E+02  0.38252237513E+04  0.38246924378E+04 0.  0.
        3    1    3    3  502    0  0.18193013690E+04 -0.26955350369E+03 -0.55592612994E+03  0.19213459955E+04  0.10100000352E+00 0.  1.
       -3    1    3    3    0  502 -0.18193013690E+04  0.26955350369E+03  0.49217266924E+03  0.19038777558E+04  0.10100000352E+00 0. -1.
</event>
<event>
 5   0  0.3959190E-07  0.4044104E+04  0.7818609E-02  0.7995708E-01
        2   -1    0    0  501    0  0.00000000000E+00  0.00000000000E+00  0.29199964508E+04  0.29199964508E+04  0.25500000920E-02 0.  1.
       -2   -1    0    0    0  501  0.00000000000E+00  0.00000000000E+00 -0.14002394900E+04  0.14002394900E+04  0.25500000920E-02 0. -1.
    10030    2    1    2    0    0  0.00000000000E+00  0.00000000000E+00  0.15197569607E+04  0.43202359408E+04  0.40441040250E+04 0.  0.
        2    1    3    3  502    0 -0.25495680684E+02 -0.73752132126E+02  0.29183872894E+04  0.29194303858E+04  0.25500000920E-02 0.  1.
       -2    1    3    3    0  502  0.25495680684E+02  0.73752132126E+02 -0.13986303287E+04  0.14008055550E+04  0.25500000920E-02 0. -1.
</event>
<event>
 5   0  0.1860500E-07  0.3910153E+04  0.7818609E-02  0.8022921E-01
        1   -1    0    0  501    0  0.00000000000E+00  0.00000000000E+00  0.19728208908E+04  0.19728208908E+04  0.50400001928E-02 0.  1.
       -1   -1    0    0    0  501  0.00000000000E+00  0.00000000000E+00 -0.19374920987E+04  0.19374920987E+04  0.50400001928E-02 0. -1.
    10030    2    1    2    0    0  0.00000000000E+00  0.00000000000E+00  0.35328792086E+02  0.39103129895E+04  0.39101533924E+04 0.  0.
        5    1    3    3  502    0  0.47079930795E+02 -0.18062011491E+04  0.76450388093E+03  0.19619040203E+04  0.46999998093E+01 0. -1.
       -5    1    3    3    0  502 -0.47079930795E+02  0.18062011491E+04 -0.72917508884E+03  0.19484089692E+04  0.46999998093E+01 0.  1.
</event>
<event>
 5   0  0.5735179E-07  0.3896623E+04  0.7818609E-02  0.8025732E-01
       -2   -1    0    0    0  501  0.00000000000E+00  0.00000000000E+00  0.16744133207E+04  0.16744133207E+04  0.25500000920E-02 0. -1.
        2   -1    0    0  501    0  0.00000000000E+00  0.00000000000E+00 -0.22670129942E+04  0.22670129942E+04  0.25500000920E-02 0.  1.
    10030    2    1    2    0    0  0.00000000000E+00  0.00000000000E+00 -0.59259967346E+03  0.39414263149E+04  0.38966225148E+04 0.  0.
        5    1    3    3  502    0 -0.27757222622E+03  0.13285880008E+04 -0.17101203041E+04  0.21832832984E+04  0.46999998093E+01 0.  1.
       -5    1    3    3    0  502  0.27757222622E+03 -0.13285880008E+04  0.11175206306E+04  0.17581430165E+04  0.46999998093E+01 0. -1.
</event>
<event>
 5   0  0.1876027E-07  0.3892484E+04  0.7818609E-02  0.8026594E-01
       -1   -1    0    0    0  501  0.00000000000E+00  0.00000000000E+00  0.14347700016E+04  0.14347700016E+04  0.50400001928E-02 0.  1.
        1   -1    0    0  501    0  0.00000000000E+00  0.00000000000E+00 -0.26400448870E+04  0.26400448870E+04  0.50400001928E-02 0. -1.
    10030    2    1    2    0    0  0.00000000000E+00  0.00000000000E+00 -0.12052748855E+04  0.40748148886E+04  0.38924836322E+04 0.  0.
        3    1    3    3  502    0  0.12175267278E+04  0.43174490535E+03  0.92125737111E+03  0.15866600613E+04  0.10100000352E+00 0.  1.
       -3    1    3    3    0  502 -0.12175267278E+04 -0.43174490535E+03 -0.21265322566E+04  0.24881548273E+04  0.10100000352E+00 0. -1.
</event>
<event>
 5   0  0.6095665E-07  0.3900891E+04  0.7818609E-02  0.8024844E-01
       -2   -1    0    0    0  501  0.00000000000E+00  0.00000000000E+00  0.21311364060E+04  0.21311364060E+04  0.25500000920E-02 0. -1.
        2   -1    0    0  501    0  0.00000000000E+00  0.00000000000E+00 -0.17850747175E+04  0.17850747175E+04  0.25500000920E-02 0.  1.
    10030    2    1    2    0    0  0.00000000000E+00  0.00000000000E+00  0.34606168843E+03  0.39162111235E+04  0.39008910356E+04 0.  0.
        4    1    3    3  502    0  0.49563495243E+03  0.17935113834E+04  0.76004855336E+03  0.20099782349E+04  0.12699999809E+01 0. -1.
       -4    1    3    3    0  502 -0.49563495243E+03 -0.17935113834E+04 -0.41398686493E+03  0.19062328886E+04  0.12699999809E+01 0.  1.
</event>
<event>
 5   0  0.3959190E-07  0.3893094E+04  0.7818609E-02  0.8026467E-01
       -2   -1    0    0    0  501  0.00000000000E+00  0.00000000000E+00  0.13597981233E+04  0.13597981233E+04  0.25500000920E-02 0.  1.
        2   -1    0    0  501    0  0.00000000000E+00  0.00000000000E+00 -0.27864757472E+04  0.27864757472E+04  0.25500000920E-02 0. -1.
    10030    2    1    2    0    0  0.00000000000E+00  0.00000000000E+00 -0.14266776239E+04  0.41462738705E+04  0.38930936242E+04 0.  0.
        2    1    3    3  502    0 -0.93956937613E+03  0.24313112231E+03  0.10837421147E+04  0.14547853197E+04  0.25500000920E-02 0.  1.
       -2    1    3    3    0  502  0.93956937613E+03 -0.24313112231E+03 -0.25104197386E+04  0.26914885508E+04  0.25500000920E-02 0. -1.
</event>
<event>
 5   0  0.1876027E-07  0.3701122E+04  0.7818609E-02  0.8067713E-01
        1   -1    0    0  501    0  0.00000000000E+00  0.00000000000E+00  0.27789533887E+04  0.27789533887E+04  0.50400001928E-02 0.  1.
       -1   -1    0    0    0  501  0.00000000000E+00  0.00000000000E+00 -0.12323255530E+04  0.12323255530E+04  0.50400001928E-02 0. -1.
    10030    2    1    2    0    0  0.00000000000E+00  0.00000000000E+00  0.15466278357E+04  0.40112789417E+04  0.37011215984E+04 0.  0.
        3    1    3    3  502    0 -0.71588355221E+03 -0.16002893892E+03  0.26146520237E+04  0.27156037518E+04  0.10100000352E+00 0.  1.
       -3    1    3    3    0  502  0.71588355221E+03  0.16002893892E+03 -0.10680241880E+04  0.12956751900E+04  0.10100000352E+00 0. -1.
</event>
<event>
 5   0  0.5805753E-07  0.3742605E+04  0.7818609E-02  0.8058585E-01
       -2   -1    0    0    0  501  0.00000000000E+00  0.00000000000E+00  0.15556834491E+04  0.15556834491E+04  0.25500000920E-02 0.  1.
        2   -1    0    0  501    0  0.00000000000E+00  0.00000000000E+00 -0.22509543528E+04  0.22509543528E+04  0.25500000920E-02 0. -1.
    10030    2    1    2    0    0  0.00000000000E+00  0.00000000000E+00 -0.69527090373E+03  0.38066378019E+04  0.37426046712E+04 0.  0.
        1    1    3    3  502    0  0.40879828529E+03 -0.16091712155E+04 -0.12256690439E+04  0.20636890861E+04  0.50400001928E-02 0. -1.
       -1    1    3    3    0  502 -0.40879828529E+03  0.16091712155E+04  0.53039814014E+03  0.17429487158E+04  0.50400001928E-02 0.  1.
</event>
<event>
 5   0  0.2666813E-07  0.3864210E+04  0.7818609E-02  0.8032514E-01
        1   -1    0    0  501    0  0.00000000000E+00  0.00000000000E+00  0.11038100023E+04  0.11038100023E+04  0.50400001928E-02 0.  1.
       -1   -1    0    0    0  501  0.00000000000E+00  0.00000000000E+00 -0.33819494913E+04  0.33819494913E+04  0.50400001928E-02 0. -1.
    10030    2    1    2    0    0  0.00000000000E+00  0.00000000000E+00 -0.22781394891E+04  0.44857594936E+04  0.38642099714E+04 0.  0.
        1    1    3    3  502    0  0.17087591286E+04 -0.34731357578E+03 -0.17302035898E+03  0.17522615456E+04  0.50400001928E-02 0. -1.
       -1    1    3    3    0  502 -0.17087591286E+04  0.34731357578E+03 -0.21051191301E+04  0.27334979480E+04  0.50400001928E-02 0.  1.
</event>
<event>
 5   0  0.1876027E-07  0.3290071E+04  0.7818609E-02  0.8165426E-01
        1   -1    0    0  501    0  0.00000000000E+00  0.00000000000E+00  0.18723384448E+04  0.18723384448E+04  0.50400001928E-02 0.  1.
       -1   -1    0    0    0  501  0.00000000000E+00  0.00000000000E+00 -0.14453271646E+04  0.14453271646E+04  0.50400001928E-02 0. -1.
    10030    2    1    2    0    0  0.00000000000E+00  0.00000000000E+00  0.42701128027E+03  0.33176656094E+04  0.32900708902E+04 0.  0.
        3    1    3    3  502    0  0.13157048687E+04 -0.95984661352E+03  0.44730536119E+03  0.16889247820E+04  0.10100000352E+00 0. -1.
       -3    1    3    3    0  502 -0.13157048687E+04  0.95984661352E+03 -0.20294080920E+02  0.16287408274E+04  0.10100000352E+00 0.  1.
</event>
<event>
 5   0  0.6095665E-07  0.3254551E+04  0.7818609E-02  0.8174557E-01
        2   -1    0    0  501    0  0.00000000000E+00  0.00000000000E+00  0.28644065915E+04  0.28644065915E+04  0.25500000920E-02 0. -1.
       -2   -1    0    0    0  501  0.00000000000E+00  0.00000000000E+00 -0.92445863845E+03  0.92445863845E+03  0.25500000920E-02 0.  1.
    10030    2    1    2    0    0  0.00000000000E+00  0.00000000000E+00  0.19399479531E+04  0.37888652300E+04  0.32545509168E+04 0.  0.
        4    1    3    3  502    0 -0.23889868818E+03  0.15273540012E+04  0.37848512766E+03  0.15915826818E+04  0.12699999809E+01 0.  1.
       -4    1    3    3    0  502  0.23889868818E+03 -0.15273540012E+04  0.15614628254E+04  0.21972825482E+04  0.12699999809E+01 0. -1.
</event>
<event>
 5   0  0.5735179E-07  0.3874361E+04  0.7818609E-02  0.8030383E-01
       -2   -1    0    0    0  501  0.00000000000E+00  0.00000000000E+00  0.14819728932E+04  0.14819728932E+04  0.25500000920E-02 0.  1.
        2   -1    0    0  501    0  0.00000000000E+00  0.00000000000E+00 -0.25322110367E+04  0.25322110367E+04  0.25500000920E-02 0. -1.
    10030    2    1    2    0    0  0.00000000000E+00  0.00000000000E+00 -0.10502381435E+04  0.40141839300E+04  0.38743609106E+04 0.  0.
        5    1    3    3  502    0 -0.16468934128E+04  0.77439145125E+03  0.16269597459E+03  0.18271376804E+04  0.46999998093E+01 0.  1.
       -5    1    3    3    0  502  0.16468934128E+04 -0.77439145125E+03 -0.12129341181E+04  0.21870462496E+04  0.46999998093E+01 0. -1.
</event>
<event>
 5   0  0.5805753E-07  0.3946835E+04  0.7818609E-02  0.8015358E-01
       -2   -1    0    0    0  501  0.00000000000E+00  0.00000000000E+00  0.27274698714E+04  0.27274698714E+04  0.25500000920E-02 0.  1.
        2   -1    0    0  501    0  0.00000000000E+00  0.00000000000E+00 -0.14278349366E+04  0.14278349366E+04  0.25500000920E-02 0. -1.
    10030    2    1    2    0    0  0.00000000000E+00  0.00000000000E+00  0.12996349348E+04  0.41553048079E+04  0.39468350717E+04 0.  0.
        1    1    3    3  502    0  0.79523233094E+00  0.21088447241E+03 -0.14159377152E+04  0.14315559739E+04  0.50400001928E-02 0. -1.
       -1    1    3    3    0  502 -0.79523233094E+00 -0.21088447241E+03  0.27155726500E+04  0.27237488340E+04  0.50400001928E-02 0.  1.
</event>
<event>
 5   0  0.5872444E-07  0.3973582E+04  0.7818609E-02  0.8009897E-01
       -2   -1    0    0    0  501  0.00000000000E+00  0.00000000000E+00  0.20436133872E+04  0.20436133872E+04  0.25500000920E-02 0.  1.
        2   -1    0    0  501    0  0.00000000000E+00  0.00000000000E+00 -0.19315481491E+04  0.19315481491E+04  0.25500000920E-02 0. -1.
    10030    2    1    2    0    0  0.00000000000E+00  0.00000000000E+00  0.11206523812E+03  0.39751615363E+04  0.39735815862E+04 0.  0.
        3    1    3    3  502    0 -0.69053950154E+02  0.52746628096E+02 -0.19296462672E+04  0.19316017657E+04  0.10100000352E+00 0. -1.
       -3    1    3    3    0  502  0.69053950154E+02 -0.52746628096E+02  0.20417115053E+04  0.20435597706E+04  0.10100000352E+00 0.  1.
</event>
<event>
 5   0  0.3959190E-07  0.2909676E+04  0.7818609E-02  0.8270004E-01
       -2   -1    0    0    0  501  0.00000000000E+00  0.00000000000E+00  0.16276102899E+04  0.16276102899E+04  0.25500000920E-02 0.  1.
        2   -1    0    0  501    0  0.00000000000E+00  0.00000000000E+00 -0.13004056252E+04  0.13004056252E+04  0.25500000920E-02 0. -1.
    10030    2    1    2    0    0  0.00000000000E+00  0.00000000000E+00  0.32720466465E+03  0.29280159151E+04  0.29096759797E+04 0.  0.
        2    1    3    3  502    0  0.12650038706E+04 -0.10777291441E+03  0.87850527412E+03  0.15438980893E+04  0.25500000920E-02 0. -1.
       -2    1    3    3    0  502 -0.12650038706E+04  0.10777291441E+03 -0.55130060947E+03  0.13841178258E+04  0.25500000920E-02 0.  1.
</event>
<event>
 5   0  0.1876027E-07  0.3871699E+04  0.7818609E-02  0.8030941E-01
        1   -1    0    0  501    0  0.00000000000E+00  0.00000000000E+00  0.21611092365E+04  0.21611092365E+04  0.50400001928E-02 0. -1.
       -1   -1    0    0    0  501  0.00000000000E+00  0.00000000000E+00 -0.17340695448E+04  0.17340695448E+04  0.50400001928E-02 0.  1.
    10030    2    1    2    0    0  0.00000000000E+00  0.00000000000E+00  0.42703969166E+03  0.38951787813E+04  0.38716992187E+04 0.  0.
        3    1    3    3  502    0  0.79760933402E+03 -0.16257032446E+04  0.90208403454E+03  0.20230786699E+04  0.10100000352E+00 0. -1.
       -3    1    3    3    0  502 -0.79760933402E+03  0.16257032446E+04 -0.47504434288E+03  0.18721001114E+04  0.10100000352E+00 0.  1.
</event>
<event>
 5   0  0.1876027E-07  0.3958539E+04  0.7818609E-02  0.8012963E-01
        1   -1    0    0  501    0  0.00000000000E+00  0.00000000000E+00  0.29075705928E+04  0.29075705928E+04  0.50400001928E-02 0.  1.
       -1   -1    0    0    0  501  0.00000000000E+00  0.00000000000E+00 -0.13473474432E+04  0.13473474432E+04  0.50400001928E-02 0. -1.
    10030    2    1    2    0    0  0.00000000000E+00  0.00000000000E+00  0.15602231496E+04  0.42549180359E+04  0.39585390254E+04 0.  0.
        3    1    3    3  502    0 -0.46795530422E+02  0.33418373490E+03  0.28764235980E+04  0.28961493945E+04  0.10100000352E+00 0.  1.
       -3    1    3    3    0  502  0.46795530422E+02 -0.33418373490E+03 -0.13162004484E+04  0.13587686414E+04  0.10100000352E+00 0. -1.
</event>
<event>
 5   0  0.5805753E-07  0.3857208E+04  0.7818609E-02  0.8033988E-01
        2   -1    0    0  501    0  0.00000000000E+00  0.00000000000E+00  0.19950918565E+04  0.19950918565E+04  0.25500000920E-02 0.  1.
       -2   -1    0    0    0  501  0.00000000000E+00  0.00000000000E+00 -0.18643320966E+04  0.18643320966E+04  0.25500000920E-02 0. -1.
    10030    2    1    2    0    0  0.00000000000E+00  0.00000000000E+00  0.13075975983E+03  0.38594239531E+04  0.38572082048E+04 0.  0.
        1    1    3    3  502    0 -0.18258826167E+03 -0.68966815673E+03 -0.17274454723E+04  0.18689699033E+04  0.50400001928E-02 0. -1.
       -1    1    3    3    0  502  0.18258826167E+03  0.68966815673E+03  0.18582052321E+04  0.19904540498E+04  0.50400001928E-02 0.  1.
</event>
<event>
 5   0  0.6095665E-07  0.3977773E+04  0.7818609E-02  0.8009045E-01
        2   -1    0    0  501    0  0.00000000000E+00  0.00000000000E+00  0.17938491744E+04  0.17938491744E+04  0.25500000920E-02 0. -1.
       -2   -1    0    0    0  501  0.00000000000E+00  0.00000000000E+00 -0.22051297299E+04  0.22051297299E+04  0.25500000920E-02 0.  1.
    10030    2    1    2    0    0  0.00000000000E+00  0.00000000000E+00 -0.41128055550E+03  0.39989789043E+04  0.39777733195E+04 0.  0.
        4    1    3    3  502    0 -0.16793226994E+04  0.10450062262E+04 -0.41533264291E+03  0.20210555555E+04  0.12699999809E+01 0. -1.
       -4    1    3    3    0  502  0.16793226994E+04 -0.10450062262E+04  0.40520874075E+01  0.19779233488E+04  0.12699999809E+01 0.  1.
</event>
<event>
 5   0  0.1943459E-07  0.3239978E+04  0.7818609E-02  0.8178338E-01
       -1   -1    0    0    0  501  0.00000000000E+00  0.00000000000E+00  0.15518227297E+04  0.15518227298E+04  0.50400001928E-02 0.  1.
        1   -1    0    0  501    0  0.00000000000E+00  0.00000000000E+00 -0.16911497968E+04  0.16911497968E+04  0.50400001928E-02 0. -1.
    10030    2    1    2    0    0  0.00000000000E+00  0.00000000000E+00 -0.13932706704E+03  0.32429725266E+04  0.32399782062E+04 0.  0.
        2    1    3    3  502    0 -0.11853142462E+04 -0.82076948006E+03  0.66975614933E+03  0.15897187491E+04  0.25500000920E-02 0.  1.
       -2    1    3    3    0  502  0.11853142462E+04  0.82076948006E+03 -0.80908321637E+03  0.16532537775E+04  0.25500000920E-02 0. -1.
</event>
<event>
 5   0  0.2666813E-07  0.3213836E+04  0.7818609E-02  0.8185173E-01
       -1   -1    0    0    0  501  0.00000000000E+00  0.00000000000E+00  0.25325475495E+04  0.25325475495E+04  0.50400001928E-02 0.  1.
        1   -1    0    0  501    0  0.00000000000E+00  0.00000000000E+00 -0.10195998717E+04  0.10195998717E+04  0.50400001928E-02 0. -1.
    10030    2    1    2    0    0  0.00000000000E+00  0.00000000000E+00  0.15129476778E+04  0.35521474212E+04  0.32138358119E+04 0.  0.
        1    1    3    3  502    0 -0.10692630476E+04  0.11876605710E+04  0.94248758787E+03  0.18553015793E+04  0.50400001928E-02 0. -1.
       -1    1    3    3    0  502  0.10692630476E+04 -0.11876605710E+04  0.57046008997E+03  0.16968458419E+04  0.50400001928E-02 0.  1.
</event>
<event>
 5   0  0.5735179E-07  0.3941630E+04  0.7818609E-02  0.8016426E-01
        2   -1    0    0  501    0  0.00000000000E+00  0.00000000000E+00  0.12428099829E+04  0.12428099829E+04  0.25500000920E-02 0.  1.
       -2   -1    0    0    0  501  0.00000000000E+00  0.00000000000E+00 -0.31252653304E+04  0.31252653304E+04  0.25500000920E-02 0. -1.
    10030    2    1    2    0    0  0.00000000000E+00  0.00000000000E+00 -0.18824553475E+04  0.43680753133E+04  0.39416295878E+04 0.  0.
        5    1    3    3  502    0  0.39106511893E+03 -0.19262442677E+04 -0.78163306276E+03  0.21152591427E+04  0.46999998093E+01 0.  1.
       -5    1    3    3    0  502 -0.39106511893E+03  0.19262442677E+04 -0.11008222848E+04  0.22528161706E+04  0.46999998093E+01 0. -1.
</event>
<event>
 5   0  0.3959190E-07  0.3047599E+04  0.7818609E-02  0.8230268E-01
       -2   -1    0    0    0  501  0.00000000000E+00  0.00000000000E+00  0.10708486153E+04  0.10708486153E+04  0.25500000920E-02 0.  1.
        2   -1    0    0  501    0  0.00000000000E+00  0.00000000000E+00 -0.21683413525E+04  0.21683413525E+04  0.25500000920E-02 0. -1.
    10030    2    1    2    0    0  0.00000000000E+00  0.00000000000E+00 -0.10974927372E+04  0.32391899678E+04  0.30475992748E+04 0.  0.
        2    1    3    3  502    0  0.65860618222E+03  0.48455600719E+03  0.81793938515E+03  0.11565385705E+04  0.25500000920E-02 0.  1.
       -2    1    3    3    0  502 -0.65860618222E+03 -0.48455600719E+03 -0.19154321223E+04  0.20826513973E+04  0.25500000920E-02 0. -1.
</event>
<event>
 5   0  0.6095665E-07  0.2966193E+04  0.7818609E-02  0.8253451E-01
       -2   -1    0    0    0  501  0.00000000000E+00  0.00000000000E+00  0.10806289560E+04  0.10806289560E+04  0.25500000920E-02 0. -1.
        2   -1    0    0  501    0  0.00000000000E+00  0.00000000000E+00 -0.20354577787E+04  0.20354577787E+04  0.25500000920E-02 0.  1.
    10030    2    1    2    0    0  0.00000000000E+00  0.00000000000E+00 -0.95482882273E+03  0.31160867347E+04  0.29661925860E+04 0.  0.
        4    1    3    3  502    0 -0.10080674627E+04  0.10874647896E+04 -0.44782506734E+03  0.15489766240E+04  0.12699999809E+01 0.  1.
       -4    1    3    3    0  502  0.10080674627E+04 -0.10874647896E+04 -0.50700375539E+03  0.15671101106E+04  0.12699999809E+01 0. -1.
</event>
<event>
 5   0  0.5735179E-07  0.3094113E+04  0.7818609E-02  0.8217355E-01
       -2   -1    0    0    0  501  0.00000000000E+00  0.00000000000E+00  0.18714746591E+04  0.18714746591E+04  0.25500000920E-02 0.  1.
        2   -1    0    0  501    0  0.00000000000E+00  0.00000000000E+00 -0.12788762928E+04  0.12788762928E+04  0.25500000920E-02 0. -1.
    10030    2    1    2    0    0  0.00000000000E+00  0.00000000000E+00  0.59259836632E+03  0.31503509519E+04  0.30941134912E+04 0.  0.
        5    1    3    3  502    0 -0.14043625133E+04  0.52143897173E+03 -0.97024861635E+02  0.15011890567E+04  0.46999998093E+01 0.  1.
       -5    1    3    3    0  502  0.14043625133E+04 -0.52143897173E+03  0.68962322796E+03  0.16491618952E+04  0.46999998093E+01 0. -1.
</event>
<event>
 5   0  0.1876027E-07  0.3908597E+04  0.7818609E-02  0.8023244E-01
       -1   -1    0    0    0  501  0.00000000000E+00  0.00000000000E+00  0.15620248708E+04  0.15620248708E+04  0.50400001928E-02 0.  1.
        1   -1    0    0  501    0  0.00000000000E+00  0.00000000000E+00 -0.24450846932E+04  0.24450846932E+04  0.50400001928E-02 0. -1.
    10030    2    1    2    0    0  0.00000000000E+00  0.00000000000E+00 -0.88305982242E+03  0.40071095639E+04  0.39085972429E+04 0.  0.
        3    1    3    3  502    0  0.16180300598E+04  0.90987906807E+03  0.18492082779E+03  0.18655017865E+04  0.10100000352E+00 0.  1.
       -3    1    3    3    0  502 -0.16180300598E+04 -0.90987906807E+03 -0.10679806502E+04  0.21416077774E+04  0.10100000352E+00 0. -1.
</event>
<event>
 5   0  0.1860500E-07  0.3894424E+04  0.7818609E-02  0.8026190E-01
       -4   -1    0    0    0  501  0.00000000000E+00  0.00000000000E+00  0.20648746482E+04  0.20648750387E+04  0.12699999809E+01 0. -1.
        4   -1    0    0  501    0  0.00000000000E+00  0.00000000000E+00 -0.18362531446E+04  0.18362535838E+04  0.12699999809E+01 0.  1.
    10030    2    1    2    0    0  0.00000000000E+00  0.00000000000E+00  0.22862150358E+03  0.39011286225E+04  0.38944238004E+04 0.  0.
        5    1    3    3  502    0  0.14381922538E+04  0.18725197972E+03  0.14158366399E+04  0.20268388549E+04  0.46999998093E+01 0. -1.
       -5    1    3    3    0  502 -0.14381922538E+04 -0.18725197972E+03 -0.11872151363E+04  0.18742897676E+04  0.46999998093E+01 0.  1.
</event>
<event>
 5   0  0.5805753E-07  0.3958136E+04  0.7818609E-02  0.8013045E-01
       -2   -1    0    0    0  501  0.00000000000E+00  0.00000000000E+00  0.17235588488E+04  0.17235588488E+04  0.25500000920E-02 0.  1.
        2   -1    0    0  501    0  0.00000000000E+00  0.00000000000E+00 -0.22724556870E+04  0.22724556870E+04  0.25500000920E-02 0. -1.
    10030    2    1    2    0    0  0.00000000000E+00  0.00000000000E+00 -0.54889683822E+03  0.39960145358E+04  0.39581364847E+04 0.  0.
        1    1    3    3  502    0  0.12850457418E+04  0.79500489373E+03  0.10158020635E+04  0.18207770791E+04  0.50400001928E-02 0.  1.
       -1    1    3    3    0  502 -0.12850457418E+04 -0.79500489373E+03 -0.15646989017E+04  0.21752374566E+04  0.50400001928E-02 0. -1.
</event>
<event>
 5   0  0.1943459E-07  0.2611032E+04  0.7818609E-02  0.8364464E-01
       -1   -1    0    0    0  501  0.00000000000E+00  0.00000000000E+00  0.11756080616E+04  0.11756080616E+04  0.50400001928E-02 0.  1.
        1   -1    0    0  501    0  0.00000000000E+00  0.00000000000E+00 -0.14497788109E+04  0.14497788109E+04  0.50400001928E-02 0. -1.
    10030    2    1    2    0    0  0.00000000000E+00  0.00000000000E+00 -0.27417074929E+03  0.26253868724E+04  0.26110317176E+04 0.  0.
        2    1    3    3  502    0 -0.46685802278E+03 -0.81187329596E+03 -0.10516336515E+04  0.14082002695E+04  0.25500000920E-02 0. -1.
       -2    1    3    3    0  502  0.46685802278E+03  0.81187329596E+03  0.77746290217E+03  0.12171866029E+04  0.25500000920E-02 0.  1.
</event>
<event>
 5   0  0.6095665E-07  0.3925416E+04  0.7818609E-02  0.8019764E-01
       -2   -1    0    0    0  501  0.00000000000E+00  0.00000000000E+00  0.33753077498E+04  0.33753077498E+04  0.25500000920E-02 0.  1.
        2   -1    0    0  501    0  0.00000000000E+00  0.00000000000E+00 -0.11412954713E+04  0.11412954713E+04  0.25500000920E-02 0. -1.
    10030    2    1    2    0    0  0.00000000000E+00  0.00000000000E+00  0.22340122785E+04  0.45166032211E+04  0.39254163851E+04 0.  0.
        4    1    3    3  502    0 -0.89568287076E+03  0.11540696462E+04  0.26251753989E+04  0.30042756267E+04  0.12699999809E+01 0.  1.
       -4    1    3    3    0  502  0.89568287076E+03 -0.11540696462E+04 -0.39116312040E+03  0.15123275944E+04  0.12699999809E+01 0. -1.
</event>
<event>
 5   0  0.1860500E-07  0.2844028E+04  0.7818609E-02  0.8289728E-01
        3   -1    0    0  501    0  0.00000000000E+00  0.00000000000E+00  0.14709656928E+04  0.14709656962E+04  0.10100000352E+00 0. -1.
       -3   -1    0    0    0  501  0.00000000000E+00  0.00000000000E+00 -0.13746910210E+04  0.13746910247E+04  0.10100000352E+00 0.  1.
    10030    2    1    2    0    0  0.00000000000E+00  0.00000000000E+00  0.96274671795E+02  0.28456567209E+04  0.28440276653E+04 0.  0.
        5    1    3    3  502    0  0.22560243064E+03 -0.25349109445E+03 -0.13335761938E+04  0.13760820275E+04  0.46999998093E+01 0.  1.
       -5    1    3    3    0  502 -0.22560243064E+03  0.25349109445E+03  0.14298508656E+04  0.14695746934E+04  0.46999998093E+01 0. -1.
</event>
<event>
 5   0  0.3959190E-07  0.3827614E+04  0.7818609E-02  0.8040255E-01
       -2   -1    0    0    0  501  0.00000000000E+00  0.00000000000E+00  0.15815809954E+04  0.15815809954E+04  0.25500000920E-02 0. -1.
        2   -1    0    0  501    0  0.00000000000E+00  0.00000000000E+00 -0.23158204918E+04  0.23158204918E+04  0.25500000920E-02 0.  1.
    10030    2    1    2    0    0  0.00000000000E+00  0.00000000000E+00 -0.73423949645E+03  0.38974014872E+04  0.38276142326E+04 0.  0.
        2    1    3    3  502    0 -0.26056669073E+03  0.11351859945E+04 -0.19133974997E+04  0.22400071952E+04  0.25500000920E-02 0.  1.
       -2    1    3    3    0  502  0.26056669073E+03 -0.11351859945E+04  0.11791580033E+04  0.16573942920E+04  0.25500000920E-02 0. -1.
</event>
<event>
 5   0  0.2178584E-07  0.2407569E+04  0.7818609E-02  0.8436675E-01
       -1   -1    0    0    0  501  0.00000000000E+00  0.00000000000E+00  0.10692089127E+04  0.10692089127E+04  0.50400001928E-02 0. -1.
        1   -1    0    0  501    0  0.00000000000E+00  0.00000000000E+00 -0.13552981519E+04  0.13552981519E+04  0.50400001928E-02 0.  1.
    10030    2    1    2    0    0  0.00000000000E+00  0.00000000000E+00 -0.28608923926E+03  0.24245070646E+04  0.24075687848E+04 0.  0.
        4    1    3    3  502    0  0.66758623814E+03 -0.54124147713E+03  0.70578621185E+03  0.11120924025E+04  0.12699999809E+01 0. -1.
       -4    1    3    3    0  502 -0.66758623814E+03  0.54124147713E+03 -0.99187545111E+03  0.13124146621E+04  0.12699999809E+01 0.  1.
</event>
<event>
 5   0  0.3959190E-07  0.3824158E+04  0.7818609E-02  0.8040990E-01
       -2   -1    0    0    0  501  0.00000000000E+00  0.00000000000E+00  0.19654385421E+04  0.19654385421E+04  0.25500000920E-02 0. -1.
        2   -1    0    0  501    0  0.00000000000E+00  0.00000000000E+00 -0.18601680206E+04  0.18601680206E+04  0.25500000920E-02 0.  1.
    10030    2    1    2    0    0  0.00000000000E+00  0.00000000000E+00  0.10527052151E+03  0.38256065627E+04  0.38241579060E+04 0.  0.
        2    1    3    3  502    0  0.11974987104E+04 -0.31086763182E+03 -0.14057935722E+04  0.18726711974E+04  0.25500000920E-02 0.  1.
       -2    1    3    3    0  502 -0.11974987104E+04  0.31086763182E+03  0.15110640937E+04  0.19529353653E+04  0.25500000920E-02 0. -1.
</event>
<event>
 5   0  0.1876027E-07  0.3936223E+04  0.7818609E-02  0.8017537E-01
        1   -1    0    0  501    0  0.00000000000E+00  0.00000000000E+00  0.17894935333E+04  0.17894935333E+04  0.50400001928E-02 0.  1.
       -1   -1    0    0    0  501  0.00000000000E+00  0.00000000000E+00 -0.21645580969E+04  0.21645580969E+04  0.50400001928E-02 0. -1.
    10030    2    1    2    0    0  0.00000000000E+00  0.00000000000E+00 -0.37506456352E+03  0.39540516302E+04  0.39362229189E+04 0.  0.
        3    1    3    3  502    0  0.17102503464E+04 -0.27402746643E+03 -0.11263322677E+04  0.20660763991E+04  0.10100000352E+00 0. -1.
       -3    1    3    3    0  502 -0.17102503464E+04  0.27402746643E+03  0.75126770414E+03  0.18879752311E+04  0.10100000352E+00 0.  1.
</event>
<event>
 5   0  0.5872444E-07  0.3601429E+04  0.7818609E-02  0.8090164E-01
        2   -1    0    0  501    0  0.00000000000E+00  0.00000000000E+00  0.20236261753E+04  0.20236261753E+04  0.25500000920E-02 0.  1.
       -2   -1    0    0    0  501  0.00000000000E+00  0.00000000000E+00 -0.16023579860E+04  0.16023579860E+04  0.25500000920E-02 0. -1.
    10030    2    1    2    0    0  0.00000000000E+00  0.00000000000E+00  0.42126818925E+03  0.36259841613E+04  0.36014294732E+04 0.  0.
        3    1    3    3  502    0 -0.11797495966E+04 -0.10035718490E+04  0.11353776841E+04  0.19204291350E+04  0.10100000352E+00 0.  1.
       -3    1    3    3    0  502  0.11797495966E+04  0.10035718490E+04 -0.71410949483E+03  0.17055550263E+04  0.10100000352E+00 0. -1.
</event>
<event>
 5   0  0.5735179E-07  0.3921397E+04  0.7818609E-02  0.8020594E-01
       -2   -1    0    0    0  501  0.00000000000E+00  0.00000000000E+00  0.17505661581E+04  0.17505661581E+04  0.25500000920E-02 0. -1.
        2   -1    0    0  501    0  0.00000000000E+00  0.00000000000E+00 -0.21960547607E+04  0.21960547607E+04  0.25500000920E-02 0.  1.
    10030    2    1    2    0    0  0.00000000000E+00  0.00000000000E+00 -0.44548860260E+03  0.39466209189E+04  0.39213972742E+04 0.  0.
        5    1    3    3  502    0 -0.54474661225E+03  0.89150740661E+03 -0.18925676840E+04  0.21617975983E+04  0.46999998093E+01 0.  1.
       -5    1    3    3    0  502  0.54474661225E+03 -0.89150740661E+03  0.14470790814E+04  0.17848233205E+04  0.46999998093E+01 0. -1.
</event>
<event>
 5   0  0.5805753E-07  0.2596926E+04  0.7818609E-02  0.8369246E-01
        2   -1    0    0  501    0  0.00000000000E+00  0.00000000000E+00  0.15642376862E+04  0.15642376862E+04  0.25500000920E-02 0.  1.
       -2   -1    0    0    0  501  0.00000000000E+00  0.00000000000E+00 -0.10778452114E+04  0.10778452114E+04  0.25500000920E-02 0. -1.
    10030    2    1    2    0    0  0.00000000000E+00  0.00000000000E+00  0.48639247480E+03  0.26420828976E+04  0.25969259516E+04 0.  0.
        1    1    3    3  502    0  0.19602233028E+03  0.12729132960E+04  0.41121354335E+03  0.13519724818E+04  0.50400001928E-02 0.  1.
       -1    1    3    3    0  502 -0.19602233028E+03 -0.12729132960E+04  0.75178931442E+02  0.12901104158E+04  0.50400001928E-02 0. -1.
</event>
<event>
 5   0  0.1943459E-07  0.3208421E+04  0.7818609E-02  0.8186597E-01
        1   -1    0    0  501    0  0.00000000000E+00  0.00000000000E+00  0.10786374707E+04  0.10786374707E+04  0.50400001928E-02 0.  1.
       -1   -1    0    0    0  501  0.00000000000E+00  0.00000000000E+00 -0.23858723674E+04  0.23858723674E+04  0.50400001928E-02 0. -1.
    10030    2    1    2    0    0  0.00000000000E+00  0.00000000000E+00 -0.13072348967E+04  0.34645098382E+04  0.32084210048E+04 0.  0.
        2    1    3    3  502    0  0.14548454797E+04 -0.67578053243E+03 -0.67022833837E+03  0.17385225691E+04  0.25500000920E-02 0.  1.
       -2    1    3    3    0  502 -0.14548454797E+04  0.67578053243E+03 -0.63700655832E+03  0.17259872691E+04  0.25500000920E-02 0. -1.
</event>
<event>
 5   0  0.1876027E-07  0.2859796E+04  0.7818609E-02  0.8284941E-01
        1   -1    0    0  501    0  0.00000000000E+00  0.00000000000E+00  0.14710880246E+04  0.14710880246E+04  0.50400001928E-02 0.  1.
       -1   -1    0    0    0  501  0.00000000000E+00  0.00000000000E+00 -0.13898611922E+04  0.13898611922E+04  0.50400001928E-02 0. -1.
    10030    2    1    2    0    0  0.00000000000E+00  0.00000000000E+00  0.81226832336E+02  0.28609492168E+04  0.28597959058E+04 0.  0.
        3    1    3    3  502    0  0.46642567646E+03  0.10941399917E+04 -0.75337719015E+03  0.14079319706E+04  0.10100000352E+00 0. -1.
       -3    1    3    3    0  502 -0.46642567646E+03 -0.10941399917E+04  0.83460402249E+03  0.14530172462E+04  0.10100000352E+00 0.  1.
</event>
<event>
 5   0  0.1876027E-07  0.3720018E+04  0.7818609E-02  0.8063540E-01
        1   -1    0    0  501    0  0.00000000000E+00  0.00000000000E+00  0.22007809952E+04  0.22007809952E+04  0.50400001928E-02 0.  1.
       -1   -1    0    0    0  501  0.00000000000E+00  0.00000000000E+00 -0.15720027742E+04  0.15720027742E+04  0.50400001928E-02 0. -1.
    10030    2    1    2    0    0  0.00000000000E+00  0.00000000000E+00  0.62877822099E+03  0.37727837694E+04  0.37200181880E+04 0.  0.
        3    1    3    3  502    0  0.24631044248E+03  0.14563749024E+04 -0.83210438718E+03  0.16953154314E+04  0.10100000352E+00 0.  1.
       -3    1    3    3    0  502 -0.24631044248E+03 -0.14563749024E+04  0.14608826082E+04  0.20774683380E+04  0.10100000352E+00 0. -1.
</event>
<event>
 5   0  0.6095665E-07  0.2669058E+04  0.7818609E-02  0.8345115E-01
        2   -1    0    0  501    0  0.00000000000E+00  0.00000000000E+00  0.17959921135E+04  0.17959921135E+04  0.25500000920E-02 0.  1.
       -2   -1    0    0    0  501  0.00000000000E+00  0.00000000000E+00 -0.99163418816E+03  0.99163418816E+03  0.25500000920E-02 0. -1.
    10030    2    1    2    0    0  0.00000000000E+00  0.00000000000E+00  0.80435792538E+03  0.27876263017E+04  0.26690576475E+04 0.  0.
        4    1    3    3  502    0  0.16182924431E+03  0.13232011380E+04  0.33682431829E+03  0.13749553412E+04  0.12699999809E+01 0.  1.
       -4    1    3    3    0  502 -0.16182924431E+03 -0.13232011380E+04  0.46753360709E+03  0.14126709605E+04  0.12699999809E+01 0. -1.
</event>
<event>
 5   0  0.1860500E-07  0.2427731E+04  0.7818609E-02  0.8429194E-01
       -1   -1    0    0    0  501  0.00000000000E+00  0.00000000000E+00  0.61478511095E+03  0.61478511097E+03  0.50400001928E-02 0.  1.
        1   -1    0    0  501    0  0.00000000000E+00  0.00000000000E+00 -0.23967226348E+04  0.23967226348E+04  0.50400001928E-02 0. -1.
    10030    2    1    2    0    0  0.00000000000E+00  0.00000000000E+00 -0.17819375238E+04  0.30115077457E+04  0.24277309496E+04 0.  0.
        5    1    3    3  502    0  0.10059200601E+04 -0.65613758708E+03 -0.11095703917E+04  0.16351025181E+04  0.46999998093E+01 0. -1.
       -5    1    3    3    0  502 -0.10059200601E+04  0.65613758708E+03 -0.67236713212E+03  0.13764052277E+04  0.46999998093E+01 0.  1.
</event>
<event>
 5   0  0.1860500E-07  0.3914402E+04  0.7818609E-02  0.8022041E-01
       -1   -1    0    0    0  501  0.00000000000E+00  0.00000000000E+00  0.28297202866E+04  0.28297202866E+04  0.50400001928E-02 0. -1.
        1   -1    0    0  501    0  0.00000000000E+00  0.00000000000E+00 -0.13537152277E+04  0.13537152277E+04  0.50400001928E-02 0.  1.
    10030    2    1    2    0    0  0.00000000000E+00  0.00000000000E+00  0.14760050589E+04  0.41834355143E+04  0.39144018405E+04 0.  0.
        4    1    3    3  502    0  0.71946319525E+03  0.14301841014E+04  0.19412511071E+04  0.25162494565E+04  0.12699999809E+01 0. -1.
       -4    1    3    3    0  502 -0.71946319525E+03 -0.14301841014E+04 -0.46524604823E+03  0.16671860579E+04  0.12699999809E+01 0.  1.
</event>
<event>
 5   0  0.1943459E-07  0.3905836E+04  0.7818609E-02  0.8023816E-01
       -1   -1    0    0    0  501  0.00000000000E+00  0.00000000000E+00  0.19395933655E+04  0.19395933656E+04  0.50400001928E-02 0. -1.
        1   -1    0    0  501    0  0.00000000000E+00  0.00000000000E+00 -0.19663346222E+04  0.19663346222E+04  0.50400001928E-02 0.  1.
    10030    2    1    2    0    0  0.00000000000E+00  0.00000000000E+00 -0.26741256681E+02  0.39059279878E+04  0.39058364470E+04 0.  0.
        2    1    3    3  502    0 -0.20704137225E+03 -0.65977240866E+03  0.18130685813E+04  0.19404595955E+04  0.25500000920E-02 0. -1.
       -2    1    3    3    0  502  0.20704137225E+03  0.65977240866E+03 -0.18398098380E+04  0.19654683923E+04  0.25500000920E-02 0.  1.
</event>
<event>
 5   0  0.5805753E-07  0.3968009E+04  0.7818609E-02  0.8011031E-01
       -2   -1    0    0    0  501  0.00000000000E+00  0.00000000000E+00  0.15229510029E+04  0.15229510029E+04  0.25500000920E-02 0. -1.
        2   -1    0    0  501    0  0.00000000000E+00  0.00000000000E+00 -0.25846361029E+04  0.25846361029E+04  0.25500000920E-02 0.  1.
    10030    2    1    2    0    0  0.00000000000E+00  0.00000000000E+00 -0.10616851000E+04  0.41075871058E+04  0.39680091457E+04 0.  0.
        1    1    3    3  502    0 -0.17194629898E+04 -0.98358436136E+03 -0.64556962454E+03  0.20834469778E+04  0.50400001928E-02 0.  1.
       -1    1    3    3    0  502  0.17194629898E+04  0.98358436136E+03 -0.41611547544E+03  0.20241401281E+04  0.50400001928E-02 0. -1.
</event>
<event>
 5   0  0.3959190E-07  0.3618684E+04  0.7818609E-02  0.8086225E-01
       -2   -1    0    0    0  501  0.00000000000E+00  0.00000000000E+00  0.16159466655E+04  0.16159466655E+04  0.25500000920E-02 0. -1.
        2   -1    0    0  501    0  0.00000000000E+00  0.00000000000E+00 -0.20258822241E+04  0.20258822241E+04  0.25500000920E-02 0.  1.
    10030    2    1    2    0    0  0.00000000000E+00  0.00000000000E+00 -0.40993555859E+03  0.36418288897E+04  0.36186835313E+04 0.  0.
        2    1    3    3  502    0 -0.10047358140E+04 -0.10048624992E+04 -0.13321650421E+04  0.19477952659E+04  0.25500000920E-02 0. -1.
       -2    1    3    3    0  502  0.10047358140E+04  0.10048624992E+04  0.92222948349E+03  0.16940336238E+04  0.25500000920E-02 0.  1.
</event>
<event>
 5   0  0.5805753E-07  0.3706026E+04  0.7818609E-02  0.8066628E-01
       -2   -1    0    0    0  501  0.00000000000E+00  0.00000000000E+00  0.20746258171E+04  0.20746258171E+04  0.25500000920E-02 0.  1.
        2   -1    0    0  501    0  0.00000000000E+00  0.00000000000E+00 -0.16550726889E+04  0.16550726889E+04  0.25500000920E-02 0. -1.
    10030    2    1    2    0    0  0.00000000000E+00  0.00000000000E+00  0.41955312827E+03  0.37296985060E+04  0.37060256500E+04 0.  0.
        1    1    3    3  502    0 -0.75420889080E+03 -0.21288283351E+03  0.18996409235E+04  0.20549417973E+04  0.50400001928E-02 0.  1.
       -1    1    3    3    0  502  0.75420889080E+03  0.21288283351E+03 -0.14800877953E+04  0.16747567087E+04  0.50400001928E-02 0. -1.
</event>
<event>
 5   0  0.5805753E-07  0.4047727E+04  0.7818609E-02  0.7994987E-01
       -2   -1    0    0    0  501  0.00000000000E+00  0.00000000000E+00  0.20262474118E+04  0.20262474118E+04  0.25500000920E-02 0.  1.
        2   -1    0    0  501    0  0.00000000000E+00  0.00000000000E+00 -0.20214826283E+04  0.20214826283E+04  0.25500000920E-02 0. -1.
    10030    2    1    2    0    0  0.00000000000E+00  0.00000000000E+00  0.47647835040E+01  0.40477300401E+04  0.40477272356E+04 0.  0.
        1    1    3    3  502    0  0.44991509095E+02 -0.13979558204E+04  0.14651613213E+04  0.20255869296E+04  0.50400001928E-02 0.  1.
       -1    1    3    3    0  502 -0.44991509095E+02  0.13979558204E+04 -0.14603965378E+04  0.20221431105E+04  0.50400001928E-02 0. -1.
</event>
<event>
 5   0  0.1860500E-07  0.3829858E+04  0.7818609E-02  0.8039778E-01
       -1   -1    0    0    0  501  0.00000000000E+00  0.00000000000E+00  0.22591713207E+04  0.22591713207E+04  0.50400001928E-02 0. -1.
        1   -1    0    0  501    0  0.00000000000E+00  0.00000000000E+00 -0.16231411848E+04  0.16231411849E+04  0.50400001928E-02 0.  1.
    10030    2    1    2    0    0  0.00000000000E+00  0.00000000000E+00  0.63603013587E+03  0.38823125056E+04  0.38298584905E+04 0.  0.
        5    1    3    3  502    0 -0.82207755909E+03 -0.93459980858E+03  0.17931583279E+04  0.21828255071E+04  0.46999998093E+01 0. -1.
       -5    1    3    3    0  502  0.82207755909E+03  0.93459980858E+03 -0.11571281920E+04  0.16994869985E+04  0.46999998093E+01 0.  1.
</event>
<event>
 5   0  0.1860500E-07  0.3873882E+04  0.7818609E-02  0.8030483E-01
        1   -1    0    0  501    0  0.00000000000E+00  0.00000000000E+00  0.22439276483E+04  0.22439276483E+04  0.50400001928E-02 0.  1.
       -1   -1    0    0    0  501  0.00000000000E+00  0.00000000000E+00 -0.16719528014E+04  0.16719528014E+04  0.50400001928E-02 0. -1.
    10030    2    1    2    0    0  0.00000000000E+00  0.00000000000E+00  0.57197484693E+03  0.39158804497E+04  0.38738823512E+04 0.  0.
        4    1    3    3  502    0 -0.12929091326E+03 -0.11752864959E+04 -0.12648306689E+04  0.17314192796E+04  0.12699999809E+01 0. -1.
       -4    1    3    3    0  502  0.12929091326E+03  0.11752864959E+04  0.18368055159E+04  0.21844611701E+04  0.12699999809E+01 0.  1.
</event>
<event>
 5   0  0.1860500E-07  0.3891052E+04  0.7818609E-02  0.8026893E-01
        1   -1    0    0  501    0  0.00000000000E+00  0.00000000000E+00  0.17187875484E+04  0.17187875484E+04  0.50400001928E-02 0. -1.
       -1   -1    0    0    0  501  0.00000000000E+00  0.00000000000E+00 -0.22021747188E+04  0.22021747188E+04  0.50400001928E-02 0.  1.
    10030    2    1    2    0    0  0.00000000000E+00  0.00000000000E+00 -0.48338717044E+03  0.39209622672E+04  0.38910515216E+04 0.  0.
        5    1    3    3  502    0  0.96137515605E+03 -0.16899291611E+04 -0.17082777720E+03  0.19517445990E+04  0.46999998093E+01 0.  1.
       -5    1    3    3    0  502 -0.96137515605E+03  0.16899291611E+04 -0.31255939323E+03  0.19692176682E+04  0.46999998093E+01 0. -1.
</event>
<event>
 5   0  0.2666813E-07  0.3957622E+04  0.7818609E-02  0.8013150E-01
       -1   -1    0    0    0  501  0.00000000000E+00  0.00000000000E+00  0.22171411874E+04  0.22171411874E+04  0.50400001928E-02 0. -1.
        1   -1    0    0  501    0  0.00000000000E+00  0.00000000000E+00 -0.17661003920E+04  0.17661003920E+04  0.50400001928E-02 0.  1.
    10030    2    1    2    0    0  0.00000000000E+00  0.00000000000E+00  0.45104079545E+03  0.39832415794E+04  0.39576224783E+04 0.  0.
        1    1    3    3  502    0  0.13350295480E+04 -0.14544646604E+04  0.90778543969E+02  0.19763633488E+04  0.50400001928E-02 0.  1.
       -1    1    3    3    0  502 -0.13350295480E+04  0.14544646604E+04  0.36026225148E+03  0.20068782306E+04  0.50400001928E-02 0. -1.
</event>
<event>
 5   0  0.3959190E-07  0.3579785E+04  0.7818609E-02  0.8095138E-01
       -2   -1    0    0    0  501  0.00000000000E+00  0.00000000000E+00  0.21172274412E+04  0.21172274412E+04  0.25500000920E-02 0. -1.
        2   -1    0    0  501    0  0.00000000000E+00  0.00000000000E+00 -0.15131653022E+04  0.15131653022E+04  0.25500000920E-02 0.  1.
    10030    2    1    2    0    0  0.00000000000E+00  0.00000000000E+00  0.60406213901E+03  0.36303927435E+04  0.35797849662E+04 0.  0.
        2    1    3    3  502    0 -0.13075747273E+04  0.61226105362E+03  0.13748615074E+04  0.19937049505E+04  0.25500000920E-02 0. -1.
       -2    1    3    3    0  502  0.13075747273E+04 -0.61226105362E+03 -0.77079936835E+03  0.16366877929E+04  0.25500000920E-02 0.  1.
</event>
<event>
 5   0  0.6095665E-07  0.3701499E+04  0.7818609E-02  0.8067630E-01
       -2   -1    0    0    0  501  0.00000000000E+00  0.00000000000E+00  0.14899439476E+04  0.14899439476E+04  0.25500000920E-02 0. -1.
        2   -1    0    0  501    0  0.00000000000E+00  0.00000000000E+00 -0.22989274713E+04  0.22989274713E+04  0.25500000920E-02 0.  1.
    10030    2    1    2    0    0  0.00000000000E+00  0.00000000000E+00 -0.80898352367E+03  0.37888714189E+04  0.37014986543E+04 0.  0.
        4    1    3    3  502    0 -0.13349416496E+04  0.87995813900E+03  0.54964615135E+03  0.16907122874E+04  0.12699999809E+01 0. -1.
       -4    1    3    3    0  502  0.13349416496E+04 -0.87995813900E+03 -0.13586296750E+04  0.20981591315E+04  0.12699999809E+01 0.  1.
</event>
<event>
 5   0  0.3959190E-07  0.3884151E+04  0.7818609E-02  0.8028334E-01
       -2   -1    0    0    0  501  0.00000000000E+00  0.00000000000E+00  0.21521407678E+04  0.21521407678E+04  0.25500000920E-02 0.  1.
        2   -1    0    0  501    0  0.00000000000E+00  0.00000000000E+00 -0.17525142452E+04  0.17525142452E+04  0.25500000920E-02 0. -1.
    10030    2    1    2    0    0  0.00000000000E+00  0.00000000000E+00  0.39962652258E+03  0.39046550130E+04  0.38841510544E+04 0.  0.
        2    1    3    3  502    0 -0.12071199695E+04  0.80731444044E+01 -0.13295504913E+04  0.17958029695E+04  0.25500000920E-02 0. -1.
       -2    1    3    3    0  502  0.12071199695E+04 -0.80731444044E+01  0.17291770138E+04  0.21088520435E+04  0.25500000920E-02 0.  1.
</event>
<event>
 5   0  0.1876027E-07  0.3889984E+04  0.7818609E-02  0.8027116E-01
        1   -1    0    0  501    0  0.00000000000E+00  0.00000000000E+00  0.14051835976E+04  0.14051835976E+04  0.50400001928E-02 0. -1.
       -1   -1    0    0    0  501  0.00000000000E+00  0.00000000000E+00 -0.26921704354E+04  0.26921704354E+04  0.50400001928E-02 0.  1.
    10030    2    1    2    0    0  0.00000000000E+00  0.00000000000E+00 -0.12869868377E+04  0.40973540330E+04  0.38899839268E+04 0.  0.
        3    1    3    3  502    0 -0.18910595587E+04  0.39061414926E+03 -0.39802940811E+03  0.19715762953E+04  0.10100000352E+00 0. -1.
       -3    1    3    3    0  502  0.18910595587E+04 -0.39061414926E+03 -0.88895742963E+03  0.21257777377E+04  0.10100000352E+00 0.  1.
</event>
<event>
 5   0  0.5805753E-07  0.2712216E+04  0.7818609E-02  0.8331052E-01
        2   -1    0    0  501    0  0.00000000000E+00  0.00000000000E+00  0.11977426168E+04  0.11977426168E+04  0.25500000920E-02 0.  1.
       -2   -1    0    0    0  501  0.00000000000E+00  0.00000000000E+00 -0.15354122687E+04  0.15354122687E+04  0.25500000920E-02 0. -1.
    10030    2    1    2    0    0  0.00000000000E+00  0.00000000000E+00 -0.33766965198E+03  0.27331548855E+04  0.27122158532E+04 0.  0.
        1    1    3    3  502    0 -0.82615640648E+02  0.47874339797E+03  0.11070393725E+04  0.12089486165E+04  0.50400001928E-02 0.  1.
       -1    1    3    3    0  502  0.82615640648E+02 -0.47874339797E+03 -0.14447090244E+04  0.15242062690E+04  0.50400001928E-02 0. -1.
</event>
<event>
 5   0  0.5735179E-07  0.3845981E+04  0.7818609E-02  0.8036359E-01
       -2   -1    0    0    0  501  0.00000000000E+00  0.00000000000E+00  0.19384411676E+04  0.19384411676E+04  0.25500000920E-02 0. -1.
        2   -1    0    0  501    0  0.00000000000E+00  0.00000000000E+00 -0.19076634771E+04  0.19076634771E+04  0.25500000920E-02 0.  1.
    10030    2    1    2    0    0  0.00000000000E+00  0.00000000000E+00  0.30777690502E+02  0.38461046446E+04  0.38459814965E+04 0.  0.
        5    1    3    3  502    0 -0.16807924840E+03 -0.49457963057E+02 -0.18996593143E+04  0.19077275288E+04  0.46999998093E+01 0.  1.
       -5    1    3    3    0  502  0.16807924840E+03  0.49457963057E+02  0.19304370048E+04  0.19383771158E+04  0.46999998093E+01 0. -1.
</event>
<event>
 5   0  0.6095665E-07  0.3870592E+04  0.7818609E-02  0.8031173E-01
       -2   -1    0    0    0  501  0.00000000000E+00  0.00000000000E+00  0.22333388229E+04  0.22333388229E+04  0.25500000920E-02 0. -1.
        2   -1    0    0  501    0  0.00000000000E+00  0.00000000000E+00 -0.16770272924E+04  0.16770272924E+04  0.25500000920E-02 0.  1.
    10030    2    1    2    0    0  0.00000000000E+00  0.00000000000E+00  0.55631153056E+03  0.39103661153E+04  0.38705917683E+04 0.  0.
        4    1    3    3  502    0 -0.12835581302E+04 -0.14119405979E+04 -0.48072395999E+02  0.19087719334E+04  0.12699999809E+01 0. -1.
       -4    1    3    3    0  502  0.12835581302E+04  0.14119405979E+04  0.60438392656E+03  0.20015941819E+04  0.12699999809E+01 0.  1.
</event>
<event>
 5   0  0.1876027E-07  0.3943884E+04  0.7818609E-02  0.8015964E-01
        1   -1    0    0  501    0  0.00000000000E+00  0.00000000000E+00  0.20435492752E+04  0.20435492752E+04  0.50400001928E-02 0. -1.
       -1   -1    0    0    0  501  0.00000000000E+00  0.00000000000E+00 -0.19028437975E+04  0.19028437975E+04  0.50400001928E-02 0.  1.
    10030    2    1    2    0    0  0.00000000000E+00  0.00000000000E+00  0.14070547775E+03  0.39463930727E+04  0.39438839046E+04 0.  0.
        3    1    3    3  502    0  0.13494346946E+04 -0.11478803958E+04 -0.79619571524E+03  0.19423004467E+04  0.10100000352E+00 0.  1.
       -3    1    3    3    0  502 -0.13494346946E+04  0.11478803958E+04  0.93690119299E+03  0.20040926260E+04  0.10100000352E+00 0. -1.
</event>
<event>
 5   0  0.1860500E-07  0.3901748E+04  0.7818609E-02  0.8024666E-01
        1   -1    0    0  501    0  0.00000000000E+00  0.00000000000E+00  0.14773521461E+04  0.14773521461E+04  0.50400001928E-02 0. -1.
       -1   -1    0    0    0  501  0.00000000000E+00  0.00000000000E+00 -0.25761689060E+04  0.25761689060E+04  0.50400001928E-02 0.  1.
    10030    2    1    2    0    0  0.00000000000E+00  0.00000000000E+00 -0.10988167598E+04  0.40535210521E+04  0.39017476402E+04 0.  0.
        4    1    3    3  502    0  0.42057119172E+03  0.57854748384E+03 -0.24350340031E+04  0.25379104648E+04  0.12699999809E+01 0.  1.
       -4    1    3    3    0  502 -0.42057119172E+03 -0.57854748384E+03  0.13362172432E+04  0.15156105873E+04  0.12699999809E+01 0. -1.
</event>
<event>
 5   0  0.1876027E-07  0.3900305E+04  0.7818609E-02  0.8024966E-01
       -1   -1    0    0    0  501  0.00000000000E+00  0.00000000000E+00  0.21626773424E+04  0.21626773424E+04  0.50400001928E-02 0.  1.
        1   -1    0    0  501    0  0.00000000000E+00  0.00000000000E+00 -0.17585124378E+04  0.17585124378E+04  0.50400001928E-02 0. -1.
    10030    2    1    2    0    0  0.00000000000E+00  0.00000000000E+00  0.40416490456E+03  0.39211897802E+04  0.39003051192E+04 0.  0.
        3    1    3    3  502    0  0.17322769780E+04  0.17664435451E+03  0.10849121839E+04  0.20515899233E+04  0.10100000352E+00 0.  1.
       -3    1    3    3    0  502 -0.17322769780E+04 -0.17664435451E+03 -0.68074727934E+03  0.18695998569E+04  0.10100000352E+00 0. -1.
</event>
<event>
 5   0  0.6095665E-07  0.3967994E+04  0.7818609E-02  0.8011034E-01
       -2   -1    0    0    0  501  0.00000000000E+00  0.00000000000E+00  0.19537129894E+04  0.19537129894E+04  0.25500000920E-02 0.  1.
        2   -1    0    0  501    0  0.00000000000E+00  0.00000000000E+00 -0.20147502970E+04  0.20147502970E+04  0.25500000920E-02 0. -1.
    10030    2    1    2    0    0  0.00000000000E+00  0.00000000000E+00 -0.61037307610E+02  0.39684632864E+04  0.39679938637E+04 0.  0.
        4    1    3    3  502    0  0.13648565500E+04  0.33163567217E+03 -0.14319076700E+04  0.20057858334E+04  0.12699999809E+01 0. -1.
       -4    1    3    3    0  502 -0.13648565500E+04 -0.33163567217E+03  0.13708703624E+04  0.19626774530E+04  0.12699999809E+01 0.  1.
</event>
<event>
 5   0  0.5735179E-07  0.3842777E+04  0.7818609E-02  0.8037037E-01
       -2   -1    0    0    0  501  0.00000000000E+00  0.00000000000E+00  0.20411737494E+04  0.20411737494E+04  0.25500000920E-02 0.  1.
        2   -1    0    0  501    0  0.00000000000E+00  0.00000000000E+00 -0.18086323906E+04  0.18086323906E+04  0.25500000920E-02 0. -1.
    10030    2    1    2    0    0  0.00000000000E+00  0.00000000000E+00  0.23254135885E+03  0.38498061400E+04  0.38427765785E+04 0.  0.
        5    1    3    3  502    0  0.19151156301E+04 -0.14920256918E+03  0.15855671229E+03  0.19274572899E+04  0.46999998093E+01 0. -1.
       -5    1    3    3    0  502 -0.19151156301E+04  0.14920256918E+03  0.73984646557E+02  0.19223488501E+04  0.46999998093E+01 0.  1.
</event>
<event>
 5   0  0.3959190E-07  0.3928043E+04  0.7818609E-02  0.8019222E-01
       -2   -1    0    0    0  501  0.00000000000E+00  0.00000000000E+00  0.14418403493E+04  0.14418403493E+04  0.25500000920E-02 0. -1.
        2   -1    0    0  501    0  0.00000000000E+00  0.00000000000E+00 -0.26753168177E+04  0.26753168177E+04  0.25500000920E-02 0.  1.
    10030    2    1    2    0    0  0.00000000000E+00  0.00000000000E+00 -0.12334764684E+04  0.41171571670E+04  0.39280426347E+04 0.  0.
        2    1    3    3  502    0  0.15590147372E+04 -0.37639923461E+03 -0.18049740096E+04  0.24145671475E+04  0.25500000920E-02 0.  1.
       -2    1    3    3    0  502 -0.15590147372E+04  0.37639923461E+03  0.57149754125E+03  0.17025900194E+04  0.25500000920E-02 0. -1.
</event>
<event>
 5   0  0.5805753E-07  0.3937734E+04  0.7818609E-02  0.8017227E-01
        2   -1    0    0  501    0  0.00000000000E+00  0.00000000000E+00  0.16679752175E+04  0.16679752175E+04  0.25500000920E-02 0. -1.
       -2   -1    0    0    0  501  0.00000000000E+00  0.00000000000E+00 -0.23240373034E+04  0.23240373034E+04  0.25500000920E-02 0.  1.
    10030    2    1    2    0    0  0.00000000000E+00  0.00000000000E+00 -0.65606208592E+03  0.39920125209E+04  0.39377336764E+04 0.  0.
        1    1    3    3  502    0  0.15828816678E+03 -0.62278345196E+03  0.15586763282E+04  0.16859378007E+04  0.50400001928E-02 0. -1.
       -1    1    3    3    0  502 -0.15828816678E+03  0.62278345196E+03 -0.22147384141E+04  0.23060747201E+04  0.50400001928E-02 0.  1.
</event>
<event>
 5   0  0.3959190E-07  0.2527623E+04  0.7818609E-02  0.8393210E-01
        2   -1    0    0  501    0  0.00000000000E+00  0.00000000000E+00  0.22640330773E+04  0.22640330773E+04  0.25500000920E-02 0.  1.
       -2   -1    0    0    0  501  0.00000000000E+00  0.00000000000E+00 -0.70547554801E+03  0.70547554801E+03  0.25500000920E-02 0. -1.
    10030    2    1    2    0    0  0.00000000000E+00  0.00000000000E+00  0.15585575293E+04  0.29695086253E+04  0.25276233706E+04 0.  0.
        2    1    3    3  502    0 -0.12185182530E+04 -0.33287454662E+03  0.82667785222E+03  0.15096318982E+04  0.25500000920E-02 0. -1.
       -2    1    3    3    0  502  0.12185182530E+04  0.33287454662E+03  0.73187967707E+03  0.14598767271E+04  0.25500000920E-02 0.  1.
</event>
<event>
 5   0  0.5872444E-07  0.3865170E+04  0.7818609E-02  0.8032313E-01
        2   -1    0    0  501    0  0.00000000000E+00  0.00000000000E+00  0.23060905416E+04  0.23060905416E+04  0.25500000920E-02 0. -1.
       -2   -1    0    0    0  501  0.00000000000E+00  0.00000000000E+00 -0.16195738603E+04  0.16195738603E+04  0.25500000920E-02 0.  1.
    10030    2    1    2    0    0  0.00000000000E+00  0.00000000000E+00  0.68651668135E+03  0.39256644019E+04  0.38651695749E+04 0.  0.
        3    1    3    3  502    0  0.55214104578E+03 -0.63912111362E+03  0.21087244963E+04  0.22715753440E+04  0.10100000352E+00 0. -1.
       -3    1    3    3    0  502 -0.55214104578E+03  0.63912111362E+03 -0.14222078149E+04  0.16540890579E+04  0.10100000352E+00 0.  1.
</event>
<event>
 5   0  0.5872444E-07  0.4089461E+04  0.7818609E-02  0.7986739E-01
        2   -1    0    0  501    0  0.00000000000E+00  0.00000000000E+00  0.17820454872E+04  0.17820454872E+04  0.25500000920E-02 0. -1.
       -2   -1    0    0    0  501  0.00000000000E+00  0.00000000000E+00 -0.23461371214E+04  0.23461371214E+04  0.25500000920E-02 0.  1.
    10030    2    1    2    0    0  0.00000000000E+00  0.00000000000E+00 -0.56409163420E+03  0.41281826086E+04  0.40894611232E+04 0.  0.
        3    1    3    3  502    0 -0.13083316691E+04 -0.49686214600E+03  0.12228140010E+04  0.18584611483E+04  0.10100000352E+00 0. -1.
       -3    1    3    3    0  502  0.13083316691E+04  0.49686214600E+03 -0.17869056352E+04  0.22697214604E+04  0.10100000352E+00 0.  1.
</event>
<event>
 5   0  0.3959190E-07  0.3921151E+04  0.7818609E-02  0.8020645E-01
       -2   -1    0    0    0  501  0.00000000000E+00  0.00000000000E+00  0.16873079804E+04  0.16873079804E+04  0.25500000920E-02 0.  1.
        2   -1    0    0  501    0  0.00000000000E+00  0.00000000000E+00 -0.22781000057E+04  0.22781000057E+04  0.25500000920E-02 0. -1.
    10030    2    1    2    0    0  0.00000000000E+00  0.00000000000E+00 -0.59079202524E+03  0.39654079861E+04  0.39211510145E+04 0.  0.
        2    1    3    3  502    0 -0.91672933459E+03 -0.56882081881E+03  0.13601228420E+04  0.17360541299E+04  0.25500000920E-02 0.  1.
       -2    1    3    3    0  502  0.91672933459E+03  0.56882081881E+03 -0.19509148672E+04  0.22293538561E+04  0.25500000920E-02 0. -1.
</event>
<event>
 5   0  0.1876027E-07  0.3855143E+04  0.7818609E-02  0.8034424E-01
       -1   -1    0    0    0  501  0.00000000000E+00  0.00000000000E+00  0.15071475763E+04  0.15071475763E+04  0.50400001928E-02 0.  1.
        1   -1    0    0  501    0  0.00000000000E+00  0.00000000000E+00 -0.24652736862E+04  0.24652736862E+04  0.50400001928E-02 0. -1.
    10030    2    1    2    0    0  0.00000000000E+00  0.00000000000E+00 -0.95812610994E+03  0.39724212625E+04  0.38551426750E+04 0.  0.
        3    1    3    3  502    0  0.13748871394E+04  0.71729819276E+03 -0.16587491943E+04  0.22707444249E+04  0.10100000352E+00 0. -1.
       -3    1    3    3    0  502 -0.13748871394E+04 -0.71729819276E+03  0.70062308435E+03  0.17016768377E+04  0.10100000352E+00 0.  1.
</event>
<event>
 5   0  0.1943459E-07  0.3622625E+04  0.7818609E-02  0.8085329E-01
        1   -1    0    0  501    0  0.00000000000E+00  0.00000000000E+00  0.25100261659E+04  0.25100261659E+04  0.50400001928E-02 0. -1.
       -1   -1    0    0    0  501  0.00000000000E+00  0.00000000000E+00 -0.13070988701E+04  0.13070988701E+04  0.50400001928E-02 0.  1.
    10030    2    1    2    0    0  0.00000000000E+00  0.00000000000E+00  0.12029272958E+04  0.38171250360E+04  0.36226246647E+04 0.  0.
        2    1    3    3  502    0  0.14776282299E+03 -0.82996007915E+03 -0.10877913802E+04  0.13762113470E+04  0.25500000920E-02 0.  1.
       -2    1    3    3    0  502 -0.14776282299E+03  0.82996007915E+03  0.22907186759E+04  0.24409136890E+04  0.25500000920E-02 0. -1.
</event>
<event>
 5   0  0.1943459E-07  0.2411514E+04  0.7818609E-02  0.8435206E-01
        1   -1    0    0  501    0  0.00000000000E+00  0.00000000000E+00  0.12684059391E+04  0.12684059392E+04  0.50400001928E-02 0. -1.
       -1   -1    0    0    0  501  0.00000000000E+00  0.00000000000E+00 -0.11462020142E+04  0.11462020142E+04  0.50400001928E-02 0.  1.
    10030    2    1    2    0    0  0.00000000000E+00  0.00000000000E+00  0.12220392497E+03  0.24146079533E+04  0.24115135847E+04 0.  0.
        2    1    3    3  502    0  0.44491168679E+03 -0.67548820538E+03 -0.83425948349E+03  0.11619895053E+04  0.25500000920E-02 0.  1.
       -2    1    3    3    0  502 -0.44491168679E+03  0.67548820538E+03  0.95646340846E+03  0.12526184480E+04  0.25500000920E-02 0. -1.
</event>
<event>
 5   0  0.1876027E-07  0.3615513E+04  0.7818609E-02  0.8086947E-01
        1   -1    0    0  501    0  0.00000000000E+00  0.00000000000E+00  0.19053254108E+04  0.19053254108E+04  0.50400001928E-02 0.  1.
       -1   -1    0    0    0  501  0.00000000000E+00  0.00000000000E+00 -0.17151841814E+04  0.17151841814E+04  0.50400001928E-02 0. -1.
    10030    2    1    2    0    0  0.00000000000E+00  0.00000000000E+00  0.19014122937E+03  0.36205095923E+04  0.36155132444E+04 0.  0.
        3    1    3    3  502    0 -0.30191515710E+03  0.14934290083E+04 -0.87915667594E+03  0.17590905139E+04  0.10100000352E+00 0.  1.
       -3    1    3    3    0  502  0.30191515710E+03 -0.14934290083E+04  0.10692979053E+04  0.18614190784E+04  0.10100000352E+00 0. -1.
</event>
<event>
 5   0  0.5805753E-07  0.3906515E+04  0.7818609E-02  0.8023675E-01
       -2   -1    0    0    0  501  0.00000000000E+00  0.00000000000E+00  0.24079831463E+04  0.24079831463E+04  0.25500000920E-02 0.  1.
        2   -1    0    0  501    0  0.00000000000E+00  0.00000000000E+00 -0.15844030307E+04  0.15844030308E+04  0.25500000920E-02 0. -1.
    10030    2    1    2    0    0  0.00000000000E+00  0.00000000000E+00  0.82358011555E+03  0.39923861771E+04  0.39065154780E+04 0.  0.
        1    1    3    3  502    0  0.14923953239E+04  0.46971587912E+03  0.16068263431E+04  0.22427143613E+04  0.50400001928E-02 0.  1.
       -1    1    3    3    0  502 -0.14923953239E+04 -0.46971587912E+03 -0.78324622751E+03  0.17496718157E+04  0.50400001928E-02 0. -1.
</event>
<event>
 5   0  0.1876027E-07  0.3859301E+04  0.7818609E-02  0.8033547E-01
       -1   -1    0    0    0  501  0.00000000000E+00  0.00000000000E+00  0.21471290104E+04  0.21471290105E+04  0.50400001928E-02 0.  1.
        1   -1    0    0  501    0  0.00000000000E+00  0.00000000000E+00 -0.17341998164E+04  0.17341998164E+04  0.50400001928E-02 0. -1.
    10030    2    1    2    0    0  0.00000000000E+00  0.00000000000E+00  0.41292919408E+03  0.38813288268E+04  0.38593008360E+04 0.  0.
        3    1    3    3  502    0  0.48406493450E+03 -0.79736008931E+03  0.19053216707E+04  0.21214034627E+04  0.10100000352E+00 0.  1.
       -3    1    3    3    0  502 -0.48406493450E+03  0.79736008931E+03 -0.14923924766E+04  0.17599253641E+04  0.10100000352E+00 0. -1.
</event>
<event>
 5   0  0.5805753E-07  0.3873970E+04  0.7818609E-02  0.8030465E-01
       -2   -1    0    0    0  501  0.00000000000E+00  0.00000000000E+00  0.18434752533E+04  0.18434752533E+04  0.25500000920E-02 0. -1.
        2   -1    0    0  501    0  0.00000000000E+00  0.00000000000E+00 -0.20352379235E+04  0.20352379235E+04  0.25500000920E-02 0.  1.
    10030    2    1    2    0    0  0.00000000000E+00  0.00000000000E+00 -0.19176267022E+03  0.38787131767E+04  0.38739699257E+04 0.  0.
        1    1    3    3  502    0 -0.56899813756E+03  0.43869977342E+03  0.17051246978E+04  0.18503152723E+04  0.50400001928E-02 0. -1.
       -1    1    3    3    0  502  0.56899813756E+03 -0.43869977342E+03 -0.18968873680E+04  0.20283979044E+04  0.50400001928E-02 0.  1.
</event>
<event>
 5   0  0.2666813E-07  0.3887323E+04  0.7818609E-02  0.8027671E-01
       -1   -1    0    0    0  501  0.00000000000E+00  0.00000000000E+00  0.25022169126E+04  0.25022169126E+04  0.50400001928E-02 0. -1.
        1   -1    0    0  501    0  0.00000000000E+00  0.00000000000E+00 -0.15097892182E+04  0.15097892182E+04  0.50400001928E-02 0.  1.
    10030    2    1    2    0    0  0.00000000000E+00  0.00000000000E+00  0.99242769434E+03  0.40120061308E+04  0.38873230462E+04 0.  0.
        1    1    3    3  502    0 -0.79965025043E+03  0.15610231536E+04 -0.36825929930E+03  0.17921631400E+04  0.50400001928E-02 0.  1.
       -1    1    3    3    0  502  0.79965025043E+03 -0.15610231536E+04  0.13606869936E+04  0.22198429908E+04  0.50400001928E-02 0. -1.
</event>
<event>
 5   0  0.3959190E-07  0.3889859E+04  0.7818609E-02  0.8027142E-01
       -2   -1    0    0    0  501  0.00000000000E+00  0.00000000000E+00  0.13581386047E+04  0.13581386047E+04  0.25500000920E-02 0.  1.
        2   -1    0    0  501    0  0.00000000000E+00  0.00000000000E+00 -0.27852462502E+04  0.27852462502E+04  0.25500000920E-02 0. -1.
    10030    2    1    2    0    0  0.00000000000E+00  0.00000000000E+00 -0.14271076455E+04  0.41433848549E+04  0.38898588437E+04 0.  0.
        2    1    3    3  502    0 -0.19344741243E+04  0.93267293814E+02 -0.52342202733E+03  0.20062052597E+04  0.25500000920E-02 0.  1.
       -2    1    3    3    0  502  0.19344741243E+04 -0.93267293814E+02 -0.90368561815E+03  0.21371795952E+04  0.25500000920E-02 0. -1.
</event>
<event>
 5   0  0.3959190E-07  0.2974568E+04  0.7818609E-02  0.8251031E-01
        2   -1    0    0  501    0  0.00000000000E+00  0.00000000000E+00  0.20619280371E+04  0.20619280371E+04  0.25500000920E-02 0. -1.
       -2   -1    0    0    0  501  0.00000000000E+00  0.00000000000E+00 -0.10727891060E+04  0.10727891060E+04  0.25500000920E-02 0.  1.
    10030    2    1    2    0    0  0.00000000000E+00  0.00000000000E+00  0.98913893105E+03  0.31347171431E+04  0.29745681607E+04 0.  0.
        2    1    3    3  502    0 -0.11708267629E+04  0.90728014281E+03  0.63604075986E+03  0.16119988879E+04  0.25500000920E-02 0. -1.
       -2    1    3    3    0  502  0.11708267629E+04 -0.90728014281E+03  0.35309817119E+03  0.15227182552E+04  0.25500000920E-02 0.  1.
</event>
<event>
 5   0  0.1860500E-07  0.2476140E+04  0.7818609E-02  0.8411536E-01
       -1   -1    0    0    0  501  0.00000000000E+00  0.00000000000E+00  0.91257572119E+03  0.91257572121E+03  0.50400001928E-02 0.  1.
        1   -1    0    0  501    0  0.00000000000E+00  0.00000000000E+00 -0.16796599929E+04  0.16796599929E+04  0.50400001928E-02 0. -1.
    10030    2    1    2    0    0  0.00000000000E+00  0.00000000000E+00 -0.76708427171E+03  0.25922357141E+04  0.24761396806E+04 0.  0.
        5    1    3    3  502    0  0.51938649422E+03  0.12778385450E+03 -0.15524519116E+04  0.16420170742E+04  0.46999998093E+01 0. -1.
       -5    1    3    3    0  502 -0.51938649422E+03 -0.12778385450E+03  0.78536763994E+03  0.95021863995E+03  0.46999998093E+01 0.  1.
</event>
<event>
 5   0  0.1876027E-07  0.3757300E+04  0.7818609E-02  0.8055381E-01
       -1   -1    0    0    0  501  0.00000000000E+00  0.00000000000E+00  0.16369344282E+04  0.16369344282E+04  0.50400001928E-02 0.  1.
        1   -1    0    0  501    0  0.00000000000E+00  0.00000000000E+00 -0.21560580967E+04  0.21560580967E+04  0.50400001928E-02 0. -1.
    10030    2    1    2    0    0  0.00000000000E+00  0.00000000000E+00 -0.51912366848E+03  0.37929925249E+04  0.37572999495E+04 0.  0.
        3    1    3    3  502    0  0.46605475856E+03 -0.82252246780E+03 -0.18984293552E+04  0.21207980279E+04  0.10100000352E+00 0. -1.
       -3    1    3    3    0  502 -0.46605475856E+03  0.82252246780E+03  0.13793056868E+04  0.16721944970E+04  0.10100000352E+00 0.  1.
</event>
<event>
 5   0  0.1943459E-07  0.3916737E+04  0.7818609E-02  0.8021557E-01
       -1   -1    0    0    0  501  0.00000000000E+00  0.00000000000E+00  0.17789086335E+04  0.17789086335E+04  0.50400001928E-02 0. -1.
        1   -1    0    0  501    0  0.00000000000E+00  0.00000000000E+00 -0.21559327958E+04  0.21559327958E+04  0.50400001928E-02 0.  1.
    10030    2    1    2    0    0  0.00000000000E+00  0.00000000000E+00 -0.37702416230E+03  0.39348414293E+04  0.39167371439E+04 0.  0.
        2    1    3    3  502    0 -0.14600026103E+04 -0.14650115458E+03 -0.14914794012E+04  0.20922669559E+04  0.25500000920E-02 0.  1.
       -2    1    3    3    0  502  0.14600026103E+04  0.14650115458E+03  0.11144552389E+04  0.18425744734E+04  0.25500000920E-02 0. -1.
</event>
<event>
 5   0  0.3959190E-07  0.3594784E+04  0.7818609E-02  0.8091688E-01
        2   -1    0    0  501    0  0.00000000000E+00  0.00000000000E+00  0.26146953707E+04  0.26146953707E+04  0.25500000920E-02 0.  1.
       -2   -1    0    0    0  501  0.00000000000E+00  0.00000000000E+00 -0.12355619006E+04  0.12355619006E+04  0.25500000920E-02 0. -1.
    10030    2    1    2    0    0  0.00000000000E+00  0.00000000000E+00  0.13791334701E+04  0.38502572713E+04  0.35947839889E+04 0.  0.
        2    1    3    3  502    0 -0.65737763783E+03 -0.11804171162E+03 -0.10977173416E+04  0.12849367947E+04  0.25500000920E-02 0. -1.
       -2    1    3    3    0  502  0.65737763783E+03  0.11804171162E+03  0.24768508116E+04  0.25653204766E+04  0.25500000920E-02 0.  1.
</event>
<event>
 5   0  0.1876027E-07  0.3910717E+04  0.7818609E-02  0.8022804E-01
       -1   -1    0    0    0  501  0.00000000000E+00  0.00000000000E+00  0.16309844670E+04  0.16309844670E+04  0.50400001928E-02 0. -1.
        1   -1    0    0  501    0  0.00000000000E+00  0.00000000000E+00 -0.23442447283E+04  0.23442447283E+04  0.50400001928E-02 0.  1.
    10030    2    1    2    0    0  0.00000000000E+00  0.00000000000E+00 -0.71326026137E+03  0.39752291953E+04  0.39107169362E+04 0.  0.
        3    1    3    3  502    0  0.16593486027E+03 -0.17928339380E+04  0.41860328455E+03  0.18485174133E+04  0.10100000352E+00 0. -1.
       -3    1    3    3    0  502 -0.16593486027E+03  0.17928339380E+04 -0.11318635459E+04  0.21267117821E+04  0.10100000352E+00 0.  1.
</event>
<event>
 5   0  0.3959190E-07  0.3621358E+04  0.7818609E-02  0.8085617E-01
        2   -1    0    0  501    0  0.00000000000E+00  0.00000000000E+00  0.28536088300E+04  0.28536088300E+04  0.25500000920E-02 0.  1.
       -2   -1    0    0    0  501  0.00000000000E+00  0.00000000000E+00 -0.11489163119E+04  0.11489163120E+04  0.25500000920E-02 0. -1.
    10030    2    1    2    0    0  0.00000000000E+00  0.00000000000E+00  0.17046925181E+04  0.40025251420E+04  0.36213576088E+04 0.  0.
        2    1    3    3  502    0 -0.13974712519E+04  0.25618303213E+03  0.20929934237E+04  0.25296594865E+04  0.25500000920E-02 0.  1.
       -2    1    3    3    0  502  0.13974712519E+04 -0.25618303213E+03 -0.38830090563E+03  0.14728656555E+04  0.25500000920E-02 0. -1.
</event>
<event>
 5   0  0.6095665E-07  0.2967855E+04  0.7818609E-02  0.8252970E-01
        2   -1    0    0  501    0  0.00000000000E+00  0.00000000000E+00  0.15282826919E+04  0.15282826919E+04  0.25500000920E-02 0. -1.
       -2   -1    0    0    0  501  0.00000000000E+00  0.00000000000E+00 -0.14408596703E+04  0.14408596703E+04  0.25500000920E-02 0.  1.
    10030    2    1    2    0    0  0.00000000000E+00  0.00000000000E+00  0.87423021589E+02  0.29691423622E+04  0.29678550474E+04 0.  0.
        4    1    3    3  502    0 -0.89409616046E+03  0.27272721095E+03  0.11967092218E+04  0.15185198880E+04  0.12699999809E+01 0. -1.
       -4    1    3    3    0  502  0.89409616046E+03 -0.27272721095E+03 -0.11092862002E+04  0.14506224742E+04  0.12699999809E+01 0.  1.
</event>
<event>
 5   0  0.1860500E-07  0.3833154E+04  0.7818609E-02  0.8039077E-01
       -1   -1    0    0    0  501  0.00000000000E+00  0.00000000000E+00  0.17563492078E+04  0.17563492078E+04  0.50400001928E-02 0.  1.
        1   -1    0    0  501    0  0.00000000000E+00  0.00000000000E+00 -0.20914224793E+04  0.20914224793E+04  0.50400001928E-02 0. -1.
    10030    2    1    2    0    0  0.00000000000E+00  0.00000000000E+00 -0.33507327149E+03  0.38477716870E+04  0.38331544266E+04 0.  0.
        5    1    3    3  502    0 -0.14594867564E+04  0.98996459198E+03 -0.92080787774E+03  0.19894825265E+04  0.46999998093E+01 0. -1.
       -5    1    3    3    0  502  0.14594867564E+04 -0.98996459198E+03  0.58573460625E+03  0.18582891606E+04  0.46999998093E+01 0.  1.
</event>
<event>
 5   0  0.5735179E-07  0.3942706E+04  0.7818609E-02  0.8016205E-01
        2   -1    0    0  501    0  0.00000000000E+00  0.00000000000E+00  0.19918427951E+04  0.19918427951E+04  0.25500000920E-02 0.  1.
       -2   -1    0    0    0  501  0.00000000000E+00  0.00000000000E+00 -0.19510735365E+04  0.19510735365E+04  0.25500000920E-02 0. -1.
    10030    2    1    2    0    0  0.00000000000E+00  0.00000000000E+00  0.40769258636E+02  0.39429163316E+04  0.39427055514E+04 0.  0.
        5    1    3    3  502    0  0.15920449909E+04  0.78422970550E+03  0.87867650940E+03  0.19803327958E+04  0.46999998093E+01 0.  1.
       -5    1    3    3    0  502 -0.15920449909E+04 -0.78422970550E+03 -0.83790725076E+03  0.19625835358E+04  0.46999998093E+01 0. -1.
</event>
<event>
 5   0  0.3959190E-07  0.3759796E+04  0.7818609E-02  0.8054838E-01
       -2   -1    0    0    0  501  0.00000000000E+00  0.00000000000E+00  0.15463076176E+04  0.15463076176E+04  0.25500000920E-02 0. -1.
        2   -1    0    0  501    0  0.00000000000E+00  0.00000000000E+00 -0.22854544447E+04  0.22854544447E+04  0.25500000920E-02 0.  1.
    10030    2    1    2    0    0  0.00000000000E+00  0.00000000000E+00 -0.73914682700E+03  0.38317620623E+04  0.37597955357E+04 0.  0.
        2    1    3    3  502    0 -0.26203100580E+03 -0.15850403499E+04  0.62533090483E+03  0.17239640076E+04  0.25500000920E-02 0. -1.
       -2    1    3    3    0  502  0.26203100580E+03  0.15850403499E+04 -0.13644777318E+04  0.21077980547E+04  0.25500000920E-02 0.  1.
</event>
<event>
 5   0  0.5872444E-07  0.3914418E+04  0.7818609E-02  0.8022037E-01
       -2   -1    0    0    0  501  0.00000000000E+00  0.00000000000E+00  0.17398755702E+04  0.17398755702E+04  0.25500000920E-02 0.  1.
        2   -1    0    0  501    0  0.00000000000E+00  0.00000000000E+00 -0.22016898003E+04  0.22016898003E+04  0.25500000920E-02 0. -1.
    10030    2    1    2    0    0  0.00000000000E+00  0.00000000000E+00 -0.46181423005E+03  0.39415653705E+04  0.39144176051E+04 0.  0.
        3    1    3    3  502    0  0.56826443208E+03  0.13754392253E+04  0.10490929605E+04  0.18208112415E+04  0.10100000352E+00 0.  1.
       -3    1    3    3    0  502 -0.56826443208E+03 -0.13754392253E+04 -0.15109071906E+04  0.21207541290E+04  0.10100000352E+00 0. -1.
</event>
<event>
 5   0  0.5872444E-07  0.3482877E+04  0.7818609E-02  0.8117860E-01
       -2   -1    0    0    0  501  0.00000000000E+00  0.00000000000E+00  0.16352366283E+04  0.16352366283E+04  0.25500000920E-02 0.  1.
        2   -1    0    0  501    0  0.00000000000E+00  0.00000000000E+00 -0.18545376604E+04  0.18545376604E+04  0.25500000920E-02 0. -1.
    10030    2    1    2    0    0  0.00000000000E+00  0.00000000000E+00 -0.21930103215E+03  0.34897742887E+04  0.34828769205E+04 0.  0.
        3    1    3    3  502    0 -0.12583504604E+04 -0.89355829945E+03 -0.91791745581E+03  0.17956794763E+04  0.10100000352E+00 0. -1.
       -3    1    3    3    0  502  0.12583504604E+04  0.89355829945E+03  0.69861642367E+03  0.16940948124E+04  0.10100000352E+00 0.  1.
</event>
<event>
 5   0  0.1943459E-07  0.3895805E+04  0.7818609E-02  0.8025902E-01
       -1   -1    0    0    0  501  0.00000000000E+00  0.00000000000E+00  0.27502283063E+04  0.27502283064E+04  0.50400001928E-02 0. -1.
        1   -1    0    0  501    0  0.00000000000E+00  0.00000000000E+00 -0.13796394863E+04  0.13796394863E+04  0.50400001928E-02 0.  1.
    10030    2    1    2    0    0  0.00000000000E+00  0.00000000000E+00  0.13705888200E+04  0.41298677927E+04  0.38958047014E+04 0.  0.
        2    1    3    3  502    0  0.72513032294E+02  0.10963637953E+04  0.23903617618E+04  0.26307985601E+04  0.25500000920E-02 0. -1.
       -2    1    3    3    0  502 -0.72513032294E+02 -0.10963637953E+04 -0.10197729417E+04  0.14990692326E+04  0.25500000920E-02 0.  1.
</event>
<event>
 5   0  0.3959190E-07  0.3335238E+04  0.7818609E-02  0.8153987E-01
        2   -1    0    0  501    0  0.00000000000E+00  0.00000000000E+00  0.14058158571E+04  0.14058158571E+04  0.25500000920E-02 0.  1.
       -2   -1    0    0    0  501  0.00000000000E+00  0.00000000000E+00 -0.19781773842E+04  0.19781773842E+04  0.25500000920E-02 0. -1.
    10030    2    1    2    0    0  0.00000000000E+00  0.00000000000E+00 -0.57236152716E+03  0.33839932413E+04  0.33352380034E+04 0.  0.
        2    1    3    3  502    0  0.12025366439E+04  0.10730493431E+04 -0.72072157717E+03  0.17654939435E+04  0.25500000920E-02 0. -1.
       -2    1    3    3    0  502 -0.12025366439E+04 -0.10730493431E+04  0.14836005001E+03  0.16184992978E+04  0.25500000920E-02 0.  1.
</event>
<event>
 5   0  0.5735179E-07  0.3014344E+04  0.7818609E-02  0.8239647E-01
       -2   -1    0    0    0  501  0.00000000000E+00  0.00000000000E+00  0.13868903809E+04  0.13868903809E+04  0.25500000920E-02 0. -1.
        2   -1    0    0  501    0  0.00000000000E+00  0.00000000000E+00 -0.16378858041E+04  0.16378858041E+04  0.25500000920E-02 0.  1.
    10030    2    1    2    0    0  0.00000000000E+00  0.00000000000E+00 -0.25099542318E+03  0.30247761849E+04  0.30143444174E+04 0.  0.
        5    1    3    3  502    0 -0.68293889245E+03 -0.12858536760E+04  0.26536378496E+03  0.14799544707E+04  0.46999998093E+01 0. -1.
       -5    1    3    3    0  502  0.68293889245E+03  0.12858536760E+04 -0.51635920814E+03  0.15448217142E+04  0.46999998093E+01 0.  1.
</event>
<event>
 5   0  0.5872444E-07  0.3836923E+04  0.7818609E-02  0.8038277E-01
        2   -1    0    0  501    0  0.00000000000E+00  0.00000000000E+00  0.21490913992E+04  0.21490913992E+04  0.25500000920E-02 0.  1.
       -2   -1    0    0    0  501  0.00000000000E+00  0.00000000000E+00 -0.17125821063E+04  0.17125821063E+04  0.25500000920E-02 0. -1.
    10030    2    1    2    0    0  0.00000000000E+00  0.00000000000E+00  0.43650929290E+03  0.38616735054E+04  0.38369234941E+04 0.  0.
        3    1    3    3  502    0  0.16672482851E+04  0.97042354773E+02 -0.73195475897E+03  0.18234285953E+04  0.10100000352E+00 0. -1.
       -3    1    3    3    0  502 -0.16672482851E+04 -0.97042354773E+02  0.11684640519E+04  0.20382449101E+04  0.10100000352E+00 0.  1.
</event>
<event>
 5   0  0.1860500E-07  0.3857467E+04  0.7818609E-02  0.8033934E-01
        1   -1    0    0  501    0  0.00000000000E+00  0.00000000000E+00  0.23601952720E+04  0.23601952720E+04  0.50400001928E-02 0. -1.
       -1   -1    0    0    0  501  0.00000000000E+00  0.00000000000E+00 -0.15761465103E+04  0.15761465103E+04  0.50400001928E-02 0.  1.
    10030    2    1    2    0    0  0.00000000000E+00  0.00000000000E+00  0.78404876178E+03  0.39363417823E+04  0.38574673254E+04 0.  0.
        4    1    3    3  502    0 -0.16408585027E+04 -0.47661169795E+03  0.13049891342E+04  0.21500171139E+04  0.12699999809E+01 0. -1.
       -4    1    3    3    0  502  0.16408585027E+04  0.47661169795E+03 -0.52094037240E+03  0.17863246685E+04  0.12699999809E+01 0.  1.
</event>
<event>
 5   0  0.1943459E-07  0.2605670E+04  0.7818609E-02  0.8366278E-01
       -1   -1    0    0    0  501  0.00000000000E+00  0.00000000000E+00  0.16734065524E+04  0.16734065525E+04  0.50400001928E-02 0.  1.
        1   -1    0    0  501    0  0.00000000000E+00  0.00000000000E+00 -0.10143258268E+04  0.10143258268E+04  0.50400001928E-02 0. -1.
    10030    2    1    2    0    0  0.00000000000E+00  0.00000000000E+00  0.65908072568E+03  0.26877323792E+04  0.26056703436E+04 0.  0.
        2    1    3    3  502    0 -0.31963765885E+03  0.12588892213E+04  0.22430182150E+03  0.13180597906E+04  0.25500000920E-02 0. -1.
       -2    1    3    3    0  502  0.31963765885E+03 -0.12588892213E+04  0.43477890418E+03  0.13696725886E+04  0.25500000920E-02 0.  1.
</event>
<event>
 5   0  0.2666813E-07  0.3882565E+04  0.7818609E-02  0.8028665E-01
        1   -1    0    0  501    0  0.00000000000E+00  0.00000000000E+00  0.21661669250E+04  0.21661669250E+04  0.50400001928E-02 0. -1.
       -1   -1    0    0    0  501  0.00000000000E+00  0.00000000000E+00 -0.17397449441E+04  0.17397449441E+04  0.50400001928E-02 0.  1.
    10030    2    1    2    0    0  0.00000000000E+00  0.00000000000E+00  0.42642198085E+03  0.39059118691E+04  0.38825651087E+04 0.  0.
        1    1    3    3  502    0 -0.11743559174E+04  0.35850166441E+03  0.17258958835E+04  0.21181010044E+04  0.50400001928E-02 0. -1.
       -1    1    3    3    0  502  0.11743559174E+04 -0.35850166441E+03 -0.12994739026E+04  0.17878108647E+04  0.50400001928E-02 0.  1.
</event>
<event>
 5   0  0.5735179E-07  0.3736461E+04  0.7818609E-02  0.8059929E-01
        2   -1    0    0  501    0  0.00000000000E+00  0.00000000000E+00  0.27452512927E+04  0.27452512927E+04  0.25500000920E-02 0.  1.
       -2   -1    0    0    0  501  0.00000000000E+00  0.00000000000E+00 -0.12713900605E+04  0.12713900605E+04  0.25500000920E-02 0. -1.
    10030    2    1    2    0    0  0.00000000000E+00  0.00000000000E+00  0.14738612322E+04  0.40166413532E+04  0.37364610032E+04 0.  0.
        5    1    3    3  502    0  0.15321822280E+04 -0.74461999334E+03 -0.87536161466E+02  0.17057918935E+04  0.46999998093E+01 0. -1.
       -5    1    3    3    0  502 -0.15321822280E+04  0.74461999334E+03  0.15613973937E+04  0.23108494597E+04  0.46999998093E+01 0.  1.
</event>
<event>
 5   0  0.1860500E-07  0.3820260E+04  0.7818609E-02  0.8041821E-01
        1   -1    0    0  501    0  0.00000000000E+00  0.00000000000E+00  0.28735168375E+04  0.28735168375E+04  0.50400001928E-02 0.  1.
       -1   -1    0    0    0  501  0.00000000000E+00  0.00000000000E+00 -0.12697322053E+04  0.12697322054E+04  0.50400001928E-02 0. -1.
    10030    2    1    2    0    0  0.00000000000E+00  0.00000000000E+00  0.16037846322E+04  0.41432490429E+04  0.38202601332E+04 0.  0.
        5    1    3    3  502    0  0.70359316513E+03  0.21783667901E+03  0.27133043878E+04  0.28115011918E+04  0.46999998093E+01 0.  1.
       -5    1    3    3    0  502 -0.70359316513E+03 -0.21783667901E+03 -0.11095197556E+04  0.13317478511E+04  0.46999998093E+01 0. -1.
</event>
<event>
 5   0  0.1876027E-07  0.3860719E+04  0.7818609E-02  0.8033249E-01
       -1   -1    0    0    0  501  0.00000000000E+00  0.00000000000E+00  0.15029925579E+04  0.15029925579E+04  0.50400001928E-02 0.  1.
        1   -1    0    0  501    0  0.00000000000E+00  0.00000000000E+00 -0.24792455079E+04  0.24792455079E+04  0.50400001928E-02 0. -1.
    10030    2    1    2    0    0  0.00000000000E+00  0.00000000000E+00 -0.97625294996E+03  0.39822380658E+04  0.38607188696E+04 0.  0.
        3    1    3    3  502    0 -0.14135159027E+04  0.75177883523E+03  0.62428509982E+03  0.17184092994E+04  0.10100000352E+00 0.  1.
       -3    1    3    3    0  502  0.14135159027E+04 -0.75177883523E+03 -0.16005380498E+04  0.22638287663E+04  0.10100000352E+00 0. -1.
</event>
<event>
 5   0  0.5805753E-07  0.3824365E+04  0.7818609E-02  0.8040946E-01
       -2   -1    0    0    0  501  0.00000000000E+00  0.00000000000E+00  0.26793021127E+04  0.26793021127E+04  0.25500000920E-02 0.  1.
        2   -1    0    0  501    0  0.00000000000E+00  0.00000000000E+00 -0.13646995747E+04  0.13646995747E+04  0.25500000920E-02 0. -1.
    10030    2    1    2    0    0  0.00000000000E+00  0.00000000000E+00  0.13146025380E+04  0.40440016875E+04  0.38243652827E+04 0.  0.
        1    1    3    3  502    0  0.16730964027E+04 -0.87194441587E+03  0.98647290207E+03  0.21290062057E+04  0.50400001928E-02 0.  1.
       -1    1    3    3    0  502 -0.16730964027E+04  0.87194441587E+03  0.32812963592E+03  0.19149954818E+04  0.50400001928E-02 0. -1.
</event>
<event>
 5   0  0.2666813E-07  0.3932070E+04  0.7818609E-02  0.8018392E-01
       -1   -1    0    0    0  501  0.00000000000E+00  0.00000000000E+00  0.16682424332E+04  0.16682424332E+04  0.50400001928E-02 0.  1.
        1   -1    0    0  501    0  0.00000000000E+00  0.00000000000E+00 -0.23169852176E+04  0.23169852176E+04  0.50400001928E-02 0. -1.
    10030    2    1    2    0    0  0.00000000000E+00  0.00000000000E+00 -0.64874278442E+03  0.39852276508E+04  0.39320697130E+04 0.  0.
        1    1    3    3  502    0 -0.16394878239E+04 -0.19826921689E+03 -0.14055934491E+04  0.21686225931E+04  0.50400001928E-02 0. -1.
       -1    1    3    3    0  502  0.16394878239E+04  0.19826921689E+03  0.75685066470E+03  0.18166050577E+04  0.50400001928E-02 0.  1.
</event>
<event>
 5   0  0.5805753E-07  0.3937727E+04  0.7818609E-02  0.8017228E-01
       -2   -1    0    0    0  501  0.00000000000E+00  0.00000000000E+00  0.19090381528E+04  0.19090381528E+04  0.25500000920E-02 0.  1.
        2   -1    0    0  501    0  0.00000000000E+00  0.00000000000E+00 -0.20305641045E+04  0.20305641045E+04  0.25500000920E-02 0. -1.
    10030    2    1    2    0    0  0.00000000000E+00  0.00000000000E+00 -0.12152595171E+03  0.39396022572E+04  0.39377274395E+04 0.  0.
        1    1    3    3  502    0  0.15500711516E+04 -0.68097417871E+03 -0.10662180487E+04  0.20008166669E+04  0.50400001928E-02 0. -1.
       -1    1    3    3    0  502 -0.15500711516E+04  0.68097417871E+03  0.94469209700E+03  0.19387855903E+04  0.50400001928E-02 0.  1.
</event>
<event>
 5   0  0.2666813E-07  0.3845662E+04  0.7818609E-02  0.8036426E-01
       -1   -1    0    0    0  501  0.00000000000E+00  0.00000000000E+00  0.19255669563E+04  0.19255669563E+04  0.50400001928E-02 0.  1.
        1   -1    0    0  501    0  0.00000000000E+00  0.00000000000E+00 -0.19200991247E+04  0.19200991247E+04  0.50400001928E-02 0. -1.
    10030    2    1    2    0    0  0.00000000000E+00  0.00000000000E+00  0.54678315739E+01  0.38456660811E+04  0.38456621939E+04 0.  0.
        1    1    3    3  502    0 -0.10753600342E+04  0.10948499034E+04 -0.11557938684E+04  0.19211858266E+04  0.50400001928E-02 0. -1.
       -1    1    3    3    0  502  0.10753600342E+04 -0.10948499034E+04  0.11612617000E+04  0.19244802545E+04  0.50400001928E-02 0.  1.
</event>
<event>
 5   0  0.2235824E-07  0.2383726E+04  0.7818609E-02  0.8445622E-01
        1   -1    0    0  501    0  0.00000000000E+00  0.00000000000E+00  0.16253559490E+04  0.16253559490E+04  0.50400001928E-02 0.  1.
       -1   -1    0    0    0  501  0.00000000000E+00  0.00000000000E+00 -0.87398523567E+03  0.87398523568E+03  0.50400001928E-02 0. -1.
    10030    2    1    2    0    0  0.00000000000E+00  0.00000000000E+00  0.75137071335E+03  0.24993411847E+04  0.23837257411E+04 0.  0.
        4    1    3    3  502    0  0.43886067199E+03  0.10134968295E+04  0.84548091779E+03  0.13909040614E+04  0.12699999809E+01 0. -1.
       -4    1    3    3    0  502 -0.43886067199E+03 -0.10134968295E+04 -0.94110204435E+02  0.11084371233E+04  0.12699999809E+01 0.  1.
</event>
<event>
 5   0  0.6095665E-07  0.3548460E+04  0.7818609E-02  0.8102401E-01
        2   -1    0    0  501    0  0.00000000000E+00  0.00000000000E+00  0.29354702646E+04  0.29354702646E+04  0.25500000920E-02 0.  1.
       -2   -1    0    0    0  501  0.00000000000E+00  0.00000000000E+00 -0.10723637079E+04  0.10723637079E+04  0.25500000920E-02 0. -1.
    10030    2    1    2    0    0  0.00000000000E+00  0.00000000000E+00  0.18631065567E+04  0.40078339725E+04  0.35484598222E+04 0.  0.
        4    1    3    3  502    0  0.14401612598E+04 -0.78383781781E+03  0.16971087461E+04  0.23597978489E+04  0.12699999809E+01 0.  1.
       -4    1    3    3    0  502 -0.14401612598E+04  0.78383781781E+03  0.16599781066E+03  0.16480361236E+04  0.12699999809E+01 0. -1.
</event>
<event>
 5   0  0.2666813E-07  0.3141765E+04  0.7818609E-02  0.8204369E-01
       -1   -1    0    0    0  501  0.00000000000E+00  0.00000000000E+00  0.12002166522E+04  0.12002166522E+04  0.50400001928E-02 0.  1.
        1   -1    0    0  501    0  0.00000000000E+00  0.00000000000E+00 -0.20560213652E+04  0.20560213652E+04  0.50400001928E-02 0. -1.
    10030    2    1    2    0    0  0.00000000000E+00  0.00000000000E+00 -0.85580471303E+03  0.32562380175E+04  0.31417645232E+04 0.  0.
        1    1    3    3  502    0 -0.40092340058E+03 -0.10853301502E+04  0.67335178152E+03  0.13386873159E+04  0.50400001928E-02 0.  1.
       -1    1    3    3    0  502  0.40092340058E+03  0.10853301502E+04 -0.15291564946E+04  0.19175507015E+04  0.50400001928E-02 0. -1.
</event>
<event>
 5   0  0.2666813E-07  0.2875672E+04  0.7818609E-02  0.8280153E-01
       -1   -1    0    0    0  501  0.00000000000E+00  0.00000000000E+00  0.12099602601E+04  0.12099602601E+04  0.50400001928E-02 0. -1.
        1   -1    0    0  501    0  0.00000000000E+00  0.00000000000E+00 -0.17086278964E+04  0.17086278964E+04  0.50400001928E-02 0.  1.
    10030    2    1    2    0    0  0.00000000000E+00  0.00000000000E+00 -0.49866763629E+03  0.29185881566E+04  0.28756716461E+04 0.  0.
        1    1    3    3  502    0  0.12227537832E+04 -0.75058279982E+03 -0.15374489270E+03  0.14429618310E+04  0.50400001928E-02 0.  1.
       -1    1    3    3    0  502 -0.12227537832E+04  0.75058279982E+03 -0.34492274359E+03  0.14756263256E+04  0.50400001928E-02 0. -1.
</event>
<event>
 5   0  0.5805753E-07  0.3020312E+04  0.7818609E-02  0.8237954E-01
       -2   -1    0    0    0  501  0.00000000000E+00  0.00000000000E+00  0.11752433048E+04  0.11752433048E+04  0.25500000920E-02 0.  1.
        2   -1    0    0  501    0  0.00000000000E+00  0.00000000000E+00 -0.19405093754E+04  0.19405093754E+04  0.25500000920E-02 0. -1.
    10030    2    1    2    0    0  0.00000000000E+00  0.00000000000E+00 -0.76526607054E+03  0.31157526802E+04  0.30203116736E+04 0.  0.
        1    1    3    3  502    0  0.86200351794E+02 -0.45989238043E+03 -0.18638461285E+04  0.19216799663E+04  0.50400001928E-02 0. -1.
       -1    1    3    3    0  502 -0.86200351794E+02  0.45989238043E+03  0.10985800580E+04  0.11940727139E+04  0.50400001928E-02 0.  1.
</event>
<event>
 5   0  0.5872444E-07  0.3582718E+04  0.7818609E-02  0.8094462E-01
       -2   -1    0    0    0  501  0.00000000000E+00  0.00000000000E+00  0.10708147797E+04  0.10708147798E+04  0.25500000920E-02 0.  1.
        2   -1    0    0  501    0  0.00000000000E+00  0.00000000000E+00 -0.29967530800E+04  0.29967530800E+04  0.25500000920E-02 0. -1.
    10030    2    1    2    0    0  0.00000000000E+00  0.00000000000E+00 -0.19259383003E+04  0.40675678598E+04  0.35827182358E+04 0.  0.
        3    1    3    3  502    0 -0.37988801516E+03  0.97583783170E+03 -0.26130663338E+04  0.28150826014E+04  0.10100000352E+00 0. -1.
       -3    1    3    3    0  502  0.37988801516E+03 -0.97583783170E+03  0.68712803349E+03  0.12524852584E+04  0.10100000352E+00 0.  1.
</event>
<event>
 5   0  0.3959190E-07  0.3903469E+04  0.7818609E-02  0.8024308E-01
       -2   -1    0    0    0  501  0.00000000000E+00  0.00000000000E+00  0.22452066149E+04  0.22452066149E+04  0.25500000920E-02 0.  1.
        2   -1    0    0  501    0  0.00000000000E+00  0.00000000000E+00 -0.16966221573E+04  0.16966221574E+04  0.25500000920E-02 0. -1.
    10030    2    1    2    0    0  0.00000000000E+00  0.00000000000E+00  0.54858445751E+03  0.39418287722E+04  0.39034688627E+04 0.  0.
        2    1    3    3  502    0 -0.17686096587E+04 -0.80355876450E+02 -0.55526100032E+03  0.18554654322E+04  0.25500000920E-02 0. -1.
       -2    1    3    3    0  502  0.17686096587E+04  0.80355876450E+02  0.11038454578E+04  0.20863633400E+04  0.25500000920E-02 0.  1.
</event>
<event>
 5   0  0.3959190E-07  0.3937752E+04  0.7818609E-02  0.8017223E-01
       -2   -1    0    0    0  501  0.00000000000E+00  0.00000000000E+00  0.16128855591E+04  0.16128855591E+04  0.25500000920E-02 0. -1.
        2   -1    0    0  501    0  0.00000000000E+00  0.00000000000E+00 -0.24034397354E+04  0.24034397354E+04  0.25500000920E-02 0.  1.
    10030    2    1    2    0    0  0.00000000000E+00  0.00000000000E+00 -0.79055417625E+03  0.40163252945E+04  0.39377522733E+04 0.  0.
        2    1    3    3  502    0 -0.13264043009E+04 -0.11649497083E+04 -0.12844621476E+04  0.21831855626E+04  0.25500000920E-02 0.  1.
       -2    1    3    3    0  502  0.13264043009E+04  0.11649497083E+04  0.49390797137E+03  0.18331397318E+04  0.25500000920E-02 0. -1.
</event>
<event>
 5   0  0.5805753E-07  0.3317432E+04  0.7818609E-02  0.8158474E-01
       -2   -1    0    0    0  501  0.00000000000E+00  0.00000000000E+00  0.17086294299E+04  0.17086294299E+04  0.25500000920E-02 0.  1.
        2   -1    0    0  501    0  0.00000000000E+00  0.00000000000E+00 -0.16102608861E+04  0.16102608862E+04  0.25500000920E-02 0. -1.
    10030    2    1    2    0    0  0.00000000000E+00  0.00000000000E+00  0.98368543769E+02  0.33188903161E+04  0.33174322238E+04 0.  0.
        1    1    3    3  502    0 -0.11070811471E+04  0.10475222902E+04 -0.60563188486E+03  0.16400370711E+04  0.50400001928E-02 0. -1.
       -1    1    3    3    0  502  0.11070811471E+04 -0.10475222902E+04  0.70400042862E+03  0.16788532450E+04  0.50400001928E-02 0.  1.
</event>
<event>
 5   0  0.1860500E-07  0.3912852E+04  0.7818609E-02  0.8022362E-01
       -4   -1    0    0    0  501  0.00000000000E+00  0.00000000000E+00  0.21134184883E+04  0.21134188698E+04  0.12699999809E+01 0. -1.
        4   -1    0    0  501    0  0.00000000000E+00  0.00000000000E+00 -0.18110944464E+04  0.18110948917E+04  0.12699999809E+01 0.  1.
    10030    2    1    2    0    0  0.00000000000E+00  0.00000000000E+00  0.30232404183E+03  0.39245137616E+04  0.39128517016E+04 0.  0.
        5    1    3    3  502    0  0.19287318211E+03 -0.19401945456E+04 -0.10641700878E+02  0.19497923672E+04  0.46999998093E+01 0. -1.
       -5    1    3    3    0  502 -0.19287318211E+03  0.19401945456E+04  0.31296574270E+03  0.19747213944E+04  0.46999998093E+01 0.  1.
</event>
<event>
 5   0  0.6095665E-07  0.3858102E+04  0.7818609E-02  0.8033800E-01
        2   -1    0    0  501    0  0.00000000000E+00  0.00000000000E+00  0.15271334303E+04  0.15271334303E+04  0.25500000920E-02 0. -1.
       -2   -1    0    0    0  501  0.00000000000E+00  0.00000000000E+00 -0.24367468239E+04  0.24367468239E+04  0.25500000920E-02 0.  1.
    10030    2    1    2    0    0  0.00000000000E+00  0.00000000000E+00 -0.90961339366E+03  0.39638802542E+04  0.38581018835E+04 0.  0.
        4    1    3    3  502    0 -0.47934184966E+03 -0.50631790473E+03 -0.23027614194E+04  0.24060004565E+04  0.12699999809E+01 0.  1.
       -4    1    3    3    0  502  0.47934184966E+03  0.50631790473E+03  0.13931480257E+04  0.15578797976E+04  0.12699999809E+01 0. -1.
</event>
<event>
 5   0  0.1876027E-07  0.3951044E+04  0.7818609E-02  0.8014496E-01
        1   -1    0    0  501    0  0.00000000000E+00  0.00000000000E+00  0.21359186739E+04  0.21359186739E+04  0.50400001928E-02 0.  1.
       -1   -1    0    0    0  501  0.00000000000E+00  0.00000000000E+00 -0.18271704514E+04  0.18271704514E+04  0.50400001928E-02 0. -1.
    10030    2    1    2    0    0  0.00000000000E+00  0.00000000000E+00  0.30874822252E+03  0.39630891252E+04  0.39510441594E+04 0.  0.
        3    1    3    3  502    0  0.99000171567E+03  0.21085915864E+03 -0.15473007869E+04  0.18489739634E+04  0.10100000352E+00 0. -1.
       -3    1    3    3    0  502 -0.99000171567E+03 -0.21085915864E+03  0.18560490095E+04  0.21141151618E+04  0.10100000352E+00 0.  1.
</event>
<event>
 5   0  0.1876027E-07  0.3936207E+04  0.7818609E-02  0.8017541E-01
       -1   -1    0    0    0  501  0.00000000000E+00  0.00000000000E+00  0.13849872599E+04  0.13849872600E+04  0.50400001928E-02 0.  1.
        1   -1    0    0  501    0  0.00000000000E+00  0.00000000000E+00 -0.27967276015E+04  0.27967276015E+04  0.50400001928E-02 0. -1.
    10030    2    1    2    0    0  0.00000000000E+00  0.00000000000E+00 -0.14117403416E+04  0.41817148615E+04  0.39362073613E+04 0.  0.
        3    1    3    3  502    0  0.16546699188E+03 -0.30446023280E+03  0.13523241167E+04  0.13960142856E+04  0.10100000352E+00 0.  1.
       -3    1    3    3    0  502 -0.16546699188E+03  0.30446023280E+03 -0.27640644583E+04  0.27857005759E+04  0.10100000352E+00 0. -1.
</event>
<event>
 5   0  0.1943459E-07  0.3906736E+04  0.7818609E-02  0.8023630E-01
        1   -1    0    0  501    0  0.00000000000E+00  0.00000000000E+00  0.14060951533E+04  0.14060951533E+04  0.50400001928E-02 0. -1.
       -1   -1    0    0    0  501  0.00000000000E+00  0.00000000000E+00 -0.27136475930E+04  0.27136475930E+04  0.50400001928E-02 0.  1.
    10030    2    1    2    0    0  0.00000000000E+00  0.00000000000E+00 -0.13075524397E+04  0.41197427462E+04  0.39067360946E+04 0.  0.
        2    1    3    3  502    0  0.32997039851E+03  0.15037204484E+04 -0.19216579744E+04  0.24622804514E+04  0.25500000920E-02 0.  1.
       -2    1    3    3    0  502 -0.32997039851E+03 -0.15037204484E+04  0.61410553471E+03  0.16574622948E+04  0.25500000920E-02 0. -1.
</event>
<event>
 5   0  0.6095665E-07  0.3871542E+04  0.7818609E-02  0.8030974E-01
       -2   -1    0    0    0  501  0.00000000000E+00  0.00000000000E+00  0.12647076728E+04  0.12647076728E+04  0.25500000920E-02 0. -1.
        2   -1    0    0  501    0  0.00000000000E+00  0.00000000000E+00 -0.29629061409E+04  0.29629061409E+04  0.25500000920E-02 0.  1.
    10030    2    1    2    0    0  0.00000000000E+00  0.00000000000E+00 -0.16981984681E+04  0.42276138136E+04  0.38715423955E+04 0.  0.
        4    1    3    3  502    0 -0.15657405906E+04 -0.10730400255E+04 -0.12638328473E+04  0.22804020637E+04  0.12699999809E+01 0.  1.
       -4    1    3    3    0  502  0.15657405906E+04  0.10730400255E+04 -0.43436562085E+03  0.19472117499E+04  0.12699999809E+01 0. -1.
</event>
<event>
 5   0  0.1876027E-07  0.3890122E+04  0.7818609E-02  0.8027087E-01
       -1   -1    0    0    0  501  0.00000000000E+00  0.00000000000E+00  0.19249588034E+04  0.19249588034E+04  0.50400001928E-02 0. -1.
        1   -1    0    0  501    0  0.00000000000E+00  0.00000000000E+00 -0.19653732329E+04  0.19653732329E+04  0.50400001928E-02 0.  1.
    10030    2    1    2    0    0  0.00000000000E+00  0.00000000000E+00 -0.40414429495E+02  0.38903320364E+04  0.38901221095E+04 0.  0.
        3    1    3    3  502    0 -0.26448075340E+03  0.10802672725E+04  0.15756028856E+04  0.19285880618E+04  0.10100000352E+00 0. -1.
       -3    1    3    3    0  502  0.26448075340E+03 -0.10802672725E+04 -0.16160173151E+04  0.19617439746E+04  0.10100000352E+00 0.  1.
</event>
<event>
 5   0  0.5872444E-07  0.2657117E+04  0.7818609E-02  0.8349054E-01
       -2   -1    0    0    0  501  0.00000000000E+00  0.00000000000E+00  0.17280734228E+04  0.17280734228E+04  0.25500000920E-02 0.  1.
        2   -1    0    0  501    0  0.00000000000E+00  0.00000000000E+00 -0.10214080840E+04  0.10214080840E+04  0.25500000920E-02 0. -1.
    10030    2    1    2    0    0  0.00000000000E+00  0.00000000000E+00  0.70666533881E+03  0.27494815068E+04  0.26571173582E+04 0.  0.
        3    1    3    3  502    0  0.59422397384E+03 -0.65732026934E+03  0.13776395214E+04  0.16380057169E+04  0.10100000352E+00 0.  1.
       -3    1    3    3    0  502 -0.59422397384E+03  0.65732026934E+03 -0.67097418260E+03  0.11114757899E+04  0.10100000352E+00 0. -1.
</event>
<event>
 5   0  0.1876027E-07  0.3435708E+04  0.7818609E-02  0.8129198E-01
       -1   -1    0    0    0  501  0.00000000000E+00  0.00000000000E+00  0.13016434682E+04  0.13016434682E+04  0.50400001928E-02 0. -1.
        1   -1    0    0  501    0  0.00000000000E+00  0.00000000000E+00 -0.22671506417E+04  0.22671506417E+04  0.50400001928E-02 0.  1.
    10030    2    1    2    0    0  0.00000000000E+00  0.00000000000E+00 -0.96550717354E+03  0.35687941099E+04  0.34357076850E+04 0.  0.
        3    1    3    3  502    0 -0.64275735477E+03 -0.89880838797E+03 -0.18490089764E+04  0.21540259377E+04  0.10100000352E+00 0.  1.
       -3    1    3    3    0  502  0.64275735477E+03  0.89880838797E+03  0.88350180282E+03  0.14147681722E+04  0.10100000352E+00 0. -1.
</event>
<event>
 5   0  0.6095665E-07  0.3877854E+04  0.7818609E-02  0.8029651E-01
        2   -1    0    0  501    0  0.00000000000E+00  0.00000000000E+00  0.12452651929E+04  0.12452651929E+04  0.25500000920E-02 0. -1.
       -2   -1    0    0    0  501  0.00000000000E+00  0.00000000000E+00 -0.30189858688E+04  0.30189858688E+04  0.25500000920E-02 0.  1.
    10030    2    1    2    0    0  0.00000000000E+00  0.00000000000E+00 -0.17737206759E+04  0.42642510617E+04  0.38778540562E+04 0.  0.
        4    1    3    3  502    0  0.12272553421E+04  0.79852415574E+03  0.51087064363E+03  0.15507375437E+04  0.12699999809E+01 0. -1.
       -4    1    3    3    0  502 -0.12272553421E+04 -0.79852415574E+03 -0.22845913195E+04  0.27135135180E+04  0.12699999809E+01 0.  1.
</event>
<event>
 5   0  0.1876027E-07  0.3732408E+04  0.7818609E-02  0.8060818E-01
       -1   -1    0    0    0  501  0.00000000000E+00  0.00000000000E+00  0.15599716698E+04  0.15599716698E+04  0.50400001928E-02 0. -1.
        1   -1    0    0  501    0  0.00000000000E+00  0.00000000000E+00 -0.22325517950E+04  0.22325517951E+04  0.50400001928E-02 0.  1.
    10030    2    1    2    0    0  0.00000000000E+00  0.00000000000E+00 -0.67258012528E+03  0.37925234648E+04  0.37324080975E+04 0.  0.
        3    1    3    3  502    0 -0.18595664662E+03  0.14649029763E+04 -0.14958080449E+04  0.21018949360E+04  0.10100000352E+00 0.  1.
       -3    1    3    3    0  502  0.18595664662E+03 -0.14649029763E+04  0.82322791965E+03  0.16906285288E+04  0.10100000352E+00 0. -1.
</event>
<event>
 5   0  0.5735179E-07  0.3400829E+04  0.7818609E-02  0.8137703E-01
       -2   -1    0    0    0  501  0.00000000000E+00  0.00000000000E+00  0.13411999148E+04  0.13411999148E+04  0.25500000920E-02 0. -1.
        2   -1    0    0  501    0  0.00000000000E+00  0.00000000000E+00 -0.21558372983E+04  0.21558372983E+04  0.25500000920E-02 0.  1.
    10030    2    1    2    0    0  0.00000000000E+00  0.00000000000E+00 -0.81463738350E+03  0.34970372130E+04  0.34008286053E+04 0.  0.
        5    1    3    3  502    0  0.44306580221E+03 -0.43818028473E+03  0.12195505645E+04  0.13695382201E+04  0.46999998093E+01 0. -1.
       -5    1    3    3    0  502 -0.44306580221E+03  0.43818028473E+03 -0.20341879480E+04  0.21274989929E+04  0.46999998093E+01 0.  1.
</event>
<event>
 5   0  0.5872444E-07  0.3665991E+04  0.7818609E-02  0.8075541E-01
       -2   -1    0    0    0  501  0.00000000000E+00  0.00000000000E+00  0.14494159476E+04  0.14494159476E+04  0.25500000920E-02 0.  1.
        2   -1    0    0  501    0  0.00000000000E+00  0.00000000000E+00 -0.23180868192E+04  0.23180868192E+04  0.25500000920E-02 0. -1.
    10030    2    1    2    0    0  0.00000000000E+00  0.00000000000E+00 -0.86867087162E+03  0.37675027669E+04  0.36659907276E+04 0.  0.
        3    1    3    3  502    0 -0.44194053537E+03 -0.36436995614E+03 -0.22237548321E+04  0.22963367491E+04  0.10100000352E+00 0. -1.
       -3    1    3    3    0  502  0.44194053537E+03  0.36436995614E+03  0.13550839605E+04  0.14711660178E+04  0.10100000352E+00 0.  1.
</event>
<event>
 5   0  0.5872444E-07  0.3892011E+04  0.7818609E-02  0.8026693E-01
       -2   -1    0    0    0  501  0.00000000000E+00  0.00000000000E+00  0.18422207570E+04  0.18422207570E+04  0.25500000920E-02 0. -1.
        2   -1    0    0  501    0  0.00000000000E+00  0.00000000000E+00 -0.20556371298E+04  0.20556371298E+04  0.25500000920E-02 0.  1.
    10030    2    1    2    0    0  0.00000000000E+00  0.00000000000E+00 -0.21341637278E+03  0.38978578868E+04  0.38920109914E+04 0.  0.
        3    1    3    3  502    0  0.48245070740E+03 -0.17700416993E+04 -0.75662921392E+03  0.19845135625E+04  0.10100000352E+00 0.  1.
       -3    1    3    3    0  502 -0.48245070740E+03  0.17700416993E+04  0.54321284114E+03  0.19133443243E+04  0.10100000352E+00 0. -1.
</event>
<event>
 5   0  0.1860500E-07  0.3854264E+04  0.7818609E-02  0.8034609E-01
       -1   -1    0    0    0  501  0.00000000000E+00  0.00000000000E+00  0.18274964363E+04  0.18274964363E+04  0.50400001928E-02 0. -1.
        1   -1    0    0  501    0  0.00000000000E+00  0.00000000000E+00 -0.20322000524E+04  0.20322000524E+04  0.50400001928E-02 0.  1.
    10030    2    1    2    0    0  0.00000000000E+00  0.00000000000E+00 -0.20470361614E+03  0.38596964887E+04  0.38542643155E+04 0.  0.
        4    1    3    3  502    0  0.18640497808E+04  0.47586746594E+03  0.10524890475E+02  0.19238616937E+04  0.12699999809E+01 0.  1.
       -4    1    3    3    0  502 -0.18640497808E+04 -0.47586746594E+03 -0.21522850662E+03  0.19358347949E+04  0.12699999809E+01 0. -1.
</event>
<event>
 5   0  0.1860500E-07  0.2455538E+04  0.7818609E-02  0.8418999E-01
       -1   -1    0    0    0  501  0.00000000000E+00  0.00000000000E+00  0.13516384440E+04  0.13516384440E+04  0.50400001928E-02 0.  1.
        1   -1    0    0  501    0  0.00000000000E+00  0.00000000000E+00 -0.11152515532E+04  0.11152515532E+04  0.50400001928E-02 0. -1.
    10030    2    1    2    0    0  0.00000000000E+00  0.00000000000E+00  0.23638689081E+03  0.24668899973E+04  0.24555381277E+04 0.  0.
        4    1    3    3  502    0 -0.16537608000E+03  0.11575960559E+04  0.49413912482E+03  0.12694695601E+04  0.12699999809E+01 0.  1.
       -4    1    3    3    0  502  0.16537608000E+03 -0.11575960559E+04 -0.25775223400E+03  0.11974204372E+04  0.12699999809E+01 0. -1.
</event>
<event>
 5   0  0.2666813E-07  0.3938041E+04  0.7818609E-02  0.8017164E-01
        1   -1    0    0  501    0  0.00000000000E+00  0.00000000000E+00  0.17865520064E+04  0.17865520064E+04  0.50400001928E-02 0.  1.
       -1   -1    0    0    0  501  0.00000000000E+00  0.00000000000E+00 -0.21701255970E+04  0.21701255970E+04  0.50400001928E-02 0. -1.
    10030    2    1    2    0    0  0.00000000000E+00  0.00000000000E+00 -0.38357359063E+03  0.39566776034E+04  0.39380412591E+04 0.  0.
        1    1    3    3  502    0 -0.87901982410E+03  0.10321304515E+04 -0.16265056393E+04  0.21174252560E+04  0.50400001928E-02 0. -1.
       -1    1    3    3    0  502  0.87901982410E+03 -0.10321304515E+04  0.12429320486E+04  0.18392523475E+04  0.50400001928E-02 0.  1.
</event>
<event>
 5   0  0.1860500E-07  0.3883965E+04  0.7818609E-02  0.8028372E-01
        1   -1    0    0  501    0  0.00000000000E+00  0.00000000000E+00  0.21641658349E+04  0.21641658349E+04  0.50400001928E-02 0. -1.
       -1   -1    0    0    0  501  0.00000000000E+00  0.00000000000E+00 -0.17426094906E+04  0.17426094906E+04  0.50400001928E-02 0.  1.
    10030    2    1    2    0    0  0.00000000000E+00  0.00000000000E+00  0.42155634439E+03  0.39067753255E+04  0.38839649448E+04 0.  0.
        5    1    3    3  502    0  0.11608675234E+03 -0.17704358999E+04 -0.58338667107E+03  0.18676941687E+04  0.46999998093E+01 0.  1.
       -5    1    3    3    0  502 -0.11608675234E+03  0.17704358999E+04  0.10049430155E+04  0.20390811568E+04  0.46999998093E+01 0. -1.
</event>
<event>
 5   0  0.1876027E-07  0.2591348E+04  0.7818609E-02  0.8371146E-01
        1   -1    0    0  501    0  0.00000000000E+00  0.00000000000E+00  0.14615820434E+04  0.14615820434E+04  0.50400001928E-02 0.  1.
       -1   -1    0    0    0  501  0.00000000000E+00  0.00000000000E+00 -0.11485987213E+04  0.11485987213E+04  0.50400001928E-02 0. -1.
    10030    2    1    2    0    0  0.00000000000E+00  0.00000000000E+00  0.31298332212E+03  0.26101807647E+04  0.25913481172E+04 0.  0.
        3    1    3    3  502    0 -0.39839689964E+02  0.12777274373E+04  0.36920559969E+03  0.13305966293E+04  0.10100000352E+00 0.  1.
       -3    1    3    3    0  502  0.39839689964E+02 -0.12777274373E+04 -0.56222277577E+02  0.12795841354E+04  0.10100000352E+00 0. -1.
</event>
<event>
 5   0  0.1943459E-07  0.3941206E+04  0.7818609E-02  0.8016513E-01
        1   -1    0    0  501    0  0.00000000000E+00  0.00000000000E+00  0.26972439932E+04  0.26972439932E+04  0.50400001928E-02 0.  1.
       -1   -1    0    0    0  501  0.00000000000E+00  0.00000000000E+00 -0.14397198900E+04  0.14397198900E+04  0.50400001928E-02 0. -1.
    10030    2    1    2    0    0  0.00000000000E+00  0.00000000000E+00  0.12575241032E+04  0.41369638832E+04  0.39412058181E+04 0.  0.
        2    1    3    3  502    0 -0.14040992391E+04 -0.71231579169E+03 -0.61516831805E+03  0.16903610620E+04  0.25500000920E-02 0. -1.
       -2    1    3    3    0  502  0.14040992391E+04  0.71231579169E+03  0.18726924213E+04  0.24466028212E+04  0.25500000920E-02 0.  1.
</event>
<event>
 5   0  0.5735179E-07  0.2789614E+04  0.7818609E-02  0.8306500E-01
        2   -1    0    0  501    0  0.00000000000E+00  0.00000000000E+00  0.19288512409E+04  0.19288512409E+04  0.25500000920E-02 0.  1.
       -2   -1    0    0    0  501  0.00000000000E+00  0.00000000000E+00 -0.10086246599E+04  0.10086246599E+04  0.25500000920E-02 0. -1.
    10030    2    1    2    0    0  0.00000000000E+00  0.00000000000E+00  0.92022658097E+03  0.29374759007E+04  0.27896142578E+04 0.  0.
        5    1    3    3  502    0  0.86803497491E+03  0.30963302501E+03  0.15625577894E+04  0.18141020542E+04  0.46999998093E+01 0.  1.
       -5    1    3    3    0  502 -0.86803497491E+03 -0.30963302501E+03 -0.64233120841E+03  0.11233738466E+04  0.46999998093E+01 0. -1.
</event>
<event>
 5   0  0.3959190E-07  0.3822826E+04  0.7818609E-02  0.8041274E-01
        2   -1    0    0  501    0  0.00000000000E+00  0.00000000000E+00  0.11637959520E+04  0.11637959520E+04  0.25500000920E-02 0.  1.
       -2   -1    0    0    0  501  0.00000000000E+00  0.00000000000E+00 -0.31392959823E+04  0.31392959823E+04  0.25500000920E-02 0. -1.
    10030    2    1    2    0    0  0.00000000000E+00  0.00000000000E+00 -0.19755000303E+04  0.43030919344E+04  0.38228261569E+04 0.  0.
        2    1    3    3  502    0 -0.78251305945E+03  0.17014490856E+04 -0.55728732440E+03  0.19539254953E+04  0.25500000920E-02 0. -1.
       -2    1    3    3    0  502  0.78251305945E+03 -0.17014490856E+04 -0.14182127059E+04  0.23491664391E+04  0.25500000920E-02 0.  1.
</event>
<event>
 5   0  0.1860500E-07  0.3877271E+04  0.7818609E-02  0.8029773E-01
       -1   -1    0    0    0  501  0.00000000000E+00  0.00000000000E+00  0.14649684828E+04  0.14649684828E+04  0.50400001928E-02 0.  1.
        1   -1    0    0  501    0  0.00000000000E+00  0.00000000000E+00 -0.25654533118E+04  0.25654533118E+04  0.50400001928E-02 0. -1.
    10030    2    1    2    0    0  0.00000000000E+00  0.00000000000E+00 -0.11004848290E+04  0.40304217946E+04  0.38772713323E+04 0.  0.
        5    1    3    3  502    0 -0.57647528294E+03  0.18282381132E+04 -0.24985077549E+03  0.19331905882E+04  0.46999998093E+01 0. -1.
       -5    1    3    3    0  502  0.57647528294E+03 -0.18282381132E+04 -0.85063405348E+03  0.20972312064E+04  0.46999998093E+01 0.  1.
</event>
<event>
 5   0  0.1876027E-07  0.3912387E+04  0.7818609E-02  0.8022458E-01
        1   -1    0    0  501    0  0.00000000000E+00  0.00000000000E+00  0.23085680401E+04  0.23085680401E+04  0.50400001928E-02 0.  1.
       -1   -1    0    0    0  501  0.00000000000E+00  0.00000000000E+00 -0.16576045993E+04  0.16576045993E+04  0.50400001928E-02 0. -1.
    10030    2    1    2    0    0  0.00000000000E+00  0.00000000000E+00  0.65096344082E+03  0.39661726395E+04  0.39123869958E+04 0.  0.
        3    1    3    3  502    0 -0.19088314664E+04 -0.41223792769E+03  0.44157823118E+03  0.20021411091E+04  0.10100000352E+00 0.  1.
       -3    1    3    3    0  502  0.19088314664E+04  0.41223792769E+03  0.20938520964E+03  0.19640315304E+04  0.10100000352E+00 0. -1.
</event>
<event>
 5   0  0.3959190E-07  0.3872248E+04  0.7818609E-02  0.8030826E-01
       -2   -1    0    0    0  501  0.00000000000E+00  0.00000000000E+00  0.20477649423E+04  0.20477649423E+04  0.25500000920E-02 0. -1.
        2   -1    0    0  501    0  0.00000000000E+00  0.00000000000E+00 -0.18305697788E+04  0.18305697788E+04  0.25500000920E-02 0.  1.
    10030    2    1    2    0    0  0.00000000000E+00  0.00000000000E+00  0.21719516349E+03  0.38783347211E+04  0.38722482449E+04 0.  0.
        2    1    3    3  502    0 -0.10953766228E+04 -0.63466255495E+03 -0.13586043285E+04  0.18570008686E+04  0.25500000920E-02 0.  1.
       -2    1    3    3    0  502  0.10953766228E+04  0.63466255495E+03  0.15757994920E+04  0.20213338525E+04  0.25500000920E-02 0. -1.
</event>
<event>
 5   0  0.1943459E-07  0.3905913E+04  0.7818609E-02  0.8023800E-01
       -1   -1    0    0    0  501  0.00000000000E+00  0.00000000000E+00  0.18837101732E+04  0.18837101732E+04  0.50400001928E-02 0. -1.
        1   -1    0    0  501    0  0.00000000000E+00  0.00000000000E+00 -0.20247486916E+04  0.20247486916E+04  0.50400001928E-02 0.  1.
    10030    2    1    2    0    0  0.00000000000E+00  0.00000000000E+00 -0.14103851839E+03  0.39084588648E+04  0.39059133163E+04 0.  0.
        2    1    3    3  502    0 -0.59033520185E+03 -0.10210234652E+04  0.14871117822E+04  0.18980216068E+04  0.25500000920E-02 0. -1.
       -2    1    3    3    0  502  0.59033520185E+03  0.10210234652E+04 -0.16281503006E+04  0.20104372580E+04  0.25500000920E-02 0.  1.
</event>
<event>
 5   0  0.1860500E-07  0.2737440E+04  0.7818609E-02  0.8322958E-01
       -1   -1    0    0    0  501  0.00000000000E+00  0.00000000000E+00  0.13489176451E+04  0.13489176451E+04  0.50400001928E-02 0. -1.
        1   -1    0    0  501    0  0.00000000000E+00  0.00000000000E+00 -0.13888132586E+04  0.13888132586E+04  0.50400001928E-02 0.  1.
    10030    2    1    2    0    0  0.00000000000E+00  0.00000000000E+00 -0.39895613458E+02  0.27377309037E+04  0.27374401987E+04 0.  0.
        5    1    3    3  502    0  0.11132450957E+04  0.49616259335E+03  0.60291898906E+03  0.13597887187E+04  0.46999998093E+01 0. -1.
       -5    1    3    3    0  502 -0.11132450957E+04 -0.49616259335E+03 -0.64281460252E+03  0.13779421850E+04  0.46999998093E+01 0.  1.
</event>
<event>
 5   0  0.6095665E-07  0.2628726E+04  0.7818609E-02  0.8358509E-01
       -2   -1    0    0    0  501  0.00000000000E+00  0.00000000000E+00  0.78197677967E+03  0.78197677968E+03  0.25500000920E-02 0. -1.
        2   -1    0    0  501    0  0.00000000000E+00  0.00000000000E+00 -0.22092091536E+04  0.22092091536E+04  0.25500000920E-02 0.  1.
    10030    2    1    2    0    0  0.00000000000E+00  0.00000000000E+00 -0.14272323739E+04  0.29911859332E+04  0.26287261246E+04 0.  0.
        4    1    3    3  502    0 -0.76312966584E+03  0.10313520782E+04 -0.38878133461E+03  0.13405993194E+04  0.12699999809E+01 0.  1.
       -4    1    3    3    0  502  0.76312966584E+03 -0.10313520782E+04 -0.10384510393E+04  0.16505866139E+04  0.12699999809E+01 0. -1.
</event>
<event>
 5   0  0.3959190E-07  0.3870403E+04  0.7818609E-02  0.8031213E-01
       -2   -1    0    0    0  501  0.00000000000E+00  0.00000000000E+00  0.13891482598E+04  0.13891482598E+04  0.25500000920E-02 0.  1.
        2   -1    0    0  501    0  0.00000000000E+00  0.00000000000E+00 -0.26958996564E+04  0.26958996564E+04  0.25500000920E-02 0. -1.
    10030    2    1    2    0    0  0.00000000000E+00  0.00000000000E+00 -0.13067513966E+04  0.40850479163E+04  0.38704027265E+04 0.  0.
        2    1    3    3  502    0  0.16693359917E+04  0.47500708682E+03  0.25006803461E+03  0.17535245672E+04  0.25500000920E-02 0.  1.
       -2    1    3    3    0  502 -0.16693359917E+04 -0.47500708682E+03 -0.15568194312E+04  0.23315233491E+04  0.25500000920E-02 0. -1.
</event>
<event>
 5   0  0.6095665E-07  0.3901976E+04  0.7818609E-02  0.8024618E-01
       -2   -1    0    0    0  501  0.00000000000E+00  0.00000000000E+00  0.16349925078E+04  0.16349925078E+04  0.25500000920E-02 0. -1.
        2   -1    0    0  501    0  0.00000000000E+00  0.00000000000E+00 -0.23280562934E+04  0.23280562934E+04  0.25500000920E-02 0.  1.
    10030    2    1    2    0    0  0.00000000000E+00  0.00000000000E+00 -0.69306378566E+03  0.39630488012E+04  0.39019762159E+04 0.  0.
        4    1    3    3  502    0  0.12962131450E+04  0.51575552698E+03 -0.17317634282E+04  0.22237757228E+04  0.12699999809E+01 0.  1.
       -4    1    3    3    0  502 -0.12962131450E+04 -0.51575552698E+03  0.10386996426E+04  0.17392730784E+04  0.12699999809E+01 0. -1.
</event>
<event>
 5   0  0.5872444E-07  0.3884931E+04  0.7818609E-02  0.8028171E-01
        2   -1    0    0  501    0  0.00000000000E+00  0.00000000000E+00  0.20064421782E+04  0.20064421782E+04  0.25500000920E-02 0.  1.
       -2   -1    0    0    0  501  0.00000000000E+00  0.00000000000E+00 -0.18805291265E+04  0.18805291265E+04  0.25500000920E-02 0. -1.
    10030    2    1    2    0    0  0.00000000000E+00  0.00000000000E+00  0.12591305165E+03  0.38869713047E+04  0.38849313799E+04 0.  0.
        3    1    3    3  502    0 -0.18602223969E+04  0.39967110500E+03 -0.32841199120E+03  0.19308078113E+04  0.10100000352E+00 0.  1.
       -3    1    3    3    0  502  0.18602223969E+04 -0.39967110500E+03  0.45432504285E+03  0.19561634934E+04  0.10100000352E+00 0. -1.
</event>
<event>
 5   0  0.3959190E-07  0.4005449E+04  0.7818609E-02  0.8003448E-01
        2   -1    0    0  501    0  0.00000000000E+00  0.00000000000E+00  0.22354555265E+04  0.22354555265E+04  0.25500000920E-02 0.  1.
       -2   -1    0    0    0  501  0.00000000000E+00  0.00000000000E+00 -0.17942224941E+04  0.17942224941E+04  0.25500000920E-02 0. -1.
    10030    2    1    2    0    0  0.00000000000E+00  0.00000000000E+00  0.44123303249E+03  0.40296780206E+04  0.40054485842E+04 0.  0.
        2    1    3    3  502    0  0.12193405090E+04 -0.27771143010E+03  0.17943647426E+04  0.21871579149E+04  0.25500000920E-02 0.  1.
       -2    1    3    3    0  502 -0.12193405090E+04  0.27771143010E+03 -0.13531317101E+04  0.18425201057E+04  0.25500000920E-02 0. -1.
</event>
<event>
 5   0  0.5805753E-07  0.3561297E+04  0.7818609E-02  0.8099415E-01
        2   -1    0    0  501    0  0.00000000000E+00  0.00000000000E+00  0.23820791182E+04  0.23820791182E+04  0.25500000920E-02 0.  1.
       -2   -1    0    0    0  501  0.00000000000E+00  0.00000000000E+00 -0.13310676584E+04  0.13310676584E+04  0.25500000920E-02 0. -1.
    10030    2    1    2    0    0  0.00000000000E+00  0.00000000000E+00  0.10510114599E+04  0.37131467766E+04  0.35612966593E+04 0.  0.
        1    1    3    3  502    0  0.15055105664E+04 -0.52524217087E+03 -0.30092434445E+03  0.16226511840E+04  0.50400001928E-02 0. -1.
       -1    1    3    3    0  502 -0.15055105664E+04  0.52524217087E+03  0.13519358043E+04  0.20904955926E+04  0.50400001928E-02 0.  1.
</event>
<event>
 5   0  0.1943459E-07  0.3915075E+04  0.7818609E-02  0.8021901E-01
        1   -1    0    0  501    0  0.00000000000E+00  0.00000000000E+00  0.17209539076E+04  0.17209539076E+04  0.50400001928E-02 0. -1.
       -1   -1    0    0    0  501  0.00000000000E+00  0.00000000000E+00 -0.22266453643E+04  0.22266453643E+04  0.50400001928E-02 0.  1.
    10030    2    1    2    0    0  0.00000000000E+00  0.00000000000E+00 -0.50569145674E+03  0.39475992719E+04  0.39150754989E+04 0.  0.
        2    1    3    3  502    0 -0.15854101594E+03  0.14480961265E+04  0.10656241041E+04  0.18049023177E+04  0.25500000920E-02 0. -1.
       -2    1    3    3    0  502  0.15854101594E+03 -0.14480961265E+04 -0.15713155609E+04  0.21426969541E+04  0.25500000920E-02 0.  1.
</event>
<event>
 5   0  0.3959190E-07  0.3732372E+04  0.7818609E-02  0.8060825E-01
        2   -1    0    0  501    0  0.00000000000E+00  0.00000000000E+00  0.22872286458E+04  0.22872286458E+04  0.25500000920E-02 0. -1.
       -2   -1    0    0    0  501  0.00000000000E+00  0.00000000000E+00 -0.15226505177E+04  0.15226505177E+04  0.25500000920E-02 0.  1.
    10030    2    1    2    0    0  0.00000000000E+00  0.00000000000E+00  0.76457812812E+03  0.38098791635E+04  0.37323718365E+04 0.  0.
        2    1    3    3  502    0  0.22142940800E+03 -0.15653626556E+04 -0.62989661149E+03  0.17018110845E+04  0.25500000920E-02 0.  1.
       -2    1    3    3    0  502 -0.22142940800E+03  0.15653626556E+04  0.13944747396E+04  0.21080680790E+04  0.25500000920E-02 0. -1.
</event>
<event>
 5   0  0.5872444E-07  0.3907607E+04  0.7818609E-02  0.8023449E-01
        2   -1    0    0  501    0  0.00000000000E+00  0.00000000000E+00  0.23708117555E+04  0.23708117555E+04  0.25500000920E-02 0. -1.
       -2   -1    0    0    0  501  0.00000000000E+00  0.00000000000E+00 -0.16101437516E+04  0.16101437516E+04  0.25500000920E-02 0.  1.
    10030    2    1    2    0    0  0.00000000000E+00  0.00000000000E+00  0.76066800396E+03  0.39809555071E+04  0.39076068043E+04 0.  0.
        3    1    3    3  502    0 -0.13711601217E+04 -0.13875712848E+04  0.49153213730E+03  0.20117251308E+04  0.10100000352E+00 0.  1.
       -3    1    3    3    0  502  0.13711601217E+04  0.13875712848E+04  0.26913586667E+03  0.19692303762E+04  0.10100000352E+00 0. -1.
</event>
<event>
 5   0  0.5735179E-07  0.2938485E+04  0.7818609E-02  0.8261518E-01
        2   -1    0    0  501    0  0.00000000000E+00  0.00000000000E+00  0.10780614389E+04  0.10780614389E+04  0.25500000920E-02 0. -1.
       -2   -1    0    0    0  501  0.00000000000E+00  0.00000000000E+00 -0.20023656773E+04  0.20023656773E+04  0.25500000920E-02 0.  1.
    10030    2    1    2    0    0  0.00000000000E+00  0.00000000000E+00 -0.92430423840E+03  0.30804271161E+04  0.29384847954E+04 0.  0.
        5    1    3    3  502    0 -0.11595308601E+04 -0.47357779737E+03  0.34297269160E+03  0.12986300870E+04  0.46999998093E+01 0. -1.
       -5    1    3    3    0  502  0.11595308601E+04  0.47357779737E+03 -0.12672769300E+04  0.17817970291E+04  0.46999998093E+01 0.  1.
</event>
<event>
 5   0  0.5805753E-07  0.2439986E+04  0.7818609E-02  0.8424683E-01
        2   -1    0    0  501    0  0.00000000000E+00  0.00000000000E+00  0.11787822092E+04  0.11787822092E+04  0.25500000920E-02 0. -1.
       -2   -1    0    0    0  501  0.00000000000E+00  0.00000000000E+00 -0.12626441003E+04  0.12626441003E+04  0.25500000920E-02 0.  1.
    10030    2    1    2    0    0  0.00000000000E+00  0.00000000000E+00 -0.83861891044E+02  0.24414263095E+04  0.24399855753E+04 0.  0.
        1    1    3    3  502    0  0.10574689536E+04  0.38139390082E+03 -0.51621558407E+03  0.12370046179E+04  0.50400001928E-02 0.  1.
       -1    1    3    3    0  502 -0.10574689536E+04 -0.38139390082E+03  0.43235369303E+03  0.12044216916E+04  0.50400001928E-02 0. -1.
</event>
<event>
 5   0  0.2666813E-07  0.3968479E+04  0.7818609E-02  0.8010936E-01
       -1   -1    0    0    0  501  0.00000000000E+00  0.00000000000E+00  0.16040297806E+04  0.16040297806E+04  0.50400001928E-02 0. -1.
        1   -1    0    0  501    0  0.00000000000E+00  0.00000000000E+00 -0.24545714388E+04  0.24545714388E+04  0.50400001928E-02 0.  1.
    10030    2    1    2    0    0  0.00000000000E+00  0.00000000000E+00 -0.85054165823E+03  0.40586012194E+04  0.39684786437E+04 0.  0.
        1    1    3    3  502    0  0.10208865782E+04  0.13642859021E+04 -0.14650804889E+04  0.22472085500E+04  0.50400001928E-02 0.  1.
       -1    1    3    3    0  502 -0.10208865782E+04 -0.13642859021E+04  0.61453883071E+03  0.18113926694E+04  0.50400001928E-02 0. -1.
</event>
<event>
 5   0  0.3959190E-07  0.3898998E+04  0.7818609E-02  0.8025238E-01
       -2   -1    0    0    0  501  0.00000000000E+00  0.00000000000E+00  0.12989791921E+04  0.12989791921E+04  0.25500000920E-02 0. -1.
        2   -1    0    0  501    0  0.00000000000E+00  0.00000000000E+00 -0.29257953247E+04  0.29257953247E+04  0.25500000920E-02 0.  1.
    10030    2    1    2    0    0  0.00000000000E+00  0.00000000000E+00 -0.16268161326E+04  0.42247745168E+04  0.38989984597E+04 0.  0.
        2    1    3    3  502    0  0.19461071401E+04  0.30480182206E+02 -0.69330843528E+03  0.20661409992E+04  0.25500000920E-02 0.  1.
       -2    1    3    3    0  502 -0.19461071401E+04 -0.30480182206E+02 -0.93350769730E+03  0.21586335176E+04  0.25500000920E-02 0. -1.
</event>
<event>
 5   0  0.1876027E-07  0.2912904E+04  0.7818609E-02  0.8269048E-01
       -1   -1    0    0    0  501  0.00000000000E+00  0.00000000000E+00  0.11083134322E+04  0.11083134322E+04  0.50400001928E-02 0. -1.
        1   -1    0    0  501    0  0.00000000000E+00  0.00000000000E+00 -0.19139466977E+04  0.19139466977E+04  0.50400001928E-02 0.  1.
    10030    2    1    2    0    0  0.00000000000E+00  0.00000000000E+00 -0.80563326555E+03  0.30222601299E+04  0.29129042783E+04 0.  0.
        3    1    3    3  502    0 -0.11671437661E+04 -0.39999765566E+03 -0.12058432883E+04  0.17251900595E+04  0.10100000352E+00 0.  1.
       -3    1    3    3    0  502  0.11671437661E+04  0.39999765566E+03  0.40021002275E+03  0.12970700705E+04  0.10100000352E+00 0. -1.
</event>
<event>
 5   0  0.5872444E-07  0.3900403E+04  0.7818609E-02  0.8024945E-01
        2   -1    0    0  501    0  0.00000000000E+00  0.00000000000E+00  0.21597409431E+04  0.21597409431E+04  0.25500000920E-02 0.  1.
       -2   -1    0    0    0  501  0.00000000000E+00  0.00000000000E+00 -0.17609920497E+04  0.17609920497E+04  0.25500000920E-02 0. -1.
    10030    2    1    2    0    0  0.00000000000E+00  0.00000000000E+00  0.39874889333E+03  0.39207329928E+04  0.39004033792E+04 0.  0.
        3    1    3    3  502    0 -0.43247028159E+03  0.17759996361E+04 -0.48393428736E+03  0.18908721947E+04  0.10100000352E+00 0. -1.
       -3    1    3    3    0  502  0.43247028159E+03 -0.17759996361E+04  0.88268318070E+03  0.20298607981E+04  0.10100000352E+00 0.  1.
</event>
<event>
 5   0  0.1943459E-07  0.3900525E+04  0.7818609E-02  0.8024920E-01
        1   -1    0    0  501    0  0.00000000000E+00  0.00000000000E+00  0.22070406855E+04  0.22070406856E+04  0.50400001928E-02 0.  1.
       -1   -1    0    0    0  501  0.00000000000E+00  0.00000000000E+00 -0.17233587527E+04  0.17233587527E+04  0.50400001928E-02 0. -1.
    10030    2    1    2    0    0  0.00000000000E+00  0.00000000000E+00  0.48368193282E+03  0.39303994383E+04  0.39005245202E+04 0.  0.
        2    1    3    3  502    0  0.95183370914E+02 -0.19346854104E+04  0.47041612877E+03  0.19933285844E+04  0.25500000920E-02 0. -1.
       -2    1    3    3    0  502 -0.95183370914E+02  0.19346854104E+04  0.13265804048E+02  0.19370708539E+04  0.25500000920E-02 0.  1.
</event>
<event>
 5   0  0.6095665E-07  0.3522989E+04  0.7818609E-02  0.8108363E-01
        2   -1    0    0  501    0  0.00000000000E+00  0.00000000000E+00  0.23354950384E+04  0.23354950384E+04  0.25500000920E-02 0.  1.
       -2   -1    0    0    0  501  0.00000000000E+00  0.00000000000E+00 -0.13285675924E+04  0.13285675924E+04  0.25500000920E-02 0. -1.
    10030    2    1    2    0    0  0.00000000000E+00  0.00000000000E+00  0.10069274460E+04  0.36640626308E+04  0.35229890832E+04 0.  0.
        4    1    3    3  502    0 -0.33205324584E+02 -0.10645819651E+03 -0.13248921371E+04  0.13295776506E+04  0.12699999809E+01 0. -1.
       -4    1    3    3    0  502  0.33205324584E+02  0.10645819651E+03  0.23318195831E+04  0.23344849801E+04  0.12699999809E+01 0.  1.
</event>
<event>
 5   0  0.2666813E-07  0.3895692E+04  0.7818609E-02  0.8025926E-01
       -1   -1    0    0    0  501  0.00000000000E+00  0.00000000000E+00  0.13892833951E+04  0.13892833951E+04  0.50400001928E-02 0.  1.
        1   -1    0    0  501    0  0.00000000000E+00  0.00000000000E+00 -0.27309785234E+04  0.27309785234E+04  0.50400001928E-02 0. -1.
    10030    2    1    2    0    0  0.00000000000E+00  0.00000000000E+00 -0.13416951283E+04  0.41202619185E+04  0.38956915252E+04 0.  0.
        1    1    3    3  502    0  0.76120177917E+03  0.15361424792E+04 -0.16487789837E+04  0.23785781471E+04  0.50400001928E-02 0. -1.
       -1    1    3    3    0  502 -0.76120177917E+03 -0.15361424792E+04  0.30708385532E+03  0.17416837713E+04  0.50400001928E-02 0.  1.
</event>
<event>
 5   0  0.5805753E-07  0.3287905E+04  0.7818609E-02  0.8165980E-01
       -2   -1    0    0    0  501  0.00000000000E+00  0.00000000000E+00  0.17372758919E+04  0.17372758919E+04  0.25500000920E-02 0. -1.
        2   -1    0    0  501    0  0.00000000000E+00  0.00000000000E+00 -0.15556426692E+04  0.15556426692E+04  0.25500000920E-02 0.  1.
    10030    2    1    2    0    0  0.00000000000E+00  0.00000000000E+00  0.18163322268E+03  0.32929185611E+04  0.32879054157E+04 0.  0.
        1    1    3    3  502    0  0.76258833560E+03 -0.81985872855E+03  0.12963425648E+04  0.17129545673E+04  0.50400001928E-02 0. -1.
       -1    1    3    3    0  502 -0.76258833560E+03  0.81985872855E+03 -0.11147093421E+04  0.15799639938E+04  0.50400001928E-02 0.  1.
</event>
<event>
 5   0  0.1943459E-07  0.3882786E+04  0.7818609E-02  0.8028619E-01
       -1   -1    0    0    0  501  0.00000000000E+00  0.00000000000E+00  0.22301865881E+04  0.22301865881E+04  0.50400001928E-02 0.  1.
        1   -1    0    0  501    0  0.00000000000E+00  0.00000000000E+00 -0.16899962559E+04  0.16899962559E+04  0.50400001928E-02 0. -1.
    10030    2    1    2    0    0  0.00000000000E+00  0.00000000000E+00  0.54019033220E+03  0.39201828440E+04  0.38827861048E+04 0.  0.
        2    1    3    3  502    0  0.68089984721E+03  0.18113058023E+04  0.42830048728E+03  0.19818916768E+04  0.25500000920E-02 0.  1.
       -2    1    3    3    0  502 -0.68089984721E+03 -0.18113058023E+04  0.11188984491E+03  0.19382911672E+04  0.25500000920E-02 0. -1.
</event>
<event>
 5   0  0.5872444E-07  0.4062972E+04  0.7818609E-02  0.7991962E-01
       -2   -1    0    0    0  501  0.00000000000E+00  0.00000000000E+00  0.16228934723E+04  0.16228934723E+04  0.25500000920E-02 0.  1.
        2   -1    0    0  501    0  0.00000000000E+00  0.00000000000E+00 -0.25429493459E+04  0.25429493459E+04  0.25500000920E-02 0. -1.
    10030    2    1    2    0    0  0.00000000000E+00  0.00000000000E+00 -0.92005587365E+03  0.41658428182E+04  0.40629722587E+04 0.  0.
        3    1    3    3  502    0  0.10146519969E+04 -0.16615155107E+04 -0.10550517839E+04  0.22143366375E+04  0.10100000352E+00 0. -1.
       -3    1    3    3    0  502 -0.10146519969E+04  0.16615155107E+04  0.13499591025E+03  0.19515061807E+04  0.10100000352E+00 0.  1.
</event>
<event>
 5   0  0.1876027E-07  0.3955611E+04  0.7818609E-02  0.8013562E-01
        1   -1    0    0  501    0  0.00000000000E+00  0.00000000000E+00  0.21360126574E+04  0.21360126574E+04  0.50400001928E-02 0. -1.
       -1   -1    0    0    0  501  0.00000000000E+00  0.00000000000E+00 -0.18313159702E+04  0.18313159702E+04  0.50400001928E-02 0.  1.
    10030    2    1    2    0    0  0.00000000000E+00  0.00000000000E+00  0.30469668715E+03  0.39673286276E+04  0.39556107453E+04 0.  0.
        3    1    3    3  502    0  0.33167371520E+03 -0.60174772242E+03  0.20124599236E+04  0.21265236253E+04  0.10100000352E+00 0. -1.
       -3    1    3    3    0  502 -0.33167371520E+03  0.60174772242E+03 -0.17077632364E+04  0.18408050023E+04  0.10100000352E+00 0.  1.
</event>
<event>
 5   0  0.5805753E-07  0.3777039E+04  0.7818609E-02  0.8051100E-01
        2   -1    0    0  501    0  0.00000000000E+00  0.00000000000E+00  0.21476958937E+04  0.21476958937E+04  0.25500000920E-02 0. -1.
       -2   -1    0    0    0  501  0.00000000000E+00  0.00000000000E+00 -0.16606197518E+04  0.16606197518E+04  0.25500000920E-02 0.  1.
    10030    2    1    2    0    0  0.00000000000E+00  0.00000000000E+00  0.48707614189E+03  0.38083156454E+04  0.37770391694E+04 0.  0.
        1    1    3    3  502    0 -0.18735736572E+04  0.10713070331E+03  0.30242052842E+02  0.18768776781E+04  0.50400001928E-02 0.  1.
       -1    1    3    3    0  502  0.18735736572E+04 -0.10713070331E+03  0.45683408905E+03  0.19314379673E+04  0.50400001928E-02 0. -1.
</event>
<event>
 5   0  0.1873392E-07  0.2470852E+04  0.7818609E-02  0.8413444E-01
       -1   -1    0    0    0  501  0.00000000000E+00  0.00000000000E+00  0.10321771462E+04  0.10321771462E+04  0.50400001928E-02 0. -1.
        1   -1    0    0  501    0  0.00000000000E+00  0.00000000000E+00 -0.14786971061E+04  0.14786971061E+04  0.50400001928E-02 0.  1.
    10030    2    1    2    0    0  0.00000000000E+00  0.00000000000E+00 -0.44651995998E+03  0.25108742523E+04  0.24708519657E+04 0.  0.
        4    1    3    3  502    0 -0.68532842350E+03 -0.56749960922E+03 -0.10941983175E+04  0.14103199727E+04  0.12699999809E+01 0.  1.
       -4    1    3    3    0  502  0.68532842350E+03  0.56749960922E+03  0.64767835756E+03  0.11005542796E+04  0.12699999809E+01 0. -1.
</event>
<event>
 5   0  0.5805753E-07  0.3705678E+04  0.7818609E-02  0.8066705E-01
        2   -1    0    0  501    0  0.00000000000E+00  0.00000000000E+00  0.23388932651E+04  0.23388932651E+04  0.25500000920E-02 0.  1.
       -2   -1    0    0    0  501  0.00000000000E+00  0.00000000000E+00 -0.14677936922E+04  0.14677936922E+04  0.25500000920E-02 0. -1.
    10030    2    1    2    0    0  0.00000000000E+00  0.00000000000E+00  0.87109957297E+03  0.38066869573E+04  0.37056782274E+04 0.  0.
        1    1    3    3  502    0 -0.13339235393E+04 -0.12419773327E+04  0.77803372096E+03  0.19817154626E+04  0.50400001928E-02 0.  1.
       -1    1    3    3    0  502  0.13339235393E+04  0.12419773327E+04  0.93065852013E+02  0.18249714947E+04  0.50400001928E-02 0. -1.
</event>
<event>
 5   0  0.1860500E-07  0.3981424E+04  0.7818609E-02  0.8008305E-01
        1   -1    0    0  501    0  0.00000000000E+00  0.00000000000E+00  0.16672628473E+04  0.16672628474E+04  0.50400001928E-02 0.  1.
       -1   -1    0    0    0  501  0.00000000000E+00  0.00000000000E+00 -0.23769097744E+04  0.23769097744E+04  0.50400001928E-02 0. -1.
    10030    2    1    2    0    0  0.00000000000E+00  0.00000000000E+00 -0.70964692706E+03  0.40441726218E+04  0.39814235436E+04 0.  0.
        4    1    3    3  502    0 -0.49020029460E+03  0.62675359600E+03  0.14987140487E+04  0.16968387701E+04  0.12699999809E+01 0.  1.
       -4    1    3    3    0  502  0.49020029460E+03 -0.62675359600E+03 -0.22083609758E+04  0.23473338517E+04  0.12699999809E+01 0. -1.
</event>
<event>
 5   0  0.1860500E-07  0.3868007E+04  0.7818609E-02  0.8031716E-01
       -3   -1    0    0    0  501  0.00000000000E+00  0.00000000000E+00  0.13478264849E+04  0.13478264887E+04  0.10100000352E+00 0.  1.
        3   -1    0    0  501    0  0.00000000000E+00  0.00000000000E+00 -0.27751125859E+04  0.27751125877E+04  0.10100000352E+00 0. -1.
    10030    2    1    2    0    0  0.00000000000E+00  0.00000000000E+00 -0.14272861010E+04  0.41229390764E+04  0.38680073699E+04 0.  0.
        2    1    3    3  502    0  0.78954770655E+03 -0.63053757706E+03 -0.24713915382E+04  0.26699699160E+04  0.25500000920E-02 0. -1.
       -2    1    3    3    0  502 -0.78954770655E+03  0.63053757706E+03  0.10441054372E+04  0.14529691604E+04  0.25500000920E-02 0.  1.
</event>
<event>
 5   0  0.1943459E-07  0.3686289E+04  0.7818609E-02  0.8071007E-01
        1   -1    0    0  501    0  0.00000000000E+00  0.00000000000E+00  0.26049622323E+04  0.26049622323E+04  0.50400001928E-02 0.  1.
       -1   -1    0    0    0  501  0.00000000000E+00  0.00000000000E+00 -0.13041194357E+04  0.13041194357E+04  0.50400001928E-02 0. -1.
    10030    2    1    2    0    0  0.00000000000E+00  0.00000000000E+00  0.13008427966E+04  0.39090816680E+04  0.36862891240E+04 0.  0.
        2    1    3    3  502    0 -0.10081655135E+04  0.31998377452E+03  0.22510840665E+04  0.24872005936E+04  0.25500000920E-02 0.  1.
       -2    1    3    3    0  502  0.10081655135E+04 -0.31998377452E+03 -0.95024126993E+03  0.14218810744E+04  0.25500000920E-02 0. -1.
</event>
<event>
 5   0  0.1860500E-07  0.2774916E+04  0.7818609E-02  0.8311098E-01
       -1   -1    0    0    0  501  0.00000000000E+00  0.00000000000E+00  0.83635224162E+03  0.83635224164E+03  0.50400001928E-02 0. -1.
        1   -1    0    0  501    0  0.00000000000E+00  0.00000000000E+00 -0.23017097153E+04  0.23017097153E+04  0.50400001928E-02 0.  1.
    10030    2    1    2    0    0  0.00000000000E+00  0.00000000000E+00 -0.14653574737E+04  0.31380619570E+04  0.27749162726E+04 0.  0.
        5    1    3    3  502    0 -0.91725205277E+03  0.76718895599E+03  0.63027437880E+02  0.11974659788E+04  0.46999998093E+01 0. -1.
       -5    1    3    3    0  502  0.91725205277E+03 -0.76718895599E+03 -0.15283849116E+04  0.19405959782E+04  0.46999998093E+01 0.  1.
</event>
<event>
 5   0  0.3959190E-07  0.3358341E+04  0.7818609E-02  0.8148207E-01
        2   -1    0    0  501    0  0.00000000000E+00  0.00000000000E+00  0.16201160235E+04  0.16201160235E+04  0.25500000920E-02 0. -1.
       -2   -1    0    0    0  501  0.00000000000E+00  0.00000000000E+00 -0.17403771270E+04  0.17403771270E+04  0.25500000920E-02 0.  1.
    10030    2    1    2    0    0  0.00000000000E+00  0.00000000000E+00 -0.12026110342E+03  0.33604931505E+04  0.33583405845E+04 0.  0.
        2    1    3    3  502    0 -0.76589336039E+02 -0.14130998275E+04  0.84427165651E+03  0.16478809662E+04  0.25500000920E-02 0. -1.
       -2    1    3    3    0  502  0.76589336039E+02  0.14130998275E+04 -0.96453275993E+03  0.17126121843E+04  0.25500000920E-02 0.  1.
</event>
<event>
 5   0  0.6095665E-07  0.2473707E+04  0.7818609E-02  0.8412413E-01
       -2   -1    0    0    0  501  0.00000000000E+00  0.00000000000E+00  0.55016446071E+03  0.55016446072E+03  0.25500000920E-02 0.  1.
        2   -1    0    0  501    0  0.00000000000E+00  0.00000000000E+00 -0.27806343318E+04  0.27806343318E+04  0.25500000920E-02 0. -1.
    10030    2    1    2    0    0  0.00000000000E+00  0.00000000000E+00 -0.22304698711E+04  0.33307987925E+04  0.24737066824E+04 0.  0.
        4    1    3    3  502    0  0.34877082830E+03 -0.12926107582E+03 -0.27035431728E+04  0.27290102265E+04  0.12699999809E+01 0. -1.
       -4    1    3    3    0  502 -0.34877082830E+03  0.12926107582E+03  0.47307330174E+03  0.60178856596E+03  0.12699999809E+01 0.  1.
</event>
<event>
 5   0  0.5872444E-07  0.3757386E+04  0.7818609E-02  0.8055362E-01
        2   -1    0    0  501    0  0.00000000000E+00  0.00000000000E+00  0.18210223706E+04  0.18210223706E+04  0.25500000920E-02 0. -1.
       -2   -1    0    0    0  501  0.00000000000E+00  0.00000000000E+00 -0.19381902775E+04  0.19381902775E+04  0.25500000920E-02 0.  1.
    10030    2    1    2    0    0  0.00000000000E+00  0.00000000000E+00 -0.11716790685E+03  0.37592126481E+04  0.37573862478E+04 0.  0.
        3    1    3    3  502    0  0.15528219939E+03  0.45201838606E+03  0.17591796758E+04  0.18229498964E+04  0.10100000352E+00 0. -1.
       -3    1    3    3    0  502 -0.15528219939E+03 -0.45201838606E+03 -0.18763475826E+04  0.19362627517E+04  0.10100000352E+00 0.  1.
</event>
<event>
 5   0  0.5735179E-07  0.3826357E+04  0.7818609E-02  0.8040522E-01
        2   -1    0    0  501    0  0.00000000000E+00  0.00000000000E+00  0.18177798862E+04  0.18177798862E+04  0.25500000920E-02 0.  1.
       -2   -1    0    0    0  501  0.00000000000E+00  0.00000000000E+00 -0.20135841470E+04  0.20135841470E+04  0.25500000920E-02 0. -1.
    10030    2    1    2    0    0  0.00000000000E+00  0.00000000000E+00 -0.19580426080E+03  0.38313640332E+04  0.38263574123E+04 0.  0.
        5    1    3    3  502    0 -0.62164076800E+03  0.87156914974E+03 -0.16855873280E+04  0.19968216639E+04  0.46999998093E+01 0. -1.
       -5    1    3    3    0  502  0.62164076800E+03 -0.87156914974E+03  0.14897830672E+04  0.18345423693E+04  0.46999998093E+01 0.  1.
</event>
<event>
 5   0  0.1943459E-07  0.3795985E+04  0.7818609E-02  0.8047017E-01
       -1   -1    0    0    0  501  0.00000000000E+00  0.00000000000E+00  0.12856277829E+04  0.12856277829E+04  0.50400001928E-02 0. -1.
        1   -1    0    0  501    0  0.00000000000E+00  0.00000000000E+00 -0.28020363604E+04  0.28020363604E+04  0.50400001928E-02 0.  1.
    10030    2    1    2    0    0  0.00000000000E+00  0.00000000000E+00 -0.15164085775E+04  0.40876641432E+04  0.37959851388E+04 0.  0.
        2    1    3    3  502    0  0.11730268203E+04 -0.51686786453E+02 -0.23639989357E+04  0.26395367800E+04  0.25500000920E-02 0.  1.
       -2    1    3    3    0  502 -0.11730268203E+04  0.51686786453E+02  0.84759035818E+03  0.14481273633E+04  0.25500000920E-02 0. -1.
</event>
<event>
 5   0  0.1860500E-07  0.3800831E+04  0.7818609E-02  0.8045977E-01
       -1   -1    0    0    0  501  0.00000000000E+00  0.00000000000E+00  0.20853034936E+04  0.20853034936E+04  0.50400001928E-02 0.  1.
        1   -1    0    0  501    0  0.00000000000E+00  0.00000000000E+00 -0.17319199897E+04  0.17319199897E+04  0.50400001928E-02 0. -1.
    10030    2    1    2    0    0  0.00000000000E+00  0.00000000000E+00  0.35338350389E+03  0.38172234833E+04  0.38008308593E+04 0.  0.
        4    1    3    3  502    0 -0.46223937882E+03  0.89849227010E+03  0.17931749740E+04  0.20582593867E+04  0.12699999809E+01 0.  1.
       -4    1    3    3    0  502  0.46223937882E+03 -0.89849227010E+03 -0.14397914701E+04  0.17589640966E+04  0.12699999809E+01 0. -1.
</event>
<event>
 5   0  0.5805753E-07  0.2421140E+04  0.7818609E-02  0.8431631E-01
       -2   -1    0    0    0  501  0.00000000000E+00  0.00000000000E+00  0.12067237183E+04  0.12067237183E+04  0.25500000920E-02 0.  1.
        2   -1    0    0  501    0  0.00000000000E+00  0.00000000000E+00 -0.12144282726E+04  0.12144282726E+04  0.25500000920E-02 0. -1.
    10030    2    1    2    0    0  0.00000000000E+00  0.00000000000E+00 -0.77045542810E+01  0.24211519909E+04  0.24211397322E+04 0.  0.
        1    1    3    3  502    0 -0.41130950381E+03  0.49280811475E+03  0.10225271471E+04  0.12073098659E+04  0.50400001928E-02 0.  1.
       -1    1    3    3    0  502  0.41130950381E+03 -0.49280811475E+03 -0.10302317014E+04  0.12138421250E+04  0.50400001928E-02 0. -1.
</event>
<event>
 5   0  0.5805753E-07  0.3866928E+04  0.7818609E-02  0.8031943E-01
        2   -1    0    0  501    0  0.00000000000E+00  0.00000000000E+00  0.22513206336E+04  0.22513206336E+04  0.25500000920E-02 0. -1.
       -2   -1    0    0    0  501  0.00000000000E+00  0.00000000000E+00 -0.16604844672E+04  0.16604844672E+04  0.25500000920E-02 0.  1.
    10030    2    1    2    0    0  0.00000000000E+00  0.00000000000E+00  0.59083616635E+03  0.39118051008E+04  0.38669279501E+04 0.  0.
        1    1    3    3  502    0 -0.80792652540E+02 -0.11262100004E+04  0.18831573009E+04  0.21957135145E+04  0.50400001928E-02 0. -1.
       -1    1    3    3    0  502  0.80792652540E+02  0.11262100004E+04 -0.12923211346E+04  0.17160915863E+04  0.50400001928E-02 0.  1.
</event>
<event>
 5   0  0.5872444E-07  0.3893696E+04  0.7818609E-02  0.8026341E-01
        2   -1    0    0  501    0  0.00000000000E+00  0.00000000000E+00  0.23528607973E+04  0.23528607973E+04  0.25500000920E-02 0.  1.
       -2   -1    0    0    0  501  0.00000000000E+00  0.00000000000E+00 -0.16108977140E+04  0.16108977140E+04  0.25500000920E-02 0. -1.
    10030    2    1    2    0    0  0.00000000000E+00  0.00000000000E+00  0.74196308326E+03  0.39637585113E+04  0.38936964852E+04 0.  0.
        3    1    3    3  502    0  0.17457190924E+04  0.10372405273E+03  0.12419013291E+04  0.21449039023E+04  0.10100000352E+00 0.  1.
       -3    1    3    3    0  502 -0.17457190924E+04 -0.10372405273E+03 -0.49993824582E+03  0.18188546090E+04  0.10100000352E+00 0. -1.
</event>
<event>
 5   0  0.1876027E-07  0.3897827E+04  0.7818609E-02  0.8025481E-01
       -1   -1    0    0    0  501  0.00000000000E+00  0.00000000000E+00  0.17294950321E+04  0.17294950321E+04  0.50400001928E-02 0. -1.
        1   -1    0    0  501    0  0.00000000000E+00  0.00000000000E+00 -0.21961692539E+04  0.21961692539E+04  0.50400001928E-02 0.  1.
    10030    2    1    2    0    0  0.00000000000E+00  0.00000000000E+00 -0.46667422177E+03  0.39256642860E+04  0.38978269917E+04 0.  0.
        3    1    3    3  502    0  0.44200412559E+03 -0.15672266463E+04 -0.13118240694E+04  0.20910402692E+04  0.10100000352E+00 0.  1.
       -3    1    3    3    0  502 -0.44200412559E+03  0.15672266463E+04  0.84514984764E+03  0.18346240168E+04  0.10100000352E+00 0. -1.
</event>
<event>
 5   0  0.3959190E-07  0.3497693E+04  0.7818609E-02  0.8114337E-01
       -2   -1    0    0    0  501  0.00000000000E+00  0.00000000000E+00  0.14246513208E+04  0.14246513209E+04  0.25500000920E-02 0. -1.
        2   -1    0    0  501    0  0.00000000000E+00  0.00000000000E+00 -0.21468156143E+04  0.21468156143E+04  0.25500000920E-02 0.  1.
    10030    2    1    2    0    0  0.00000000000E+00  0.00000000000E+00 -0.72216429347E+03  0.35714669352E+04  0.34976927827E+04 0.  0.
        2    1    3    3  502    0  0.98513872403E+03 -0.11923597153E+04 -0.11945359485E+04  0.19542610185E+04  0.25500000920E-02 0.  1.
       -2    1    3    3    0  502 -0.98513872403E+03  0.11923597153E+04  0.47237165503E+03  0.16172059166E+04  0.25500000920E-02 0. -1.
</event>
<event>
 5   0  0.2666813E-07  0.2520276E+04  0.7818609E-02  0.8395797E-01
       -1   -1    0    0    0  501  0.00000000000E+00  0.00000000000E+00  0.10668388549E+04  0.10668388549E+04  0.50400001928E-02 0. -1.
        1   -1    0    0  501    0  0.00000000000E+00  0.00000000000E+00 -0.14884612831E+04  0.14884612831E+04  0.50400001928E-02 0.  1.
    10030    2    1    2    0    0  0.00000000000E+00  0.00000000000E+00 -0.42162242825E+03  0.25553001380E+04  0.25202764379E+04 0.  0.
        1    1    3    3  502    0 -0.94838652589E+03 -0.30076083500E+03  0.57327538100E+03  0.11482764235E+04  0.50400001928E-02 0. -1.
       -1    1    3    3    0  502  0.94838652589E+03  0.30076083500E+03 -0.99489780924E+03  0.14070237145E+04  0.50400001928E-02 0.  1.
</event>
<event>
 5   0  0.5805753E-07  0.3926343E+04  0.7818609E-02  0.8019573E-01
       -2   -1    0    0    0  501  0.00000000000E+00  0.00000000000E+00  0.13286919323E+04  0.13286919323E+04  0.25500000920E-02 0.  1.
        2   -1    0    0  501    0  0.00000000000E+00  0.00000000000E+00 -0.29006293717E+04  0.29006293717E+04  0.25500000920E-02 0. -1.
    10030    2    1    2    0    0  0.00000000000E+00  0.00000000000E+00 -0.15719374394E+04  0.42293213040E+04  0.39263432579E+04 0.  0.
        1    1    3    3  502    0  0.57426412595E+03 -0.18600292133E+04 -0.51228625772E+03  0.20129394354E+04  0.50400001928E-02 0. -1.
       -1    1    3    3    0  502 -0.57426412595E+03  0.18600292133E+04 -0.10596511817E+04  0.22163818686E+04  0.50400001928E-02 0.  1.
</event>
<event>
 5   0  0.3959190E-07  0.3931060E+04  0.7818609E-02  0.8018600E-01
        2   -1    0    0  501    0  0.00000000000E+00  0.00000000000E+00  0.26531154383E+04  0.26531154383E+04  0.25500000920E-02 0.  1.
       -2   -1    0    0    0  501  0.00000000000E+00  0.00000000000E+00 -0.14561400632E+04  0.14561400632E+04  0.25500000920E-02 0. -1.
    10030    2    1    2    0    0  0.00000000000E+00  0.00000000000E+00  0.11969753751E+04  0.41092555015E+04  0.39310597462E+04 0.  0.
        2    1    3    3  502    0  0.94767192277E+03 -0.25266013933E+03  0.23790469819E+04  0.25732826819E+04  0.25500000920E-02 0.  1.
       -2    1    3    3    0  502 -0.94767192277E+03  0.25266013933E+03 -0.11820716067E+04  0.15359728196E+04  0.25500000920E-02 0. -1.
</event>
<event>
 5   0  0.2666813E-07  0.2778086E+04  0.7818609E-02  0.8310104E-01
       -1   -1    0    0    0  501  0.00000000000E+00  0.00000000000E+00  0.10173840326E+04  0.10173840326E+04  0.50400001928E-02 0.  1.
        1   -1    0    0  501    0  0.00000000000E+00  0.00000000000E+00 -0.18964720053E+04  0.18964720053E+04  0.50400001928E-02 0. -1.
    10030    2    1    2    0    0  0.00000000000E+00  0.00000000000E+00 -0.87908797268E+03  0.29138560379E+04  0.27780859140E+04 0.  0.
        1    1    3    3  502    0  0.35132642423E+02 -0.10285245841E+03 -0.18920051624E+04  0.18951243931E+04  0.50400001928E-02 0. -1.
       -1    1    3    3    0  502 -0.35132642423E+02  0.10285245841E+03  0.10129171897E+04  0.10187316448E+04  0.50400001928E-02 0.  1.
</event>
<event>
 5   0  0.5872444E-07  0.3939063E+04  0.7818609E-02  0.8016953E-01
        2   -1    0    0  501    0  0.00000000000E+00  0.00000000000E+00  0.19050897935E+04  0.19050897935E+04  0.25500000920E-02 0.  1.
       -2   -1    0    0    0  501  0.00000000000E+00  0.00000000000E+00 -0.20361534593E+04  0.20361534593E+04  0.25500000920E-02 0. -1.
    10030    2    1    2    0    0  0.00000000000E+00  0.00000000000E+00 -0.13106366582E+03  0.39412432527E+04  0.39390634284E+04 0.  0.
        3    1    3    3  502    0 -0.14911938154E+04  0.76137812781E+03 -0.11032651315E+04  0.20051308209E+04  0.10100000352E+00 0. -1.
       -3    1    3    3    0  502  0.14911938154E+04 -0.76137812781E+03  0.97220146566E+03  0.19361124318E+04  0.10100000352E+00 0.  1.
</event>
<event>
 5   0  0.3959190E-07  0.3918959E+04  0.7818609E-02  0.8021098E-01
        2   -1    0    0  501    0  0.00000000000E+00  0.00000000000E+00  0.27732819622E+04  0.27732819622E+04  0.25500000920E-02 0.  1.
       -2   -1    0    0    0  501  0.00000000000E+00  0.00000000000E+00 -0.13844823653E+04  0.13844823653E+04  0.25500000920E-02 0. -1.
    10030    2    1    2    0    0  0.00000000000E+00  0.00000000000E+00  0.13887995970E+04  0.41577643275E+04  0.39189590305E+04 0.  0.
        2    1    3    3  502    0  0.11010948037E+04 -0.81668038929E+03  0.21797795281E+04  0.25750369737E+04  0.25500000920E-02 0.  1.
       -2    1    3    3    0  502 -0.11010948037E+04  0.81668038929E+03 -0.79097993113E+03  0.15827273538E+04  0.25500000920E-02 0. -1.
</event>
<event>
 5   0  0.5735179E-07  0.3722000E+04  0.7818609E-02  0.8063104E-01
       -2   -1    0    0    0  501  0.00000000000E+00  0.00000000000E+00  0.18594159601E+04  0.18594159601E+04  0.25500000920E-02 0.  1.
        2   -1    0    0  501    0  0.00000000000E+00  0.00000000000E+00 -0.18625849653E+04  0.18625849653E+04  0.25500000920E-02 0. -1.
    10030    2    1    2    0    0  0.00000000000E+00  0.00000000000E+00 -0.31690052264E+01  0.37220009254E+04  0.37219995763E+04 0.  0.
        5    1    3    3  502    0  0.16945104078E+02  0.17979849829E+04  0.47827084338E+03  0.18605919018E+04  0.46999998093E+01 0. -1.
       -5    1    3    3    0  502 -0.16945104078E+02 -0.17979849829E+04 -0.48143984861E+03  0.18614090236E+04  0.46999998093E+01 0.  1.
</event>
<event>
 5   0  0.1860500E-07  0.2456492E+04  0.7818609E-02  0.8418652E-01
        1   -1    0    0  501    0  0.00000000000E+00  0.00000000000E+00  0.20315255804E+04  0.20315255804E+04  0.50400001928E-02 0.  1.
       -1   -1    0    0    0  501  0.00000000000E+00  0.00000000000E+00 -0.74258878536E+03  0.74258878538E+03  0.50400001928E-02 0. -1.
    10030    2    1    2    0    0  0.00000000000E+00  0.00000000000E+00  0.12889367950E+04  0.27741143658E+04  0.24564918996E+04 0.  0.
        4    1    3    3  502    0 -0.61970545299E+03 -0.61324878943E+03 -0.33254028054E+03  0.93310962768E+03  0.12699999809E+01 0. -1.
       -4    1    3    3    0  502  0.61970545299E+03  0.61324878943E+03  0.16214770756E+04  0.18410047381E+04  0.12699999809E+01 0.  1.
</event>
<event>
 5   0  0.6095665E-07  0.3895609E+04  0.7818609E-02  0.8025943E-01
        2   -1    0    0  501    0  0.00000000000E+00  0.00000000000E+00  0.24194287122E+04  0.24194287122E+04  0.25500000920E-02 0. -1.
       -2   -1    0    0    0  501  0.00000000000E+00  0.00000000000E+00 -0.15681147251E+04  0.15681147251E+04  0.25500000920E-02 0.  1.
    10030    2    1    2    0    0  0.00000000000E+00  0.00000000000E+00  0.85131398710E+03  0.39875434373E+04  0.38956087021E+04 0.  0.
        4    1    3    3  502    0  0.31031269776E+03  0.11798301772E+04  0.19799271355E+04  0.23255980504E+04  0.12699999809E+01 0. -1.
       -4    1    3    3    0  502 -0.31031269776E+03 -0.11798301772E+04 -0.11286131484E+04  0.16619453869E+04  0.12699999809E+01 0.  1.
</event>
<event>
 5   0  0.5872444E-07  0.3968569E+04  0.7818609E-02  0.8010917E-01
       -2   -1    0    0    0  501  0.00000000000E+00  0.00000000000E+00  0.15567582289E+04  0.15567582289E+04  0.25500000920E-02 0.  1.
        2   -1    0    0  501    0  0.00000000000E+00  0.00000000000E+00 -0.25292203186E+04  0.25292203186E+04  0.25500000920E-02 0. -1.
    10030    2    1    2    0    0  0.00000000000E+00  0.00000000000E+00 -0.97246208963E+03  0.40859785475E+04  0.39685687817E+04 0.  0.
        3    1    3    3  502    0  0.28948323940E+03 -0.16215185716E+04  0.65296709792E+03  0.17718603401E+04  0.10100000352E+00 0. -1.
       -3    1    3    3    0  502 -0.28948323940E+03  0.16215185716E+04 -0.16254291875E+04  0.23141182074E+04  0.10100000352E+00 0.  1.
</event>
<event>
 5   0  0.5735179E-07  0.3898016E+04  0.7818609E-02  0.8025442E-01
        2   -1    0    0  501    0  0.00000000000E+00  0.00000000000E+00  0.24953499735E+04  0.24953499735E+04  0.25500000920E-02 0. -1.
       -2   -1    0    0    0  501  0.00000000000E+00  0.00000000000E+00 -0.15222843930E+04  0.15222843930E+04  0.25500000920E-02 0.  1.
    10030    2    1    2    0    0  0.00000000000E+00  0.00000000000E+00  0.97306558048E+03  0.40176343665E+04  0.38980160696E+04 0.  0.
        5    1    3    3  502    0  0.16865005846E+04  0.46544719805E+03  0.13717752497E+04  0.22232217032E+04  0.46999998093E+01 0.  1.
       -5    1    3    3    0  502 -0.16865005846E+04 -0.46544719805E+03 -0.39870966922E+03  0.17944126633E+04  0.46999998093E+01 0. -1.
</event>
<event>
 5   0  0.5872444E-07  0.3790739E+04  0.7818609E-02  0.8048145E-01
       -2   -1    0    0    0  501  0.00000000000E+00  0.00000000000E+00  0.19778716397E+04  0.19778716397E+04  0.25500000920E-02 0. -1.
        2   -1    0    0  501    0  0.00000000000E+00  0.00000000000E+00 -0.18163089708E+04  0.18163089708E+04  0.25500000920E-02 0.  1.
    10030    2    1    2    0    0  0.00000000000E+00  0.00000000000E+00  0.16156266892E+03  0.37941806105E+04  0.37907392431E+04 0.  0.
        3    1    3    3  502    0  0.49570842919E+03  0.17118965324E+04 -0.56486970780E+03  0.18695973848E+04  0.10100000352E+00 0.  1.
       -3    1    3    3    0  502 -0.49570842919E+03 -0.17118965324E+04  0.72643237672E+03  0.19245832257E+04  0.10100000352E+00 0. -1.
</event>
<event>
 5   0  0.1876027E-07  0.3864649E+04  0.7818609E-02  0.8032422E-01
       -1   -1    0    0    0  501  0.00000000000E+00  0.00000000000E+00  0.33408701351E+04  0.33408701351E+04  0.50400001928E-02 0.  1.
        1   -1    0    0  501    0  0.00000000000E+00  0.00000000000E+00 -0.11176360939E+04  0.11176360939E+04  0.50400001928E-02 0. -1.
    10030    2    1    2    0    0  0.00000000000E+00  0.00000000000E+00  0.22232340413E+04  0.44585062290E+04  0.38646485211E+04 0.  0.
        3    1    3    3  502    0 -0.61520242091E+03 -0.33298519927E+03 -0.96642757170E+03  0.11930362204E+04  0.10100000352E+00 0. -1.
       -3    1    3    3    0  502  0.61520242091E+03  0.33298519927E+03  0.31896616130E+04  0.32654700086E+04  0.10100000352E+00 0.  1.
</event>
<event>
 5   0  0.1876027E-07  0.3916281E+04  0.7818609E-02  0.8021651E-01
        1   -1    0    0  501    0  0.00000000000E+00  0.00000000000E+00  0.16816034413E+04  0.16816034413E+04  0.50400001928E-02 0.  1.
       -1   -1    0    0    0  501  0.00000000000E+00  0.00000000000E+00 -0.22801540600E+04  0.22801540600E+04  0.50400001928E-02 0. -1.
    10030    2    1    2    0    0  0.00000000000E+00  0.00000000000E+00 -0.59855061865E+03  0.39617575013E+04  0.39162813556E+04 0.  0.
        3    1    3    3  502    0  0.63460131953E+03  0.80232726888E+03  0.13898039580E+04  0.17256891183E+04  0.10100000352E+00 0.  1.
       -3    1    3    3    0  502 -0.63460131953E+03 -0.80232726888E+03 -0.19883545766E+04  0.22360683830E+04  0.10100000352E+00 0. -1.
</event>
<event>
 5   0  0.3959190E-07  0.3494674E+04  0.7818609E-02  0.8115053E-01
       -2   -1    0    0    0  501  0.00000000000E+00  0.00000000000E+00  0.16851524126E+04  0.16851524126E+04  0.25500000920E-02 0.  1.
        2   -1    0    0  501    0  0.00000000000E+00  0.00000000000E+00 -0.18118165517E+04  0.18118165517E+04  0.25500000920E-02 0. -1.
    10030    2    1    2    0    0  0.00000000000E+00  0.00000000000E+00 -0.12666413918E+03  0.34969689643E+04  0.34946742528E+04 0.  0.
        2    1    3    3  502    0 -0.27730781310E+03 -0.15080928529E+04 -0.90170280822E+03  0.17788512109E+04  0.25500000920E-02 0. -1.
       -2    1    3    3    0  502  0.27730781310E+03  0.15080928529E+04  0.77503866904E+03  0.17181177534E+04  0.25500000920E-02 0.  1.
</event>
<event>
 5   0  0.1860500E-07  0.3871573E+04  0.7818609E-02  0.8030968E-01
        1   -1    0    0  501    0  0.00000000000E+00  0.00000000000E+00  0.19737974652E+04  0.19737974653E+04  0.50400001928E-02 0. -1.
       -1   -1    0    0    0  501  0.00000000000E+00  0.00000000000E+00 -0.18985078384E+04  0.18985078384E+04  0.50400001928E-02 0.  1.
    10030    2    1    2    0    0  0.00000000000E+00  0.00000000000E+00  0.75289626885E+02  0.38723053036E+04  0.38715733025E+04 0.  0.
        5    1    3    3  502    0 -0.57271901762E+02 -0.75965942323E+03  0.18175557671E+04  0.19707596420E+04  0.46999998093E+01 0. -1.
       -5    1    3    3    0  502  0.57271901762E+02  0.75965942323E+03 -0.17422661402E+04  0.19015456616E+04  0.46999998093E+01 0.  1.
</event>
<event>
 5   0  0.1860500E-07  0.3873476E+04  0.7818609E-02  0.8030568E-01
       -3   -1    0    0    0  501  0.00000000000E+00  0.00000000000E+00  0.21949211517E+04  0.21949211540E+04  0.10100000352E+00 0. -1.
        3   -1    0    0  501    0  0.00000000000E+00  0.00000000000E+00 -0.17089244922E+04  0.17089244952E+04  0.10100000352E+00 0.  1.
    10030    2    1    2    0    0  0.00000000000E+00  0.00000000000E+00  0.48599665948E+03  0.39038456492E+04  0.38734762294E+04 0.  0.
        5    1    3    3  502    0 -0.24213486558E+03  0.15347916224E+04  0.14082282065E+04  0.20969843559E+04  0.46999998093E+01 0. -1.
       -5    1    3    3    0  502  0.24213486558E+03 -0.15347916224E+04 -0.92223154701E+03  0.18068612934E+04  0.46999998093E+01 0.  1.
</event>
<event>
 5   0  0.1876027E-07  0.3900828E+04  0.7818609E-02  0.8024857E-01
       -1   -1    0    0    0  501  0.00000000000E+00  0.00000000000E+00  0.32026232178E+04  0.32026232178E+04  0.50400001928E-02 0.  1.
        1   -1    0    0  501    0  0.00000000000E+00  0.00000000000E+00 -0.11878122568E+04  0.11878122568E+04  0.50400001928E-02 0. -1.
    10030    2    1    2    0    0  0.00000000000E+00  0.00000000000E+00  0.20148109611E+04  0.43904354746E+04  0.39008281746E+04 0.  0.
        3    1    3    3  502    0 -0.71619626309E+03  0.33613020929E+03  0.30139140262E+04  0.31160228453E+04  0.10100000352E+00 0.  1.
       -3    1    3    3    0  502  0.71619626309E+03 -0.33613020929E+03 -0.99910306511E+03  0.12744126293E+04  0.10100000352E+00 0. -1.
</event>
<event>
 5   0  0.1860500E-07  0.3800840E+04  0.7818609E-02  0.8045975E-01
       -3   -1    0    0    0  501  0.00000000000E+00  0.00000000000E+00  0.14247547333E+04  0.14247547368E+04  0.10100000352E+00 0.  1.
        3   -1    0    0  501    0  0.00000000000E+00  0.00000000000E+00 -0.25348902605E+04  0.25348902625E+04  0.10100000352E+00 0. -1.
    10030    2    1    2    0    0  0.00000000000E+00  0.00000000000E+00 -0.11101355272E+04  0.39596449993E+04  0.38008403850E+04 0.  0.
        4    1    3    3  502    0 -0.36128707498E+03 -0.43432635356E+03  0.13352496436E+04  0.14498485975E+04  0.12699999809E+01 0.  1.
       -4    1    3    3    0  502  0.36128707498E+03  0.43432635356E+03 -0.24453851708E+04  0.25097964018E+04  0.12699999809E+01 0. -1.
</event>
<event>
 5   0  0.1876027E-07  0.3580128E+04  0.7818609E-02  0.8095059E-01
        1   -1    0    0  501    0  0.00000000000E+00  0.00000000000E+00  0.18064722878E+04  0.18064722878E+04  0.50400001928E-02 0.  1.
       -1   -1    0    0    0  501  0.00000000000E+00  0.00000000000E+00 -0.17738045056E+04  0.17738045056E+04  0.50400001928E-02 0. -1.
    10030    2    1    2    0    0  0.00000000000E+00  0.00000000000E+00  0.32667782160E+02  0.35802767934E+04  0.35801277538E+04 0.  0.
        3    1    3    3  502    0  0.92320304160E+03  0.24551520140E+03 -0.14975808742E+04  0.17763248732E+04  0.10100000352E+00 0. -1.
       -3    1    3    3    0  502 -0.92320304160E+03 -0.24551520140E+03  0.15302486563E+04  0.18039519202E+04  0.10100000352E+00 0.  1.
</event>
<event>
 5   0  0.5805753E-07  0.3070413E+04  0.7818609E-02  0.8223905E-01
        2   -1    0    0  501    0  0.00000000000E+00  0.00000000000E+00  0.17955397144E+04  0.17955397144E+04  0.25500000920E-02 0.  1.
       -2   -1    0    0    0  501  0.00000000000E+00  0.00000000000E+00 -0.13126187745E+04  0.13126187745E+04  0.25500000920E-02 0. -1.
    10030    2    1    2    0    0  0.00000000000E+00  0.00000000000E+00  0.48292093994E+03  0.31081584889E+04  0.30704130924E+04 0.  0.
        1    1    3    3  502    0 -0.30070959057E+02  0.13699714314E+04  0.94216424678E+03  0.16629490231E+04  0.50400001928E-02 0. -1.
       -1    1    3    3    0  502  0.30070959057E+02 -0.13699714314E+04 -0.45924330684E+03  0.14452094659E+04  0.50400001928E-02 0.  1.
</event>
<event>
 5   0  0.1943459E-07  0.3480085E+04  0.7818609E-02  0.8118526E-01
       -1   -1    0    0    0  501  0.00000000000E+00  0.00000000000E+00  0.14548382386E+04  0.14548382386E+04  0.50400001928E-02 0. -1.
        1   -1    0    0  501    0  0.00000000000E+00  0.00000000000E+00 -0.20811579225E+04  0.20811579225E+04  0.50400001928E-02 0.  1.
    10030    2    1    2    0    0  0.00000000000E+00  0.00000000000E+00 -0.62631968388E+03  0.35359961612E+04  0.34800851290E+04 0.  0.
        2    1    3    3  502    0 -0.12830595623E+04  0.18503517577E+03 -0.14925268049E+04  0.19768955764E+04  0.25500000920E-02 0.  1.
       -2    1    3    3    0  502  0.12830595623E+04 -0.18503517577E+03  0.86620712101E+03  0.15591005847E+04  0.25500000920E-02 0. -1.
</event>
<event>
 5   0  0.1876027E-07  0.3576563E+04  0.7818609E-02  0.8095881E-01
       -1   -1    0    0    0  501  0.00000000000E+00  0.00000000000E+00  0.20729096787E+04  0.20729096787E+04  0.50400001928E-02 0.  1.
        1   -1    0    0  501    0  0.00000000000E+00  0.00000000000E+00 -0.15427349599E+04  0.15427349599E+04  0.50400001928E-02 0. -1.
    10030    2    1    2    0    0  0.00000000000E+00  0.00000000000E+00  0.53017471875E+03  0.36156446386E+04  0.35765627243E+04 0.  0.
        3    1    3    3  502    0 -0.76028876121E+03  0.95525413829E+03 -0.10558664379E+04  0.16141262076E+04  0.10100000352E+00 0. -1.
       -3    1    3    3    0  502  0.76028876121E+03 -0.95525413829E+03  0.15860411566E+04  0.20015184311E+04  0.10100000352E+00 0.  1.
</event>
<event>
 5   0  0.1943459E-07  0.3947299E+04  0.7818609E-02  0.8015263E-01
        1   -1    0    0  501    0  0.00000000000E+00  0.00000000000E+00  0.15933073437E+04  0.15933073437E+04  0.50400001928E-02 0. -1.
       -1   -1    0    0    0  501  0.00000000000E+00  0.00000000000E+00 -0.24447839707E+04  0.24447839707E+04  0.50400001928E-02 0.  1.
    10030    2    1    2    0    0  0.00000000000E+00  0.00000000000E+00 -0.85147662697E+03  0.40380913144E+04  0.39472989521E+04 0.  0.
        2    1    3    3  502    0 -0.20701198377E+03  0.22005220972E+03 -0.24209879702E+04  0.24397663184E+04  0.25500000920E-02 0.  1.
       -2    1    3    3    0  502  0.20701198377E+03 -0.22005220972E+03  0.15695113432E+04  0.15983249960E+04  0.25500000920E-02 0. -1.
</event>
<event>
 5   0  0.1876027E-07  0.3781746E+04  0.7818609E-02  0.8050083E-01
        1   -1    0    0  501    0  0.00000000000E+00  0.00000000000E+00  0.10722432950E+04  0.10722432950E+04  0.50400001928E-02 0.  1.
       -1   -1    0    0    0  501  0.00000000000E+00  0.00000000000E+00 -0.33345055091E+04  0.33345055091E+04  0.50400001928E-02 0. -1.
    10030    2    1    2    0    0  0.00000000000E+00  0.00000000000E+00 -0.22622622141E+04  0.44067488041E+04  0.37817462497E+04 0.  0.
        3    1    3    3  502    0  0.16066297829E+04  0.11714259458E+03  0.22672479259E+02  0.16110542196E+04  0.10100000352E+00 0.  1.
       -3    1    3    3    0  502 -0.16066297829E+04 -0.11714259458E+03 -0.22849346934E+04  0.27956945846E+04  0.10100000352E+00 0. -1.
</event>
<event>
 5   0  0.5735179E-07  0.3948655E+04  0.7818609E-02  0.8014985E-01
       -2   -1    0    0    0  501  0.00000000000E+00  0.00000000000E+00  0.30074076887E+04  0.30074076887E+04  0.25500000920E-02 0. -1.
        2   -1    0    0  501    0  0.00000000000E+00  0.00000000000E+00 -0.12961225476E+04  0.12961225476E+04  0.25500000920E-02 0.  1.
    10030    2    1    2    0    0  0.00000000000E+00  0.00000000000E+00  0.17112851411E+04  0.43035302363E+04  0.39486549179E+04 0.  0.
        5    1    3    3  502    0 -0.18966695331E+04 -0.27265368616E+03  0.33723493850E+03  0.19456219685E+04  0.46999998093E+01 0.  1.
       -5    1    3    3    0  502  0.18966695331E+04  0.27265368616E+03  0.13740502026E+04  0.23579082679E+04  0.46999998093E+01 0. -1.
</event>
<event>
 5   0  0.5805753E-07  0.3654107E+04  0.7818609E-02  0.8078209E-01
       -2   -1    0    0    0  501  0.00000000000E+00  0.00000000000E+00  0.21545386371E+04  0.21545386371E+04  0.25500000920E-02 0. -1.
        2   -1    0    0  501    0  0.00000000000E+00  0.00000000000E+00 -0.15493450954E+04  0.15493450954E+04  0.25500000920E-02 0.  1.
    10030    2    1    2    0    0  0.00000000000E+00  0.00000000000E+00  0.60519354170E+03  0.37038837326E+04  0.36541066599E+04 0.  0.
        1    1    3    3  502    0 -0.12424382292E+04 -0.17173616551E+03 -0.10440253676E+04  0.16319114657E+04  0.50400001928E-02 0.  1.
       -1    1    3    3    0  502  0.12424382292E+04  0.17173616551E+03  0.16492189093E+04  0.20719722668E+04  0.50400001928E-02 0. -1.
</event>
<event>
 5   0  0.2666813E-07  0.3420886E+04  0.7818609E-02  0.8132799E-01
        1   -1    0    0  501    0  0.00000000000E+00  0.00000000000E+00  0.28016471867E+04  0.28016471867E+04  0.50400001928E-02 0.  1.
       -1   -1    0    0    0  501  0.00000000000E+00  0.00000000000E+00 -0.10442482896E+04  0.10442482896E+04  0.50400001928E-02 0. -1.
    10030    2    1    2    0    0  0.00000000000E+00  0.00000000000E+00  0.17573988970E+04  0.38458954763E+04  0.34208860155E+04 0.  0.
        1    1    3    3  502    0 -0.12859075518E+04  0.67930653381E+03 -0.13349065837E+03  0.14604230054E+04  0.50400001928E-02 0. -1.
       -1    1    3    3    0  502  0.12859075518E+04 -0.67930653381E+03  0.18908895554E+04  0.23854724709E+04  0.50400001928E-02 0.  1.
</event>
<event>
 5   0  0.3959190E-07  0.3944054E+04  0.7818609E-02  0.8015929E-01
       -2   -1    0    0    0  501  0.00000000000E+00  0.00000000000E+00  0.21994062811E+04  0.21994062811E+04  0.25500000920E-02 0. -1.
        2   -1    0    0  501    0  0.00000000000E+00  0.00000000000E+00 -0.17681545161E+04  0.17681545161E+04  0.25500000920E-02 0.  1.
    10030    2    1    2    0    0  0.00000000000E+00  0.00000000000E+00  0.43125176500E+03  0.39675607971E+04  0.39440538275E+04 0.  0.
        2    1    3    3  502    0  0.65023884458E+03  0.77183118507E+03 -0.14886843650E+04  0.17985313652E+04  0.25500000920E-02 0.  1.
       -2    1    3    3    0  502 -0.65023884458E+03 -0.77183118507E+03  0.19199361300E+04  0.21690294319E+04  0.25500000920E-02 0. -1.
</event>
<event>
 5   0  0.5735179E-07  0.3893027E+04  0.7818609E-02  0.8026481E-01
        2   -1    0    0  501    0  0.00000000000E+00  0.00000000000E+00  0.14873140980E+04  0.14873140980E+04  0.25500000920E-02 0. -1.
       -2   -1    0    0    0  501  0.00000000000E+00  0.00000000000E+00 -0.25474873835E+04  0.25474873835E+04  0.25500000920E-02 0.  1.
    10030    2    1    2    0    0  0.00000000000E+00  0.00000000000E+00 -0.10601732855E+04  0.40348014814E+04  0.38930265346E+04 0.  0.
        5    1    3    3  502    0 -0.47954418989E+03 -0.18631296828E+04 -0.83697298507E+03  0.20980373478E+04  0.46999998093E+01 0. -1.
       -5    1    3    3    0  502  0.47954418989E+03  0.18631296828E+04 -0.22320030044E+03  0.19367641336E+04  0.46999998093E+01 0.  1.
</event>
<event>
 5   0  0.5735179E-07  0.3985173E+04  0.7818609E-02  0.8007544E-01
       -2   -1    0    0    0  501  0.00000000000E+00  0.00000000000E+00  0.30526310815E+04  0.30526310815E+04  0.25500000920E-02 0.  1.
        2   -1    0    0  501    0  0.00000000000E+00  0.00000000000E+00 -0.13006489270E+04  0.13006489270E+04  0.25500000920E-02 0. -1.
    10030    2    1    2    0    0  0.00000000000E+00  0.00000000000E+00  0.17519821545E+04  0.43532800085E+04  0.39851731910E+04 0.  0.
        5    1    3    3  502    0  0.37553512053E+03 -0.18241182494E+04  0.10206840296E+03  0.18651740035E+04  0.46999998093E+01 0. -1.
       -5    1    3    3    0  502 -0.37553512053E+03  0.18241182494E+04  0.16499137516E+04  0.24881060050E+04  0.46999998093E+01 0.  1.
</event>
<event>
 5   0  0.3959190E-07  0.3941281E+04  0.7818609E-02  0.8016498E-01
        2   -1    0    0  501    0  0.00000000000E+00  0.00000000000E+00  0.23283511962E+04  0.23283511962E+04  0.25500000920E-02 0. -1.
       -2   -1    0    0    0  501  0.00000000000E+00  0.00000000000E+00 -0.16678862538E+04  0.16678862538E+04  0.25500000920E-02 0.  1.
    10030    2    1    2    0    0  0.00000000000E+00  0.00000000000E+00  0.66046494242E+03  0.39962374499E+04  0.39412814941E+04 0.  0.
        2    1    3    3  502    0  0.15524362073E+04 -0.11481886700E+04 -0.68995609248E+02  0.19321376229E+04  0.25500000920E-02 0.  1.
       -2    1    3    3    0  502 -0.15524362073E+04  0.11481886700E+04  0.72946055167E+03  0.20640998271E+04  0.25500000920E-02 0. -1.
</event>
<event>
 5   0  0.5872444E-07  0.3891904E+04  0.7818609E-02  0.8026715E-01
        2   -1    0    0  501    0  0.00000000000E+00  0.00000000000E+00  0.15747878540E+04  0.15747878540E+04  0.25500000920E-02 0. -1.
       -2   -1    0    0    0  501  0.00000000000E+00  0.00000000000E+00 -0.24045967104E+04  0.24045967104E+04  0.25500000920E-02 0.  1.
    10030    2    1    2    0    0  0.00000000000E+00  0.00000000000E+00 -0.82980885637E+03  0.39793845643E+04  0.38919042605E+04 0.  0.
        3    1    3    3  502    0  0.96556680726E+03 -0.16145717097E+04 -0.92365107409E+03  0.20957796596E+04  0.10100000352E+00 0. -1.
       -3    1    3    3    0  502 -0.96556680726E+03  0.16145717097E+04  0.93842217717E+02  0.18836049047E+04  0.10100000352E+00 0.  1.
</event>
<event>
 5   0  0.1860500E-07  0.3642911E+04  0.7818609E-02  0.8080733E-01
       -1   -1    0    0    0  501  0.00000000000E+00  0.00000000000E+00  0.17860297609E+04  0.17860297609E+04  0.50400001928E-02 0.  1.
        1   -1    0    0  501    0  0.00000000000E+00  0.00000000000E+00 -0.18575835916E+04  0.18575835916E+04  0.50400001928E-02 0. -1.
    10030    2    1    2    0    0  0.00000000000E+00  0.00000000000E+00 -0.71553830693E+02  0.36436133525E+04  0.36429106923E+04 0.  0.
        5    1    3    3  502    0 -0.16709252968E+04 -0.70543324047E+03 -0.20329081220E+03  0.18250963395E+04  0.46999998093E+01 0. -1.
       -5    1    3    3    0  502  0.16709252968E+04  0.70543324047E+03  0.13173698150E+03  0.18185170130E+04  0.46999998093E+01 0.  1.
</event>
<event>
 5   0  0.1860500E-07  0.3835870E+04  0.7818609E-02  0.8038501E-01
       -1   -1    0    0    0  501  0.00000000000E+00  0.00000000000E+00  0.15191489000E+04  0.15191489000E+04  0.50400001928E-02 0. -1.
        1   -1    0    0  501    0  0.00000000000E+00  0.00000000000E+00 -0.24214048323E+04  0.24214048323E+04  0.50400001928E-02 0.  1.
    10030    2    1    2    0    0  0.00000000000E+00  0.00000000000E+00 -0.90225593226E+03  0.39405537323E+04  0.38358699079E+04 0.  0.
        5    1    3    3  502    0  0.11550302826E+04  0.17318192034E+03  0.11116934508E+04  0.16124426656E+04  0.46999998093E+01 0. -1.
       -5    1    3    3    0  502 -0.11550302826E+04 -0.17318192034E+03 -0.20139493831E+04  0.23281110667E+04  0.46999998093E+01 0.  1.
</event>
<event>
 5   0  0.5805753E-07  0.3401781E+04  0.7818609E-02  0.8137469E-01
        2   -1    0    0  501    0  0.00000000000E+00  0.00000000000E+00  0.19653654474E+04  0.19653654474E+04  0.25500000920E-02 0. -1.
       -2   -1    0    0    0  501  0.00000000000E+00  0.00000000000E+00 -0.14720051250E+04  0.14720051250E+04  0.25500000920E-02 0.  1.
    10030    2    1    2    0    0  0.00000000000E+00  0.00000000000E+00  0.49336032239E+03  0.34373705725E+04  0.34017807167E+04 0.  0.
        1    1    3    3  502    0 -0.11647242699E+04  0.69930076858E+03  0.12808247481E+04  0.18671144114E+04  0.50400001928E-02 0. -1.
       -1    1    3    3    0  502  0.11647242699E+04 -0.69930076858E+03 -0.78746442570E+03  0.15702561611E+04  0.50400001928E-02 0.  1.
</event>
<event>
 5   0  0.1943459E-07  0.3832392E+04  0.7818609E-02  0.8039239E-01
        1   -1    0    0  501    0  0.00000000000E+00  0.00000000000E+00  0.15040248123E+04  0.15040248123E+04  0.50400001928E-02 0.  1.
       -1   -1    0    0    0  501  0.00000000000E+00  0.00000000000E+00 -0.24413204041E+04  0.24413204041E+04  0.50400001928E-02 0. -1.
    10030    2    1    2    0    0  0.00000000000E+00  0.00000000000E+00 -0.93729559185E+03  0.39453452164E+04  0.38323916619E+04 0.  0.
        2    1    3    3  502    0 -0.15526945816E+04 -0.60332881200E+03  0.50633488790E+03  0.17410459896E+04  0.25500000920E-02 0.  1.
       -2    1    3    3    0  502  0.15526945816E+04  0.60332881200E+03 -0.14436304798E+04  0.22042992268E+04  0.25500000920E-02 0. -1.
</event>
<event>
 5   0  0.1943459E-07  0.3893724E+04  0.7818609E-02  0.8026336E-01
       -1   -1    0    0    0  501  0.00000000000E+00  0.00000000000E+00  0.32269472218E+04  0.32269472218E+04  0.50400001928E-02 0.  1.
        1   -1    0    0  501    0  0.00000000000E+00  0.00000000000E+00 -0.11745690589E+04  0.11745690589E+04  0.50400001928E-02 0. -1.
    10030    2    1    2    0    0  0.00000000000E+00  0.00000000000E+00  0.20523781629E+04  0.44015162807E+04  0.38937243670E+04 0.  0.
        2    1    3    3  502    0 -0.12720348012E+04 -0.30469724112E+03  0.26562426971E+04  0.29608340396E+04  0.25500000920E-02 0.  1.
       -2    1    3    3    0  502  0.12720348012E+04  0.30469724112E+03 -0.60386453420E+03  0.14406822411E+04  0.25500000920E-02 0. -1.
</event>
<event>
 5   0  0.3959190E-07  0.3891790E+04  0.7818609E-02  0.8026739E-01
        2   -1    0    0  501    0  0.00000000000E+00  0.00000000000E+00  0.31405436115E+04  0.31405436115E+04  0.25500000920E-02 0. -1.
       -2   -1    0    0    0  501  0.00000000000E+00  0.00000000000E+00 -0.12056851613E+04  0.12056851613E+04  0.25500000920E-02 0.  1.
    10030    2    1    2    0    0  0.00000000000E+00  0.00000000000E+00  0.19348584503E+04  0.43462287728E+04  0.38917897326E+04 0.  0.
        2    1    3    3  502    0  0.32531353719E+03  0.11301620024E+04  0.26987490717E+04  0.29438650786E+04  0.25500000920E-02 0. -1.
       -2    1    3    3    0  502 -0.32531353719E+03 -0.11301620024E+04 -0.76389062141E+03  0.14023636942E+04  0.25500000920E-02 0.  1.
</event>
<event>
 5   0  0.3959190E-07  0.3892374E+04  0.7818609E-02  0.8026617E-01
       -2   -1    0    0    0  501  0.00000000000E+00  0.00000000000E+00  0.19899047137E+04  0.19899047137E+04  0.25500000920E-02 0.  1.
        2   -1    0    0  501    0  0.00000000000E+00  0.00000000000E+00 -0.19034296866E+04  0.19034296866E+04  0.25500000920E-02 0. -1.
    10030    2    1    2    0    0  0.00000000000E+00  0.00000000000E+00  0.86475027088E+02  0.38933344002E+04  0.38923739314E+04 0.  0.
        2    1    3    3  502    0 -0.17393296257E+04 -0.62371610623E+03 -0.56794057466E+03  0.19330922958E+04  0.25500000920E-02 0.  1.
       -2    1    3    3    0  502  0.17393296257E+04  0.62371610623E+03  0.65441560174E+03  0.19602421044E+04  0.25500000920E-02 0. -1.
</event>
<event>
 5   0  0.5872444E-07  0.3956358E+04  0.7818609E-02  0.8013409E-01
       -2   -1    0    0    0  501  0.00000000000E+00  0.00000000000E+00  0.15558212267E+04  0.15558212267E+04  0.25500000920E-02 0.  1.
        2   -1    0    0  501    0  0.00000000000E+00  0.00000000000E+00 -0.25151938777E+04  0.25151938777E+04  0.25500000920E-02 0. -1.
    10030    2    1    2    0    0  0.00000000000E+00  0.00000000000E+00 -0.95937265099E+03  0.40710151044E+04  0.39563579334E+04 0.  0.
        3    1    3    3  502    0 -0.15549973377E+04  0.36929060056E+03  0.71977118111E+03  0.17528442119E+04  0.10100000352E+00 0.  1.
       -3    1    3    3    0  502  0.15549973377E+04 -0.36929060056E+03 -0.16791438321E+04  0.23181708925E+04  0.10100000352E+00 0. -1.
</event>
<event>
 5   0  0.5735179E-07  0.3885909E+04  0.7818609E-02  0.8027966E-01
        2   -1    0    0  501    0  0.00000000000E+00  0.00000000000E+00  0.17056657158E+04  0.17056657158E+04  0.25500000920E-02 0.  1.
       -2   -1    0    0    0  501  0.00000000000E+00  0.00000000000E+00 -0.22132540308E+04  0.22132540308E+04  0.25500000920E-02 0. -1.
    10030    2    1    2    0    0  0.00000000000E+00  0.00000000000E+00 -0.50758831493E+03  0.39189197466E+04  0.38859086560E+04 0.  0.
        5    1    3    3  502    0 -0.10864797474E+04 -0.15971402813E+04 -0.42842367295E+02  0.19321368683E+04  0.46999998093E+01 0. -1.
       -5    1    3    3    0  502  0.10864797474E+04  0.15971402813E+04 -0.46474594764E+03  0.19867828783E+04  0.46999998093E+01 0.  1.
</event>
<event>
 5   0  0.3959190E-07  0.3035663E+04  0.7818609E-02  0.8233620E-01
       -2   -1    0    0    0  501  0.00000000000E+00  0.00000000000E+00  0.17604731082E+04  0.17604731082E+04  0.25500000920E-02 0.  1.
        2   -1    0    0  501    0  0.00000000000E+00  0.00000000000E+00 -0.13086328995E+04  0.13086328995E+04  0.25500000920E-02 0. -1.
    10030    2    1    2    0    0  0.00000000000E+00  0.00000000000E+00  0.45184020877E+03  0.30691060077E+04  0.30356633727E+04 0.  0.
        2    1    3    3  502    0 -0.13872244840E+04 -0.28849768072E+03 -0.32430921597E+03  0.14535470919E+04  0.25500000920E-02 0. -1.
       -2    1    3    3    0  502  0.13872244840E+04  0.28849768072E+03  0.77614942474E+03  0.16155589158E+04  0.25500000920E-02 0.  1.
</event>
<event>
 5   0  0.5805753E-07  0.3420912E+04  0.7818609E-02  0.8132793E-01
       -2   -1    0    0    0  501  0.00000000000E+00  0.00000000000E+00  0.25837489836E+04  0.25837489836E+04  0.25500000920E-02 0.  1.
        2   -1    0    0  501    0  0.00000000000E+00  0.00000000000E+00 -0.11323310655E+04  0.11323310655E+04  0.25500000920E-02 0. -1.
    10030    2    1    2    0    0  0.00000000000E+00  0.00000000000E+00  0.14514179181E+04  0.37160800491E+04  0.34209117145E+04 0.  0.
        1    1    3    3  502    0  0.13475260945E+03  0.13432159976E+04 -0.41528788951E+03  0.14123921244E+04  0.50400001928E-02 0. -1.
       -1    1    3    3    0  502 -0.13475260945E+03 -0.13432159976E+04  0.18667058076E+04  0.23036879247E+04  0.50400001928E-02 0.  1.
</event>
<event>
 5   0  0.1876027E-07  0.3964329E+04  0.7818609E-02  0.8011781E-01
        1   -1    0    0  501    0  0.00000000000E+00  0.00000000000E+00  0.25652782529E+04  0.25652782529E+04  0.50400001928E-02 0.  1.
       -1   -1    0    0    0  501  0.00000000000E+00  0.00000000000E+00 -0.15315985100E+04  0.15315985100E+04  0.50400001928E-02 0. -1.
    10030    2    1    2    0    0  0.00000000000E+00  0.00000000000E+00  0.10336797429E+04  0.40968767629E+04  0.39643291235E+04 0.  0.
        3    1    3    3  502    0  0.12237346350E+04 -0.28427497705E+03 -0.10676010064E+04  0.16486693539E+04  0.10100000352E+00 0. -1.
       -3    1    3    3    0  502 -0.12237346350E+04  0.28427497705E+03  0.21012807494E+04  0.24482074090E+04  0.10100000352E+00 0.  1.
</event>
<event>
 5   0  0.5805753E-07  0.2496200E+04  0.7818609E-02  0.8404341E-01
       -2   -1    0    0    0  501  0.00000000000E+00  0.00000000000E+00  0.91296041212E+03  0.91296041213E+03  0.25500000920E-02 0. -1.
        2   -1    0    0  501    0  0.00000000000E+00  0.00000000000E+00 -0.17062663987E+04  0.17062663987E+04  0.25500000920E-02 0.  1.
    10030    2    1    2    0    0  0.00000000000E+00  0.00000000000E+00 -0.79330598659E+03  0.26192268108E+04  0.24962000517E+04 0.  0.
        1    1    3    3  502    0  0.69620430637E+02  0.79396617283E+03  0.61116625215E+03  0.10043672017E+04  0.50400001928E-02 0. -1.
       -1    1    3    3    0  502 -0.69620430637E+02 -0.79396617283E+03 -0.14044722387E+04  0.16148596092E+04  0.50400001928E-02 0.  1.
</event>
<event>
 5   0  0.1943459E-07  0.3954655E+04  0.7818609E-02  0.8013757E-01
        1   -1    0    0  501    0  0.00000000000E+00  0.00000000000E+00  0.17666329910E+04  0.17666329911E+04  0.50400001928E-02 0.  1.
       -1   -1    0    0    0  501  0.00000000000E+00  0.00000000000E+00 -0.22131500577E+04  0.22131500577E+04  0.50400001928E-02 0. -1.
    10030    2    1    2    0    0  0.00000000000E+00  0.00000000000E+00 -0.44651706664E+03  0.39797830487E+04  0.39546549311E+04 0.  0.
        2    1    3    3  502    0  0.50098793261E+03 -0.18857896834E+04  0.99139783319E+02  0.19537196153E+04  0.25500000920E-02 0.  1.
       -2    1    3    3    0  502 -0.50098793261E+03  0.18857896834E+04 -0.54565684996E+03  0.20260634335E+04  0.25500000920E-02 0. -1.
</event>
<event>
 5   0  0.2666813E-07  0.3863964E+04  0.7818609E-02  0.8032566E-01
        1   -1    0    0  501    0  0.00000000000E+00  0.00000000000E+00  0.28142746408E+04  0.28142746408E+04  0.50400001928E-02 0.  1.
       -1   -1    0    0    0  501  0.00000000000E+00  0.00000000000E+00 -0.13262936848E+04  0.13262936848E+04  0.50400001928E-02 0. -1.
    10030    2    1    2    0    0  0.00000000000E+00  0.00000000000E+00  0.14879809559E+04  0.41405683256E+04  0.38639641217E+04 0.  0.
        1    1    3    3  502    0  0.14510385823E+04  0.93292444675E+03  0.16761428893E+04  0.24052683792E+04  0.50400001928E-02 0. -1.
       -1    1    3    3    0  502 -0.14510385823E+04 -0.93292444675E+03 -0.18816193340E+03  0.17352999464E+04  0.50400001928E-02 0.  1.
</event>
<event>
 5   0  0.3959190E-07  0.2562026E+04  0.7818609E-02  0.8381216E-01
        2   -1    0    0  501    0  0.00000000000E+00  0.00000000000E+00  0.11479130737E+04  0.11479130737E+04  0.25500000920E-02 0. -1.
       -2   -1    0    0    0  501  0.00000000000E+00  0.00000000000E+00 -0.14295458650E+04  0.14295458650E+04  0.25500000920E-02 0.  1.
    10030    2    1    2    0    0  0.00000000000E+00  0.00000000000E+00 -0.28163279132E+03  0.25774589386E+04  0.25620260637E+04 0.  0.
        2    1    3    3  502    0 -0.40652728472E+03  0.10937492332E+04  0.39099114947E+03  0.12306201272E+04  0.25500000920E-02 0. -1.
       -2    1    3    3    0  502  0.40652728472E+03 -0.10937492332E+04 -0.67262394080E+03  0.13468388115E+04  0.25500000920E-02 0.  1.
</event>
<event>
 5   0  0.6095665E-07  0.3858875E+04  0.7818609E-02  0.8033637E-01
       -2   -1    0    0    0  501  0.00000000000E+00  0.00000000000E+00  0.27678795695E+04  0.27678795695E+04  0.25500000920E-02 0.  1.
        2   -1    0    0  501    0  0.00000000000E+00  0.00000000000E+00 -0.13449751611E+04  0.13449751611E+04  0.25500000920E-02 0. -1.
    10030    2    1    2    0    0  0.00000000000E+00  0.00000000000E+00  0.14229044084E+04  0.41128547307E+04  0.38588751055E+04 0.  0.
        4    1    3    3  502    0  0.12816063718E+04 -0.80324740507E+03 -0.56530866026E+03  0.16147125999E+04  0.12699999809E+01 0. -1.
       -4    1    3    3    0  502 -0.12816063718E+04  0.80324740507E+03  0.19882130687E+04  0.24981421307E+04  0.12699999809E+01 0.  1.
</event>
<event>
 5   0  0.3959190E-07  0.3978349E+04  0.7818609E-02  0.8008928E-01
       -2   -1    0    0    0  501  0.00000000000E+00  0.00000000000E+00  0.29425965741E+04  0.29425965741E+04  0.25500000920E-02 0. -1.
        2   -1    0    0  501    0  0.00000000000E+00  0.00000000000E+00 -0.13446680721E+04  0.13446680721E+04  0.25500000920E-02 0.  1.
    10030    2    1    2    0    0  0.00000000000E+00  0.00000000000E+00  0.15979285020E+04  0.42872646463E+04  0.39783492367E+04 0.  0.
        2    1    3    3  502    0 -0.24689047059E+03  0.80915304188E+03  0.27390715737E+04  0.28667397223E+04  0.25500000920E-02 0. -1.
       -2    1    3    3    0  502  0.24689047059E+03 -0.80915304188E+03 -0.11411430716E+04  0.14205249240E+04  0.25500000920E-02 0.  1.
</event>
<event>
 5   0  0.2666813E-07  0.4007352E+04  0.7818609E-02  0.8003065E-01
        1   -1    0    0  501    0  0.00000000000E+00  0.00000000000E+00  0.22540006558E+04  0.22540006558E+04  0.50400001928E-02 0.  1.
       -1   -1    0    0    0  501  0.00000000000E+00  0.00000000000E+00 -0.17811520850E+04  0.17811520850E+04  0.50400001928E-02 0. -1.
    10030    2    1    2    0    0  0.00000000000E+00  0.00000000000E+00  0.47284857084E+03  0.40351527408E+04  0.40073522269E+04 0.  0.
        1    1    3    3  502    0  0.16064320477E+04  0.31194886536E+03 -0.92778952917E+03  0.18811510914E+04  0.50400001928E-02 0. -1.
       -1    1    3    3    0  502 -0.16064320477E+04 -0.31194886536E+03  0.14006381000E+04  0.21540016494E+04  0.50400001928E-02 0.  1.
</event>
<event>
 5   0  0.5872444E-07  0.2896517E+04  0.7818609E-02  0.8273914E-01
        2   -1    0    0  501    0  0.00000000000E+00  0.00000000000E+00  0.15804601958E+04  0.15804601958E+04  0.25500000920E-02 0.  1.
       -2   -1    0    0    0  501  0.00000000000E+00  0.00000000000E+00 -0.13271152468E+04  0.13271152468E+04  0.25500000920E-02 0. -1.
    10030    2    1    2    0    0  0.00000000000E+00  0.00000000000E+00  0.25334494896E+03  0.29075754426E+04  0.28965170966E+04 0.  0.
        3    1    3    3  502    0 -0.22867730869E+03 -0.14300857007E+04  0.12286461550E+03  0.14534559322E+04  0.10100000352E+00 0. -1.
       -3    1    3    3    0  502  0.22867730869E+03  0.14300857007E+04  0.13048033345E+03  0.14541195104E+04  0.10100000352E+00 0.  1.
</event>
<event>
 5   0  0.5805753E-07  0.3851885E+04  0.7818609E-02  0.8035111E-01
       -2   -1    0    0    0  501  0.00000000000E+00  0.00000000000E+00  0.19792256305E+04  0.19792256305E+04  0.25500000920E-02 0. -1.
        2   -1    0    0  501    0  0.00000000000E+00  0.00000000000E+00 -0.18740935784E+04  0.18740935784E+04  0.25500000920E-02 0.  1.
    10030    2    1    2    0    0  0.00000000000E+00  0.00000000000E+00  0.10513205214E+03  0.38533192090E+04  0.38518847565E+04 0.  0.
        1    1    3    3  502    0 -0.12220263645E+03 -0.18445780805E+04 -0.48786868650E+03  0.19119146515E+04  0.50400001928E-02 0. -1.
       -1    1    3    3    0  502  0.12220263645E+03  0.18445780805E+04  0.59300073864E+03  0.19414045574E+04  0.50400001928E-02 0.  1.
</event>
<event>
 5   0  0.5735179E-07  0.3865161E+04  0.7818609E-02  0.8032314E-01
       -2   -1    0    0    0  501  0.00000000000E+00  0.00000000000E+00  0.21680989870E+04  0.21680989870E+04  0.25500000920E-02 0. -1.
        2   -1    0    0  501    0  0.00000000000E+00  0.00000000000E+00 -0.17226460229E+04  0.17226460229E+04  0.25500000920E-02 0.  1.
    10030    2    1    2    0    0  0.00000000000E+00  0.00000000000E+00  0.44545296414E+03  0.38907450099E+04  0.38651608490E+04 0.  0.
        5    1    3    3  502    0 -0.10416930140E+04 -0.13920976249E+04  0.10719843414E+04  0.20426043795E+04  0.46999998093E+01 0.  1.
       -5    1    3    3    0  502  0.10416930140E+04  0.13920976249E+04 -0.62653137728E+03  0.18481406304E+04  0.46999998093E+01 0. -1.
</event>
<event>
 5   0  0.2666813E-07  0.3916901E+04  0.7818609E-02  0.8021523E-01
       -1   -1    0    0    0  501  0.00000000000E+00  0.00000000000E+00  0.25884916797E+04  0.25884916797E+04  0.50400001928E-02 0.  1.
        1   -1    0    0  501    0  0.00000000000E+00  0.00000000000E+00 -0.14817621602E+04  0.14817621602E+04  0.50400001928E-02 0. -1.
    10030    2    1    2    0    0  0.00000000000E+00  0.00000000000E+00  0.11067295195E+04  0.40702538400E+04  0.39169013381E+04 0.  0.
        1    1    3    3  502    0  0.26385410259E+03 -0.10087341798E+04  0.22760903214E+04  0.25035476397E+04  0.50400001928E-02 0.  1.
       -1    1    3    3    0  502 -0.26385410259E+03  0.10087341798E+04 -0.11693608019E+04  0.15667062003E+04  0.50400001928E-02 0. -1.
</event>
<event>
 5   0  0.5735179E-07  0.3893062E+04  0.7818609E-02  0.8026474E-01
        2   -1    0    0  501    0  0.00000000000E+00  0.00000000000E+00  0.11648062032E+04  0.11648062032E+04  0.25500000920E-02 0. -1.
       -2   -1    0    0    0  501  0.00000000000E+00  0.00000000000E+00 -0.32528875831E+04  0.32528875831E+04  0.25500000920E-02 0.  1.
    10030    2    1    2    0    0  0.00000000000E+00  0.00000000000E+00 -0.20880813799E+04  0.44176937863E+04  0.38930623602E+04 0.  0.
        5    1    3    3  502    0 -0.17273555750E+03  0.21556404930E+03  0.11424448577E+04  0.11753755889E+04  0.46999998093E+01 0. -1.
       -5    1    3    3    0  502  0.17273555750E+03 -0.21556404930E+03 -0.32305262375E+04  0.32423181974E+04  0.46999998093E+01 0.  1.
</event>
<event>
 5   0  0.5872444E-07  0.3916552E+04  0.7818609E-02  0.8021596E-01
       -2   -1    0    0    0  501  0.00000000000E+00  0.00000000000E+00  0.26169516747E+04  0.26169516747E+04  0.25500000920E-02 0.  1.
        2   -1    0    0  501    0  0.00000000000E+00  0.00000000000E+00 -0.14653860120E+04  0.14653860120E+04  0.25500000920E-02 0. -1.
    10030    2    1    2    0    0  0.00000000000E+00  0.00000000000E+00  0.11515656627E+04  0.40823376866E+04  0.39165517375E+04 0.  0.
        3    1    3    3  502    0  0.53714598542E+03 -0.75062987840E+03  0.23759899092E+04  0.25489800083E+04  0.10100000352E+00 0.  1.
       -3    1    3    3    0  502 -0.53714598542E+03  0.75062987840E+03 -0.12244242465E+04  0.15333576783E+04  0.10100000352E+00 0. -1.
</event>
<event>
 5   0  0.5735179E-07  0.4007143E+04  0.7818609E-02  0.8003107E-01
        2   -1    0    0  501    0  0.00000000000E+00  0.00000000000E+00  0.12400598372E+04  0.12400598372E+04  0.25500000920E-02 0.  1.
       -2   -1    0    0    0  501  0.00000000000E+00  0.00000000000E+00 -0.32371815481E+04  0.32371815481E+04  0.25500000920E-02 0. -1.
    10030    2    1    2    0    0  0.00000000000E+00  0.00000000000E+00 -0.19971217109E+04  0.44772413852E+04  0.40071430338E+04 0.  0.
        5    1    3    3  502    0 -0.50156356153E+03 -0.14244011993E+04 -0.24697691201E+04  0.28948689745E+04  0.46999998093E+01 0. -1.
       -5    1    3    3    0  502  0.50156356153E+03  0.14244011993E+04  0.47264740916E+03  0.15823724107E+04  0.46999998093E+01 0.  1.
</event>
<event>
 5   0  0.3959190E-07  0.3708633E+04  0.7818609E-02  0.8066051E-01
       -2   -1    0    0    0  501  0.00000000000E+00  0.00000000000E+00  0.18075169547E+04  0.18075169547E+04  0.25500000920E-02 0. -1.
        2   -1    0    0  501    0  0.00000000000E+00  0.00000000000E+00 -0.19023280319E+04  0.19023280319E+04  0.25500000920E-02 0.  1.
    10030    2    1    2    0    0  0.00000000000E+00  0.00000000000E+00 -0.94811077128E+02  0.37098449866E+04  0.37086332637E+04 0.  0.
        2    1    3    3  502    0  0.96089086560E+03 -0.71433278372E+03 -0.14638157658E+04  0.18911211431E+04  0.25500000920E-02 0.  1.
       -2    1    3    3    0  502 -0.96089086560E+03  0.71433278372E+03  0.13690046887E+04  0.18187238436E+04  0.25500000920E-02 0. -1.
</event>
<event>
 5   0  0.1876027E-07  0.3950724E+04  0.7818609E-02  0.8014562E-01
       -1   -1    0    0    0  501  0.00000000000E+00  0.00000000000E+00  0.26398145546E+04  0.26398145546E+04  0.50400001928E-02 0. -1.
        1   -1    0    0  501    0  0.00000000000E+00  0.00000000000E+00 -0.14781547333E+04  0.14781547333E+04  0.50400001928E-02 0.  1.
    10030    2    1    2    0    0  0.00000000000E+00  0.00000000000E+00  0.11616598213E+04  0.41179692879E+04  0.39507236699E+04 0.  0.
        3    1    3    3  502    0  0.24474326018E+02  0.17501321220E+04 -0.37362661566E+03  0.17897369346E+04  0.10100000352E+00 0.  1.
       -3    1    3    3    0  502 -0.24474326018E+02 -0.17501321220E+04  0.15352864370E+04  0.23282323533E+04  0.10100000352E+00 0. -1.
</event>
<event>
 5   0  0.1860500E-07  0.2588216E+04  0.7818609E-02  0.8372215E-01
        1   -1    0    0  501    0  0.00000000000E+00  0.00000000000E+00  0.17628198146E+04  0.17628198147E+04  0.50400001928E-02 0. -1.
       -1   -1    0    0    0  501  0.00000000000E+00  0.00000000000E+00 -0.95002069057E+03  0.95002069058E+03  0.50400001928E-02 0.  1.
    10030    2    1    2    0    0  0.00000000000E+00  0.00000000000E+00  0.81279912408E+03  0.27128405052E+04  0.25882158316E+04 0.  0.
        4    1    3    3  502    0 -0.65651163832E+03 -0.75726582796E+03 -0.45171185408E+03  0.10993199159E+04  0.12699999809E+01 0.  1.
       -4    1    3    3    0  502  0.65651163832E+03  0.75726582796E+03  0.12645109782E+04  0.16135205893E+04  0.12699999809E+01 0. -1.
</event>
<event>
 5   0  0.3959190E-07  0.3988587E+04  0.7818609E-02  0.8006853E-01
       -2   -1    0    0    0  501  0.00000000000E+00  0.00000000000E+00  0.20289674869E+04  0.20289674869E+04  0.25500000920E-02 0.  1.
        2   -1    0    0  501    0  0.00000000000E+00  0.00000000000E+00 -0.19602123365E+04  0.19602123365E+04  0.25500000920E-02 0. -1.
    10030    2    1    2    0    0  0.00000000000E+00  0.00000000000E+00  0.68755150376E+02  0.39891798234E+04  0.39885872678E+04 0.  0.
        2    1    3    3  502    0 -0.15872999284E+04 -0.12006814989E+04 -0.92329736504E+02  0.19924060592E+04  0.25500000920E-02 0. -1.
       -2    1    3    3    0  502  0.15872999284E+04  0.12006814989E+04  0.16108488688E+03  0.19967737642E+04  0.25500000920E-02 0.  1.
</event>
<event>
 5   0  0.5872444E-07  0.4030476E+04  0.7818609E-02  0.7998427E-01
       -2   -1    0    0    0  501  0.00000000000E+00  0.00000000000E+00  0.31682441427E+04  0.31682441427E+04  0.25500000920E-02 0. -1.
        2   -1    0    0  501    0  0.00000000000E+00  0.00000000000E+00 -0.12818404721E+04  0.12818404721E+04  0.25500000920E-02 0.  1.
    10030    2    1    2    0    0  0.00000000000E+00  0.00000000000E+00  0.18864036706E+04  0.44500846148E+04  0.40304756878E+04 0.  0.
        3    1    3    3  502    0  0.61248255462E+03  0.18590233514E+04  0.14728069928E+04  0.24495434573E+04  0.10100000352E+00 0. -1.
       -3    1    3    3    0  502 -0.61248255462E+03 -0.18590233514E+04  0.41359667782E+03  0.20005411575E+04  0.10100000352E+00 0.  1.
</event>
<event>
 5   0  0.5735179E-07  0.3702671E+04  0.7818609E-02  0.8067370E-01
       -2   -1    0    0    0  501  0.00000000000E+00  0.00000000000E+00  0.20271888975E+04  0.20271888975E+04  0.25500000920E-02 0.  1.
        2   -1    0    0  501    0  0.00000000000E+00  0.00000000000E+00 -0.16907373556E+04  0.16907373556E+04  0.25500000920E-02 0. -1.
    10030    2    1    2    0    0  0.00000000000E+00  0.00000000000E+00  0.33645154188E+03  0.37179262531E+04  0.37026714657E+04 0.  0.
        5    1    3    3  502    0  0.86814409620E+03  0.33589037525E+03 -0.14386564839E+04  0.17135492653E+04  0.46999998093E+01 0. -1.
       -5    1    3    3    0  502 -0.86814409620E+03 -0.33589037525E+03  0.17751080258E+04  0.20043769878E+04  0.46999998093E+01 0.  1.
</event>
<event>
 5   0  0.1943459E-07  0.2775155E+04  0.7818609E-02  0.8311023E-01
       -1   -1    0    0    0  501  0.00000000000E+00  0.00000000000E+00  0.21871017487E+04  0.21871017487E+04  0.50400001928E-02 0.  1.
        1   -1    0    0  501    0  0.00000000000E+00  0.00000000000E+00 -0.88033000933E+03  0.88033000934E+03  0.50400001928E-02 0. -1.
    10030    2    1    2    0    0  0.00000000000E+00  0.00000000000E+00  0.13067717393E+04  0.30674317580E+04  0.27751549887E+04 0.  0.
        2    1    3    3  502    0  0.44557238588E+03  0.12082973358E+04  0.82400991445E+02  0.12904677935E+04  0.25500000920E-02 0. -1.
       -2    1    3    3    0  502 -0.44557238588E+03 -0.12082973358E+04  0.12243707479E+04  0.17769639645E+04  0.25500000920E-02 0.  1.
</event>
<event>
 5   0  0.1860500E-07  0.3909036E+04  0.7818609E-02  0.8023153E-01
       -1   -1    0    0    0  501  0.00000000000E+00  0.00000000000E+00  0.26858158639E+04  0.26858158639E+04  0.50400001928E-02 0. -1.
        1   -1    0    0  501    0  0.00000000000E+00  0.00000000000E+00 -0.14223387156E+04  0.14223387156E+04  0.50400001928E-02 0.  1.
    10030    2    1    2    0    0  0.00000000000E+00  0.00000000000E+00  0.12634771483E+04  0.41081545794E+04  0.39090356284E+04 0.  0.
        4    1    3    3  502    0  0.10483465522E+04  0.14909375293E+04 -0.11005779492E+03  0.18259352510E+04  0.12699999809E+01 0.  1.
       -4    1    3    3    0  502 -0.10483465522E+04 -0.14909375293E+04  0.13735349433E+04  0.22822193284E+04  0.12699999809E+01 0. -1.
</event>
<event>
 5   0  0.1860500E-07  0.4011616E+04  0.7818609E-02  0.8002207E-01
       -1   -1    0    0    0  501  0.00000000000E+00  0.00000000000E+00  0.26292501421E+04  0.26292501421E+04  0.50400001928E-02 0.  1.
        1   -1    0    0  501    0  0.00000000000E+00  0.00000000000E+00 -0.15301954832E+04  0.15301954832E+04  0.50400001928E-02 0. -1.
    10030    2    1    2    0    0  0.00000000000E+00  0.00000000000E+00  0.10990546589E+04  0.41594456253E+04  0.40116164780E+04 0.  0.
        5    1    3    3  502    0 -0.15184130068E+03  0.13145087831E+04  0.21124756730E+04  0.24927022847E+04  0.46999998093E+01 0.  1.
       -5    1    3    3    0  502  0.15184130068E+03 -0.13145087831E+04 -0.10134210141E+04  0.16667433405E+04  0.46999998093E+01 0. -1.
</event>
<event>
 5   0  0.1876027E-07  0.3966330E+04  0.7818609E-02  0.8011374E-01
        1   -1    0    0  501    0  0.00000000000E+00  0.00000000000E+00  0.16657665208E+04  0.16657665208E+04  0.50400001928E-02 0.  1.
       -1   -1    0    0    0  501  0.00000000000E+00  0.00000000000E+00 -0.23610407132E+04  0.23610407132E+04  0.50400001928E-02 0. -1.
    10030    2    1    2    0    0  0.00000000000E+00  0.00000000000E+00 -0.69527419240E+03  0.40268072340E+04  0.39663295749E+04 0.  0.
        3    1    3    3  502    0 -0.48364596485E+03  0.13452196777E+04  0.10478811211E+04  0.17724514817E+04  0.10100000352E+00 0.  1.
       -3    1    3    3    0  502  0.48364596485E+03 -0.13452196777E+04 -0.17431553135E+04  0.22543557523E+04  0.10100000352E+00 0. -1.
</event>
<event>
 5   0  0.6095665E-07  0.3810428E+04  0.7818609E-02  0.8043921E-01
        2   -1    0    0  501    0  0.00000000000E+00  0.00000000000E+00  0.18809756490E+04  0.18809756490E+04  0.25500000920E-02 0.  1.
       -2   -1    0    0    0  501  0.00000000000E+00  0.00000000000E+00 -0.19297649602E+04  0.19297649602E+04  0.25500000920E-02 0. -1.
    10030    2    1    2    0    0  0.00000000000E+00  0.00000000000E+00 -0.48789311238E+02  0.38107406093E+04  0.38104282691E+04 0.  0.
        4    1    3    3  502    0  0.42357269760E+03 -0.18011975117E+04 -0.47842854273E+03  0.19111833481E+04  0.12699999809E+01 0. -1.
       -4    1    3    3    0  502 -0.42357269760E+03  0.18011975117E+04  0.42963923150E+03  0.18995572612E+04  0.12699999809E+01 0.  1.
</event>
<event>
 5   0  0.1860500E-07  0.3799684E+04  0.7818609E-02  0.8046223E-01
        1   -1    0    0  501    0  0.00000000000E+00  0.00000000000E+00  0.19181183948E+04  0.19181183948E+04  0.50400001928E-02 0.  1.
       -1   -1    0    0    0  501  0.00000000000E+00  0.00000000000E+00 -0.18817400748E+04  0.18817400748E+04  0.50400001928E-02 0. -1.
    10030    2    1    2    0    0  0.00000000000E+00  0.00000000000E+00  0.36378320008E+02  0.37998584696E+04  0.37996843299E+04 0.  0.
        5    1    3    3  502    0 -0.18928075605E+04 -0.41304334557E+02  0.17615732048E+03  0.19014415586E+04  0.46999998093E+01 0.  1.
       -5    1    3    3    0  502  0.18928075605E+04  0.41304334557E+02 -0.13977900047E+03  0.18984169110E+04  0.46999998093E+01 0. -1.
</event>
<event>
 5   0  0.2666813E-07  0.2736147E+04  0.7818609E-02  0.8323371E-01
        1   -1    0    0  501    0  0.00000000000E+00  0.00000000000E+00  0.22134761591E+04  0.22134761591E+04  0.50400001928E-02 0.  1.
       -1   -1    0    0    0  501  0.00000000000E+00  0.00000000000E+00 -0.84555926678E+03  0.84555926680E+03  0.50400001928E-02 0. -1.
    10030    2    1    2    0    0  0.00000000000E+00  0.00000000000E+00  0.13679168923E+04  0.30590354259E+04  0.27361471292E+04 0.  0.
        1    1    3    3  502    0  0.99772132757E+03 -0.20052909707E+03 -0.33824947058E+03  0.10724143186E+04  0.50400001928E-02 0. -1.
       -1    1    3    3    0  502 -0.99772132757E+03  0.20052909707E+03  0.17061663629E+04  0.19866211074E+04  0.50400001928E-02 0.  1.
</event>
<event>
 5   0  0.2666813E-07  0.3965572E+04  0.7818609E-02  0.8011528E-01
        1   -1    0    0  501    0  0.00000000000E+00  0.00000000000E+00  0.19351983020E+04  0.19351983020E+04  0.50400001928E-02 0.  1.
       -1   -1    0    0    0  501  0.00000000000E+00  0.00000000000E+00 -0.20315438792E+04  0.20315438792E+04  0.50400001928E-02 0. -1.
    10030    2    1    2    0    0  0.00000000000E+00  0.00000000000E+00 -0.96345577156E+02  0.39667421812E+04  0.39655719716E+04 0.  0.
        1    1    3    3  502    0  0.13177782005E+04 -0.18941723671E+01  0.14337829724E+04  0.19473768473E+04  0.50400001928E-02 0.  1.
       -1    1    3    3    0  502 -0.13177782005E+04  0.18941723671E+01 -0.15301285496E+04  0.20193653339E+04  0.50400001928E-02 0. -1.
</event>
<event>
 5   0  0.1943459E-07  0.3910198E+04  0.7818609E-02  0.8022912E-01
        1   -1    0    0  501    0  0.00000000000E+00  0.00000000000E+00  0.15172854340E+04  0.15172854340E+04  0.50400001928E-02 0. -1.
       -1   -1    0    0    0  501  0.00000000000E+00  0.00000000000E+00 -0.25192436718E+04  0.25192436718E+04  0.50400001928E-02 0.  1.
    10030    2    1    2    0    0  0.00000000000E+00  0.00000000000E+00 -0.10019582378E+04  0.40365291058E+04  0.39101978098E+04 0.  0.
        2    1    3    3  502    0 -0.25494110630E+03  0.11012077679E+04 -0.21477478898E+04  0.24270299780E+04  0.25500000920E-02 0.  1.
       -2    1    3    3    0  502  0.25494110630E+03 -0.11012077679E+04  0.11457896520E+04  0.16094991278E+04  0.25500000920E-02 0. -1.
</event>
<event>
 5   0  0.1876027E-07  0.3560787E+04  0.7818609E-02  0.8099533E-01
       -1   -1    0    0    0  501  0.00000000000E+00  0.00000000000E+00  0.11449290416E+04  0.11449290416E+04  0.50400001928E-02 0.  1.
        1   -1    0    0  501    0  0.00000000000E+00  0.00000000000E+00 -0.27685572754E+04  0.27685572754E+04  0.50400001928E-02 0. -1.
    10030    2    1    2    0    0  0.00000000000E+00  0.00000000000E+00 -0.16236282338E+04  0.39134863170E+04  0.35607873443E+04 0.  0.
        3    1    3    3  502    0  0.61054839199E+03  0.75946957069E+03 -0.24494508535E+04  0.26361663190E+04  0.10100000352E+00 0. -1.
       -3    1    3    3    0  502 -0.61054839199E+03 -0.75946957069E+03  0.82582261970E+03  0.12773199980E+04  0.10100000352E+00 0.  1.
</event>
<event>
 5   0  0.6095665E-07  0.3852467E+04  0.7818609E-02  0.8034988E-01
        2   -1    0    0  501    0  0.00000000000E+00  0.00000000000E+00  0.16975873601E+04  0.16975873601E+04  0.25500000920E-02 0. -1.
       -2   -1    0    0    0  501  0.00000000000E+00  0.00000000000E+00 -0.21856761257E+04  0.21856761257E+04  0.25500000920E-02 0.  1.
    10030    2    1    2    0    0  0.00000000000E+00  0.00000000000E+00 -0.48808876552E+03  0.38832634858E+04  0.38524673467E+04 0.  0.
        4    1    3    3  502    0  0.42213653375E+03  0.17413484934E+04 -0.95671866560E+03  0.20312080264E+04  0.12699999809E+01 0. -1.
       -4    1    3    3    0  502 -0.42213653375E+03 -0.17413484934E+04  0.46862990008E+03  0.18520554594E+04  0.12699999809E+01 0.  1.
</event>
<event>
 5   0  0.5872444E-07  0.3876905E+04  0.7818609E-02  0.8029850E-01
       -2   -1    0    0    0  501  0.00000000000E+00  0.00000000000E+00  0.18301976042E+04  0.18301976042E+04  0.25500000920E-02 0.  1.
        2   -1    0    0  501    0  0.00000000000E+00  0.00000000000E+00 -0.20531108201E+04  0.20531108201E+04  0.25500000920E-02 0. -1.
    10030    2    1    2    0    0  0.00000000000E+00  0.00000000000E+00 -0.22291321591E+03  0.38833084242E+04  0.38769052111E+04 0.  0.
        3    1    3    3  502    0  0.65759890914E+03  0.60791932645E+03  0.16105676157E+04  0.18428050053E+04  0.10100000352E+00 0.  1.
       -3    1    3    3    0  502 -0.65759890914E+03 -0.60791932645E+03 -0.18334808316E+04  0.20405034189E+04  0.10100000352E+00 0. -1.
</event>
<event>
 5   0  0.1876027E-07  0.3598427E+04  0.7818609E-02  0.8090852E-01
       -1   -1    0    0    0  501  0.00000000000E+00  0.00000000000E+00  0.29061915082E+04  0.29061915083E+04  0.50400001928E-02 0. -1.
        1   -1    0    0  501    0  0.00000000000E+00  0.00000000000E+00 -0.11138869202E+04  0.11138869202E+04  0.50400001928E-02 0.  1.
    10030    2    1    2    0    0  0.00000000000E+00  0.00000000000E+00  0.17923045881E+04  0.40200784284E+04  0.35984267166E+04 0.  0.
        3    1    3    3  502    0  0.12097069596E+04  0.12325172624E+04  0.14599436387E+04  0.22613989406E+04  0.10100000352E+00 0. -1.
       -3    1    3    3    0  502 -0.12097069596E+04 -0.12325172624E+04  0.33236094931E+03  0.17586794878E+04  0.10100000352E+00 0.  1.
</event>
<event>
 5   0  0.5735179E-07  0.3805820E+04  0.7818609E-02  0.8044907E-01
        2   -1    0    0  501    0  0.00000000000E+00  0.00000000000E+00  0.29720026934E+04  0.29720026934E+04  0.25500000920E-02 0.  1.
       -2   -1    0    0    0  501  0.00000000000E+00  0.00000000000E+00 -0.12183925128E+04  0.12183925128E+04  0.25500000920E-02 0. -1.
    10030    2    1    2    0    0  0.00000000000E+00  0.00000000000E+00  0.17536101806E+04  0.41903952062E+04  0.38058196645E+04 0.  0.
        5    1    3    3  502    0 -0.12835203919E+04 -0.11567659130E+04 -0.94033797641E+00  0.17278758486E+04  0.46999998093E+01 0. -1.
       -5    1    3    3    0  502  0.12835203919E+04  0.11567659130E+04  0.17545505186E+04  0.24625193576E+04  0.46999998093E+01 0.  1.
</event>
<event>
 5   0  0.1943459E-07  0.3494915E+04  0.7818609E-02  0.8114996E-01
       -1   -1    0    0    0  501  0.00000000000E+00  0.00000000000E+00  0.15826688059E+04  0.15826688059E+04  0.50400001928E-02 0.  1.
        1   -1    0    0  501    0  0.00000000000E+00  0.00000000000E+00 -0.19294045147E+04  0.19294045147E+04  0.50400001928E-02 0. -1.
    10030    2    1    2    0    0  0.00000000000E+00  0.00000000000E+00 -0.34673570872E+03  0.35120733206E+04  0.34949153577E+04 0.  0.
        2    1    3    3  502    0  0.27774186844E+03 -0.24837686552E+03 -0.18890212668E+04  0.19254176064E+04  0.25500000920E-02 0. -1.
       -2    1    3    3    0  502 -0.27774186844E+03  0.24837686552E+03  0.15422855580E+04  0.15866557142E+04  0.25500000920E-02 0.  1.
</event>
<event>
 5   0  0.1943459E-07  0.3747847E+04  0.7818609E-02  0.8057440E-01
       -1   -1    0    0    0  501  0.00000000000E+00  0.00000000000E+00  0.17158265064E+04  0.17158265065E+04  0.50400001928E-02 0. -1.
        1   -1    0    0  501    0  0.00000000000E+00  0.00000000000E+00 -0.20465876195E+04  0.20465876195E+04  0.50400001928E-02 0.  1.
    10030    2    1    2    0    0  0.00000000000E+00  0.00000000000E+00 -0.33076111303E+03  0.37624141259E+04  0.37478470008E+04 0.  0.
        2    1    3    3  502    0 -0.11525740660E+04  0.85583736580E+03  0.10437529432E+04  0.17749097951E+04  0.25500000920E-02 0. -1.
       -2    1    3    3    0  502  0.11525740660E+04 -0.85583736580E+03 -0.13745140562E+04  0.19875043308E+04  0.25500000920E-02 0.  1.
</event>
<event>
 5   0  0.2666813E-07  0.3933488E+04  0.7818609E-02  0.8018100E-01
        1   -1    0    0  501    0  0.00000000000E+00  0.00000000000E+00  0.15770752669E+04  0.15770752669E+04  0.50400001928E-02 0.  1.
       -1   -1    0    0    0  501  0.00000000000E+00  0.00000000000E+00 -0.24526928613E+04  0.24526928613E+04  0.50400001928E-02 0. -1.
    10030    2    1    2    0    0  0.00000000000E+00  0.00000000000E+00 -0.87561759437E+03  0.40297681282E+04  0.39334876377E+04 0.  0.
        1    1    3    3  502    0  0.55094254992E+02  0.19506671584E+04 -0.18698233641E+03  0.19603826498E+04  0.50400001928E-02 0. -1.
       -1    1    3    3    0  502 -0.55094254992E+02 -0.19506671584E+04 -0.68863525795E+03  0.20693854784E+04  0.50400001928E-02 0.  1.
</event>
<event>
 5   0  0.1860500E-07  0.2891753E+04  0.7818609E-02  0.8275336E-01
       -1   -1    0    0    0  501  0.00000000000E+00  0.00000000000E+00  0.73040201870E+03  0.73040201872E+03  0.50400001928E-02 0.  1.
        1   -1    0    0  501    0  0.00000000000E+00  0.00000000000E+00 -0.28622024604E+04  0.28622024604E+04  0.50400001928E-02 0. -1.
    10030    2    1    2    0    0  0.00000000000E+00  0.00000000000E+00 -0.21318004417E+04  0.35926044792E+04  0.28917527246E+04 0.  0.
        5    1    3    3  502    0 -0.63392706639E+03 -0.27357871495E+03 -0.26441539093E+04  0.27328155490E+04  0.46999998093E+01 0. -1.
       -5    1    3    3    0  502  0.63392706639E+03  0.27357871495E+03  0.51235346753E+03  0.85978893019E+03  0.46999998093E+01 0.  1.
</event>
<event>
 5   0  0.5735179E-07  0.3871313E+04  0.7818609E-02  0.8031022E-01
       -2   -1    0    0    0  501  0.00000000000E+00  0.00000000000E+00  0.13785675224E+04  0.13785675224E+04  0.25500000920E-02 0. -1.
        2   -1    0    0  501    0  0.00000000000E+00  0.00000000000E+00 -0.27178684507E+04  0.27178684507E+04  0.25500000920E-02 0.  1.
    10030    2    1    2    0    0  0.00000000000E+00  0.00000000000E+00 -0.13393009283E+04  0.40964359731E+04  0.38713125300E+04 0.  0.
        5    1    3    3  502    0 -0.15033633808E+04  0.89458872039E+03 -0.15462910965E+04  0.23348294753E+04  0.46999998093E+01 0.  1.
       -5    1    3    3    0  502  0.15033633808E+04 -0.89458872039E+03  0.20699016820E+03  0.17616064978E+04  0.46999998093E+01 0. -1.
</event>
<event>
 5   0  0.3959190E-07  0.2919965E+04  0.7818609E-02  0.8266962E-01
       -2   -1    0    0    0  501  0.00000000000E+00  0.00000000000E+00  0.10432113544E+04  0.10432113544E+04  0.25500000920E-02 0. -1.
        2   -1    0    0  501    0  0.00000000000E+00  0.00000000000E+00 -0.20432567741E+04  0.20432567741E+04  0.25500000920E-02 0.  1.
    10030    2    1    2    0    0  0.00000000000E+00  0.00000000000E+00 -0.10000454197E+04  0.30864681285E+04  0.29199648400E+04 0.  0.
        2    1    3    3  502    0  0.35982641549E+03  0.62793585184E+03 -0.18403046320E+04  0.19774983241E+04  0.25500000920E-02 0.  1.
       -2    1    3    3    0  502 -0.35982641549E+03 -0.62793585184E+03  0.84025921227E+03  0.11089698044E+04  0.25500000920E-02 0. -1.
</event>
<event>
 5   0  0.1860500E-07  0.3868792E+04  0.7818609E-02  0.8031551E-01
        1   -1    0    0  501    0  0.00000000000E+00  0.00000000000E+00  0.13912020059E+04  0.13912020059E+04  0.50400001928E-02 0. -1.
       -1   -1    0    0    0  501  0.00000000000E+00  0.00000000000E+00 -0.26896790780E+04  0.26896790780E+04  0.50400001928E-02 0.  1.
    10030    2    1    2    0    0  0.00000000000E+00  0.00000000000E+00 -0.12984770721E+04  0.40808810839E+04  0.38687915056E+04 0.  0.
        5    1    3    3  502    0  0.81134722949E+03 -0.17454508271E+04 -0.44638931170E+03  0.19758968658E+04  0.46999998093E+01 0.  1.
       -5    1    3    3    0  502 -0.81134722949E+03  0.17454508271E+04 -0.85208776043E+03  0.21049842181E+04  0.46999998093E+01 0. -1.
</event>
<event>
 5   0  0.1860500E-07  0.3881408E+04  0.7818609E-02  0.8028907E-01
       -3   -1    0    0    0  501  0.00000000000E+00  0.00000000000E+00  0.22377718521E+04  0.22377718543E+04  0.10100000352E+00 0. -1.
        3   -1    0    0  501    0  0.00000000000E+00  0.00000000000E+00 -0.16830720375E+04  0.16830720405E+04  0.10100000352E+00 0.  1.
    10030    2    1    2    0    0  0.00000000000E+00  0.00000000000E+00  0.55469981456E+03  0.39208438949E+04  0.38814076008E+04 0.  0.
        2    1    3    3  502    0  0.14811475337E+03  0.51410053009E+02 -0.16766642176E+04  0.16839785843E+04  0.25500000920E-02 0.  1.
       -2    1    3    3    0  502 -0.14811475337E+03 -0.51410053009E+02  0.22313640322E+04  0.22368653106E+04  0.25500000920E-02 0. -1.
</event>
<event>
 5   0  0.5805753E-07  0.4027725E+04  0.7818609E-02  0.7998977E-01
       -2   -1    0    0    0  501  0.00000000000E+00  0.00000000000E+00  0.21065491600E+04  0.21065491600E+04  0.25500000920E-02 0.  1.
        2   -1    0    0  501    0  0.00000000000E+00  0.00000000000E+00 -0.19252536100E+04  0.19252536100E+04  0.25500000920E-02 0. -1.
    10030    2    1    2    0    0  0.00000000000E+00  0.00000000000E+00  0.18129555005E+03  0.40318027700E+04  0.40277246057E+04 0.  0.
        1    1    3    3  502    0  0.86626404983E+03 -0.53384185103E+03  0.18302914376E+04  0.20941268520E+04  0.50400001928E-02 0.  1.
       -1    1    3    3    0  502 -0.86626404983E+03  0.53384185103E+03 -0.16489958875E+04  0.19376759180E+04  0.50400001928E-02 0. -1.
</event>
<event>
 5   0  0.6095665E-07  0.3908429E+04  0.7818609E-02  0.8023278E-01
        2   -1    0    0  501    0  0.00000000000E+00  0.00000000000E+00  0.22964446823E+04  0.22964446823E+04  0.25500000920E-02 0. -1.
       -2   -1    0    0    0  501  0.00000000000E+00  0.00000000000E+00 -0.16629858384E+04  0.16629858385E+04  0.25500000920E-02 0.  1.
    10030    2    1    2    0    0  0.00000000000E+00  0.00000000000E+00  0.63345884386E+03  0.39594305208E+04  0.39084293446E+04 0.  0.
        4    1    3    3  502    0 -0.34145742828E+03  0.17366983513E+04 -0.52247578507E+03  0.18454530332E+04  0.12699999809E+01 0.  1.
       -4    1    3    3    0  502  0.34145742828E+03 -0.17366983513E+04  0.11559346289E+04  0.21139774876E+04  0.12699999809E+01 0. -1.
</event>
<event>
 5   0  0.6095665E-07  0.3895175E+04  0.7818609E-02  0.8026034E-01
        2   -1    0    0  501    0  0.00000000000E+00  0.00000000000E+00  0.28642338265E+04  0.28642338265E+04  0.25500000920E-02 0.  1.
       -2   -1    0    0    0  501  0.00000000000E+00  0.00000000000E+00 -0.13242970402E+04  0.13242970402E+04  0.25500000920E-02 0. -1.
    10030    2    1    2    0    0  0.00000000000E+00  0.00000000000E+00  0.15399367863E+04  0.41885308667E+04  0.38951746451E+04 0.  0.
        4    1    3    3  502    0 -0.94553031574E+03 -0.20174477882E+02  0.26007369202E+04  0.27673577160E+04  0.12699999809E+01 0.  1.
       -4    1    3    3    0  502  0.94553031574E+03  0.20174477882E+02 -0.10608001338E+04  0.14211731507E+04  0.12699999809E+01 0. -1.
</event>
<event>
 5   0  0.1860500E-07  0.2581759E+04  0.7818609E-02  0.8374424E-01
        1   -1    0    0  501    0  0.00000000000E+00  0.00000000000E+00  0.10434485458E+04  0.10434485458E+04  0.50400001928E-02 0.  1.
       -1   -1    0    0    0  501  0.00000000000E+00  0.00000000000E+00 -0.15969835401E+04  0.15969835401E+04  0.50400001928E-02 0. -1.
    10030    2    1    2    0    0  0.00000000000E+00  0.00000000000E+00 -0.55353499426E+03  0.26404320860E+04  0.25817592085E+04 0.  0.
        4    1    3    3  502    0  0.35439992727E+03  0.94999952481E+03 -0.10938417558E+04  0.14915058851E+04  0.12699999809E+01 0. -1.
       -4    1    3    3    0  502 -0.35439992727E+03 -0.94999952481E+03  0.54030676154E+03  0.11489262009E+04  0.12699999809E+01 0.  1.
</event>
<event>
 5   0  0.1876027E-07  0.3873379E+04  0.7818609E-02  0.8030589E-01
       -1   -1    0    0    0  501  0.00000000000E+00  0.00000000000E+00  0.16323848584E+04  0.16323848584E+04  0.50400001928E-02 0. -1.
        1   -1    0    0  501    0  0.00000000000E+00  0.00000000000E+00 -0.22977214207E+04  0.22977214207E+04  0.50400001928E-02 0.  1.
    10030    2    1    2    0    0  0.00000000000E+00  0.00000000000E+00 -0.66533656236E+03  0.39301062791E+04  0.38733787091E+04 0.  0.
        3    1    3    3  502    0  0.17334745651E+04 -0.85791809765E+03 -0.43315464279E+03  0.19820647025E+04  0.10100000352E+00 0.  1.
       -3    1    3    3    0  502 -0.17334745651E+04  0.85791809765E+03 -0.23218191957E+03  0.19480415766E+04  0.10100000352E+00 0. -1.
</event>
<event>
 5   0  0.1876027E-07  0.3842492E+04  0.7818609E-02  0.8037097E-01
       -1   -1    0    0    0  501  0.00000000000E+00  0.00000000000E+00  0.10826448066E+04  0.10826448066E+04  0.50400001928E-02 0. -1.
        1   -1    0    0  501    0  0.00000000000E+00  0.00000000000E+00 -0.34094154943E+04  0.34094154943E+04  0.50400001928E-02 0.  1.
    10030    2    1    2    0    0  0.00000000000E+00  0.00000000000E+00 -0.23267706877E+04  0.44920603008E+04  0.38424918885E+04 0.  0.
        3    1    3    3  502    0  0.69221863463E+03 -0.17034422572E+04 -0.51216768371E+03  0.19087162985E+04  0.10100000352E+00 0. -1.
       -3    1    3    3    0  502 -0.69221863463E+03  0.17034422572E+04 -0.18146030040E+04  0.25833440023E+04  0.10100000352E+00 0.  1.
</event>
<event>
 5   0  0.6095665E-07  0.3991865E+04  0.7818609E-02  0.8006190E-01
        2   -1    0    0  501    0  0.00000000000E+00  0.00000000000E+00  0.25124326122E+04  0.25124326122E+04  0.25500000920E-02 0. -1.
       -2   -1    0    0    0  501  0.00000000000E+00  0.00000000000E+00 -0.15856134016E+04  0.15856134016E+04  0.25500000920E-02 0.  1.
    10030    2    1    2    0    0  0.00000000000E+00  0.00000000000E+00  0.92681921059E+03  0.40980460137E+04  0.39918651382E+04 0.  0.
        4    1    3    3  502    0  0.47483809936E+03 -0.14056490302E+04  0.18339965061E+04  0.23589966541E+04  0.12699999809E+01 0. -1.
       -4    1    3    3    0  502 -0.47483809936E+03  0.14056490302E+04 -0.90717729555E+03  0.17390493596E+04  0.12699999809E+01 0.  1.
</event>
<event>
 5   0  0.1860500E-07  0.4041038E+04  0.7818609E-02  0.7996319E-01
       -1   -1    0    0    0  501  0.00000000000E+00  0.00000000000E+00  0.17713461748E+04  0.17713461748E+04  0.50400001928E-02 0. -1.
        1   -1    0    0  501    0  0.00000000000E+00  0.00000000000E+00 -0.23047426583E+04  0.23047426583E+04  0.50400001928E-02 0.  1.
    10030    2    1    2    0    0  0.00000000000E+00  0.00000000000E+00 -0.53339648350E+03  0.40760888331E+04  0.40410380308E+04 0.  0.
        4    1    3    3  502    0 -0.12093337420E+04 -0.92168257158E+03  0.10754476457E+04  0.18624113707E+04  0.12699999809E+01 0. -1.
       -4    1    3    3    0  502  0.12093337420E+04  0.92168257158E+03 -0.16088441292E+04  0.22136774623E+04  0.12699999809E+01 0.  1.
</event>
<event>
 5   0  0.5805753E-07  0.3712084E+04  0.7818609E-02  0.8065289E-01
       -2   -1    0    0    0  501  0.00000000000E+00  0.00000000000E+00  0.30567308950E+04  0.30567308950E+04  0.25500000920E-02 0.  1.
        2   -1    0    0  501    0  0.00000000000E+00  0.00000000000E+00 -0.11269854129E+04  0.11269854129E+04  0.25500000920E-02 0. -1.
    10030    2    1    2    0    0  0.00000000000E+00  0.00000000000E+00  0.19297454821E+04  0.41837163079E+04  0.37120835819E+04 0.  0.
        1    1    3    3  502    0 -0.10889729728E+04 -0.14111829798E+04  0.38185641957E+03  0.18229409928E+04  0.50400001928E-02 0.  1.
       -1    1    3    3    0  502  0.10889729728E+04  0.14111829798E+04  0.15478890625E+04  0.23607753150E+04  0.50400001928E-02 0. -1.
</event>
<event>
 5   0  0.1860500E-07  0.2662084E+04  0.7818609E-02  0.8347413E-01
        1   -1    0    0  501    0  0.00000000000E+00  0.00000000000E+00  0.15710046658E+04  0.15710046658E+04  0.50400001928E-02 0. -1.
       -1   -1    0    0    0  501  0.00000000000E+00  0.00000000000E+00 -0.11277324335E+04  0.11277324335E+04  0.50400001928E-02 0.  1.
    10030    2    1    2    0    0  0.00000000000E+00  0.00000000000E+00  0.44327223236E+03  0.26987370993E+04  0.26620840820E+04 0.  0.
        5    1    3    3  502    0  0.12302205491E+03 -0.59337847295E+03  0.14230345572E+04  0.15467003198E+04  0.46999998093E+01 0. -1.
       -5    1    3    3    0  502 -0.12302205491E+03  0.59337847295E+03 -0.97976232488E+03  0.11520367795E+04  0.46999998093E+01 0.  1.
</event>
<event>
 5   0  0.5805753E-07  0.3854142E+04  0.7818609E-02  0.8034635E-01
        2   -1    0    0  501    0  0.00000000000E+00  0.00000000000E+00  0.27835046353E+04  0.27835046353E+04  0.25500000920E-02 0. -1.
       -2   -1    0    0    0  501  0.00000000000E+00  0.00000000000E+00 -0.13341465311E+04  0.13341465311E+04  0.25500000920E-02 0.  1.
    10030    2    1    2    0    0  0.00000000000E+00  0.00000000000E+00  0.14493581041E+04  0.41176511664E+04  0.38541422151E+04 0.  0.
        1    1    3    3  502    0  0.14571278793E+04  0.12549038900E+04  0.85810829831E+03  0.21057908922E+04  0.50400001928E-02 0. -1.
       -1    1    3    3    0  502 -0.14571278793E+04 -0.12549038900E+04  0.59124980584E+03  0.20118602742E+04  0.50400001928E-02 0.  1.
</event>
<event>
 5   0  0.5805753E-07  0.3614583E+04  0.7818609E-02  0.8087159E-01
       -2   -1    0    0    0  501  0.00000000000E+00  0.00000000000E+00  0.15398889478E+04  0.15398889478E+04  0.25500000920E-02 0. -1.
        2   -1    0    0  501    0  0.00000000000E+00  0.00000000000E+00 -0.21211287614E+04  0.21211287614E+04  0.25500000920E-02 0.  1.
    10030    2    1    2    0    0  0.00000000000E+00  0.00000000000E+00 -0.58123981361E+03  0.36610177092E+04  0.36145830944E+04 0.  0.
        1    1    3    3  502    0  0.62330889762E+03  0.12297373191E+04 -0.14741928150E+04  0.20184182697E+04  0.50400001928E-02 0. -1.
       -1    1    3    3    0  502 -0.62330889762E+03 -0.12297373191E+04  0.89295300134E+03  0.16425994395E+04  0.50400001928E-02 0.  1.
</event>
<event>
 5   0  0.1860500E-07  0.2603411E+04  0.7818609E-02  0.8367044E-01
        1   -1    0    0  501    0  0.00000000000E+00  0.00000000000E+00  0.14420737728E+04  0.14420737728E+04  0.50400001928E-02 0. -1.
       -1   -1    0    0    0  501  0.00000000000E+00  0.00000000000E+00 -0.11750000530E+04  0.11750000530E+04  0.50400001928E-02 0.  1.
    10030    2    1    2    0    0  0.00000000000E+00  0.00000000000E+00  0.26707371978E+03  0.26170738258E+04  0.26034106548E+04 0.  0.
        5    1    3    3  502    0  0.66628697408E+03 -0.32384334593E+03 -0.94240832025E+03  0.11987361580E+04  0.46999998093E+01 0.  1.
       -5    1    3    3    0  502 -0.66628697408E+03  0.32384334593E+03  0.12094820400E+04  0.14183376677E+04  0.46999998093E+01 0. -1.
</event>
<event>
 5   0  0.1943459E-07  0.3919005E+04  0.7818609E-02  0.8021088E-01
        1   -1    0    0  501    0  0.00000000000E+00  0.00000000000E+00  0.22251560123E+04  0.22251560123E+04  0.50400001928E-02 0.  1.
       -1   -1    0    0    0  501  0.00000000000E+00  0.00000000000E+00 -0.17255648140E+04  0.17255648140E+04  0.50400001928E-02 0. -1.
    10030    2    1    2    0    0  0.00000000000E+00  0.00000000000E+00  0.49959119831E+03  0.39507208263E+04  0.39190054455E+04 0.  0.
        2    1    3    3  502    0 -0.17422366769E+03  0.12031920577E+04 -0.12993991880E+04  0.17794558899E+04  0.25500000920E-02 0. -1.
       -2    1    3    3    0  502  0.17422366769E+03 -0.12031920577E+04  0.17989903863E+04  0.21712649364E+04  0.25500000920E-02 0.  1.
</event>
<event>
 5   0  0.3959190E-07  0.3897755E+04  0.7818609E-02  0.8025496E-01
       -2   -1    0    0    0  501  0.00000000000E+00  0.00000000000E+00  0.14916005808E+04  0.14916005808E+04  0.25500000920E-02 0.  1.
        2   -1    0    0  501    0  0.00000000000E+00  0.00000000000E+00 -0.25463403037E+04  0.25463403037E+04  0.25500000920E-02 0. -1.
    10030    2    1    2    0    0  0.00000000000E+00  0.00000000000E+00 -0.10547397229E+04  0.40379408845E+04  0.38977545720E+04 0.  0.
        2    1    3    3  502    0  0.29854496469E+03 -0.18844067289E+04 -0.11557522122E+03  0.19114066673E+04  0.25500000920E-02 0.  1.
       -2    1    3    3    0  502 -0.29854496469E+03  0.18844067289E+04 -0.93916450170E+03  0.21265342172E+04  0.25500000920E-02 0. -1.
</event>
<event>
 5   0  0.3959190E-07  0.3981638E+04  0.7818609E-02  0.8008261E-01
        2   -1    0    0  501    0  0.00000000000E+00  0.00000000000E+00  0.19786738378E+04  0.19786738378E+04  0.25500000920E-02 0.  1.
       -2   -1    0    0    0  501  0.00000000000E+00  0.00000000000E+00 -0.20030384219E+04  0.20030384219E+04  0.25500000920E-02 0. -1.
    10030    2    1    2    0    0  0.00000000000E+00  0.00000000000E+00 -0.24364584023E+02  0.39817122597E+04  0.39816377141E+04 0.  0.
        2    1    3    3  502    0 -0.19186267005E+04 -0.31212502071E+03 -0.44208483613E+03  0.19934867561E+04  0.25500000920E-02 0. -1.
       -2    1    3    3    0  502  0.19186267005E+04  0.31212502071E+03  0.41772025211E+03  0.19882255036E+04  0.25500000920E-02 0.  1.
</event>
<event>
 5   0  0.1876027E-07  0.4106800E+04  0.7818609E-02  0.7983342E-01
        1   -1    0    0  501    0  0.00000000000E+00  0.00000000000E+00  0.20430324843E+04  0.20430324843E+04  0.50400001928E-02 0.  1.
       -1   -1    0    0    0  501  0.00000000000E+00  0.00000000000E+00 -0.20638197389E+04  0.20638197389E+04  0.50400001928E-02 0. -1.
    10030    2    1    2    0    0  0.00000000000E+00  0.00000000000E+00 -0.20787254605E+02  0.41068522233E+04  0.41067996145E+04 0.  0.
        3    1    3    3  502    0  0.14357048580E+04  0.61143096223E+03  0.13242973993E+04  0.20466704358E+04  0.10100000352E+00 0.  1.
       -3    1    3    3    0  502 -0.14357048580E+04 -0.61143096223E+03 -0.13450846539E+04  0.20601817874E+04  0.10100000352E+00 0. -1.
</event>
<event>
 5   0  0.5735179E-07  0.3253640E+04  0.7818609E-02  0.8174793E-01
       -2   -1    0    0    0  501  0.00000000000E+00  0.00000000000E+00  0.10944021212E+04  0.10944021212E+04  0.25500000920E-02 0. -1.
        2   -1    0    0  501    0  0.00000000000E+00  0.00000000000E+00 -0.24182555037E+04  0.24182555037E+04  0.25500000920E-02 0.  1.
    10030    2    1    2    0    0  0.00000000000E+00  0.00000000000E+00 -0.13238533824E+04  0.35126576249E+04  0.32536403937E+04 0.  0.
        5    1    3    3  502    0 -0.36656432831E+03 -0.14193399318E+04  0.99657762361E+02  0.14693022182E+04  0.46999998093E+01 0. -1.
       -5    1    3    3    0  502  0.36656432831E+03  0.14193399318E+04 -0.14235111448E+04  0.20433554067E+04  0.46999998093E+01 0.  1.
</event>
<event>
 5   0  0.5805753E-07  0.3873739E+04  0.7818609E-02  0.8030513E-01
        2   -1    0    0  501    0  0.00000000000E+00  0.00000000000E+00  0.30265465602E+04  0.30265465602E+04  0.25500000920E-02 0. -1.
       -2   -1    0    0    0  501  0.00000000000E+00  0.00000000000E+00 -0.12395197774E+04  0.12395197774E+04  0.25500000920E-02 0.  1.
    10030    2    1    2    0    0  0.00000000000E+00  0.00000000000E+00  0.17870267828E+04  0.42660663376E+04  0.38737394432E+04 0.  0.
        1    1    3    3  502    0  0.78418412895E+03  0.12968536436E+04  0.22217714361E+04  0.26894316194E+04  0.50400001928E-02 0. -1.
       -1    1    3    3    0  502 -0.78418412895E+03 -0.12968536436E+04 -0.43474465332E+03  0.15766347182E+04  0.50400001928E-02 0.  1.
</event>
<event>
 5   0  0.1860500E-07  0.3965082E+04  0.7818609E-02  0.8011628E-01
        1   -1    0    0  501    0  0.00000000000E+00  0.00000000000E+00  0.19468786693E+04  0.19468786693E+04  0.50400001928E-02 0.  1.
       -1   -1    0    0    0  501  0.00000000000E+00  0.00000000000E+00 -0.20188567878E+04  0.20188567878E+04  0.50400001928E-02 0. -1.
    10030    2    1    2    0    0  0.00000000000E+00  0.00000000000E+00 -0.71978118480E+02  0.39657354572E+04  0.39650822018E+04 0.  0.
        4    1    3    3  502    0  0.13115202591E+04  0.61118285605E+03  0.13195340964E+04  0.19582649765E+04  0.12699999809E+01 0.  1.
       -4    1    3    3    0  502 -0.13115202591E+04 -0.61118285605E+03 -0.13915122149E+04  0.20074704807E+04  0.12699999809E+01 0. -1.
</event>
<event>
 5   0  0.5805753E-07  0.3713464E+04  0.7818609E-02  0.8064984E-01
        2   -1    0    0  501    0  0.00000000000E+00  0.00000000000E+00  0.23963519156E+04  0.23963519156E+04  0.25500000920E-02 0. -1.
       -2   -1    0    0    0  501  0.00000000000E+00  0.00000000000E+00 -0.14386261466E+04  0.14386261466E+04  0.25500000920E-02 0.  1.
    10030    2    1    2    0    0  0.00000000000E+00  0.00000000000E+00  0.95772576897E+03  0.38349780622E+04  0.37134644322E+04 0.  0.
        1    1    3    3  502    0 -0.16605631246E+03  0.11964614926E+04  0.19350966397E+04  0.22811606272E+04  0.50400001928E-02 0. -1.
       -1    1    3    3    0  502  0.16605631246E+03 -0.11964614926E+04 -0.97737087070E+03  0.15538174350E+04  0.50400001928E-02 0.  1.
</event>
<event>
 5   0  0.2666813E-07  0.3989362E+04  0.7818609E-02  0.8006696E-01
        1   -1    0    0  501    0  0.00000000000E+00  0.00000000000E+00  0.16264239702E+04  0.16264239702E+04  0.50400001928E-02 0.  1.
       -1   -1    0    0    0  501  0.00000000000E+00  0.00000000000E+00 -0.24463187869E+04  0.24463187869E+04  0.50400001928E-02 0. -1.
    10030    2    1    2    0    0  0.00000000000E+00  0.00000000000E+00 -0.81989481675E+03  0.40727427571E+04  0.39893616099E+04 0.  0.
        1    1    3    3  502    0  0.15204643980E+04  0.12366806205E+04 -0.31303860620E+02  0.19601456258E+04  0.50400001928E-02 0.  1.
       -1    1    3    3    0  502 -0.15204643980E+04 -0.12366806205E+04 -0.78859095613E+03  0.21125971312E+04  0.50400001928E-02 0. -1.
</event>
<event>
 5   0  0.6095665E-07  0.2965363E+04  0.7818609E-02  0.8253691E-01
        2   -1    0    0  501    0  0.00000000000E+00  0.00000000000E+00  0.16884308722E+04  0.16884308722E+04  0.25500000920E-02 0.  1.
       -2   -1    0    0    0  501  0.00000000000E+00  0.00000000000E+00 -0.13020042367E+04  0.13020042367E+04  0.25500000920E-02 0. -1.
    10030    2    1    2    0    0  0.00000000000E+00  0.00000000000E+00  0.38642663553E+03  0.29904351090E+04  0.29653628102E+04 0.  0.
        4    1    3    3  502    0  0.80833917774E+03  0.63727267921E+03  0.12693883573E+04  0.16342818326E+04  0.12699999809E+01 0.  1.
       -4    1    3    3    0  502 -0.80833917774E+03 -0.63727267921E+03 -0.88296172176E+03  0.13561532763E+04  0.12699999809E+01 0. -1.
</event>
<event>
 5   0  0.1860500E-07  0.4309320E+04  0.7818609E-02  0.7944897E-01
        3   -1    0    0  501    0  0.00000000000E+00  0.00000000000E+00  0.21122953550E+04  0.21122953574E+04  0.10100000352E+00 0. -1.
       -3   -1    0    0    0  501  0.00000000000E+00  0.00000000000E+00 -0.21978746746E+04  0.21978746770E+04  0.10100000352E+00 0.  1.
    10030    2    1    2    0    0  0.00000000000E+00  0.00000000000E+00 -0.85579319656E+02  0.43101700344E+04  0.43093203530E+04 0.  0.
        2    1    3    3  502    0  0.47813308241E+03 -0.59709483282E+03 -0.20574924120E+04  0.21950873580E+04  0.25500000920E-02 0.  1.
       -2    1    3    3    0  502 -0.47813308241E+03  0.59709483282E+03  0.19719130924E+04  0.21150826763E+04  0.25500000920E-02 0. -1.
</event>
<event>
 5   0  0.5872444E-07  0.3887241E+04  0.7818609E-02  0.8027688E-01
        2   -1    0    0  501    0  0.00000000000E+00  0.00000000000E+00  0.16473146774E+04  0.16473146774E+04  0.25500000920E-02 0. -1.
       -2   -1    0    0    0  501  0.00000000000E+00  0.00000000000E+00 -0.22932236741E+04  0.22932236741E+04  0.25500000920E-02 0.  1.
    10030    2    1    2    0    0  0.00000000000E+00  0.00000000000E+00 -0.64590899672E+03  0.39405383515E+04  0.38872411898E+04 0.  0.
        3    1    3    3  502    0 -0.12573410501E+04  0.14304564470E+04  0.70371617026E+02  0.19057975595E+04  0.10100000352E+00 0.  1.
       -3    1    3    3    0  502  0.12573410501E+04 -0.14304564470E+04 -0.71628061375E+03  0.20347407921E+04  0.10100000352E+00 0. -1.
</event>
<event>
 5   0  0.3959190E-07  0.3665494E+04  0.7818609E-02  0.8075652E-01
        2   -1    0    0  501    0  0.00000000000E+00  0.00000000000E+00  0.12642988003E+04  0.12642988003E+04  0.25500000920E-02 0. -1.
       -2   -1    0    0    0  501  0.00000000000E+00  0.00000000000E+00 -0.26567777038E+04  0.26567777038E+04  0.25500000920E-02 0.  1.
    10030    2    1    2    0    0  0.00000000000E+00  0.00000000000E+00 -0.13924789035E+04  0.39210765041E+04  0.36654936168E+04 0.  0.
        2    1    3    3  502    0  0.16865432185E+04  0.63160356015E+03 -0.33251698071E+03  0.18313706964E+04  0.25500000920E-02 0. -1.
       -2    1    3    3    0  502 -0.16865432185E+04 -0.63160356015E+03 -0.10599619227E+04  0.20897058077E+04  0.25500000920E-02 0.  1.
</event>
<event>
 5   0  0.6095665E-07  0.3932635E+04  0.7818609E-02  0.8018276E-01
        2   -1    0    0  501    0  0.00000000000E+00  0.00000000000E+00  0.18015904063E+04  0.18015904063E+04  0.25500000920E-02 0. -1.
       -2   -1    0    0    0  501  0.00000000000E+00  0.00000000000E+00 -0.21461062098E+04  0.21461062098E+04  0.25500000920E-02 0.  1.
    10030    2    1    2    0    0  0.00000000000E+00  0.00000000000E+00 -0.34451580349E+03  0.39476966160E+04  0.39326349225E+04 0.  0.
        4    1    3    3  502    0  0.18697408324E+04  0.58587701402E+03 -0.33787490101E+03  0.19883017170E+04  0.12699999809E+01 0. -1.
       -4    1    3    3    0  502 -0.18697408324E+04 -0.58587701402E+03 -0.66409024787E+01  0.19593948991E+04  0.12699999809E+01 0.  1.
</event>
<event>
 5   0  0.1943459E-07  0.3857254E+04  0.7818609E-02  0.8033979E-01
        1   -1    0    0  501    0  0.00000000000E+00  0.00000000000E+00  0.13826010532E+04  0.13826010532E+04  0.50400001928E-02 0.  1.
       -1   -1    0    0    0  501  0.00000000000E+00  0.00000000000E+00 -0.26902928535E+04  0.26902928535E+04  0.50400001928E-02 0. -1.
    10030    2    1    2    0    0  0.00000000000E+00  0.00000000000E+00 -0.13076918003E+04  0.40728939067E+04  0.38572538069E+04 0.  0.
        2    1    3    3  502    0 -0.15429530357E+03 -0.14787142869E+02  0.13760134759E+04  0.13847161392E+04  0.25500000920E-02 0.  1.
       -2    1    3    3    0  502  0.15429530357E+03  0.14787142869E+02 -0.26837052762E+04  0.26881777675E+04  0.25500000920E-02 0. -1.
</event>
<event>
 5   0  0.3959190E-07  0.3940507E+04  0.7818609E-02  0.8016657E-01
       -2   -1    0    0    0  501  0.00000000000E+00  0.00000000000E+00  0.28765816140E+04  0.28765816140E+04  0.25500000920E-02 0.  1.
        2   -1    0    0  501    0  0.00000000000E+00  0.00000000000E+00 -0.13494833358E+04  0.13494833358E+04  0.25500000920E-02 0. -1.
    10030    2    1    2    0    0  0.00000000000E+00  0.00000000000E+00  0.15270982782E+04  0.42260649498E+04  0.39405070497E+04 0.  0.
        2    1    3    3  502    0  0.52630197561E+03  0.17107572437E+04  0.16467667120E+04  0.24321851739E+04  0.25500000920E-02 0. -1.
       -2    1    3    3    0  502 -0.52630197561E+03 -0.17107572437E+04 -0.11966843385E+03  0.17938797759E+04  0.25500000920E-02 0.  1.
</event>
<event>
 5   0  0.1876027E-07  0.3943865E+04  0.7818609E-02  0.8015967E-01
        1   -1    0    0  501    0  0.00000000000E+00  0.00000000000E+00  0.10419106438E+04  0.10419106438E+04  0.50400001928E-02 0.  1.
       -1   -1    0    0    0  501  0.00000000000E+00  0.00000000000E+00 -0.37321027845E+04  0.37321027845E+04  0.50400001928E-02 0. -1.
    10030    2    1    2    0    0  0.00000000000E+00  0.00000000000E+00 -0.26901921407E+04  0.47740134284E+04  0.39438649141E+04 0.  0.
        3    1    3    3  502    0  0.80591723208E+03  0.16351205038E+04 -0.22552984257E+04  0.28999125238E+04  0.10100000352E+00 0. -1.
       -3    1    3    3    0  502 -0.80591723208E+03 -0.16351205038E+04 -0.43489371506E+03  0.18741009046E+04  0.10100000352E+00 0.  1.
</event>
<event>
 5   0  0.1943459E-07  0.2847491E+04  0.7818609E-02  0.8288674E-01
       -1   -1    0    0    0  501  0.00000000000E+00  0.00000000000E+00  0.16493974447E+04  0.16493974447E+04  0.50400001928E-02 0.  1.
        1   -1    0    0  501    0  0.00000000000E+00  0.00000000000E+00 -0.12289644991E+04  0.12289644991E+04  0.50400001928E-02 0. -1.
    10030    2    1    2    0    0  0.00000000000E+00  0.00000000000E+00  0.42043294561E+03  0.28783619438E+04  0.28474907581E+04 0.  0.
        2    1    3    3  502    0  0.98093988271E+03  0.10139544388E+04  0.16555887832E+02  0.14108936016E+04  0.25500000920E-02 0.  1.
       -2    1    3    3    0  502 -0.98093988271E+03 -0.10139544388E+04  0.40387705778E+03  0.14674683422E+04  0.25500000920E-02 0. -1.
</event>
<event>
 5   0  0.1943459E-07  0.4017299E+04  0.7818609E-02  0.8001066E-01
        1   -1    0    0  501    0  0.00000000000E+00  0.00000000000E+00  0.17289755732E+04  0.17289755732E+04  0.50400001928E-02 0. -1.
       -1   -1    0    0    0  501  0.00000000000E+00  0.00000000000E+00 -0.23335622308E+04  0.23335622309E+04  0.50400001928E-02 0.  1.
    10030    2    1    2    0    0  0.00000000000E+00  0.00000000000E+00 -0.60458665770E+03  0.40625378040E+04  0.40172986424E+04 0.  0.
        2    1    3    3  502    0  0.21233513781E+03 -0.36112183402E+03  0.16843076309E+04  0.17356230539E+04  0.25500000920E-02 0. -1.
       -2    1    3    3    0  502 -0.21233513781E+03  0.36112183402E+03 -0.22888942886E+04  0.23269147501E+04  0.25500000920E-02 0.  1.
</event>
<event>
 5   0  0.1860500E-07  0.2595604E+04  0.7818609E-02  0.8369696E-01
       -1   -1    0    0    0  501  0.00000000000E+00  0.00000000000E+00  0.13703630767E+04  0.13703630767E+04  0.50400001928E-02 0.  1.
        1   -1    0    0  501    0  0.00000000000E+00  0.00000000000E+00 -0.12290828680E+04  0.12290828680E+04  0.50400001928E-02 0. -1.
    10030    2    1    2    0    0  0.00000000000E+00  0.00000000000E+00  0.14128020870E+03  0.25994459446E+04  0.25956038068E+04 0.  0.
        5    1    3    3  502    0  0.82489734669E+03  0.64778570796E+03  0.83609192792E+03  0.13413253736E+04  0.46999998093E+01 0.  1.
       -5    1    3    3    0  502 -0.82489734669E+03 -0.64778570796E+03 -0.69481171922E+03  0.12581205710E+04  0.46999998093E+01 0. -1.
</event>
<event>
 5   0  0.5805753E-07  0.3940397E+04  0.7818609E-02  0.8016679E-01
        2   -1    0    0  501    0  0.00000000000E+00  0.00000000000E+00  0.20632549430E+04  0.20632549430E+04  0.25500000920E-02 0.  1.
       -2   -1    0    0    0  501  0.00000000000E+00  0.00000000000E+00 -0.18813392075E+04  0.18813392075E+04  0.25500000920E-02 0. -1.
    10030    2    1    2    0    0  0.00000000000E+00  0.00000000000E+00  0.18191573550E+03  0.39445941506E+04  0.39403971472E+04 0.  0.
        1    1    3    3  502    0  0.17366691023E+04  0.89057430285E+03  0.36057773062E+03  0.19847313318E+04  0.50400001928E-02 0.  1.
       -1    1    3    3    0  502 -0.17366691023E+04 -0.89057430285E+03 -0.17866199512E+03  0.19598628187E+04  0.50400001928E-02 0. -1.
</event>
<event>
 5   0  0.6095665E-07  0.3891885E+04  0.7818609E-02  0.8026719E-01
        2   -1    0    0  501    0  0.00000000000E+00  0.00000000000E+00  0.23489206089E+04  0.23489206089E+04  0.25500000920E-02 0.  1.
       -2   -1    0    0    0  501  0.00000000000E+00  0.00000000000E+00 -0.16120987492E+04  0.16120987492E+04  0.25500000920E-02 0. -1.
    10030    2    1    2    0    0  0.00000000000E+00  0.00000000000E+00  0.73682185968E+03  0.39610193581E+04  0.38918848779E+04 0.  0.
        4    1    3    3  502    0 -0.16423236589E+04 -0.71295946371E+03  0.11442862000E+04  0.21248366333E+04  0.12699999809E+01 0.  1.
       -4    1    3    3    0  502  0.16423236589E+04  0.71295946371E+03 -0.40746434034E+03  0.18361827249E+04  0.12699999809E+01 0. -1.
</event>
<event>
 5   0  0.5872444E-07  0.3778674E+04  0.7818609E-02  0.8050747E-01
        2   -1    0    0  501    0  0.00000000000E+00  0.00000000000E+00  0.11822455622E+04  0.11822455622E+04  0.25500000920E-02 0.  1.
       -2   -1    0    0    0  501  0.00000000000E+00  0.00000000000E+00 -0.30193345494E+04  0.30193345494E+04  0.25500000920E-02 0. -1.
    10030    2    1    2    0    0  0.00000000000E+00  0.00000000000E+00 -0.18370889872E+04  0.42015801116E+04  0.37786743029E+04 0.  0.
        3    1    3    3  502    0 -0.62613341628E+03  0.38604547829E+03 -0.28535778745E+04  0.29468594915E+04  0.10100000352E+00 0. -1.
       -3    1    3    3    0  502  0.62613341628E+03 -0.38604547829E+03  0.10164888874E+04  0.12547206202E+04  0.10100000352E+00 0.  1.
</event>
<event>
 5   0  0.5735179E-07  0.3888017E+04  0.7818609E-02  0.8027526E-01
       -2   -1    0    0    0  501  0.00000000000E+00  0.00000000000E+00  0.20156719346E+04  0.20156719346E+04  0.25500000920E-02 0.  1.
        2   -1    0    0  501    0  0.00000000000E+00  0.00000000000E+00 -0.18748932594E+04  0.18748932594E+04  0.25500000920E-02 0. -1.
    10030    2    1    2    0    0  0.00000000000E+00  0.00000000000E+00  0.14077867512E+03  0.38905651940E+04  0.38880173474E+04 0.  0.
        5    1    3    3  502    0 -0.11626521355E+04 -0.15579880198E+04  0.62575547799E+02  0.19449998579E+04  0.46999998093E+01 0. -1.
       -5    1    3    3    0  502  0.11626521355E+04  0.15579880198E+04  0.78203127324E+02  0.19455653361E+04  0.46999998093E+01 0.  1.
</event>
<event>
 5   0  0.5735179E-07  0.3818977E+04  0.7818609E-02  0.8042095E-01
        2   -1    0    0  501    0  0.00000000000E+00  0.00000000000E+00  0.15405980971E+04  0.15405980971E+04  0.25500000920E-02 0. -1.
       -2   -1    0    0    0  501  0.00000000000E+00  0.00000000000E+00 -0.23667078461E+04  0.23667078461E+04  0.25500000920E-02 0.  1.
    10030    2    1    2    0    0  0.00000000000E+00  0.00000000000E+00 -0.82610974900E+03  0.39073059431E+04  0.38189766189E+04 0.  0.
        5    1    3    3  502    0  0.24122624326E+03 -0.14265468841E+04 -0.16880302587E+04  0.22232171188E+04  0.46999998093E+01 0.  1.
       -5    1    3    3    0  502 -0.24122624326E+03  0.14265468841E+04  0.86192050972E+03  0.16840888243E+04  0.46999998093E+01 0. -1.
</event>
<event>
 5   0  0.1860500E-07  0.3873169E+04  0.7818609E-02  0.8030633E-01
        3   -1    0    0  501    0  0.00000000000E+00  0.00000000000E+00  0.14513843055E+04  0.14513843090E+04  0.10100000352E+00 0.  1.
       -3   -1    0    0    0  501  0.00000000000E+00  0.00000000000E+00 -0.25839879100E+04  0.25839879120E+04  0.10100000352E+00 0. -1.
    10030    2    1    2    0    0  0.00000000000E+00  0.00000000000E+00 -0.11326036045E+04  0.40353722210E+04  0.38731689915E+04 0.  0.
        1    1    3    3  502    0 -0.16013702692E+04 -0.41624594573E+03  0.48217819526E+03  0.17234103512E+04  0.50400001928E-02 0.  1.
       -1    1    3    3    0  502  0.16013702692E+04  0.41624594573E+03 -0.16147817998E+04  0.23119618698E+04  0.50400001928E-02 0. -1.
</event>
<event>
 5   0  0.1860500E-07  0.3468843E+04  0.7818609E-02  0.8121214E-01
        3   -1    0    0  501    0  0.00000000000E+00  0.00000000000E+00  0.12174484009E+04  0.12174484051E+04  0.10100000352E+00 0. -1.
       -3   -1    0    0    0  501  0.00000000000E+00  0.00000000000E+00 -0.24709198921E+04  0.24709198942E+04  0.10100000352E+00 0.  1.
    10030    2    1    2    0    0  0.00000000000E+00  0.00000000000E+00 -0.12534714912E+04  0.36883682993E+04  0.34688427367E+04 0.  0.
        2    1    3    3  502    0 -0.14386653426E+04  0.92954833522E+03 -0.91676005950E+03  0.19427473027E+04  0.25500000920E-02 0.  1.
       -2    1    3    3    0  502  0.14386653426E+04 -0.92954833522E+03 -0.33671143173E+03  0.17456209966E+04  0.25500000920E-02 0. -1.
</event>
<event>
 5   0  0.1860500E-07  0.3888450E+04  0.7818609E-02  0.8027436E-01
        1   -1    0    0  501    0  0.00000000000E+00  0.00000000000E+00  0.16467520241E+04  0.16467520241E+04  0.50400001928E-02 0.  1.
       -1   -1    0    0    0  501  0.00000000000E+00  0.00000000000E+00 -0.22954337495E+04  0.22954337495E+04  0.50400001928E-02 0. -1.
    10030    2    1    2    0    0  0.00000000000E+00  0.00000000000E+00 -0.64868172545E+03  0.39421857736E+04  0.38884496515E+04 0.  0.
        4    1    3    3  502    0 -0.15035474016E+03 -0.24497140933E+03  0.16250920651E+04  0.16503161431E+04  0.12699999809E+01 0.  1.
       -4    1    3    3    0  502  0.15035474016E+03  0.24497140933E+03 -0.22737737906E+04  0.22918696304E+04  0.12699999809E+01 0. -1.
</event>
<event>
 5   0  0.2666813E-07  0.3532700E+04  0.7818609E-02  0.8106084E-01
        1   -1    0    0  501    0  0.00000000000E+00  0.00000000000E+00  0.16978158072E+04  0.16978158072E+04  0.50400001928E-02 0. -1.
       -1   -1    0    0    0  501  0.00000000000E+00  0.00000000000E+00 -0.18376504769E+04  0.18376504769E+04  0.50400001928E-02 0.  1.
    10030    2    1    2    0    0  0.00000000000E+00  0.00000000000E+00 -0.13983466966E+03  0.35354662841E+04  0.35326998332E+04 0.  0.
        1    1    3    3  502    0 -0.31925525242E+03  0.51323237205E+03 -0.17309340936E+04  0.18334296333E+04  0.50400001928E-02 0.  1.
       -1    1    3    3    0  502  0.31925525242E+03 -0.51323237205E+03  0.15910994239E+04  0.17020366508E+04  0.50400001928E-02 0. -1.
</event>
<event>
 5   0  0.6095665E-07  0.3925611E+04  0.7818609E-02  0.8019724E-01
        2   -1    0    0  501    0  0.00000000000E+00  0.00000000000E+00  0.16215314816E+04  0.16215314816E+04  0.25500000920E-02 0. -1.
       -2   -1    0    0    0  501  0.00000000000E+00  0.00000000000E+00 -0.23759059695E+04  0.23759059695E+04  0.25500000920E-02 0.  1.
    10030    2    1    2    0    0  0.00000000000E+00  0.00000000000E+00 -0.75437448796E+03  0.39974374511E+04  0.39256114565E+04 0.  0.
        4    1    3    3  502    0  0.52237880578E+03 -0.18552784876E+04  0.63630371864E+00  0.19274179363E+04  0.12699999809E+01 0. -1.
       -4    1    3    3    0  502 -0.52237880578E+03  0.18552784876E+04 -0.75501079167E+03  0.20700195148E+04  0.12699999809E+01 0.  1.
</event>
<event>
 5   0  0.5872444E-07  0.3935243E+04  0.7818609E-02  0.8017739E-01
        2   -1    0    0  501    0  0.00000000000E+00  0.00000000000E+00  0.15877201120E+04  0.15877201120E+04  0.25500000920E-02 0. -1.
       -2   -1    0    0    0  501  0.00000000000E+00  0.00000000000E+00 -0.24384242339E+04  0.24384242339E+04  0.25500000920E-02 0.  1.
    10030    2    1    2    0    0  0.00000000000E+00  0.00000000000E+00 -0.85070412190E+03  0.40261443459E+04  0.39352434220E+04 0.  0.
        3    1    3    3  502    0  0.10934471265E+04  0.15431640153E+04 -0.98061636208E+03  0.21303967369E+04  0.10100000352E+00 0.  1.
       -3    1    3    3    0  502 -0.10934471265E+04 -0.15431640153E+04  0.12991224018E+03  0.18957476090E+04  0.10100000352E+00 0. -1.
</event>
<event>
 5   0  0.1860500E-07  0.4391595E+04  0.7818609E-02  0.7929895E-01
       -1   -1    0    0    0  501  0.00000000000E+00  0.00000000000E+00  0.17100616175E+04  0.17100616175E+04  0.50400001928E-02 0. -1.
        1   -1    0    0  501    0  0.00000000000E+00  0.00000000000E+00 -0.28195041109E+04  0.28195041109E+04  0.50400001928E-02 0.  1.
    10030    2    1    2    0    0  0.00000000000E+00  0.00000000000E+00 -0.11094424934E+04  0.45295657285E+04  0.43915945899E+04 0.  0.
        5    1    3    3  502    0  0.40378450490E+03 -0.16287870157E+04  0.90593237159E+03  0.19070198270E+04  0.46999998093E+01 0. -1.
       -5    1    3    3    0  502 -0.40378450490E+03  0.16287870157E+04 -0.20153748650E+04  0.26225459015E+04  0.46999998093E+01 0.  1.
</event>
<event>
 5   0  0.6095665E-07  0.3937740E+04  0.7818609E-02  0.8017225E-01
        2   -1    0    0  501    0  0.00000000000E+00  0.00000000000E+00  0.19854306031E+04  0.19854306031E+04  0.25500000920E-02 0.  1.
       -2   -1    0    0    0  501  0.00000000000E+00  0.00000000000E+00 -0.19524479530E+04  0.19524479531E+04  0.25500000920E-02 0. -1.
    10030    2    1    2    0    0  0.00000000000E+00  0.00000000000E+00  0.32982650092E+02  0.39378785562E+04  0.39377404267E+04 0.  0.
        4    1    3    3  502    0 -0.81508535138E+02 -0.11314518301E+04 -0.15927951943E+04  0.19554603113E+04  0.12699999809E+01 0. -1.
       -4    1    3    3    0  502  0.81508535138E+02  0.11314518301E+04  0.16257778444E+04  0.19824182449E+04  0.12699999809E+01 0.  1.
</event>
<event>
 5   0  0.3959190E-07  0.3757232E+04  0.7818609E-02  0.8055396E-01
       -2   -1    0    0    0  501  0.00000000000E+00  0.00000000000E+00  0.17575717283E+04  0.17575717283E+04  0.25500000920E-02 0. -1.
        2   -1    0    0  501    0  0.00000000000E+00  0.00000000000E+00 -0.20079967884E+04  0.20079967884E+04  0.25500000920E-02 0.  1.
    10030    2    1    2    0    0  0.00000000000E+00  0.00000000000E+00 -0.25042506015E+03  0.37655685167E+04  0.37572321652E+04 0.  0.
        2    1    3    3  502    0  0.11695918253E+03 -0.16995971321E+03 -0.19966081895E+04  0.20072394020E+04  0.25500000920E-02 0.  1.
       -2    1    3    3    0  502 -0.11695918253E+03  0.16995971321E+03  0.17461831293E+04  0.17583291147E+04  0.25500000920E-02 0. -1.
</event>
<event>
 5   0  0.3959190E-07  0.3886111E+04  0.7818609E-02  0.8027924E-01
       -2   -1    0    0    0  501  0.00000000000E+00  0.00000000000E+00  0.15574987537E+04  0.15574987537E+04  0.25500000920E-02 0. -1.
        2   -1    0    0  501    0  0.00000000000E+00  0.00000000000E+00 -0.24240568009E+04  0.24240568009E+04  0.25500000920E-02 0.  1.
    10030    2    1    2    0    0  0.00000000000E+00  0.00000000000E+00 -0.86655804729E+03  0.39815555546E+04  0.38861113964E+04 0.  0.
        2    1    3    3  502    0  0.90574283322E+03  0.77545415284E+03  0.11386002858E+04  0.16486691099E+04  0.25500000920E-02 0. -1.
       -2    1    3    3    0  502 -0.90574283322E+03 -0.77545415284E+03 -0.20051583331E+04  0.23328864447E+04  0.25500000920E-02 0.  1.
</event>
<event>
 5   0  0.1860500E-07  0.3846265E+04  0.7818609E-02  0.8036299E-01
        1   -1    0    0  501    0  0.00000000000E+00  0.00000000000E+00  0.18105439471E+04  0.18105439471E+04  0.50400001928E-02 0. -1.
       -1   -1    0    0    0  501  0.00000000000E+00  0.00000000000E+00 -0.20427228192E+04  0.20427228192E+04  0.50400001928E-02 0.  1.
    10030    2    1    2    0    0  0.00000000000E+00  0.00000000000E+00 -0.23217887210E+03  0.38532667663E+04  0.38462654281E+04 0.  0.
        4    1    3    3  502    0 -0.11078151129E+04 -0.13530620957E+04  0.68562126197E+03  0.18783262461E+04  0.12699999809E+01 0. -1.
       -4    1    3    3    0  502  0.11078151129E+04  0.13530620957E+04 -0.91780013407E+03  0.19749405202E+04  0.12699999809E+01 0.  1.
</event>
<event>
 5   0  0.2666813E-07  0.3555469E+04  0.7818609E-02  0.8100769E-01
        1   -1    0    0  501    0  0.00000000000E+00  0.00000000000E+00  0.19068701141E+04  0.19068701141E+04  0.50400001928E-02 0.  1.
       -1   -1    0    0    0  501  0.00000000000E+00  0.00000000000E+00 -0.16573443494E+04  0.16573443494E+04  0.50400001928E-02 0. -1.
    10030    2    1    2    0    0  0.00000000000E+00  0.00000000000E+00  0.24952576470E+03  0.35642144635E+04  0.35554692566E+04 0.  0.
        1    1    3    3  502    0 -0.10033992820E+04  0.33662260014E+03  0.15566372785E+04  0.18823507938E+04  0.50400001928E-02 0.  1.
       -1    1    3    3    0  502  0.10033992820E+04 -0.33662260014E+03 -0.13071115138E+04  0.16818636697E+04  0.50400001928E-02 0. -1.
</event>
<event>
 5   0  0.5735179E-07  0.2503866E+04  0.7818609E-02  0.8401610E-01
       -2   -1    0    0    0  501  0.00000000000E+00  0.00000000000E+00  0.11368023553E+04  0.11368023553E+04  0.25500000920E-02 0.  1.
        2   -1    0    0  501    0  0.00000000000E+00  0.00000000000E+00 -0.13787234386E+04  0.13787234386E+04  0.25500000920E-02 0. -1.
    10030    2    1    2    0    0  0.00000000000E+00  0.00000000000E+00 -0.24192108327E+03  0.25155257939E+04  0.25038658529E+04 0.  0.
        5    1    3    3  502    0  0.83875144854E+03 -0.25559092603E+03  0.77677955347E+03  0.11714261729E+04  0.46999998093E+01 0.  1.
       -5    1    3    3    0  502 -0.83875144854E+03  0.25559092603E+03 -0.10187006367E+04  0.13440996210E+04  0.46999998093E+01 0. -1.
</event>
<event>
 5   0  0.1860500E-07  0.3925525E+04  0.7818609E-02  0.8019741E-01
       -1   -1    0    0    0  501  0.00000000000E+00  0.00000000000E+00  0.15692210254E+04  0.15692210254E+04  0.50400001928E-02 0.  1.
        1   -1    0    0  501    0  0.00000000000E+00  0.00000000000E+00 -0.24549989117E+04  0.24549989117E+04  0.50400001928E-02 0. -1.
    10030    2    1    2    0    0  0.00000000000E+00  0.00000000000E+00 -0.88577788633E+03  0.40242199371E+04  0.39255246322E+04 0.  0.
        5    1    3    3  502    0 -0.61373755679E+03  0.84032854237E+03 -0.21489382699E+04  0.23876313839E+04  0.46999998093E+01 0. -1.
       -5    1    3    3    0  502  0.61373755679E+03 -0.84032854237E+03  0.12631603836E+04  0.16365885532E+04  0.46999998093E+01 0.  1.
</event>
<event>
 5   0  0.3959190E-07  0.3912474E+04  0.7818609E-02  0.8022440E-01
       -2   -1    0    0    0  501  0.00000000000E+00  0.00000000000E+00  0.20482025262E+04  0.20482025262E+04  0.25500000920E-02 0.  1.
        2   -1    0    0  501    0  0.00000000000E+00  0.00000000000E+00 -0.18684012166E+04  0.18684012166E+04  0.25500000920E-02 0. -1.
    10030    2    1    2    0    0  0.00000000000E+00  0.00000000000E+00  0.17980130958E+03  0.39166037428E+04  0.39124744557E+04 0.  0.
        2    1    3    3  502    0  0.42425625467E+03 -0.11072035016E+04  0.16474898454E+04  0.20298068269E+04  0.25500000920E-02 0.  1.
       -2    1    3    3    0  502 -0.42425625467E+03  0.11072035016E+04 -0.14676885358E+04  0.18867969159E+04  0.25500000920E-02 0. -1.
</event>
<event>
 5   0  0.6095665E-07  0.3122365E+04  0.7818609E-02  0.8209627E-01
       -2   -1    0    0    0  501  0.00000000000E+00  0.00000000000E+00  0.11778814439E+04  0.11778814439E+04  0.25500000920E-02 0. -1.
        2   -1    0    0  501    0  0.00000000000E+00  0.00000000000E+00 -0.20692151657E+04  0.20692151657E+04  0.25500000920E-02 0.  1.
    10030    2    1    2    0    0  0.00000000000E+00  0.00000000000E+00 -0.89133372179E+03  0.32470966096E+04  0.31223645829E+04 0.  0.
        4    1    3    3  502    0  0.11808554317E+04  0.60976181656E+03  0.40624000041E+03  0.13896983753E+04  0.12699999809E+01 0.  1.
       -4    1    3    3    0  502 -0.11808554317E+04 -0.60976181656E+03 -0.12975737222E+04  0.18573982343E+04  0.12699999809E+01 0. -1.
</event>
<event>
 5   0  0.1860500E-07  0.3911701E+04  0.7818609E-02  0.8022600E-01
       -1   -1    0    0    0  501  0.00000000000E+00  0.00000000000E+00  0.17268157167E+04  0.17268157167E+04  0.50400001928E-02 0.  1.
        1   -1    0    0  501    0  0.00000000000E+00  0.00000000000E+00 -0.22152628999E+04  0.22152628999E+04  0.50400001928E-02 0. -1.
    10030    2    1    2    0    0  0.00000000000E+00  0.00000000000E+00 -0.48844718321E+03  0.39420786166E+04  0.39117008026E+04 0.  0.
        4    1    3    3  502    0  0.37533744335E+03 -0.18460773976E+04  0.28566314574E+03  0.19053831636E+04  0.12699999809E+01 0.  1.
       -4    1    3    3    0  502 -0.37533744335E+03  0.18460773976E+04 -0.77411032895E+03  0.20366954531E+04  0.12699999809E+01 0. -1.
</event>
<event>
 5   0  0.5735179E-07  0.2550216E+04  0.7818609E-02  0.8385311E-01
       -2   -1    0    0    0  501  0.00000000000E+00  0.00000000000E+00  0.86795558902E+03  0.86795558903E+03  0.25500000920E-02 0. -1.
        2   -1    0    0  501    0  0.00000000000E+00  0.00000000000E+00 -0.18732526139E+04  0.18732526139E+04  0.25500000920E-02 0.  1.
    10030    2    1    2    0    0  0.00000000000E+00  0.00000000000E+00 -0.10052970249E+04  0.27412082029E+04  0.25502157367E+04 0.  0.
        5    1    3    3  502    0  0.25847578332E+02 -0.23138015065E+03 -0.18502026239E+04  0.18647993755E+04  0.46999998093E+01 0.  1.
       -5    1    3    3    0  502 -0.25847578332E+02  0.23138015065E+03  0.84490559905E+03  0.87640882739E+03  0.46999998093E+01 0. -1.
</event>
<event>
 5   0  0.5872444E-07  0.3202332E+04  0.7818609E-02  0.8188202E-01
        2   -1    0    0  501    0  0.00000000000E+00  0.00000000000E+00  0.14661003174E+04  0.14661003174E+04  0.25500000920E-02 0.  1.
       -2   -1    0    0    0  501  0.00000000000E+00  0.00000000000E+00 -0.17486745188E+04  0.17486745188E+04  0.25500000920E-02 0. -1.
    10030    2    1    2    0    0  0.00000000000E+00  0.00000000000E+00 -0.28257420138E+03  0.32147748362E+04  0.32023318173E+04 0.  0.
        3    1    3    3  502    0  0.62592934834E+02  0.64959591940E+03 -0.16091036525E+04  0.17364064353E+04  0.10100000352E+00 0. -1.
       -3    1    3    3    0  502 -0.62592934834E+02 -0.64959591940E+03  0.13265294511E+04  0.14783684009E+04  0.10100000352E+00 0.  1.
</event>
<event>
 5   0  0.3959190E-07  0.3853607E+04  0.7818609E-02  0.8034748E-01
       -2   -1    0    0    0  501  0.00000000000E+00  0.00000000000E+00  0.18520963797E+04  0.18520963797E+04  0.25500000920E-02 0. -1.
        2   -1    0    0  501    0  0.00000000000E+00  0.00000000000E+00 -0.20045243005E+04  0.20045243005E+04  0.25500000920E-02 0.  1.
    10030    2    1    2    0    0  0.00000000000E+00  0.00000000000E+00 -0.15242792075E+03  0.38566206802E+04  0.38536072452E+04 0.  0.
        2    1    3    3  502    0  0.53555780188E+03  0.17187242542E+04 -0.76358216081E+03  0.19554776750E+04  0.25500000920E-02 0.  1.
       -2    1    3    3    0  502 -0.53555780188E+03 -0.17187242542E+04  0.61115424006E+03  0.19011430052E+04  0.25500000920E-02 0. -1.
</event>
<event>
 5   0  0.1943459E-07  0.2985448E+04  0.7818609E-02  0.8247899E-01
       -1   -1    0    0    0  501  0.00000000000E+00  0.00000000000E+00  0.15496874265E+04  0.15496874265E+04  0.50400001928E-02 0.  1.
        1   -1    0    0  501    0  0.00000000000E+00  0.00000000000E+00 -0.14378541373E+04  0.14378541373E+04  0.50400001928E-02 0. -1.
    10030    2    1    2    0    0  0.00000000000E+00  0.00000000000E+00  0.11183328919E+03  0.29875415637E+04  0.29854476901E+04 0.  0.
        2    1    3    3  502    0 -0.12485175154E+04  0.40601785751E+03  0.76675137962E+03  0.15203796122E+04  0.25500000920E-02 0. -1.
       -2    1    3    3    0  502  0.12485175154E+04 -0.40601785751E+03 -0.65491809043E+03  0.14671619516E+04  0.25500000920E-02 0.  1.
</event>
<event>
 5   0  0.5872444E-07  0.3821924E+04  0.7818609E-02  0.8041466E-01
        2   -1    0    0  501    0  0.00000000000E+00  0.00000000000E+00  0.21765853864E+04  0.21765853864E+04  0.25500000920E-02 0. -1.
       -2   -1    0    0    0  501  0.00000000000E+00  0.00000000000E+00 -0.16777540789E+04  0.16777540789E+04  0.25500000920E-02 0.  1.
    10030    2    1    2    0    0  0.00000000000E+00  0.00000000000E+00  0.49883130747E+03  0.38543394653E+04  0.38219236047E+04 0.  0.
        3    1    3    3  502    0  0.69758969801E+03 -0.14034373954E+04 -0.85325048473E+03  0.17844619103E+04  0.10100000352E+00 0.  1.
       -3    1    3    3    0  502 -0.69758969801E+03  0.14034373954E+04  0.13520817922E+04  0.20698775549E+04  0.10100000352E+00 0. -1.
</event>
<event>
 5   0  0.1860500E-07  0.3817938E+04  0.7818609E-02  0.8042316E-01
       -1   -1    0    0    0  501  0.00000000000E+00  0.00000000000E+00  0.22087696415E+04  0.22087696415E+04  0.50400001928E-02 0.  1.
        1   -1    0    0  501    0  0.00000000000E+00  0.00000000000E+00 -0.16498609994E+04  0.16498609994E+04  0.50400001928E-02 0. -1.
    10030    2    1    2    0    0  0.00000000000E+00  0.00000000000E+00  0.55890864216E+03  0.38586306409E+04  0.38179381284E+04 0.  0.
        5    1    3    3  502    0 -0.11091381038E+04  0.36096885593E+02 -0.12903717148E+04  0.17019317174E+04  0.46999998093E+01 0. -1.
       -5    1    3    3    0  502  0.11091381038E+04 -0.36096885593E+02  0.18492803569E+04  0.21566989235E+04  0.46999998093E+01 0.  1.
</event>
<event>
 5   0  0.3959190E-07  0.3348348E+04  0.7818609E-02  0.8150701E-01
        2   -1    0    0  501    0  0.00000000000E+00  0.00000000000E+00  0.10654453306E+04  0.10654453306E+04  0.25500000920E-02 0. -1.
       -2   -1    0    0    0  501  0.00000000000E+00  0.00000000000E+00 -0.26306925195E+04  0.26306925195E+04  0.25500000920E-02 0.  1.
    10030    2    1    2    0    0  0.00000000000E+00  0.00000000000E+00 -0.15652471888E+04  0.36961378501E+04  0.33483482861E+04 0.  0.
        2    1    3    3  502    0 -0.33651998248E+03 -0.38307353426E+03 -0.25428942340E+04  0.25935115416E+04  0.25500000920E-02 0.  1.
       -2    1    3    3    0  502  0.33651998248E+03  0.38307353426E+03  0.97764704517E+03  0.11026263085E+04  0.25500000920E-02 0. -1.
</event>
<event>
 5   0  0.2666813E-07  0.3945793E+04  0.7818609E-02  0.8015572E-01
       -1   -1    0    0    0  501  0.00000000000E+00  0.00000000000E+00  0.14395120881E+04  0.14395120881E+04  0.50400001928E-02 0. -1.
        1   -1    0    0  501    0  0.00000000000E+00  0.00000000000E+00 -0.27039164346E+04  0.27039164346E+04  0.50400001928E-02 0.  1.
    10030    2    1    2    0    0  0.00000000000E+00  0.00000000000E+00 -0.12644043465E+04  0.41434285228E+04  0.39457928952E+04 0.  0.
        1    1    3    3  502    0 -0.17905015097E+04  0.28335006475E+03  0.18534182288E+03  0.18222333842E+04  0.50400001928E-02 0.  1.
       -1    1    3    3    0  502  0.17905015097E+04 -0.28335006475E+03 -0.14497461694E+04  0.23211951385E+04  0.50400001928E-02 0. -1.
</event>
<event>
 5   0  0.5735179E-07  0.3852930E+04  0.7818609E-02  0.8034891E-01
        2   -1    0    0  501    0  0.00000000000E+00  0.00000000000E+00  0.27813228419E+04  0.27813228419E+04  0.25500000920E-02 0. -1.
       -2   -1    0    0    0  501  0.00000000000E+00  0.00000000000E+00 -0.13343532826E+04  0.13343532826E+04  0.25500000920E-02 0.  1.
    10030    2    1    2    0    0  0.00000000000E+00  0.00000000000E+00  0.14469695593E+04  0.41156761246E+04  0.38529299315E+04 0.  0.
        5    1    3    3  502    0  0.10763469727E+04  0.47451491611E+03 -0.90618770442E+03  0.14848856713E+04  0.46999998093E+01 0.  1.
       -5    1    3    3    0  502 -0.10763469727E+04 -0.47451491611E+03  0.23531572637E+04  0.26307904533E+04  0.46999998093E+01 0. -1.
</event>
<event>
 5   0  0.1860500E-07  0.3906911E+04  0.7818609E-02  0.8023593E-01
       -1   -1    0    0    0  501  0.00000000000E+00  0.00000000000E+00  0.23860638422E+04  0.23860638422E+04  0.50400001928E-02 0.  1.
        1   -1    0    0  501    0  0.00000000000E+00  0.00000000000E+00 -0.15992818414E+04  0.15992818414E+04  0.50400001928E-02 0. -1.
    10030    2    1    2    0    0  0.00000000000E+00  0.00000000000E+00  0.78678200085E+03  0.39853456836E+04  0.39069110946E+04 0.  0.
        5    1    3    3  502    0 -0.12878978292E+04  0.24487841208E+03  0.18706778841E+04  0.22843169857E+04  0.46999998093E+01 0.  1.
       -5    1    3    3    0  502  0.12878978292E+04 -0.24487841208E+03 -0.10838958833E+04  0.17010286978E+04  0.46999998093E+01 0. -1.
</event>
<event>
 5   0  0.1860500E-07  0.3852957E+04  0.7818609E-02  0.8034885E-01
        1   -1    0    0  501    0  0.00000000000E+00  0.00000000000E+00  0.23189838949E+04  0.23189838949E+04  0.50400001928E-02 0.  1.
       -1   -1    0    0    0  501  0.00000000000E+00  0.00000000000E+00 -0.16004075347E+04  0.16004075347E+04  0.50400001928E-02 0. -1.
    10030    2    1    2    0    0  0.00000000000E+00  0.00000000000E+00  0.71857636025E+03  0.39193914296E+04  0.38529569415E+04 0.  0.
        5    1    3    3  502    0 -0.14281787097E+04  0.25661333052E+03  0.16483203922E+04  0.21960252807E+04  0.46999998093E+01 0.  1.
       -5    1    3    3    0  502  0.14281787097E+04 -0.25661333052E+03 -0.92974403196E+03  0.17233661489E+04  0.46999998093E+01 0. -1.
</event>
<event>
 5   0  0.5735179E-07  0.2777444E+04  0.7818609E-02  0.8310305E-01
        2   -1    0    0  501    0  0.00000000000E+00  0.00000000000E+00  0.24555705908E+04  0.24555705908E+04  0.25500000920E-02 0. -1.
       -2   -1    0    0    0  501  0.00000000000E+00  0.00000000000E+00 -0.78537706541E+03  0.78537706542E+03  0.25500000920E-02 0.  1.
    10030    2    1    2    0    0  0.00000000000E+00  0.00000000000E+00  0.16701935254E+04  0.32409476562E+04  0.27774440225E+04 0.  0.
        5    1    3    3  502    0 -0.62828909103E+03 -0.52812801192E+02 -0.60872282788E+03  0.87641425425E+03  0.46999998093E+01 0.  1.
       -5    1    3    3    0  502  0.62828909103E+03  0.52812801192E+02  0.22789163533E+04  0.23645334020E+04  0.46999998093E+01 0. -1.
</event>
<event>
 5   0  0.1860500E-07  0.3676883E+04  0.7818609E-02  0.8073104E-01
       -1   -1    0    0    0  501  0.00000000000E+00  0.00000000000E+00  0.22535007831E+04  0.22535007831E+04  0.50400001928E-02 0.  1.
        1   -1    0    0  501    0  0.00000000000E+00  0.00000000000E+00 -0.14998299805E+04  0.14998299805E+04  0.50400001928E-02 0. -1.
    10030    2    1    2    0    0  0.00000000000E+00  0.00000000000E+00  0.75367080262E+03  0.37533307636E+04  0.36768834823E+04 0.  0.
        4    1    3    3  502    0  0.15277655737E+04 -0.93955235919E+03  0.78901286170E+03  0.19594308339E+04  0.12699999809E+01 0. -1.
       -4    1    3    3    0  502 -0.15277655737E+04  0.93955235919E+03 -0.35342059081E+02  0.17938999297E+04  0.12699999809E+01 0.  1.
</event>
<event>
 5   0  0.1860500E-07  0.3908791E+04  0.7818609E-02  0.8023203E-01
        1   -1    0    0  501    0  0.00000000000E+00  0.00000000000E+00  0.19497444093E+04  0.19497444093E+04  0.50400001928E-02 0. -1.
       -1   -1    0    0    0  501  0.00000000000E+00  0.00000000000E+00 -0.19590577696E+04  0.19590577696E+04  0.50400001928E-02 0.  1.
    10030    2    1    2    0    0  0.00000000000E+00  0.00000000000E+00 -0.93133603150E+01  0.39088021789E+04  0.39087910836E+04 0.  0.
        4    1    3    3  502    0 -0.18008176111E+04 -0.69080615370E+03 -0.32009871196E+03  0.19551526817E+04  0.12699999809E+01 0.  1.
       -4    1    3    3    0  502  0.18008176111E+04  0.69080615370E+03  0.31078535165E+03  0.19536494973E+04  0.12699999809E+01 0. -1.
</event>
<event>
 5   0  0.1860500E-07  0.3562640E+04  0.7818609E-02  0.8099103E-01
        1   -1    0    0  501    0  0.00000000000E+00  0.00000000000E+00  0.18535070612E+04  0.18535070613E+04  0.50400001928E-02 0.  1.
       -1   -1    0    0    0  501  0.00000000000E+00  0.00000000000E+00 -0.17119441572E+04  0.17119441572E+04  0.50400001928E-02 0. -1.
    10030    2    1    2    0    0  0.00000000000E+00  0.00000000000E+00  0.14156290402E+03  0.35654512185E+04  0.35626397988E+04 0.  0.
        5    1    3    3  502    0 -0.57168383122E+03 -0.54199288263E+03  0.16696966945E+04  0.18462090427E+04  0.46999998093E+01 0.  1.
       -5    1    3    3    0  502  0.57168383122E+03  0.54199288263E+03 -0.15281337904E+04  0.17192421758E+04  0.46999998093E+01 0. -1.
</event>
<event>
 5   0  0.1943459E-07  0.3886063E+04  0.7818609E-02  0.8027934E-01
       -1   -1    0    0    0  501  0.00000000000E+00  0.00000000000E+00  0.25518435628E+04  0.25518435629E+04  0.50400001928E-02 0. -1.
        1   -1    0    0  501    0  0.00000000000E+00  0.00000000000E+00 -0.14794680550E+04  0.14794680550E+04  0.50400001928E-02 0.  1.
    10030    2    1    2    0    0  0.00000000000E+00  0.00000000000E+00  0.10723755078E+04  0.40313116179E+04  0.38860628058E+04 0.  0.
        2    1    3    3  502    0  0.17382889484E+03  0.11672986152E+04  0.21374381561E+04  0.24416069325E+04  0.25500000920E-02 0. -1.
       -2    1    3    3    0  502 -0.17382889484E+03 -0.11672986152E+04 -0.10650626483E+04  0.15897046853E+04  0.25500000920E-02 0.  1.
</event>
<event>
 5   0  0.1860500E-07  0.3936033E+04  0.7818609E-02  0.8017576E-01
        1   -1    0    0  501    0  0.00000000000E+00  0.00000000000E+00  0.23637594824E+04  0.23637594824E+04  0.50400001928E-02 0. -1.
       -1   -1    0    0    0  501  0.00000000000E+00  0.00000000000E+00 -0.16385292800E+04  0.16385292800E+04  0.50400001928E-02 0.  1.
    10030    2    1    2    0    0  0.00000000000E+00  0.00000000000E+00  0.72523020236E+03  0.40022887624E+04  0.39360330907E+04 0.  0.
        4    1    3    3  502    0 -0.17235396283E+04  0.39412825895E+03  0.12415504741E+04  0.21604108700E+04  0.12699999809E+01 0. -1.
       -4    1    3    3    0  502  0.17235396283E+04 -0.39412825895E+03 -0.51632027171E+03  0.18418778924E+04  0.12699999809E+01 0.  1.
</event>
<event>
 5   0  0.1860500E-07  0.2412468E+04  0.7818609E-02  0.8434850E-01
       -1   -1    0    0    0  501  0.00000000000E+00  0.00000000000E+00  0.14989961466E+04  0.14989961466E+04  0.50400001928E-02 0.  1.
        1   -1    0    0  501    0  0.00000000000E+00  0.00000000000E+00 -0.97065000748E+03  0.97065000750E+03  0.50400001928E-02 0. -1.
    10030    2    1    2    0    0  0.00000000000E+00  0.00000000000E+00  0.52834613914E+03  0.24696461541E+04  0.24124681312E+04 0.  0.
        4    1    3    3  502    0  0.65902745345E+02  0.12018923848E+04  0.34419566780E+03  0.12519427890E+04  0.12699999809E+01 0.  1.
       -4    1    3    3    0  502 -0.65902745345E+02 -0.12018923848E+04  0.18415047135E+03  0.12177033651E+04  0.12699999809E+01 0. -1.
</event>
<event>
 5   0  0.2666813E-07  0.3473762E+04  0.7818609E-02  0.8120036E-01
       -1   -1    0    0    0  501  0.00000000000E+00  0.00000000000E+00  0.14166711119E+04  0.14166711119E+04  0.50400001928E-02 0.  1.
        1   -1    0    0  501    0  0.00000000000E+00  0.00000000000E+00 -0.21294675769E+04  0.21294675769E+04  0.50400001928E-02 0. -1.
    10030    2    1    2    0    0  0.00000000000E+00  0.00000000000E+00 -0.71279646494E+03  0.35461386888E+04  0.34737617650E+04 0.  0.
        1    1    3    3  502    0  0.78501385903E+03 -0.72173138107E+03  0.10431562838E+04  0.14917499716E+04  0.50400001928E-02 0.  1.
       -1    1    3    3    0  502 -0.78501385903E+03  0.72173138107E+03 -0.17559527488E+04  0.20543887172E+04  0.50400001928E-02 0. -1.
</event>
<event>
 5   0  0.3959190E-07  0.2427535E+04  0.7818609E-02  0.8429266E-01
        2   -1    0    0  501    0  0.00000000000E+00  0.00000000000E+00  0.12091770455E+04  0.12091770455E+04  0.25500000920E-02 0. -1.
       -2   -1    0    0    0  501  0.00000000000E+00  0.00000000000E+00 -0.12183757215E+04  0.12183757215E+04  0.25500000920E-02 0.  1.
    10030    2    1    2    0    0  0.00000000000E+00  0.00000000000E+00 -0.91986760389E+01  0.24275527670E+04  0.24275353387E+04 0.  0.
        2    1    3    3  502    0 -0.89731699477E+03  0.58188033062E+03  0.56939907465E+03  0.12116013431E+04  0.25500000920E-02 0. -1.
       -2    1    3    3    0  502  0.89731699477E+03 -0.58188033062E+03 -0.57859775069E+03  0.12159514239E+04  0.25500000920E-02 0.  1.
</event>
<event>
 5   0  0.2666813E-07  0.3608044E+04  0.7818609E-02  0.8088652E-01
       -1   -1    0    0    0  501  0.00000000000E+00  0.00000000000E+00  0.14034107732E+04  0.14034107732E+04  0.50400001928E-02 0. -1.
        1   -1    0    0  501    0  0.00000000000E+00  0.00000000000E+00 -0.23189904119E+04  0.23189904119E+04  0.50400001928E-02 0.  1.
    10030    2    1    2    0    0  0.00000000000E+00  0.00000000000E+00 -0.91557963866E+03  0.37224011851E+04  0.36080444161E+04 0.  0.
        1    1    3    3  502    0 -0.17865169628E+04 -0.23421672829E+03 -0.55004315324E+03  0.18838916648E+04  0.50400001928E-02 0. -1.
       -1    1    3    3    0  502  0.17865169628E+04  0.23421672829E+03 -0.36553648542E+03  0.18385095204E+04  0.50400001928E-02 0.  1.
</event>
<event>
 5   0  0.1860500E-07  0.3956162E+04  0.7818609E-02  0.8013449E-01
       -1   -1    0    0    0  501  0.00000000000E+00  0.00000000000E+00  0.26341995099E+04  0.26341995099E+04  0.50400001928E-02 0. -1.
        1   -1    0    0  501    0  0.00000000000E+00  0.00000000000E+00 -0.14853866975E+04  0.14853866975E+04  0.50400001928E-02 0.  1.
    10030    2    1    2    0    0  0.00000000000E+00  0.00000000000E+00  0.11488128124E+04  0.41195862074E+04  0.39561622365E+04 0.  0.
        4    1    3    3  502    0  0.34289587809E+03 -0.12901719470E+03 -0.14497488896E+04  0.14953248729E+04  0.12699999809E+01 0.  1.
       -4    1    3    3    0  502 -0.34289587809E+03  0.12901719470E+03  0.25985617020E+04  0.26242613345E+04  0.12699999809E+01 0. -1.
</event>
<event>
 5   0  0.5735179E-07  0.3896161E+04  0.7818609E-02  0.8025828E-01
        2   -1    0    0  501    0  0.00000000000E+00  0.00000000000E+00  0.13984181590E+04  0.13984181590E+04  0.25500000920E-02 0.  1.
       -2   -1    0    0    0  501  0.00000000000E+00  0.00000000000E+00 -0.27137935539E+04  0.27137935539E+04  0.25500000920E-02 0. -1.
    10030    2    1    2    0    0  0.00000000000E+00  0.00000000000E+00 -0.13153753949E+04  0.41122117130E+04  0.38961612829E+04 0.  0.
        5    1    3    3  502    0 -0.72990263973E+03  0.13108908999E+04  0.65371030908E+03  0.16366282636E+04  0.46999998093E+01 0.  1.
       -5    1    3    3    0  502  0.72990263973E+03 -0.13108908999E+04 -0.19690857040E+04  0.24755834494E+04  0.46999998093E+01 0. -1.
</event>
<event>
 5   0  0.5735179E-07  0.4013332E+04  0.7818609E-02  0.8001863E-01
       -2   -1    0    0    0  501  0.00000000000E+00  0.00000000000E+00  0.23627499448E+04  0.23627499448E+04  0.25500000920E-02 0.  1.
        2   -1    0    0  501    0  0.00000000000E+00  0.00000000000E+00 -0.17042463664E+04  0.17042463664E+04  0.25500000920E-02 0. -1.
    10030    2    1    2    0    0  0.00000000000E+00  0.00000000000E+00  0.65850357838E+03  0.40669963111E+04  0.40133317869E+04 0.  0.
        5    1    3    3  502    0 -0.84221385404E+03  0.12069576362E+04  0.17115348096E+04  0.22573091074E+04  0.46999998093E+01 0.  1.
       -5    1    3    3    0  502  0.84221385404E+03 -0.12069576362E+04 -0.10530312312E+04  0.18096872038E+04  0.46999998093E+01 0. -1.
</event>
<event>
 5   0  0.1876027E-07  0.3879729E+04  0.7818609E-02  0.8029258E-01
        1   -1    0    0  501    0  0.00000000000E+00  0.00000000000E+00  0.12823096187E+04  0.12823096187E+04  0.50400001928E-02 0.  1.
       -1   -1    0    0    0  501  0.00000000000E+00  0.00000000000E+00 -0.29346063795E+04  0.29346063795E+04  0.50400001928E-02 0. -1.
    10030    2    1    2    0    0  0.00000000000E+00  0.00000000000E+00 -0.16522967608E+04  0.42169159981E+04  0.38797288500E+04 0.  0.
        3    1    3    3  502    0 -0.24587872086E+03 -0.10658282605E+03  0.12620933030E+04  0.12902308941E+04  0.10100000352E+00 0.  1.
       -3    1    3    3    0  502  0.24587872086E+03  0.10658282605E+03 -0.29143900638E+04  0.29266851041E+04  0.10100000352E+00 0. -1.
</event>
<event>
 5   0  0.1860500E-07  0.2760575E+04  0.7818609E-02  0.8315614E-01
        1   -1    0    0  501    0  0.00000000000E+00  0.00000000000E+00  0.92931334251E+03  0.92931334252E+03  0.50400001928E-02 0.  1.
       -1   -1    0    0    0  501  0.00000000000E+00  0.00000000000E+00 -0.20501087876E+04  0.20501087876E+04  0.50400001928E-02 0. -1.
    10030    2    1    2    0    0  0.00000000000E+00  0.00000000000E+00 -0.11207954451E+04  0.29794221301E+04  0.27605749039E+04 0.  0.
        4    1    3    3  502    0  0.45519236680E+03  0.92176827157E+03 -0.15544659573E+04  0.18636584619E+04  0.12699999809E+01 0. -1.
       -4    1    3    3    0  502 -0.45519236680E+03 -0.92176827157E+03  0.43367051223E+03  0.11157636682E+04  0.12699999809E+01 0.  1.
</event>
<event>
 5   0  0.1943459E-07  0.2791780E+04  0.7818609E-02  0.8305825E-01
       -1   -1    0    0    0  501  0.00000000000E+00  0.00000000000E+00  0.10850223432E+04  0.10850223432E+04  0.50400001928E-02 0.  1.
        1   -1    0    0  501    0  0.00000000000E+00  0.00000000000E+00 -0.17958242264E+04  0.17958242264E+04  0.50400001928E-02 0. -1.
    10030    2    1    2    0    0  0.00000000000E+00  0.00000000000E+00 -0.71080188312E+03  0.28808465696E+04  0.27917803711E+04 0.  0.
        2    1    3    3  502    0 -0.10043147541E+04  0.65085671716E+03  0.38602465212E+03  0.12574886177E+04  0.25500000920E-02 0.  1.
       -2    1    3    3    0  502  0.10043147541E+04 -0.65085671716E+03 -0.10968265352E+04  0.16233579519E+04  0.25500000920E-02 0. -1.
</event>
<event>
 5   0  0.3959190E-07  0.3864116E+04  0.7818609E-02  0.8032534E-01
        2   -1    0    0  501    0  0.00000000000E+00  0.00000000000E+00  0.19294500625E+04  0.19294500625E+04  0.25500000920E-02 0. -1.
       -2   -1    0    0    0  501  0.00000000000E+00  0.00000000000E+00 -0.19346699115E+04  0.19346699115E+04  0.25500000920E-02 0.  1.
    10030    2    1    2    0    0  0.00000000000E+00  0.00000000000E+00 -0.52198490219E+01  0.38641199741E+04  0.38641164484E+04 0.  0.
        2    1    3    3  502    0  0.30926414044E+03  0.98426233241E+03 -0.16361451104E+04  0.19342666491E+04  0.25500000920E-02 0.  1.
       -2    1    3    3    0  502 -0.30926414044E+03 -0.98426233241E+03  0.16309252614E+04  0.19298533249E+04  0.25500000920E-02 0. -1.
</event>
<event>
 5   0  0.1860500E-07  0.3866977E+04  0.7818609E-02  0.8031933E-01
        3   -1    0    0  501    0  0.00000000000E+00  0.00000000000E+00  0.24013669015E+04  0.24013669036E+04  0.10100000352E+00 0. -1.
       -3   -1    0    0    0  501  0.00000000000E+00  0.00000000000E+00 -0.15567704384E+04  0.15567704417E+04  0.10100000352E+00 0.  1.
    10030    2    1    2    0    0  0.00000000000E+00  0.00000000000E+00  0.84459646310E+03  0.39581373453E+04  0.38669766044E+04 0.  0.
        1    1    3    3  502    0 -0.12346574452E+03  0.94283468881E+03  0.21454925490E+04  0.23467678450E+04  0.50400001928E-02 0. -1.
       -1    1    3    3    0  502  0.12346574452E+03 -0.94283468881E+03 -0.13008960859E+04  0.16113695004E+04  0.50400001928E-02 0.  1.
</event>
<event>
 5   0  0.1876027E-07  0.3862858E+04  0.7818609E-02  0.8032799E-01
        1   -1    0    0  501    0  0.00000000000E+00  0.00000000000E+00  0.22499903874E+04  0.22499903874E+04  0.50400001928E-02 0.  1.
       -1   -1    0    0    0  501  0.00000000000E+00  0.00000000000E+00 -0.16579710364E+04  0.16579710364E+04  0.50400001928E-02 0. -1.
    10030    2    1    2    0    0  0.00000000000E+00  0.00000000000E+00  0.59201935097E+03  0.39079614237E+04  0.38628584724E+04 0.  0.
        3    1    3    3  502    0  0.47568027640E+03 -0.80195402525E+03 -0.14151939155E+04  0.16947494838E+04  0.10100000352E+00 0. -1.
       -3    1    3    3    0  502 -0.47568027640E+03  0.80195402525E+03  0.20072132665E+04  0.22132119400E+04  0.10100000352E+00 0.  1.
</event>
<event>
 5   0  0.3959190E-07  0.3675630E+04  0.7818609E-02  0.8073384E-01
        2   -1    0    0  501    0  0.00000000000E+00  0.00000000000E+00  0.18429818661E+04  0.18429818661E+04  0.25500000920E-02 0. -1.
       -2   -1    0    0    0  501  0.00000000000E+00  0.00000000000E+00 -0.18326622341E+04  0.18326622341E+04  0.25500000920E-02 0.  1.
    10030    2    1    2    0    0  0.00000000000E+00  0.00000000000E+00  0.10319631948E+02  0.36756441002E+04  0.36756296137E+04 0.  0.
        2    1    3    3  502    0 -0.87877282028E+03  0.12527044506E+04 -0.10127111585E+04  0.18349643050E+04  0.25500000920E-02 0. -1.
       -2    1    3    3    0  502  0.87877282028E+03 -0.12527044506E+04  0.10230307904E+04  0.18406797952E+04  0.25500000920E-02 0.  1.
</event>
<event>
 5   0  0.5872444E-07  0.3924263E+04  0.7818609E-02  0.8020002E-01
       -2   -1    0    0    0  501  0.00000000000E+00  0.00000000000E+00  0.16301396174E+04  0.16301396174E+04  0.25500000920E-02 0.  1.
        2   -1    0    0  501    0  0.00000000000E+00  0.00000000000E+00 -0.23617361618E+04  0.23617361618E+04  0.25500000920E-02 0. -1.
    10030    2    1    2    0    0  0.00000000000E+00  0.00000000000E+00 -0.73159654443E+03  0.39918757791E+04  0.39242628266E+04 0.  0.
        3    1    3    3  502    0 -0.73981375996E+03 -0.15104964453E+04  0.66207461049E+03  0.18075582178E+04  0.10100000352E+00 0.  1.
       -3    1    3    3    0  502  0.73981375996E+03  0.15104964453E+04 -0.13936711549E+04  0.21843175614E+04  0.10100000352E+00 0. -1.
</event>
<event>
 5   0  0.5872444E-07  0.3322768E+04  0.7818609E-02  0.8157126E-01
       -2   -1    0    0    0  501  0.00000000000E+00  0.00000000000E+00  0.11277012442E+04  0.11277012442E+04  0.25500000920E-02 0.  1.
        2   -1    0    0  501    0  0.00000000000E+00  0.00000000000E+00 -0.24476309355E+04  0.24476309355E+04  0.25500000920E-02 0. -1.
    10030    2    1    2    0    0  0.00000000000E+00  0.00000000000E+00 -0.13199296912E+04  0.35753321797E+04  0.33227677929E+04 0.  0.
        3    1    3    3  502    0  0.72661622031E+03  0.11099895604E+04 -0.17360549714E+04  0.21849335985E+04  0.10100000352E+00 0. -1.
       -3    1    3    3    0  502 -0.72661622031E+03 -0.11099895604E+04  0.41612528016E+03  0.13903985812E+04  0.10100000352E+00 0.  1.
</event>
<event>
 5   0  0.5735179E-07  0.3794885E+04  0.7818609E-02  0.8047253E-01
        2   -1    0    0  501    0  0.00000000000E+00  0.00000000000E+00  0.28625707294E+04  0.28625707294E+04  0.25500000920E-02 0. -1.
       -2   -1    0    0    0  501  0.00000000000E+00  0.00000000000E+00 -0.12577114266E+04  0.12577114266E+04  0.25500000920E-02 0.  1.
    10030    2    1    2    0    0  0.00000000000E+00  0.00000000000E+00  0.16048593028E+04  0.41202821560E+04  0.37948849342E+04 0.  0.
        5    1    3    3  502    0  0.14068341377E+04 -0.67402948111E+02  0.21828826478E+04  0.25978306705E+04  0.46999998093E+01 0. -1.
       -5    1    3    3    0  502 -0.14068341377E+04  0.67402948111E+02 -0.57802334500E+03  0.15224514855E+04  0.46999998093E+01 0.  1.
</event>
<event>
 5   0  0.5805753E-07  0.3815070E+04  0.7818609E-02  0.8042929E-01
       -2   -1    0    0    0  501  0.00000000000E+00  0.00000000000E+00  0.11924527580E+04  0.11924527580E+04  0.25500000920E-02 0.  1.
        2   -1    0    0  501    0  0.00000000000E+00  0.00000000000E+00 -0.30514329984E+04  0.30514329984E+04  0.25500000920E-02 0. -1.
    10030    2    1    2    0    0  0.00000000000E+00  0.00000000000E+00 -0.18589802404E+04  0.42438857564E+04  0.38150699574E+04 0.  0.
        1    1    3    3  502    0 -0.13165741259E+04 -0.71961820627E+03  0.38081753083E+03  0.15479792581E+04  0.50400001928E-02 0.  1.
       -1    1    3    3    0  502  0.13165741259E+04  0.71961820627E+03 -0.22397977712E+04  0.26959064983E+04  0.50400001928E-02 0. -1.
</event>
<event>
 5   0  0.1860500E-07  0.2419495E+04  0.7818609E-02  0.8432241E-01
       -1   -1    0    0    0  501  0.00000000000E+00  0.00000000000E+00  0.67010740791E+03  0.67010740793E+03  0.50400001928E-02 0. -1.
        1   -1    0    0  501    0  0.00000000000E+00  0.00000000000E+00 -0.21839625809E+04  0.21839625809E+04  0.50400001928E-02 0.  1.
    10030    2    1    2    0    0  0.00000000000E+00  0.00000000000E+00 -0.15138551730E+04  0.28540699889E+04  0.24194954053E+04 0.  0.
        5    1    3    3  502    0  0.33417568917E+03 -0.11584867095E+04 -0.64073373695E+03  0.13654034784E+04  0.46999998093E+01 0. -1.
       -5    1    3    3    0  502 -0.33417568917E+03  0.11584867095E+04 -0.87312143605E+03  0.14886665104E+04  0.46999998093E+01 0.  1.
</event>
<event>
 5   0  0.1876027E-07  0.3962307E+04  0.7818609E-02  0.8012194E-01
        1   -1    0    0  501    0  0.00000000000E+00  0.00000000000E+00  0.19022577966E+04  0.19022577966E+04  0.50400001928E-02 0. -1.
       -1   -1    0    0    0  501  0.00000000000E+00  0.00000000000E+00 -0.20633210599E+04  0.20633210599E+04  0.50400001928E-02 0.  1.
    10030    2    1    2    0    0  0.00000000000E+00  0.00000000000E+00 -0.16106326334E+03  0.39655788565E+04  0.39623066883E+04 0.  0.
        3    1    3    3  502    0 -0.80188928289E+03 -0.18104413807E+04 -0.15330706099E+02  0.19801412717E+04  0.10100000352E+00 0. -1.
       -3    1    3    3    0  502  0.80188928289E+03  0.18104413807E+04 -0.14573255724E+03  0.19854375849E+04  0.10100000352E+00 0.  1.
</event>
<event>
 5   0  0.1860500E-07  0.3959800E+04  0.7818609E-02  0.8012706E-01
        1   -1    0    0  501    0  0.00000000000E+00  0.00000000000E+00  0.27387975432E+04  0.27387975433E+04  0.50400001928E-02 0. -1.
       -1   -1    0    0    0  501  0.00000000000E+00  0.00000000000E+00 -0.14312867308E+04  0.14312867308E+04  0.50400001928E-02 0.  1.
    10030    2    1    2    0    0  0.00000000000E+00  0.00000000000E+00  0.13075108125E+04  0.41700842740E+04  0.39598002889E+04 0.  0.
        4    1    3    3  502    0  0.15752957787E+04 -0.61961974815E+03  0.17351855079E+04  0.24241195892E+04  0.12699999809E+01 0. -1.
       -4    1    3    3    0  502 -0.15752957787E+04  0.61961974815E+03 -0.42767469542E+03  0.17459646849E+04  0.12699999809E+01 0.  1.
</event>
<event>
 5   0  0.6095665E-07  0.3887403E+04  0.7818609E-02  0.8027654E-01
       -2   -1    0    0    0  501  0.00000000000E+00  0.00000000000E+00  0.19606587819E+04  0.19606587819E+04  0.25500000920E-02 0.  1.
        2   -1    0    0  501    0  0.00000000000E+00  0.00000000000E+00 -0.19268905302E+04  0.19268905302E+04  0.25500000920E-02 0. -1.
    10030    2    1    2    0    0  0.00000000000E+00  0.00000000000E+00  0.33768251749E+02  0.38875493121E+04  0.38874026494E+04 0.  0.
        4    1    3    3  502    0 -0.11303640123E+04 -0.18278610042E+03 -0.15537927370E+04  0.19301313534E+04  0.12699999809E+01 0. -1.
       -4    1    3    3    0  502  0.11303640123E+04  0.18278610042E+03  0.15875609888E+04  0.19574179587E+04  0.12699999809E+01 0.  1.
</event>
<event>
 5   0  0.1860500E-07  0.3841570E+04  0.7818609E-02  0.8037292E-01
       -1   -1    0    0    0  501  0.00000000000E+00  0.00000000000E+00  0.19152042056E+04  0.19152042056E+04  0.50400001928E-02 0. -1.
        1   -1    0    0  501    0  0.00000000000E+00  0.00000000000E+00 -0.19263824831E+04  0.19263824831E+04  0.50400001928E-02 0.  1.
    10030    2    1    2    0    0  0.00000000000E+00  0.00000000000E+00 -0.11178277521E+02  0.38415866887E+04  0.38415704254E+04 0.  0.
        4    1    3    3  502    0  0.16814840381E+04  0.39727199966E+03 -0.84475930664E+03  0.19232351680E+04  0.12699999809E+01 0.  1.
       -4    1    3    3    0  502 -0.16814840381E+04 -0.39727199966E+03  0.83358102912E+03  0.19183515208E+04  0.12699999809E+01 0. -1.
</event>
<event>
 5   0  0.5735179E-07  0.4107254E+04  0.7818609E-02  0.7983253E-01
       -2   -1    0    0    0  501  0.00000000000E+00  0.00000000000E+00  0.20473984285E+04  0.20473984285E+04  0.25500000920E-02 0. -1.
        2   -1    0    0  501    0  0.00000000000E+00  0.00000000000E+00 -0.20598746615E+04  0.20598746615E+04  0.25500000920E-02 0.  1.
    10030    2    1    2    0    0  0.00000000000E+00  0.00000000000E+00 -0.12476232949E+02  0.41072730900E+04  0.41072541410E+04 0.  0.
        5    1    3    3  502    0  0.22898304144E+03  0.51906487547E+03 -0.19799494481E+04  0.20596318810E+04  0.46999998093E+01 0.  1.
       -5    1    3    3    0  502 -0.22898304144E+03 -0.51906487547E+03  0.19674732152E+04  0.20476412089E+04  0.46999998093E+01 0. -1.
</event>
<event>
 5   0  0.1876027E-07  0.2665464E+04  0.7818609E-02  0.8346298E-01
        1   -1    0    0  501    0  0.00000000000E+00  0.00000000000E+00  0.15841694837E+04  0.15841694837E+04  0.50400001928E-02 0.  1.
       -1   -1    0    0    0  501  0.00000000000E+00  0.00000000000E+00 -0.11212026526E+04  0.11212026526E+04  0.50400001928E-02 0. -1.
    10030    2    1    2    0    0  0.00000000000E+00  0.00000000000E+00  0.46296683112E+03  0.27053721363E+04  0.26654643328E+04 0.  0.
        3    1    3    3  502    0 -0.11837365356E+04 -0.58739341514E+03  0.55943669824E+02  0.13226461787E+04  0.10100000352E+00 0.  1.
       -3    1    3    3    0  502  0.11837365356E+04  0.58739341514E+03  0.40702316130E+03  0.13827259576E+04  0.10100000352E+00 0. -1.
</event>
<event>
 5   0  0.3959190E-07  0.3920814E+04  0.7818609E-02  0.8020714E-01
       -2   -1    0    0    0  501  0.00000000000E+00  0.00000000000E+00  0.18601170552E+04  0.18601170552E+04  0.25500000920E-02 0.  1.
        2   -1    0    0  501    0  0.00000000000E+00  0.00000000000E+00 -0.20661046825E+04  0.20661046825E+04  0.25500000920E-02 0. -1.
    10030    2    1    2    0    0  0.00000000000E+00  0.00000000000E+00 -0.20598762730E+03  0.39262217377E+04  0.39208144857E+04 0.  0.
        2    1    3    3  502    0  0.11727292388E+04  0.39544413079E+03  0.14194735081E+04  0.18832352398E+04  0.25500000920E-02 0.  1.
       -2    1    3    3    0  502 -0.11727292388E+04 -0.39544413079E+03 -0.16254611354E+04  0.20429864979E+04  0.25500000920E-02 0. -1.
</event>
<event>
 5   0  0.3959190E-07  0.3710243E+04  0.7818609E-02  0.8065696E-01
       -2   -1    0    0    0  501  0.00000000000E+00  0.00000000000E+00  0.21631393015E+04  0.21631393015E+04  0.25500000920E-02 0. -1.
        2   -1    0    0  501    0  0.00000000000E+00  0.00000000000E+00 -0.15909638318E+04  0.15909638318E+04  0.25500000920E-02 0.  1.
    10030    2    1    2    0    0  0.00000000000E+00  0.00000000000E+00  0.57217546973E+03  0.37541031332E+04  0.37102433299E+04 0.  0.
        2    1    3    3  502    0 -0.10775112859E+03  0.12724330726E+03  0.21555422659E+04  0.21619814118E+04  0.25500000920E-02 0. -1.
       -2    1    3    3    0  502  0.10775112859E+03 -0.12724330726E+03 -0.15833667961E+04  0.15921217215E+04  0.25500000920E-02 0.  1.
</event>
<event>
 5   0  0.3959190E-07  0.3914358E+04  0.7818609E-02  0.8022050E-01
        2   -1    0    0  501    0  0.00000000000E+00  0.00000000000E+00  0.15737131777E+04  0.15737131777E+04  0.25500000920E-02 0.  1.
       -2   -1    0    0    0  501  0.00000000000E+00  0.00000000000E+00 -0.24340838956E+04  0.24340838956E+04  0.25500000920E-02 0. -1.
    10030    2    1    2    0    0  0.00000000000E+00  0.00000000000E+00 -0.86037071781E+03  0.40077970733E+04  0.39143581350E+04 0.  0.
        2    1    3    3  502    0 -0.10411731496E+03  0.14951317714E+04  0.85854651873E+03  0.17272410237E+04  0.25500000920E-02 0.  1.
       -2    1    3    3    0  502  0.10411731496E+03 -0.14951317714E+04 -0.17189172365E+04  0.22805560496E+04  0.25500000920E-02 0. -1.
</event>
<event>
 5   0  0.1860500E-07  0.3889980E+04  0.7818609E-02  0.8027116E-01
        1   -1    0    0  501    0  0.00000000000E+00  0.00000000000E+00  0.19561545636E+04  0.19561545636E+04  0.50400001928E-02 0.  1.
       -1   -1    0    0    0  501  0.00000000000E+00  0.00000000000E+00 -0.19338888858E+04  0.19338888858E+04  0.50400001928E-02 0. -1.
    10030    2    1    2    0    0  0.00000000000E+00  0.00000000000E+00  0.22265677844E+02  0.38900434494E+04  0.38899797272E+04 0.  0.
        4    1    3    3  502    0 -0.10901647480E+03  0.87645943678E+03 -0.17217885683E+04  0.19351028973E+04  0.12699999809E+01 0. -1.
       -4    1    3    3    0  502  0.10901647480E+03 -0.87645943678E+03  0.17440542462E+04  0.19549405522E+04  0.12699999809E+01 0.  1.
</event>
<event>
 5   0  0.5735179E-07  0.3676346E+04  0.7818609E-02  0.8073224E-01
        2   -1    0    0  501    0  0.00000000000E+00  0.00000000000E+00  0.13050793247E+04  0.13050793247E+04  0.25500000920E-02 0. -1.
       -2   -1    0    0    0  501  0.00000000000E+00  0.00000000000E+00 -0.25890232635E+04  0.25890232635E+04  0.25500000920E-02 0.  1.
    10030    2    1    2    0    0  0.00000000000E+00  0.00000000000E+00 -0.12839439388E+04  0.38941025882E+04  0.36763464104E+04 0.  0.
        5    1    3    3  502    0  0.15400616364E+04  0.12951910393E+03  0.41210651322E+03  0.15995058332E+04  0.46999998093E+01 0. -1.
       -5    1    3    3    0  502 -0.15400616364E+04 -0.12951910393E+03 -0.16960504521E+04  0.22945967550E+04  0.46999998093E+01 0.  1.
</event>
<event>
 5   0  0.5735179E-07  0.3896152E+04  0.7818609E-02  0.8025830E-01
       -2   -1    0    0    0  501  0.00000000000E+00  0.00000000000E+00  0.25954527362E+04  0.25954527362E+04  0.25500000920E-02 0. -1.
        2   -1    0    0  501    0  0.00000000000E+00  0.00000000000E+00 -0.14621727963E+04  0.14621727963E+04  0.25500000920E-02 0.  1.
    10030    2    1    2    0    0  0.00000000000E+00  0.00000000000E+00  0.11332799399E+04  0.40576255325E+04  0.38961521454E+04 0.  0.
        5    1    3    3  502    0 -0.15921814151E+04 -0.88668002297E+03  0.12834496677E+04  0.22290150877E+04  0.46999998093E+01 0. -1.
       -5    1    3    3    0  502  0.15921814151E+04  0.88668002297E+03 -0.15016972777E+03  0.18286104448E+04  0.46999998093E+01 0.  1.
</event>
<event>
 5   0  0.1860500E-07  0.2493670E+04  0.7818609E-02  0.8405244E-01
       -1   -1    0    0    0  501  0.00000000000E+00  0.00000000000E+00  0.10129179936E+04  0.10129179936E+04  0.50400001928E-02 0.  1.
        1   -1    0    0  501    0  0.00000000000E+00  0.00000000000E+00 -0.15347715165E+04  0.15347715165E+04  0.50400001928E-02 0. -1.
    10030    2    1    2    0    0  0.00000000000E+00  0.00000000000E+00 -0.52185352289E+03  0.25476895101E+04  0.24936701347E+04 0.  0.
        4    1    3    3  502    0 -0.78243197484E+03 -0.78384546400E+03  0.32417697870E+03  0.11539955949E+04  0.12699999809E+01 0.  1.
       -4    1    3    3    0  502  0.78243197484E+03  0.78384546400E+03 -0.84603050158E+03  0.13936939152E+04  0.12699999809E+01 0. -1.
</event>
<event>
 5   0  0.1860500E-07  0.2851556E+04  0.7818609E-02  0.8287439E-01
        1   -1    0    0  501    0  0.00000000000E+00  0.00000000000E+00  0.14908664066E+04  0.14908664067E+04  0.50400001928E-02 0.  1.
       -1   -1    0    0    0  501  0.00000000000E+00  0.00000000000E+00 -0.13635316841E+04  0.13635316841E+04  0.50400001928E-02 0. -1.
    10030    2    1    2    0    0  0.00000000000E+00  0.00000000000E+00  0.12733472256E+03  0.28543980908E+04  0.28515564748E+04 0.  0.
        5    1    3    3  502    0 -0.88283215983E+03 -0.16678931082E+03 -0.10445086573E+04  0.13777633040E+04  0.46999998093E+01 0. -1.
       -5    1    3    3    0  502  0.88283215983E+03  0.16678931082E+03  0.11718433798E+04  0.14766347868E+04  0.46999998093E+01 0.  1.
</event>
<event>
 5   0  0.1943459E-07  0.3306177E+04  0.7818609E-02  0.8161325E-01
        1   -1    0    0  501    0  0.00000000000E+00  0.00000000000E+00  0.18151837219E+04  0.18151837219E+04  0.50400001928E-02 0. -1.
       -1   -1    0    0    0  501  0.00000000000E+00  0.00000000000E+00 -0.15054683930E+04  0.15054683930E+04  0.50400001928E-02 0.  1.
    10030    2    1    2    0    0  0.00000000000E+00  0.00000000000E+00  0.30971532887E+03  0.33206521149E+04  0.33061770798E+04 0.  0.
        2    1    3    3  502    0  0.75662143872E+02  0.11406830805E+04  0.13541622061E+04  0.17721845080E+04  0.25500000920E-02 0. -1.
       -2    1    3    3    0  502 -0.75662143872E+02 -0.11406830805E+04 -0.10444468772E+04  0.15484676068E+04  0.25500000920E-02 0.  1.
</event>
<event>
 5   0  0.5805753E-07  0.3582877E+04  0.7818609E-02  0.8094425E-01
       -2   -1    0    0    0  501  0.00000000000E+00  0.00000000000E+00  0.16919741508E+04  0.16919741508E+04  0.25500000920E-02 0. -1.
        2   -1    0    0  501    0  0.00000000000E+00  0.00000000000E+00 -0.18967496438E+04  0.18967496438E+04  0.25500000920E-02 0.  1.
    10030    2    1    2    0    0  0.00000000000E+00  0.00000000000E+00 -0.20477549301E+03  0.35887237946E+04  0.35828767034E+04 0.  0.
        1    1    3    3  502    0  0.65382300326E+03 -0.47924784524E+02  0.15675072808E+04  0.16990763315E+04  0.50400001928E-02 0. -1.
       -1    1    3    3    0  502 -0.65382300326E+03  0.47924784524E+02 -0.17722827739E+04  0.18896474632E+04  0.50400001928E-02 0.  1.
</event>
<event>
 5   0  0.1860500E-07  0.3860536E+04  0.7818609E-02  0.8033287E-01
       -1   -1    0    0    0  501  0.00000000000E+00  0.00000000000E+00  0.25244685823E+04  0.25244685823E+04  0.50400001928E-02 0. -1.
        1   -1    0    0  501    0  0.00000000000E+00  0.00000000000E+00 -0.14759280720E+04  0.14759280720E+04  0.50400001928E-02 0.  1.
    10030    2    1    2    0    0  0.00000000000E+00  0.00000000000E+00  0.10485405103E+04  0.40003966543E+04  0.38605357387E+04 0.  0.
        4    1    3    3  502    0 -0.68481197078E+03 -0.14958633796E+04  0.15704800759E+04  0.22744194792E+04  0.12699999809E+01 0. -1.
       -4    1    3    3    0  502  0.68481197078E+03  0.14958633796E+04 -0.52193956565E+03  0.17259771750E+04  0.12699999809E+01 0.  1.
</event>
<event>
 5   0  0.5805753E-07  0.4025991E+04  0.7818609E-02  0.7999324E-01
        2   -1    0    0  501    0  0.00000000000E+00  0.00000000000E+00  0.29744388144E+04  0.29744388144E+04  0.25500000920E-02 0.  1.
       -2   -1    0    0    0  501  0.00000000000E+00  0.00000000000E+00 -0.13623245858E+04  0.13623245858E+04  0.25500000920E-02 0. -1.
    10030    2    1    2    0    0  0.00000000000E+00  0.00000000000E+00  0.16121142286E+04  0.43367634002E+04  0.40259911206E+04 0.  0.
        1    1    3    3  502    0 -0.12884363603E+04 -0.15378581903E+04  0.62881063709E+03  0.21024934923E+04  0.50400001928E-02 0. -1.
       -1    1    3    3    0  502  0.12884363603E+04  0.15378581903E+04  0.98330359155E+03  0.22342699079E+04  0.50400001928E-02 0.  1.
</event>
<event>
 5   0  0.5805753E-07  0.2736945E+04  0.7818609E-02  0.8323116E-01
       -2   -1    0    0    0  501  0.00000000000E+00  0.00000000000E+00  0.15063491559E+04  0.15063491559E+04  0.25500000920E-02 0.  1.
        2   -1    0    0  501    0  0.00000000000E+00  0.00000000000E+00 -0.12432157216E+04  0.12432157216E+04  0.25500000920E-02 0. -1.
    10030    2    1    2    0    0  0.00000000000E+00  0.00000000000E+00  0.26313343427E+03  0.27495648774E+04  0.27369449777E+04 0.  0.
        1    1    3    3  502    0 -0.77099592212E+03 -0.38923992179E+03  0.11979575781E+04  0.14768360734E+04  0.50400001928E-02 0.  1.
       -1    1    3    3    0  502  0.77099592212E+03  0.38923992179E+03 -0.93482414387E+03  0.12727288040E+04  0.50400001928E-02 0. -1.
</event>
<event>
 5   0  0.6095665E-07  0.2583606E+04  0.7818609E-02  0.8373791E-01
       -2   -1    0    0    0  501  0.00000000000E+00  0.00000000000E+00  0.11018974846E+04  0.11018974846E+04  0.25500000920E-02 0.  1.
        2   -1    0    0  501    0  0.00000000000E+00  0.00000000000E+00 -0.15144371788E+04  0.15144371788E+04  0.25500000920E-02 0. -1.
    10030    2    1    2    0    0  0.00000000000E+00  0.00000000000E+00 -0.41253969425E+03  0.26163346634E+04  0.25836056339E+04 0.  0.
        4    1    3    3  502    0  0.59664557658E+03  0.73850215867E+03 -0.10933701778E+04  0.14480439707E+04  0.12699999809E+01 0. -1.
       -4    1    3    3    0  502 -0.59664557658E+03 -0.73850215867E+03  0.68083048357E+03  0.11682906927E+04  0.12699999809E+01 0.  1.
</event>
<event>
 5   0  0.5872444E-07  0.2645896E+04  0.7818609E-02  0.8352776E-01
        2   -1    0    0  501    0  0.00000000000E+00  0.00000000000E+00  0.15344786475E+04  0.15344786475E+04  0.25500000920E-02 0.  1.
       -2   -1    0    0    0  501  0.00000000000E+00  0.00000000000E+00 -0.11405774660E+04  0.11405774660E+04  0.25500000920E-02 0. -1.
    10030    2    1    2    0    0  0.00000000000E+00  0.00000000000E+00  0.39390118150E+03  0.26750561135E+04  0.26458962696E+04 0.  0.
        3    1    3    3  502    0  0.94595102139E+03 -0.11782435359E+03 -0.73048442673E+03  0.12009635386E+04  0.10100000352E+00 0. -1.
       -3    1    3    3    0  502 -0.94595102139E+03  0.11782435359E+03  0.11243856082E+04  0.14740925749E+04  0.10100000352E+00 0.  1.
</event>
<event>
 5   0  0.1860500E-07  0.4057038E+04  0.7818609E-02  0.7993138E-01
        1   -1    0    0  501    0  0.00000000000E+00  0.00000000000E+00  0.17823051452E+04  0.17823051452E+04  0.50400001928E-02 0. -1.
       -1   -1    0    0    0  501  0.00000000000E+00  0.00000000000E+00 -0.23087456334E+04  0.23087456334E+04  0.50400001928E-02 0.  1.
    10030    2    1    2    0    0  0.00000000000E+00  0.00000000000E+00 -0.52644048818E+03  0.40910507786E+04  0.40570379448E+04 0.  0.
        5    1    3    3  502    0 -0.16839041815E+04  0.70918778460E+03 -0.11517353075E+04  0.21598603925E+04  0.46999998093E+01 0.  1.
       -5    1    3    3    0  502  0.16839041815E+04 -0.70918778460E+03  0.62529481935E+03  0.19311903861E+04  0.46999998093E+01 0. -1.
</event>
<event>
 5   0  0.5805753E-07  0.3769348E+04  0.7818609E-02  0.8052765E-01
       -2   -1    0    0    0  501  0.00000000000E+00  0.00000000000E+00  0.14638936184E+04  0.14638936184E+04  0.25500000920E-02 0.  1.
        2   -1    0    0  501    0  0.00000000000E+00  0.00000000000E+00 -0.24264037789E+04  0.24264037789E+04  0.25500000920E-02 0. -1.
    10030    2    1    2    0    0  0.00000000000E+00  0.00000000000E+00 -0.96251016051E+03  0.38902973974E+04  0.37693484889E+04 0.  0.
        1    1    3    3  502    0 -0.53769041074E+03 -0.43010952007E+02 -0.23450336501E+04  0.24062717510E+04  0.50400001928E-02 0. -1.
       -1    1    3    3    0  502  0.53769041074E+03  0.43010952007E+02  0.13825234896E+04  0.14840256463E+04  0.50400001928E-02 0.  1.
</event>
<event>
 5   0  0.1943459E-07  0.3813950E+04  0.7818609E-02  0.8043168E-01
        1   -1    0    0  501    0  0.00000000000E+00  0.00000000000E+00  0.12712571523E+04  0.12712571523E+04  0.50400001928E-02 0. -1.
       -1   -1    0    0    0  501  0.00000000000E+00  0.00000000000E+00 -0.28605969983E+04  0.28605969983E+04  0.50400001928E-02 0.  1.
    10030    2    1    2    0    0  0.00000000000E+00  0.00000000000E+00 -0.15893398460E+04  0.41318541506E+04  0.38139503898E+04 0.  0.
        2    1    3    3  502    0  0.83493657494E+03  0.36780806858E+03  0.10194699146E+04  0.13681084629E+04  0.25500000920E-02 0. -1.
       -2    1    3    3    0  502 -0.83493657494E+03 -0.36780806858E+03 -0.26088097606E+04  0.27637456877E+04  0.25500000920E-02 0.  1.
</event>
<event>
 5   0  0.2666813E-07  0.3850396E+04  0.7818609E-02  0.8035426E-01
       -1   -1    0    0    0  501  0.00000000000E+00  0.00000000000E+00  0.16341890764E+04  0.16341890764E+04  0.50400001928E-02 0.  1.
        1   -1    0    0  501    0  0.00000000000E+00  0.00000000000E+00 -0.22680284093E+04  0.22680284093E+04  0.50400001928E-02 0. -1.
    10030    2    1    2    0    0  0.00000000000E+00  0.00000000000E+00 -0.63383933287E+03  0.39022174857E+04  0.38503959544E+04 0.  0.
        1    1    3    3  502    0  0.12518219003E+04 -0.11854258142E+04 -0.11852443729E+04  0.20921512026E+04  0.50400001928E-02 0. -1.
       -1    1    3    3    0  502 -0.12518219003E+04  0.11854258142E+04  0.55140503999E+03  0.18100662831E+04  0.50400001928E-02 0.  1.
</event>
<event>
 5   0  0.1876027E-07  0.3854170E+04  0.7818609E-02  0.8034629E-01
       -1   -1    0    0    0  501  0.00000000000E+00  0.00000000000E+00  0.27132718626E+04  0.27132718626E+04  0.50400001928E-02 0. -1.
        1   -1    0    0  501    0  0.00000000000E+00  0.00000000000E+00 -0.13687005915E+04  0.13687005915E+04  0.50400001928E-02 0.  1.
    10030    2    1    2    0    0  0.00000000000E+00  0.00000000000E+00  0.13445712711E+04  0.40819724541E+04  0.38541701069E+04 0.  0.
        3    1    3    3  502    0 -0.89407135437E+03 -0.16956741244E+04  0.88139518561E+03  0.21098653527E+04  0.10100000352E+00 0. -1.
       -3    1    3    3    0  502  0.89407135437E+03  0.16956741244E+04  0.46317608547E+03  0.19721071014E+04  0.10100000352E+00 0.  1.
</event>
<event>
 5   0  0.1876027E-07  0.3894975E+04  0.7818609E-02  0.8026075E-01
       -1   -1    0    0    0  501  0.00000000000E+00  0.00000000000E+00  0.23980088071E+04  0.23980088071E+04  0.50400001928E-02 0.  1.
        1   -1    0    0  501    0  0.00000000000E+00  0.00000000000E+00 -0.15816070557E+04  0.15816070558E+04  0.50400001928E-02 0. -1.
    10030    2    1    2    0    0  0.00000000000E+00  0.00000000000E+00  0.81640175139E+03  0.39796158629E+04  0.38949750444E+04 0.  0.
        3    1    3    3  502    0 -0.95354166203E+03 -0.16838790063E+04  0.18431024006E+03  0.19438776926E+04  0.10100000352E+00 0. -1.
       -3    1    3    3    0  502  0.95354166203E+03  0.16838790063E+04  0.63209151133E+03  0.20357381703E+04  0.10100000352E+00 0.  1.
</event>
<event>
 5   0  0.3959190E-07  0.3735957E+04  0.7818609E-02  0.8060040E-01
       -2   -1    0    0    0  501  0.00000000000E+00  0.00000000000E+00  0.21524347758E+04  0.21524347758E+04  0.25500000920E-02 0.  1.
        2   -1    0    0  501    0  0.00000000000E+00  0.00000000000E+00 -0.16211144559E+04  0.16211144559E+04  0.25500000920E-02 0. -1.
    10030    2    1    2    0    0  0.00000000000E+00  0.00000000000E+00  0.53132031991E+03  0.37735492317E+04  0.37359567076E+04 0.  0.
        2    1    3    3  502    0 -0.88279928482E+03  0.93289683276E+03  0.16356681884E+04  0.20796734120E+04  0.25500000920E-02 0.  1.
       -2    1    3    3    0  502  0.88279928482E+03 -0.93289683276E+03 -0.11043478685E+04  0.16938758197E+04  0.25500000920E-02 0. -1.
</event>
<event>
 5   0  0.1860500E-07  0.3847079E+04  0.7818609E-02  0.8036127E-01
        1   -1    0    0  501    0  0.00000000000E+00  0.00000000000E+00  0.27233186985E+04  0.27233186985E+04  0.50400001928E-02 0. -1.
       -1   -1    0    0    0  501  0.00000000000E+00  0.00000000000E+00 -0.13586378463E+04  0.13586378463E+04  0.50400001928E-02 0.  1.
    10030    2    1    2    0    0  0.00000000000E+00  0.00000000000E+00  0.13646808522E+04  0.40819565449E+04  0.38470788146E+04 0.  0.
        5    1    3    3  502    0  0.50266245514E+03 -0.16709788892E+04 -0.17648508796E+03  0.17538554867E+04  0.46999998093E+01 0. -1.
       -5    1    3    3    0  502 -0.50266245514E+03  0.16709788892E+04  0.15411659402E+04  0.23281010582E+04  0.46999998093E+01 0.  1.
</event>
<event>
 5   0  0.5735179E-07  0.3650270E+04  0.7818609E-02  0.8079073E-01
       -2   -1    0    0    0  501  0.00000000000E+00  0.00000000000E+00  0.18491049498E+04  0.18491049498E+04  0.25500000920E-02 0.  1.
        2   -1    0    0  501    0  0.00000000000E+00  0.00000000000E+00 -0.18014759691E+04  0.18014759691E+04  0.25500000920E-02 0. -1.
    10030    2    1    2    0    0  0.00000000000E+00  0.00000000000E+00  0.47628980693E+02  0.36505809189E+04  0.36502701989E+04 0.  0.
        5    1    3    3  502    0 -0.13101933454E+04  0.92098461583E+03 -0.85163238791E+03  0.18138685396E+04  0.46999998093E+01 0. -1.
       -5    1    3    3    0  502  0.13101933454E+04 -0.92098461583E+03  0.89926136860E+03  0.18367123792E+04  0.46999998093E+01 0.  1.
</event>
<event>
 5   0  0.5735179E-07  0.3797390E+04  0.7818609E-02  0.8046715E-01
       -2   -1    0    0    0  501  0.00000000000E+00  0.00000000000E+00  0.12799049756E+04  0.12799049756E+04  0.25500000920E-02 0. -1.
        2   -1    0    0  501    0  0.00000000000E+00  0.00000000000E+00 -0.28166487577E+04  0.28166487577E+04  0.25500000920E-02 0.  1.
    10030    2    1    2    0    0  0.00000000000E+00  0.00000000000E+00 -0.15367437821E+04  0.40965537333E+04  0.37973900298E+04 0.  0.
        5    1    3    3  502    0  0.11635082680E+04  0.99944653625E+02  0.84666159591E+03  0.14424279433E+04  0.46999998093E+01 0. -1.
       -5    1    3    3    0  502 -0.11635082680E+04 -0.99944653625E+02 -0.23834053780E+04  0.26541257901E+04  0.46999998093E+01 0.  1.
</event>
<event>
 5   0  0.5735179E-07  0.4046023E+04  0.7818609E-02  0.7995326E-01
       -2   -1    0    0    0  501  0.00000000000E+00  0.00000000000E+00  0.26040329708E+04  0.26040329708E+04  0.25500000920E-02 0. -1.
        2   -1    0    0  501    0  0.00000000000E+00  0.00000000000E+00 -0.15716297854E+04  0.15716297854E+04  0.25500000920E-02 0.  1.
    10030    2    1    2    0    0  0.00000000000E+00  0.00000000000E+00  0.10324031853E+04  0.41756627562E+04  0.40460231236E+04 0.  0.
        5    1    3    3  502    0 -0.13074830109E+04  0.15437104130E+04  0.51636782752E+03  0.20878724785E+04  0.46999998093E+01 0. -1.
       -5    1    3    3    0  502  0.13074830109E+04 -0.15437104130E+04  0.51603535780E+03  0.20877902777E+04  0.46999998093E+01 0.  1.
</event>
<event>
 5   0  0.2666813E-07  0.3968841E+04  0.7818609E-02  0.8010862E-01
        1   -1    0    0  501    0  0.00000000000E+00  0.00000000000E+00  0.12811718955E+04  0.12811718955E+04  0.50400001928E-02 0. -1.
       -1   -1    0    0    0  501  0.00000000000E+00  0.00000000000E+00 -0.30736895560E+04  0.30736895560E+04  0.50400001928E-02 0.  1.
    10030    2    1    2    0    0  0.00000000000E+00  0.00000000000E+00 -0.17925176605E+04  0.43548614516E+04  0.39688409768E+04 0.  0.
        1    1    3    3  502    0 -0.17977274149E+04 -0.78424084283E+03 -0.12273834243E+04  0.23137259189E+04  0.50400001928E-02 0.  1.
       -1    1    3    3    0  502  0.17977274149E+04  0.78424084283E+03 -0.56513423622E+03  0.20411355327E+04  0.50400001928E-02 0. -1.
</event>
<event>
 5   0  0.1943459E-07  0.3886310E+04  0.7818609E-02  0.8027882E-01
        1   -1    0    0  501    0  0.00000000000E+00  0.00000000000E+00  0.30318604044E+04  0.30318604044E+04  0.50400001928E-02 0.  1.
       -1   -1    0    0    0  501  0.00000000000E+00  0.00000000000E+00 -0.12453910169E+04  0.12453910170E+04  0.50400001928E-02 0. -1.
    10030    2    1    2    0    0  0.00000000000E+00  0.00000000000E+00  0.17864693874E+04  0.42772514213E+04  0.38863101844E+04 0.  0.
        2    1    3    3  502    0  0.25743138095E+03  0.16764983869E+04 -0.15026232151E+03  0.17027908041E+04  0.25500000920E-02 0. -1.
       -2    1    3    3    0  502 -0.25743138095E+03 -0.16764983869E+04  0.19367317089E+04  0.25744606172E+04  0.25500000920E-02 0.  1.
</event>
<event>
 5   0  0.6095665E-07  0.3503652E+04  0.7818609E-02  0.8112925E-01
        2   -1    0    0  501    0  0.00000000000E+00  0.00000000000E+00  0.18379888649E+04  0.18379888649E+04  0.25500000920E-02 0. -1.
       -2   -1    0    0    0  501  0.00000000000E+00  0.00000000000E+00 -0.16697021989E+04  0.16697021989E+04  0.25500000920E-02 0.  1.
    10030    2    1    2    0    0  0.00000000000E+00  0.00000000000E+00  0.16828666600E+03  0.35076910638E+04  0.35036518373E+04 0.  0.
        4    1    3    3  502    0  0.11639487619E+04  0.10647782069E+04  0.84683725210E+03  0.17904369005E+04  0.12699999809E+01 0. -1.
       -4    1    3    3    0  502 -0.11639487619E+04 -0.10647782069E+04 -0.67855058610E+03  0.17172541632E+04  0.12699999809E+01 0.  1.
</event>
<event>
 5   0  0.5805753E-07  0.3968174E+04  0.7818609E-02  0.8010998E-01
       -2   -1    0    0    0  501  0.00000000000E+00  0.00000000000E+00  0.23250883599E+04  0.23250883599E+04  0.25500000920E-02 0.  1.
        2   -1    0    0  501    0  0.00000000000E+00  0.00000000000E+00 -0.16930973448E+04  0.16930973448E+04  0.25500000920E-02 0. -1.
    10030    2    1    2    0    0  0.00000000000E+00  0.00000000000E+00  0.63199101515E+03  0.40181857047E+04  0.39681738513E+04 0.  0.
        1    1    3    3  502    0 -0.45056152293E+03 -0.80719695890E+02  0.22708914528E+04  0.23165641251E+04  0.50400001928E-02 0.  1.
       -1    1    3    3    0  502  0.45056152293E+03  0.80719695890E+02 -0.16389004377E+04  0.17016215795E+04  0.50400001928E-02 0. -1.
</event>
<event>
 5   0  0.1860500E-07  0.4208668E+04  0.7818609E-02  0.7963725E-01
        3   -1    0    0  501    0  0.00000000000E+00  0.00000000000E+00  0.19231892316E+04  0.19231892342E+04  0.10100000352E+00 0.  1.
       -3   -1    0    0    0  501  0.00000000000E+00  0.00000000000E+00 -0.23025406523E+04  0.23025406545E+04  0.10100000352E+00 0. -1.
    10030    2    1    2    0    0  0.00000000000E+00  0.00000000000E+00 -0.37935142070E+03  0.42257298887E+04  0.42086679118E+04 0.  0.
        1    1    3    3  502    0  0.92247454326E+03 -0.17854000103E+04 -0.81639277360E+03  0.21691264695E+04  0.50400001928E-02 0. -1.
       -1    1    3    3    0  502 -0.92247454326E+03  0.17854000103E+04  0.43704135290E+03  0.20566034192E+04  0.50400001928E-02 0.  1.
</event>
<event>
 5   0  0.1943459E-07  0.2811158E+04  0.7818609E-02  0.8299813E-01
       -1   -1    0    0    0  501  0.00000000000E+00  0.00000000000E+00  0.13272888963E+04  0.13272888963E+04  0.50400001928E-02 0. -1.
        1   -1    0    0  501    0  0.00000000000E+00  0.00000000000E+00 -0.14884869145E+04  0.14884869146E+04  0.50400001928E-02 0.  1.
    10030    2    1    2    0    0  0.00000000000E+00  0.00000000000E+00 -0.16119801821E+03  0.28157758109E+04  0.28111578782E+04 0.  0.
        2    1    3    3  502    0  0.13455903215E+04 -0.36407193216E+03 -0.26114623755E+03  0.14182239043E+04  0.25500000920E-02 0.  1.
       -2    1    3    3    0  502 -0.13455903215E+04  0.36407193216E+03  0.99948219337E+02  0.13975519066E+04  0.25500000920E-02 0. -1.
</event>
<event>
 5   0  0.5872444E-07  0.3920666E+04  0.7818609E-02  0.8020745E-01
       -2   -1    0    0    0  501  0.00000000000E+00  0.00000000000E+00  0.19550200465E+04  0.19550200465E+04  0.25500000920E-02 0.  1.
        2   -1    0    0  501    0  0.00000000000E+00  0.00000000000E+00 -0.19656606844E+04  0.19656606844E+04  0.25500000920E-02 0. -1.
    10030    2    1    2    0    0  0.00000000000E+00  0.00000000000E+00 -0.10640637921E+02  0.39206807308E+04  0.39206662916E+04 0.  0.
        3    1    3    3  502    0  0.19061366628E+04  0.34018229055E+03 -0.31163021947E+03  0.19611716835E+04  0.10100000352E+00 0. -1.
       -3    1    3    3    0  502 -0.19061366628E+04 -0.34018229055E+03  0.30098958155E+03  0.19595090473E+04  0.10100000352E+00 0.  1.
</event>
<event>
 5   0  0.1860500E-07  0.2731704E+04  0.7818609E-02  0.8324791E-01
        1   -1    0    0  501    0  0.00000000000E+00  0.00000000000E+00  0.13598217301E+04  0.13598217301E+04  0.50400001928E-02 0.  1.
       -1   -1    0    0    0  501  0.00000000000E+00  0.00000000000E+00 -0.13719091856E+04  0.13719091856E+04  0.50400001928E-02 0. -1.
    10030    2    1    2    0    0  0.00000000000E+00  0.00000000000E+00 -0.12087455522E+02  0.27317309157E+04  0.27317041731E+04 0.  0.
        5    1    3    3  502    0  0.79892006142E+03  0.28072649107E+03 -0.10777114426E+04  0.13706074095E+04  0.46999998093E+01 0. -1.
       -5    1    3    3    0  502 -0.79892006142E+03 -0.28072649107E+03  0.10656239871E+04  0.13611235062E+04  0.46999998093E+01 0.  1.
</event>
<event>
 5   0  0.1860500E-07  0.2653317E+04  0.7818609E-02  0.8350313E-01
        4   -1    0    0  501    0  0.00000000000E+00  0.00000000000E+00  0.12572104135E+04  0.12572110549E+04  0.12699999809E+01 0. -1.
       -4   -1    0    0    0  501  0.00000000000E+00  0.00000000000E+00 -0.13999416499E+04  0.13999422260E+04  0.12699999809E+01 0.  1.
    10030    2    1    2    0    0  0.00000000000E+00  0.00000000000E+00 -0.14273123647E+03  0.26571532810E+04  0.26533170471E+04 0.  0.
        3    1    3    3  502    0 -0.17445993070E+03  0.13136272811E+04 -0.82671643060E+01  0.13251872536E+04  0.10100000352E+00 0.  1.
       -3    1    3    3    0  502  0.17445993070E+03 -0.13136272811E+04 -0.13446407216E+03  0.13319660273E+04  0.10100000352E+00 0. -1.
</event>
<event>
 5   0  0.5735179E-07  0.2859245E+04  0.7818609E-02  0.8285108E-01
        2   -1    0    0  501    0  0.00000000000E+00  0.00000000000E+00  0.16650398064E+04  0.16650398064E+04  0.25500000920E-02 0. -1.
       -2   -1    0    0    0  501  0.00000000000E+00  0.00000000000E+00 -0.12274900753E+04  0.12274900753E+04  0.25500000920E-02 0.  1.
    10030    2    1    2    0    0  0.00000000000E+00  0.00000000000E+00  0.43754973107E+03  0.28925298818E+04  0.28592445418E+04 0.  0.
        5    1    3    3  502    0  0.27453349769E+03 -0.30746748543E+03 -0.11660630025E+04  0.12367820793E+04  0.46999998093E+01 0.  1.
       -5    1    3    3    0  502 -0.27453349769E+03  0.30746748543E+03  0.16036127336E+04  0.16557478024E+04  0.46999998093E+01 0. -1.
</event>
<event>
 5   0  0.5805753E-07  0.2883200E+04  0.7818609E-02  0.8277894E-01
        2   -1    0    0  501    0  0.00000000000E+00  0.00000000000E+00  0.17151523048E+04  0.17151523048E+04  0.25500000920E-02 0. -1.
       -2   -1    0    0    0  501  0.00000000000E+00  0.00000000000E+00 -0.12116765777E+04  0.12116765777E+04  0.25500000920E-02 0.  1.
    10030    2    1    2    0    0  0.00000000000E+00  0.00000000000E+00  0.50347572708E+03  0.29268288824E+04  0.28831995247E+04 0.  0.
        1    1    3    3  502    0  0.39541817182E+03 -0.76722960453E+03 -0.92038305558E+03  0.12617851504E+04  0.50400001928E-02 0.  1.
       -1    1    3    3    0  502 -0.39541817182E+03  0.76722960453E+03  0.14238587827E+04  0.16650437321E+04  0.50400001928E-02 0. -1.
</event>
<event>
 5   0  0.1943459E-07  0.3852296E+04  0.7818609E-02  0.8035025E-01
        1   -1    0    0  501    0  0.00000000000E+00  0.00000000000E+00  0.18562393387E+04  0.18562393387E+04  0.50400001928E-02 0.  1.
       -1   -1    0    0    0  501  0.00000000000E+00  0.00000000000E+00 -0.19986893961E+04  0.19986893961E+04  0.50400001928E-02 0. -1.
    10030    2    1    2    0    0  0.00000000000E+00  0.00000000000E+00 -0.14245005742E+03  0.38549287348E+04  0.38522958779E+04 0.  0.
        2    1    3    3  502    0  0.70150714737E+03 -0.17673955227E+04 -0.37843105307E+03  0.19388164620E+04  0.25500000920E-02 0. -1.
       -2    1    3    3    0  502 -0.70150714737E+03  0.17673955227E+04  0.23598099564E+03  0.19161122727E+04  0.25500000920E-02 0.  1.
</event>
<event>
 5   0  0.1860500E-07  0.3780163E+04  0.7818609E-02  0.8050425E-01
        1   -1    0    0  501    0  0.00000000000E+00  0.00000000000E+00  0.23425086704E+04  0.23425086704E+04  0.50400001928E-02 0.  1.
       -1   -1    0    0    0  501  0.00000000000E+00  0.00000000000E+00 -0.15250354085E+04  0.15250354085E+04  0.50400001928E-02 0. -1.
    10030    2    1    2    0    0  0.00000000000E+00  0.00000000000E+00  0.81747326194E+03  0.38675440790E+04  0.37801633124E+04 0.  0.
        5    1    3    3  502    0 -0.12040483785E+04  0.11843897312E+04 -0.45933041251E+03  0.17502908475E+04  0.46999998093E+01 0. -1.
       -5    1    3    3    0  502  0.12040483785E+04 -0.11843897312E+04  0.12768036745E+04  0.21172532314E+04  0.46999998093E+01 0.  1.
</event>
<event>
 5   0  0.1876027E-07  0.3873561E+04  0.7818609E-02  0.8030551E-01
       -1   -1    0    0    0  501  0.00000000000E+00  0.00000000000E+00  0.22076276518E+04  0.22076276518E+04  0.50400001928E-02 0.  1.
        1   -1    0    0  501    0  0.00000000000E+00  0.00000000000E+00 -0.16991627301E+04  0.16991627301E+04  0.50400001928E-02 0. -1.
    10030    2    1    2    0    0  0.00000000000E+00  0.00000000000E+00  0.50846492162E+03  0.39067903819E+04  0.38735609601E+04 0.  0.
        3    1    3    3  502    0  0.11064471078E+04 -0.11582875162E+04 -0.84380500814E+03  0.18104866955E+04  0.10100000352E+00 0. -1.
       -3    1    3    3    0  502 -0.11064471078E+04  0.11582875162E+04  0.13522699298E+04  0.20963036864E+04  0.10100000352E+00 0.  1.
</event>
<event>
 5   0  0.1876027E-07  0.3885828E+04  0.7818609E-02  0.8027983E-01
        1   -1    0    0  501    0  0.00000000000E+00  0.00000000000E+00  0.29964317963E+04  0.29964317963E+04  0.50400001928E-02 0. -1.
       -1   -1    0    0    0  501  0.00000000000E+00  0.00000000000E+00 -0.12598032599E+04  0.12598032599E+04  0.50400001928E-02 0.  1.
    10030    2    1    2    0    0  0.00000000000E+00  0.00000000000E+00  0.17366285364E+04  0.42562350562E+04  0.38858278629E+04 0.  0.
        3    1    3    3  502    0  0.14561914349E+04 -0.12849179145E+04  0.93224764659E+03  0.21542036178E+04  0.10100000352E+00 0. -1.
       -3    1    3    3    0  502 -0.14561914349E+04  0.12849179145E+04  0.80438088982E+03  0.21020314384E+04  0.10100000352E+00 0.  1.
</event>
<event>
 5   0  0.1860500E-07  0.3895915E+04  0.7818609E-02  0.8025879E-01
       -1   -1    0    0    0  501  0.00000000000E+00  0.00000000000E+00  0.16120246612E+04  0.16120246612E+04  0.50400001928E-02 0.  1.
        1   -1    0    0  501    0  0.00000000000E+00  0.00000000000E+00 -0.23538958858E+04  0.23538958858E+04  0.50400001928E-02 0. -1.
    10030    2    1    2    0    0  0.00000000000E+00  0.00000000000E+00 -0.74187122462E+03  0.39659205470E+04  0.38959148953E+04 0.  0.
        5    1    3    3  502    0  0.95570134614E+03  0.46519154209E+03  0.12908026195E+04  0.16721129526E+04  0.46999998093E+01 0.  1.
       -5    1    3    3    0  502 -0.95570134614E+03 -0.46519154209E+03 -0.20326738441E+04  0.22938075944E+04  0.46999998093E+01 0. -1.
</event>
<event>
 5   0  0.1860500E-07  0.3703827E+04  0.7818609E-02  0.8067114E-01
        1   -1    0    0  501    0  0.00000000000E+00  0.00000000000E+00  0.22502116247E+04  0.22502116247E+04  0.50400001928E-02 0. -1.
       -1   -1    0    0    0  501  0.00000000000E+00  0.00000000000E+00 -0.15241160200E+04  0.15241160200E+04  0.50400001928E-02 0.  1.
    10030    2    1    2    0    0  0.00000000000E+00  0.00000000000E+00  0.72609560471E+03  0.37743276447E+04  0.37038269861E+04 0.  0.
        4    1    3    3  502    0  0.93414432379E+03 -0.33325955878E+02  0.19921796177E+04  0.22005720799E+04  0.12699999809E+01 0. -1.
       -4    1    3    3    0  502 -0.93414432379E+03  0.33325955878E+02 -0.12660840130E+04  0.15737555648E+04  0.12699999809E+01 0.  1.
</event>
<event>
 5   0  0.1860500E-07  0.3708122E+04  0.7818609E-02  0.8066164E-01
        1   -1    0    0  501    0  0.00000000000E+00  0.00000000000E+00  0.24084226716E+04  0.24084226716E+04  0.50400001928E-02 0. -1.
       -1   -1    0    0    0  501  0.00000000000E+00  0.00000000000E+00 -0.14272998522E+04  0.14272998522E+04  0.50400001928E-02 0.  1.
    10030    2    1    2    0    0  0.00000000000E+00  0.00000000000E+00  0.98112281940E+03  0.38357225237E+04  0.37081215315E+04 0.  0.
        5    1    3    3  502    0 -0.17284736190E+04 -0.39793772339E+03  0.10490895910E+04  0.20607247616E+04  0.46999998093E+01 0.  1.
       -5    1    3    3    0  502  0.17284736190E+04  0.39793772339E+03 -0.67966771570E+02  0.17749977621E+04  0.46999998093E+01 0. -1.
</event>
<event>
 5   0  0.6095665E-07  0.3888635E+04  0.7818609E-02  0.8027397E-01
       -2   -1    0    0    0  501  0.00000000000E+00  0.00000000000E+00  0.14009555153E+04  0.14009555153E+04  0.25500000920E-02 0.  1.
        2   -1    0    0  501    0  0.00000000000E+00  0.00000000000E+00 -0.26984230255E+04  0.26984230255E+04  0.25500000920E-02 0. -1.
    10030    2    1    2    0    0  0.00000000000E+00  0.00000000000E+00 -0.12974675102E+04  0.40993785409E+04  0.38886350409E+04 0.  0.
        4    1    3    3  502    0  0.12699657921E+04  0.92360005322E+03  0.55992651000E+03  0.16671441092E+04  0.12699999809E+01 0.  1.
       -4    1    3    3    0  502 -0.12699657921E+04 -0.92360005322E+03 -0.18573940202E+04  0.24322344317E+04  0.12699999809E+01 0. -1.
</event>
<event>
 5   0  0.1860500E-07  0.3899594E+04  0.7818609E-02  0.8025114E-01
        1   -1    0    0  501    0  0.00000000000E+00  0.00000000000E+00  0.13302095582E+04  0.13302095582E+04  0.50400001928E-02 0.  1.
       -1   -1    0    0    0  501  0.00000000000E+00  0.00000000000E+00 -0.28579769155E+04  0.28579769155E+04  0.50400001928E-02 0. -1.
    10030    2    1    2    0    0  0.00000000000E+00  0.00000000000E+00 -0.15277673573E+04  0.41881864737E+04  0.38995939328E+04 0.  0.
        5    1    3    3  502    0 -0.11269913591E+04 -0.12174813673E+04 -0.18640534622E+04  0.24954133532E+04  0.46999998093E+01 0.  1.
       -5    1    3    3    0  502  0.11269913591E+04  0.12174813673E+04  0.33628610496E+03  0.16927731205E+04  0.46999998093E+01 0. -1.
</event>
<event>
 5   0  0.5872444E-07  0.3863715E+04  0.7818609E-02  0.8032618E-01
        2   -1    0    0  501    0  0.00000000000E+00  0.00000000000E+00  0.26213214352E+04  0.26213214352E+04  0.25500000920E-02 0.  1.
       -2   -1    0    0    0  501  0.00000000000E+00  0.00000000000E+00 -0.14237377172E+04  0.14237377172E+04  0.25500000920E-02 0. -1.
    10030    2    1    2    0    0  0.00000000000E+00  0.00000000000E+00  0.11975837180E+04  0.40450591524E+04  0.38637154120E+04 0.  0.
        3    1    3    3  502    0  0.18671968502E+04 -0.36662085815E+02  0.81319909230E+02  0.18693263823E+04  0.10100000352E+00 0.  1.
       -3    1    3    3    0  502 -0.18671968502E+04  0.36662085815E+02  0.11162638088E+04  0.21757327701E+04  0.10100000352E+00 0. -1.
</event>
<event>
 5   0  0.5872444E-07  0.3610840E+04  0.7818609E-02  0.8088013E-01
       -2   -1    0    0    0  501  0.00000000000E+00  0.00000000000E+00  0.20307857767E+04  0.20307857767E+04  0.25500000920E-02 0.  1.
        2   -1    0    0  501    0  0.00000000000E+00  0.00000000000E+00 -0.16050639924E+04  0.16050639924E+04  0.25500000920E-02 0. -1.
    10030    2    1    2    0    0  0.00000000000E+00  0.00000000000E+00  0.42572178429E+03  0.36358497690E+04  0.36108398615E+04 0.  0.
        3    1    3    3  502    0 -0.13727544527E+04 -0.74215327781E+03 -0.70133442616E+03  0.17108817208E+04  0.10100000352E+00 0. -1.
       -3    1    3    3    0  502  0.13727544527E+04  0.74215327781E+03  0.11270562104E+04  0.19249680482E+04  0.10100000352E+00 0.  1.
</event>
<event>
 5   0  0.5735179E-07  0.3613020E+04  0.7818609E-02  0.8087516E-01
       -2   -1    0    0    0  501  0.00000000000E+00  0.00000000000E+00  0.29876761876E+04  0.29876761876E+04  0.25500000920E-02 0.  1.
        2   -1    0    0  501    0  0.00000000000E+00  0.00000000000E+00 -0.10923131591E+04  0.10923131591E+04  0.25500000920E-02 0. -1.
    10030    2    1    2    0    0  0.00000000000E+00  0.00000000000E+00  0.18953630285E+04  0.40799893467E+04  0.36130197978E+04 0.  0.
        5    1    3    3  502    0 -0.20247308398E+03  0.17396115483E+04  0.14478907790E+04  0.22723673749E+04  0.46999998093E+01 0.  1.
       -5    1    3    3    0  502  0.20247308398E+03 -0.17396115483E+04  0.44747224951E+03  0.18076219718E+04  0.46999998093E+01 0. -1.
</event>
<event>
 5   0  0.5735179E-07  0.3914520E+04  0.7818609E-02  0.8022016E-01
        2   -1    0    0  501    0  0.00000000000E+00  0.00000000000E+00  0.18885268294E+04  0.18885268294E+04  0.25500000920E-02 0. -1.
       -2   -1    0    0    0  501  0.00000000000E+00  0.00000000000E+00 -0.20284949397E+04  0.20284949397E+04  0.25500000920E-02 0.  1.
    10030    2    1    2    0    0  0.00000000000E+00  0.00000000000E+00 -0.13996811030E+03  0.39170217690E+04  0.39145202091E+04 0.  0.
        5    1    3    3  502    0  0.14692206130E+04 -0.60915440007E+03 -0.12113999641E+04  0.19992974406E+04  0.46999998093E+01 0.  1.
       -5    1    3    3    0  502 -0.14692206130E+04  0.60915440007E+03  0.10714318538E+04  0.19177243285E+04  0.46999998093E+01 0. -1.
</event>
<event>
 5   0  0.1860500E-07  0.3816830E+04  0.7818609E-02  0.8042553E-01
        1   -1    0    0  501    0  0.00000000000E+00  0.00000000000E+00  0.22361219294E+04  0.22361219295E+04  0.50400001928E-02 0.  1.
       -1   -1    0    0    0  501  0.00000000000E+00  0.00000000000E+00 -0.16287336690E+04  0.16287336690E+04  0.50400001928E-02 0. -1.
    10030    2    1    2    0    0  0.00000000000E+00  0.00000000000E+00  0.60738826044E+03  0.38648555985E+04  0.38168296134E+04 0.  0.
        5    1    3    3  502    0 -0.34281727767E+03 -0.17252927664E+04 -0.44579914525E+03  0.18146398495E+04  0.46999998093E+01 0.  1.
       -5    1    3    3    0  502  0.34281727767E+03  0.17252927664E+04  0.10531874057E+04  0.20502157489E+04  0.46999998093E+01 0. -1.
</event>
<event>
 5   0  0.1943459E-07  0.3936899E+04  0.7818609E-02  0.8017398E-01
        1   -1    0    0  501    0  0.00000000000E+00  0.00000000000E+00  0.22583418199E+04  0.22583418199E+04  0.50400001928E-02 0.  1.
       -1   -1    0    0    0  501  0.00000000000E+00  0.00000000000E+00 -0.17157690453E+04  0.17157690453E+04  0.50400001928E-02 0. -1.
    10030    2    1    2    0    0  0.00000000000E+00  0.00000000000E+00  0.54257277459E+03  0.39741108652E+04  0.39368987735E+04 0.  0.
        2    1    3    3  502    0 -0.55220090370E+03  0.16920580466E+04  0.11199509428E+04  0.21029209175E+04  0.25500000920E-02 0. -1.
       -2    1    3    3    0  502  0.55220090370E+03 -0.16920580466E+04 -0.57737816821E+03  0.18711899477E+04  0.25500000920E-02 0.  1.
</event>
<event>
 5   0  0.5735179E-07  0.3892837E+04  0.7818609E-02  0.8026521E-01
        2   -1    0    0  501    0  0.00000000000E+00  0.00000000000E+00  0.18871670672E+04  0.18871670672E+04  0.25500000920E-02 0.  1.
       -2   -1    0    0    0  501  0.00000000000E+00  0.00000000000E+00 -0.20075298607E+04  0.20075298607E+04  0.25500000920E-02 0. -1.
    10030    2    1    2    0    0  0.00000000000E+00  0.00000000000E+00 -0.12036279354E+03  0.38946969279E+04  0.38928366210E+04 0.  0.
        5    1    3    3  502    0 -0.15768988576E+04  0.23643872180E+03  0.10565997108E+04  0.19128351510E+04  0.46999998093E+01 0.  1.
       -5    1    3    3    0  502  0.15768988576E+04 -0.23643872180E+03 -0.11769625043E+04  0.19818617769E+04  0.46999998093E+01 0. -1.
</event>
<event>
 5   0  0.6095665E-07  0.3898641E+04  0.7818609E-02  0.8025312E-01
       -2   -1    0    0    0  501  0.00000000000E+00  0.00000000000E+00  0.15822026337E+04  0.15822026337E+04  0.25500000920E-02 0.  1.
        2   -1    0    0  501    0  0.00000000000E+00  0.00000000000E+00 -0.24016203980E+04  0.24016203980E+04  0.25500000920E-02 0. -1.
    10030    2    1    2    0    0  0.00000000000E+00  0.00000000000E+00 -0.81941776430E+03  0.39838230318E+04  0.38986408498E+04 0.  0.
        4    1    3    3  502    0  0.16238890402E+04 -0.58764625847E+03 -0.13336237495E+04  0.21819481337E+04  0.12699999809E+01 0.  1.
       -4    1    3    3    0  502 -0.16238890402E+04  0.58764625847E+03  0.51420598524E+03  0.18018748980E+04  0.12699999809E+01 0. -1.
</event>
<event>
 5   0  0.1943459E-07  0.3837067E+04  0.7818609E-02  0.8038247E-01
        1   -1    0    0  501    0  0.00000000000E+00  0.00000000000E+00  0.20927333164E+04  0.20927333164E+04  0.50400001928E-02 0.  1.
       -1   -1    0    0    0  501  0.00000000000E+00  0.00000000000E+00 -0.17588343106E+04  0.17588343106E+04  0.50400001928E-02 0. -1.
    10030    2    1    2    0    0  0.00000000000E+00  0.00000000000E+00  0.33389900582E+03  0.38515676269E+04  0.38370671924E+04 0.  0.
        2    1    3    3  502    0  0.18084189324E+04 -0.56431287075E+03  0.47131660884E+03  0.19521699201E+04  0.25500000920E-02 0. -1.
       -2    1    3    3    0  502 -0.18084189324E+04  0.56431287075E+03 -0.13741760302E+03  0.18993977068E+04  0.25500000920E-02 0.  1.
</event>
<event>
 5   0  0.5805753E-07  0.3833861E+04  0.7818609E-02  0.8038927E-01
       -2   -1    0    0    0  501  0.00000000000E+00  0.00000000000E+00  0.13333791420E+04  0.13333791420E+04  0.25500000920E-02 0.  1.
        2   -1    0    0  501    0  0.00000000000E+00  0.00000000000E+00 -0.27558718188E+04  0.27558718188E+04  0.25500000920E-02 0. -1.
    10030    2    1    2    0    0  0.00000000000E+00  0.00000000000E+00 -0.14224926768E+04  0.40892509608E+04  0.38338607180E+04 0.  0.
        1    1    3    3  502    0  0.14548325140E+04  0.54450984516E+03 -0.19092747980E+04  0.24613733706E+04  0.50400001928E-02 0. -1.
       -1    1    3    3    0  502 -0.14548325140E+04 -0.54450984516E+03  0.48678212115E+03  0.16278775902E+04  0.50400001928E-02 0.  1.
</event>
<event>
 5   0  0.1860500E-07  0.3741658E+04  0.7818609E-02  0.8058792E-01
        1   -1    0    0  501    0  0.00000000000E+00  0.00000000000E+00  0.14725586256E+04  0.14725586256E+04  0.50400001928E-02 0.  1.
       -1   -1    0    0    0  501  0.00000000000E+00  0.00000000000E+00 -0.23768160755E+04  0.23768160755E+04  0.50400001928E-02 0. -1.
    10030    2    1    2    0    0  0.00000000000E+00  0.00000000000E+00 -0.90425744988E+03  0.38493747011E+04  0.37416579285E+04 0.  0.
        4    1    3    3  502    0 -0.17554265061E+03 -0.16678636783E+03  0.14563686612E+04  0.14763618137E+04  0.12699999809E+01 0.  1.
       -4    1    3    3    0  502  0.17554265061E+03  0.16678636783E+03 -0.23606261111E+04  0.23730128874E+04  0.12699999809E+01 0. -1.
</event>
<event>
 5   0  0.5872444E-07  0.3905854E+04  0.7818609E-02  0.8023813E-01
       -2   -1    0    0    0  501  0.00000000000E+00  0.00000000000E+00  0.16118056532E+04  0.16118056532E+04  0.25500000920E-02 0.  1.
        2   -1    0    0  501    0  0.00000000000E+00  0.00000000000E+00 -0.23662428599E+04  0.23662428599E+04  0.25500000920E-02 0. -1.
    10030    2    1    2    0    0  0.00000000000E+00  0.00000000000E+00 -0.75443720672E+03  0.39780485131E+04  0.39058538726E+04 0.  0.
        3    1    3    3  502    0 -0.12255889779E+04 -0.20374194409E+03  0.11573982499E+04  0.16979840522E+04  0.10100000352E+00 0.  1.
       -3    1    3    3    0  502  0.12255889779E+04  0.20374194409E+03 -0.19118354566E+04  0.22800644609E+04  0.10100000352E+00 0. -1.
</event>
<event>
 5   0  0.1860500E-07  0.3917873E+04  0.7818609E-02  0.8021322E-01
       -1   -1    0    0    0  501  0.00000000000E+00  0.00000000000E+00  0.23807593271E+04  0.23807593271E+04  0.50400001928E-02 0. -1.
        1   -1    0    0  501    0  0.00000000000E+00  0.00000000000E+00 -0.16118521372E+04  0.16118521372E+04  0.50400001928E-02 0.  1.
    10030    2    1    2    0    0  0.00000000000E+00  0.00000000000E+00  0.76890718987E+03  0.39926114643E+04  0.39178728971E+04 0.  0.
        4    1    3    3  502    0  0.18996763236E+04  0.42824098358E+03  0.60127970620E+03  0.20380626517E+04  0.12699999809E+01 0. -1.
       -4    1    3    3    0  502 -0.18996763236E+04 -0.42824098358E+03  0.16762748368E+03  0.19545488125E+04  0.12699999809E+01 0.  1.
</event>
<event>
 5   0  0.5872444E-07  0.3949646E+04  0.7818609E-02  0.8014782E-01
       -2   -1    0    0    0  501  0.00000000000E+00  0.00000000000E+00  0.16789939383E+04  0.16789939383E+04  0.25500000920E-02 0. -1.
        2   -1    0    0  501    0  0.00000000000E+00  0.00000000000E+00 -0.23227753129E+04  0.23227753129E+04  0.25500000920E-02 0.  1.
    10030    2    1    2    0    0  0.00000000000E+00  0.00000000000E+00 -0.64378137457E+03  0.40017692512E+04  0.39496458932E+04 0.  0.
        3    1    3    3  502    0  0.16717536293E+04 -0.48709105026E+03  0.62201949498E+03  0.18490338425E+04  0.10100000352E+00 0. -1.
       -3    1    3    3    0  502 -0.16717536293E+04  0.48709105026E+03 -0.12658008696E+04  0.21527354087E+04  0.10100000352E+00 0.  1.
</event>
<event>
 5   0  0.3959190E-07  0.3423643E+04  0.7818609E-02  0.8132128E-01
        2   -1    0    0  501    0  0.00000000000E+00  0.00000000000E+00  0.23438489312E+04  0.23438489312E+04  0.25500000920E-02 0.  1.
       -2   -1    0    0    0  501  0.00000000000E+00  0.00000000000E+00 -0.12502227287E+04  0.12502227287E+04  0.25500000920E-02 0. -1.
    10030    2    1    2    0    0  0.00000000000E+00  0.00000000000E+00  0.10936262026E+04  0.35940716599E+04  0.34236432094E+04 0.  0.
        2    1    3    3  502    0  0.65543360076E+03  0.13579966682E+04 -0.30382283900E+03  0.15381991007E+04  0.25500000920E-02 0. -1.
       -2    1    3    3    0  502 -0.65543360076E+03 -0.13579966682E+04  0.13974490416E+04  0.20558725592E+04  0.25500000920E-02 0.  1.
</event>
<event>
 5   0  0.3959190E-07  0.2711410E+04  0.7818609E-02  0.8331312E-01
        2   -1    0    0  501    0  0.00000000000E+00  0.00000000000E+00  0.19040557171E+04  0.19040557171E+04  0.25500000920E-02 0.  1.
       -2   -1    0    0    0  501  0.00000000000E+00  0.00000000000E+00 -0.96527429408E+03  0.96527429409E+03  0.25500000920E-02 0. -1.
    10030    2    1    2    0    0  0.00000000000E+00  0.00000000000E+00  0.93878142302E+03  0.28693300112E+04  0.27114099935E+04 0.  0.
        2    1    3    3  502    0 -0.85826121037E+03 -0.88964908697E+03  0.10584511030E+04  0.16273925589E+04  0.25500000920E-02 0.  1.
       -2    1    3    3    0  502  0.85826121037E+03  0.88964908697E+03 -0.11966967999E+03  0.12419374523E+04  0.25500000920E-02 0. -1.
</event>
<event>
 5   0  0.3959190E-07  0.3787945E+04  0.7818609E-02  0.8048747E-01
        2   -1    0    0  501    0  0.00000000000E+00  0.00000000000E+00  0.23761483254E+04  0.23761483254E+04  0.25500000920E-02 0. -1.
       -2   -1    0    0    0  501  0.00000000000E+00  0.00000000000E+00 -0.15096417641E+04  0.15096417641E+04  0.25500000920E-02 0.  1.
    10030    2    1    2    0    0  0.00000000000E+00  0.00000000000E+00  0.86650656126E+03  0.38857900895E+04  0.37879454852E+04 0.  0.
        2    1    3    3  502    0 -0.72667313743E+03  0.11589456659E+04 -0.91051572812E+03  0.16432430728E+04  0.25500000920E-02 0.  1.
       -2    1    3    3    0  502  0.72667313743E+03 -0.11589456659E+04  0.17770222894E+04  0.22425470167E+04  0.25500000920E-02 0. -1.
</event>
<event>
 5   0  0.1943459E-07  0.3820563E+04  0.7818609E-02  0.8041756E-01
        1   -1    0    0  501    0  0.00000000000E+00  0.00000000000E+00  0.30770404591E+04  0.30770404591E+04  0.50400001928E-02 0.  1.
       -1   -1    0    0    0  501  0.00000000000E+00  0.00000000000E+00 -0.11859368698E+04  0.11859368698E+04  0.50400001928E-02 0. -1.
    10030    2    1    2    0    0  0.00000000000E+00  0.00000000000E+00  0.18911035893E+04  0.42629773289E+04  0.38205631681E+04 0.  0.
        2    1    3    3  502    0 -0.42326696852E+03 -0.13876791175E+03  0.30182844267E+04  0.30509756375E+04  0.25500000920E-02 0.  1.
       -2    1    3    3    0  502  0.42326696852E+03  0.13876791175E+03 -0.11271808374E+04  0.12120016914E+04  0.25500000920E-02 0. -1.
</event>
<event>
 5   0  0.3959190E-07  0.3920536E+04  0.7818609E-02  0.8020772E-01
        2   -1    0    0  501    0  0.00000000000E+00  0.00000000000E+00  0.25088343145E+04  0.25088343145E+04  0.25500000920E-02 0. -1.
       -2   -1    0    0    0  501  0.00000000000E+00  0.00000000000E+00 -0.15316480081E+04  0.15316480081E+04  0.25500000920E-02 0.  1.
    10030    2    1    2    0    0  0.00000000000E+00  0.00000000000E+00  0.97718630637E+03  0.40404823226E+04  0.39205362289E+04 0.  0.
        2    1    3    3  502    0  0.40338660567E+03 -0.16221120056E+04 -0.56678924551E+03  0.17649980627E+04  0.25500000920E-02 0.  1.
       -2    1    3    3    0  502 -0.40338660567E+03  0.16221120056E+04  0.15439755519E+04  0.22754842599E+04  0.25500000920E-02 0. -1.
</event>
<event>
 5   0  0.5735179E-07  0.3191721E+04  0.7818609E-02  0.8191007E-01
       -2   -1    0    0    0  501  0.00000000000E+00  0.00000000000E+00  0.16018075582E+04  0.16018075582E+04  0.25500000920E-02 0.  1.
        2   -1    0    0  501    0  0.00000000000E+00  0.00000000000E+00 -0.15899353838E+04  0.15899353838E+04  0.25500000920E-02 0. -1.
    10030    2    1    2    0    0  0.00000000000E+00  0.00000000000E+00  0.11872174373E+02  0.31917429419E+04  0.31917208617E+04 0.  0.
        5    1    3    3  502    0 -0.14226527480E+04 -0.69440603882E+03 -0.19557916904E+03  0.15951219043E+04  0.46999998093E+01 0. -1.
       -5    1    3    3    0  502  0.14226527480E+04  0.69440603882E+03  0.20745134341E+03  0.15966210377E+04  0.46999998093E+01 0.  1.
</event>
<event>
 5   0  0.5872444E-07  0.3986293E+04  0.7818609E-02  0.8007317E-01
        2   -1    0    0  501    0  0.00000000000E+00  0.00000000000E+00  0.22237401064E+04  0.22237401064E+04  0.25500000920E-02 0.  1.
       -2   -1    0    0    0  501  0.00000000000E+00  0.00000000000E+00 -0.17864645200E+04  0.17864645200E+04  0.25500000920E-02 0. -1.
    10030    2    1    2    0    0  0.00000000000E+00  0.00000000000E+00  0.43727558647E+03  0.40102046264E+04  0.39862929154E+04 0.  0.
        3    1    3    3  502    0 -0.25279538086E+03 -0.73465280070E+03 -0.16278593508E+04  0.18037589413E+04  0.10100000352E+00 0. -1.
       -3    1    3    3    0  502  0.25279538086E+03  0.73465280070E+03  0.20651349372E+04  0.22064456851E+04  0.10100000352E+00 0.  1.
</event>
<event>
 5   0  0.5805753E-07  0.3867376E+04  0.7818609E-02  0.8031849E-01
        2   -1    0    0  501    0  0.00000000000E+00  0.00000000000E+00  0.21180396434E+04  0.21180396434E+04  0.25500000920E-02 0.  1.
       -2   -1    0    0    0  501  0.00000000000E+00  0.00000000000E+00 -0.17653823451E+04  0.17653823451E+04  0.25500000920E-02 0. -1.
    10030    2    1    2    0    0  0.00000000000E+00  0.00000000000E+00  0.35265729836E+03  0.38834219885E+04  0.38673762644E+04 0.  0.
        1    1    3    3  502    0 -0.90089108813E+03 -0.16375365436E+04  0.67438969714E+03  0.19869403986E+04  0.50400001928E-02 0. -1.
       -1    1    3    3    0  502  0.90089108813E+03  0.16375365436E+04 -0.32173239877E+03  0.18964815898E+04  0.50400001928E-02 0.  1.
</event>
<event>
 5   0  0.1860500E-07  0.3920138E+04  0.7818609E-02  0.8020854E-01
        1   -1    0    0  501    0  0.00000000000E+00  0.00000000000E+00  0.25654148643E+04  0.25654148643E+04  0.50400001928E-02 0. -1.
       -1   -1    0    0    0  501  0.00000000000E+00  0.00000000000E+00 -0.14975628186E+04  0.14975628186E+04  0.50400001928E-02 0.  1.
    10030    2    1    2    0    0  0.00000000000E+00  0.00000000000E+00  0.10678520458E+04  0.40629776829E+04  0.39201377094E+04 0.  0.
        5    1    3    3  502    0  0.34138857895E+03 -0.13384176897E+04 -0.90740781784E+03  0.16526702974E+04  0.46999998093E+01 0.  1.
       -5    1    3    3    0  502 -0.34138857895E+03  0.13384176897E+04  0.19752598636E+04  0.24103073855E+04  0.46999998093E+01 0. -1.
</event>
<event>
 5   0  0.2666813E-07  0.3905059E+04  0.7818609E-02  0.8023978E-01
        1   -1    0    0  501    0  0.00000000000E+00  0.00000000000E+00  0.13726929878E+04  0.13726929878E+04  0.50400001928E-02 0. -1.
       -1   -1    0    0    0  501  0.00000000000E+00  0.00000000000E+00 -0.27772933961E+04  0.27772933961E+04  0.50400001928E-02 0.  1.
    10030    2    1    2    0    0  0.00000000000E+00  0.00000000000E+00 -0.14046004083E+04  0.41499863839E+04  0.39050588574E+04 0.  0.
        1    1    3    3  502    0 -0.65889983840E+03  0.17904848194E+04 -0.26106470844E+03  0.19256530496E+04  0.50400001928E-02 0. -1.
       -1    1    3    3    0  502  0.65889983840E+03 -0.17904848194E+04 -0.11435356998E+04  0.22243333343E+04  0.50400001928E-02 0.  1.
</event>
<event>
 5   0  0.5805753E-07  0.3803169E+04  0.7818609E-02  0.8045475E-01
        2   -1    0    0  501    0  0.00000000000E+00  0.00000000000E+00  0.21344996869E+04  0.21344996869E+04  0.25500000920E-02 0.  1.
       -2   -1    0    0    0  501  0.00000000000E+00  0.00000000000E+00 -0.16940844727E+04  0.16940844727E+04  0.25500000920E-02 0. -1.
    10030    2    1    2    0    0  0.00000000000E+00  0.00000000000E+00  0.44041521419E+03  0.38285841596E+04  0.38031685614E+04 0.  0.
        1    1    3    3  502    0 -0.11588342727E+03 -0.10598216857E+04  0.18053323776E+04  0.20966344383E+04  0.50400001928E-02 0.  1.
       -1    1    3    3    0  502  0.11588342727E+03  0.10598216857E+04 -0.13649171634E+04  0.17319497213E+04  0.50400001928E-02 0. -1.
</event>
<event>
 5   0  0.5735179E-07  0.3924140E+04  0.7818609E-02  0.8020027E-01
       -2   -1    0    0    0  501  0.00000000000E+00  0.00000000000E+00  0.19423366937E+04  0.19423366937E+04  0.25500000920E-02 0.  1.
        2   -1    0    0  501    0  0.00000000000E+00  0.00000000000E+00 -0.19820040765E+04  0.19820040765E+04  0.25500000920E-02 0. -1.
    10030    2    1    2    0    0  0.00000000000E+00  0.00000000000E+00 -0.39667382864E+02  0.39243407702E+04  0.39241402854E+04 0.  0.
        5    1    3    3  502    0 -0.35637121751E+02  0.85486722136E+03  0.17459374581E+04  0.19443219045E+04  0.46999998093E+01 0.  1.
       -5    1    3    3    0  502  0.35637121751E+02 -0.85486722136E+03 -0.17856048410E+04  0.19800188657E+04  0.46999998093E+01 0. -1.
</event>
<event>
 5   0  0.3959190E-07  0.3952105E+04  0.7818609E-02  0.8014279E-01
       -2   -1    0    0    0  501  0.00000000000E+00  0.00000000000E+00  0.13819512840E+04  0.13819512840E+04  0.25500000920E-02 0. -1.
        2   -1    0    0  501    0  0.00000000000E+00  0.00000000000E+00 -0.28255581169E+04  0.28255581169E+04  0.25500000920E-02 0.  1.
    10030    2    1    2    0    0  0.00000000000E+00  0.00000000000E+00 -0.14436068330E+04  0.42075094009E+04  0.39521050935E+04 0.  0.
        2    1    3    3  502    0  0.76618167005E+03  0.12735896421E+04  0.66454860526E+03  0.16280939090E+04  0.25500000920E-02 0. -1.
       -2    1    3    3    0  502 -0.76618167005E+03 -0.12735896421E+04 -0.21081554383E+04  0.25794154919E+04  0.25500000920E-02 0.  1.
</event>
<event>
 5   0  0.1860500E-07  0.3867786E+04  0.7818609E-02  0.8031763E-01
        1   -1    0    0  501    0  0.00000000000E+00  0.00000000000E+00  0.13969489361E+04  0.13969489361E+04  0.50400001928E-02 0. -1.
       -1   -1    0    0    0  501  0.00000000000E+00  0.00000000000E+00 -0.26772220468E+04  0.26772220468E+04  0.50400001928E-02 0.  1.
    10030    2    1    2    0    0  0.00000000000E+00  0.00000000000E+00 -0.12802731107E+04  0.40741709828E+04  0.38677861833E+04 0.  0.
        4    1    3    3  502    0  0.22568091232E+03  0.95301570493E+03  0.11164086612E+04  0.14851062991E+04  0.12699999809E+01 0. -1.
       -4    1    3    3    0  502 -0.22568091232E+03 -0.95301570493E+03 -0.23966817719E+04  0.25890646837E+04  0.12699999809E+01 0.  1.
</event>
<event>
 5   0  0.6095665E-07  0.3546807E+04  0.7818609E-02  0.8102786E-01
       -2   -1    0    0    0  501  0.00000000000E+00  0.00000000000E+00  0.13146616016E+04  0.13146616016E+04  0.25500000920E-02 0.  1.
        2   -1    0    0  501    0  0.00000000000E+00  0.00000000000E+00 -0.23922197875E+04  0.23922197875E+04  0.25500000920E-02 0. -1.
    10030    2    1    2    0    0  0.00000000000E+00  0.00000000000E+00 -0.10775581860E+04  0.37068813891E+04  0.35468067313E+04 0.  0.
        4    1    3    3  502    0  0.66865854013E+03  0.15646732603E+04 -0.10609804794E+04  0.20052400967E+04  0.12699999809E+01 0. -1.
       -4    1    3    3    0  502 -0.66865854013E+03 -0.15646732603E+04 -0.16577706548E+02  0.17016412924E+04  0.12699999809E+01 0.  1.
</event>
<event>
 5   0  0.6095665E-07  0.3821095E+04  0.7818609E-02  0.8041643E-01
        2   -1    0    0  501    0  0.00000000000E+00  0.00000000000E+00  0.21681252262E+04  0.21681252262E+04  0.25500000920E-02 0. -1.
       -2   -1    0    0    0  501  0.00000000000E+00  0.00000000000E+00 -0.16835703782E+04  0.16835703782E+04  0.25500000920E-02 0.  1.
    10030    2    1    2    0    0  0.00000000000E+00  0.00000000000E+00  0.48455484794E+03  0.38516956044E+04  0.38210948206E+04 0.  0.
        4    1    3    3  502    0  0.63074351231E+03 -0.93765809743E+03  0.17951174295E+04  0.21211997277E+04  0.12699999809E+01 0. -1.
       -4    1    3    3    0  502 -0.63074351231E+03  0.93765809743E+03 -0.13105625816E+04  0.17304958767E+04  0.12699999809E+01 0.  1.
</event>
<event>
 5   0  0.3959190E-07  0.2595368E+04  0.7818609E-02  0.8369776E-01
       -2   -1    0    0    0  501  0.00000000000E+00  0.00000000000E+00  0.86390359969E+03  0.86390359969E+03  0.25500000920E-02 0.  1.
        2   -1    0    0  501    0  0.00000000000E+00  0.00000000000E+00 -0.19492732677E+04  0.19492732677E+04  0.25500000920E-02 0. -1.
    10030    2    1    2    0    0  0.00000000000E+00  0.00000000000E+00 -0.10853696680E+04  0.28131768674E+04  0.25953683305E+04 0.  0.
        2    1    3    3  502    0  0.94590735918E+03  0.67792462540E+03 -0.11650313450E+04  0.16466999012E+04  0.25500000920E-02 0. -1.
       -2    1    3    3    0  502 -0.94590735918E+03 -0.67792462540E+03  0.79661676964E+02  0.11664769662E+04  0.25500000920E-02 0.  1.
</event>
<event>
 5   0  0.2632141E-07  0.2406731E+04  0.7818609E-02  0.8436988E-01
        1   -1    0    0  501    0  0.00000000000E+00  0.00000000000E+00  0.10133048084E+04  0.10133048084E+04  0.50400001928E-02 0.  1.
       -1   -1    0    0    0  501  0.00000000000E+00  0.00000000000E+00 -0.14290747190E+04  0.14290747190E+04  0.50400001928E-02 0. -1.
    10030    2    1    2    0    0  0.00000000000E+00  0.00000000000E+00 -0.41576991064E+03  0.24423795274E+04  0.24067307987E+04 0.  0.
        3    1    3    3  502    0 -0.62215905126E+03 -0.14418881649E+03  0.82713183414E+03  0.10449973115E+04  0.10100000352E+00 0.  1.
       -3    1    3    3    0  502  0.62215905126E+03  0.14418881649E+03 -0.12429017448E+04  0.13973822159E+04  0.10100000352E+00 0. -1.
</event>
<event>
 5   0  0.1860500E-07  0.3895863E+04  0.7818609E-02  0.8025890E-01
       -1   -1    0    0    0  501  0.00000000000E+00  0.00000000000E+00  0.16245162196E+04  0.16245162196E+04  0.50400001928E-02 0.  1.
        1   -1    0    0  501    0  0.00000000000E+00  0.00000000000E+00 -0.23357331504E+04  0.23357331504E+04  0.50400001928E-02 0. -1.
    10030    2    1    2    0    0  0.00000000000E+00  0.00000000000E+00 -0.71121693080E+03  0.39602493701E+04  0.38958626196E+04 0.  0.
        4    1    3    3  502    0  0.68778510412E+03 -0.11318377013E+04 -0.18076167378E+04  0.22408892911E+04  0.12699999809E+01 0. -1.
       -4    1    3    3    0  502 -0.68778510412E+03  0.11318377013E+04  0.10963998070E+04  0.17193600790E+04  0.12699999809E+01 0.  1.
</event>
<event>
 5   0  0.1943459E-07  0.3990259E+04  0.7818609E-02  0.8006515E-01
       -1   -1    0    0    0  501  0.00000000000E+00  0.00000000000E+00  0.23493090689E+04  0.23493090689E+04  0.50400001928E-02 0.  1.
        1   -1    0    0  501    0  0.00000000000E+00  0.00000000000E+00 -0.16943455706E+04  0.16943455706E+04  0.50400001928E-02 0. -1.
    10030    2    1    2    0    0  0.00000000000E+00  0.00000000000E+00  0.65496349833E+03  0.40436546395E+04  0.39902588462E+04 0.  0.
        2    1    3    3  502    0 -0.11257929568E+04 -0.28067556247E+03  0.19722698693E+04  0.22882388403E+04  0.25500000920E-02 0.  1.
       -2    1    3    3    0  502  0.11257929568E+04  0.28067556247E+03 -0.13173063710E+04  0.17554157992E+04  0.25500000920E-02 0. -1.
</event>
<event>
 5   0  0.3959190E-07  0.2917929E+04  0.7818609E-02  0.8267563E-01
       -2   -1    0    0    0  501  0.00000000000E+00  0.00000000000E+00  0.89888475532E+03  0.89888475532E+03  0.25500000920E-02 0.  1.
        2   -1    0    0  501    0  0.00000000000E+00  0.00000000000E+00 -0.23680199544E+04  0.23680199544E+04  0.25500000920E-02 0. -1.
    10030    2    1    2    0    0  0.00000000000E+00  0.00000000000E+00 -0.14691351991E+04  0.32669047098E+04  0.29179287430E+04 0.  0.
        2    1    3    3  502    0  0.13902268230E+04  0.13732146608E+03 -0.26355208916E+03  0.14216355046E+04  0.25500000920E-02 0.  1.
       -2    1    3    3    0  502 -0.13902268230E+04 -0.13732146608E+03 -0.12055831100E+04  0.18452692051E+04  0.25500000920E-02 0. -1.
</event>
<event>
 5   0  0.5735179E-07  0.3806912E+04  0.7818609E-02  0.8044673E-01
        2   -1    0    0  501    0  0.00000000000E+00  0.00000000000E+00  0.21869072083E+04  0.21869072083E+04  0.25500000920E-02 0. -1.
       -2   -1    0    0    0  501  0.00000000000E+00  0.00000000000E+00 -0.16567437497E+04  0.16567437497E+04  0.25500000920E-02 0.  1.
    10030    2    1    2    0    0  0.00000000000E+00  0.00000000000E+00  0.53016345855E+03  0.38436509580E+04  0.38069120549E+04 0.  0.
        5    1    3    3  502    0 -0.43312927200E+03 -0.22219124853E+03  0.21229904657E+04  0.21780910276E+04  0.46999998093E+01 0. -1.
       -5    1    3    3    0  502  0.43312927200E+03  0.22219124853E+03 -0.15928270071E+04  0.16655599304E+04  0.46999998093E+01 0.  1.
</event>
<event>
 5   0  0.2666813E-07  0.3837619E+04  0.7818609E-02  0.8038130E-01
        1   -1    0    0  501    0  0.00000000000E+00  0.00000000000E+00  0.24497209920E+04  0.24497209921E+04  0.50400001928E-02 0. -1.
       -1   -1    0    0    0  501  0.00000000000E+00  0.00000000000E+00 -0.15029590668E+04  0.15029590668E+04  0.50400001928E-02 0.  1.
    10030    2    1    2    0    0  0.00000000000E+00  0.00000000000E+00  0.94676192522E+03  0.39526800589E+04  0.38376192496E+04 0.  0.
        1    1    3    3  502    0 -0.65012885129E+03  0.15905017213E+04 -0.40631508697E+03  0.17656316713E+04  0.50400001928E-02 0.  1.
       -1    1    3    3    0  502  0.65012885129E+03 -0.15905017213E+04  0.13530770122E+04  0.21870483876E+04  0.50400001928E-02 0. -1.
</event>
<event>
 5   0  0.6095665E-07  0.3950185E+04  0.7818609E-02  0.8014672E-01
       -2   -1    0    0    0  501  0.00000000000E+00  0.00000000000E+00  0.26500880287E+04  0.26500880287E+04  0.25500000920E-02 0.  1.
        2   -1    0    0  501    0  0.00000000000E+00  0.00000000000E+00 -0.14720232250E+04  0.14720232250E+04  0.25500000920E-02 0. -1.
    10030    2    1    2    0    0  0.00000000000E+00  0.00000000000E+00  0.11780648036E+04  0.41221112537E+04  0.39501853762E+04 0.  0.
        4    1    3    3  502    0 -0.43622808161E+02  0.81914199638E+02 -0.14697462686E+04  0.14726739600E+04  0.12699999809E+01 0. -1.
       -4    1    3    3    0  502  0.43622808161E+02 -0.81914199638E+02  0.26478110723E+04  0.26494372936E+04  0.12699999809E+01 0.  1.
</event>
<event>
 5   0  0.1860500E-07  0.2883190E+04  0.7818609E-02  0.8277897E-01
        1   -1    0    0  501    0  0.00000000000E+00  0.00000000000E+00  0.20313356149E+04  0.20313356149E+04  0.50400001928E-02 0. -1.
       -1   -1    0    0    0  501  0.00000000000E+00  0.00000000000E+00 -0.10230688614E+04  0.10230688614E+04  0.50400001928E-02 0.  1.
    10030    2    1    2    0    0  0.00000000000E+00  0.00000000000E+00  0.10082667535E+04  0.30544044763E+04  0.28831900490E+04 0.  0.
        4    1    3    3  502    0 -0.88306158013E+03  0.18798979149E+03  0.16947301417E+04  0.19202212847E+04  0.12699999809E+01 0. -1.
       -4    1    3    3    0  502  0.88306158013E+03 -0.18798979149E+03 -0.68646338819E+03  0.11341831917E+04  0.12699999809E+01 0.  1.
</event>
<event>
 5   0  0.5872444E-07  0.4495741E+04  0.7818609E-02  0.7911383E-01
        2   -1    0    0  501    0  0.00000000000E+00  0.00000000000E+00  0.23342408666E+04  0.23342408666E+04  0.25500000920E-02 0. -1.
       -2   -1    0    0    0  501  0.00000000000E+00  0.00000000000E+00 -0.21646962494E+04  0.21646962494E+04  0.25500000920E-02 0.  1.
    10030    2    1    2    0    0  0.00000000000E+00  0.00000000000E+00  0.16954461720E+03  0.44989371161E+04  0.44957412956E+04 0.  0.
        3    1    3    3  502    0 -0.11744085685E+04 -0.10648629516E+03  0.19998588000E+04  0.23216395170E+04  0.10100000352E+00 0. -1.
       -3    1    3    3    0  502  0.11744085685E+04  0.10648629516E+03 -0.18303141828E+04  0.21772975990E+04  0.10100000352E+00 0.  1.
</event>
<event>
 5   0  0.6095665E-07  0.3227629E+04  0.7818609E-02  0.8181558E-01
        2   -1    0    0  501    0  0.00000000000E+00  0.00000000000E+00  0.20700502575E+04  0.20700502575E+04  0.25500000920E-02 0. -1.
       -2   -1    0    0    0  501  0.00000000000E+00  0.00000000000E+00 -0.12581322571E+04  0.12581322571E+04  0.25500000920E-02 0.  1.
    10030    2    1    2    0    0  0.00000000000E+00  0.00000000000E+00  0.81191800042E+03  0.33281825146E+04  0.32276288528E+04 0.  0.
        4    1    3    3  502    0  0.15907770057E+04 -0.21731381760E+03  0.23778725190E+03  0.16230653614E+04  0.12699999809E+01 0.  1.
       -4    1    3    3    0  502 -0.15907770057E+04  0.21731381760E+03  0.57413074851E+03  0.17051171533E+04  0.12699999809E+01 0. -1.
</event>
<event>
 5   0  0.5872444E-07  0.3744160E+04  0.7818609E-02  0.8058245E-01
        2   -1    0    0  501    0  0.00000000000E+00  0.00000000000E+00  0.12572092047E+04  0.12572092047E+04  0.25500000920E-02 0. -1.
       -2   -1    0    0    0  501  0.00000000000E+00  0.00000000000E+00 -0.27876686041E+04  0.27876686041E+04  0.25500000920E-02 0.  1.
    10030    2    1    2    0    0  0.00000000000E+00  0.00000000000E+00 -0.15304593993E+04  0.40448778088E+04  0.37441595205E+04 0.  0.
        3    1    3    3  502    0 -0.23275215389E+03 -0.94366846743E+03 -0.24937359343E+04  0.26764533737E+04  0.10100000352E+00 0.  1.
       -3    1    3    3    0  502  0.23275215389E+03  0.94366846743E+03  0.96327653493E+03  0.13684244351E+04  0.10100000352E+00 0. -1.
</event>
<event>
 5   0  0.5735179E-07  0.2473985E+04  0.7818609E-02  0.8412313E-01
       -2   -1    0    0    0  501  0.00000000000E+00  0.00000000000E+00  0.12736669286E+04  0.12736669286E+04  0.25500000920E-02 0. -1.
        2   -1    0    0  501    0  0.00000000000E+00  0.00000000000E+00 -0.12013740948E+04  0.12013740948E+04  0.25500000920E-02 0.  1.
    10030    2    1    2    0    0  0.00000000000E+00  0.00000000000E+00  0.72292833804E+02  0.24750410234E+04  0.24739850068E+04 0.  0.
        5    1    3    3  502    0  0.52653270924E+03 -0.10992188553E+04 -0.17515353324E+03  0.12313487061E+04  0.46999998093E+01 0.  1.
       -5    1    3    3    0  502 -0.52653270924E+03  0.10992188553E+04  0.24744636704E+03  0.12436923174E+04  0.46999998093E+01 0. -1.
</event>
<event>
 5   0  0.5735179E-07  0.3824432E+04  0.7818609E-02  0.8040932E-01
       -2   -1    0    0    0  501  0.00000000000E+00  0.00000000000E+00  0.18129420973E+04  0.18129420973E+04  0.25500000920E-02 0.  1.
        2   -1    0    0  501    0  0.00000000000E+00  0.00000000000E+00 -0.20169265104E+04  0.20169265104E+04  0.25500000920E-02 0. -1.
    10030    2    1    2    0    0  0.00000000000E+00  0.00000000000E+00 -0.20398441307E+03  0.38298686077E+04  0.38244324953E+04 0.  0.
        5    1    3    3  502    0  0.15787079982E+04  0.94311588192E+03  0.42293067963E+03  0.18869761419E+04  0.46999998093E+01 0.  1.
       -5    1    3    3    0  502 -0.15787079982E+04 -0.94311588192E+03 -0.62691509270E+03  0.19428924658E+04  0.46999998093E+01 0. -1.
</event>
<event>
 5   0  0.5805753E-07  0.3811595E+04  0.7818609E-02  0.8043671E-01
       -2   -1    0    0    0  501  0.00000000000E+00  0.00000000000E+00  0.19335680658E+04  0.19335680658E+04  0.25500000920E-02 0. -1.
        2   -1    0    0  501    0  0.00000000000E+00  0.00000000000E+00 -0.18784259448E+04  0.18784259448E+04  0.25500000920E-02 0.  1.
    10030    2    1    2    0    0  0.00000000000E+00  0.00000000000E+00  0.55142121064E+02  0.38119940106E+04  0.38115951626E+04 0.  0.
        1    1    3    3  502    0  0.16429089767E+04  0.96003074967E+03 -0.78531863045E+02  0.19044621812E+04  0.50400001928E-02 0.  1.
       -1    1    3    3    0  502 -0.16429089767E+04 -0.96003074967E+03  0.13367398411E+03  0.19075318294E+04  0.50400001928E-02 0. -1.
</event>
<event>
 5   0  0.1943459E-07  0.3879262E+04  0.7818609E-02  0.8029356E-01
        1   -1    0    0  501    0  0.00000000000E+00  0.00000000000E+00  0.32230444422E+04  0.32230444422E+04  0.50400001928E-02 0.  1.
       -1   -1    0    0    0  501  0.00000000000E+00  0.00000000000E+00 -0.11672716549E+04  0.11672716549E+04  0.50400001928E-02 0. -1.
    10030    2    1    2    0    0  0.00000000000E+00  0.00000000000E+00  0.20557727872E+04  0.43903160971E+04  0.38792620020E+04 0.  0.
        2    1    3    3  502    0 -0.13786707407E+03 -0.88929879176E+03  0.29724742275E+04  0.31057145240E+04  0.25500000920E-02 0.  1.
       -2    1    3    3    0  502  0.13786707407E+03  0.88929879176E+03 -0.91670144028E+03  0.12846015732E+04  0.25500000920E-02 0. -1.
</event>
<event>
 5   0  0.6095665E-07  0.3856482E+04  0.7818609E-02  0.8034142E-01
        2   -1    0    0  501    0  0.00000000000E+00  0.00000000000E+00  0.17785003241E+04  0.17785003241E+04  0.25500000920E-02 0.  1.
       -2   -1    0    0    0  501  0.00000000000E+00  0.00000000000E+00 -0.20905886339E+04  0.20905886339E+04  0.25500000920E-02 0. -1.
    10030    2    1    2    0    0  0.00000000000E+00  0.00000000000E+00 -0.31208830976E+03  0.38690889580E+04  0.38564815897E+04 0.  0.
        4    1    3    3  502    0 -0.92030698602E+03  0.38307278880E+03  0.14999278378E+04  0.18009705276E+04  0.12699999809E+01 0.  1.
       -4    1    3    3    0  502  0.92030698602E+03 -0.38307278880E+03 -0.18120161475E+04  0.20681184303E+04  0.12699999809E+01 0. -1.
</event>
<event>
 5   0  0.1876027E-07  0.3785205E+04  0.7818609E-02  0.8049337E-01
       -1   -1    0    0    0  501  0.00000000000E+00  0.00000000000E+00  0.11928072107E+04  0.11928072107E+04  0.50400001928E-02 0.  1.
        1   -1    0    0  501    0  0.00000000000E+00  0.00000000000E+00 -0.30029529874E+04  0.30029529874E+04  0.50400001928E-02 0. -1.
    10030    2    1    2    0    0  0.00000000000E+00  0.00000000000E+00 -0.18101457767E+04  0.41957601981E+04  0.37852048699E+04 0.  0.
        3    1    3    3  502    0  0.21618279244E+03  0.12849417586E+04  0.61644520407E+03  0.14414628066E+04  0.10100000352E+00 0.  1.
       -3    1    3    3    0  502 -0.21618279244E+03 -0.12849417586E+04 -0.24265909808E+04  0.27542973915E+04  0.10100000352E+00 0. -1.
</event>
<event>
 5   0  0.5872444E-07  0.3215402E+04  0.7818609E-02  0.8184761E-01
       -2   -1    0    0    0  501  0.00000000000E+00  0.00000000000E+00  0.30313316137E+04  0.30313316137E+04  0.25500000920E-02 0. -1.
        2   -1    0    0  501    0  0.00000000000E+00  0.00000000000E+00 -0.85266229502E+03  0.85266229503E+03  0.25500000920E-02 0.  1.
    10030    2    1    2    0    0  0.00000000000E+00  0.00000000000E+00  0.21786693187E+04  0.38839939087E+04  0.32154017918E+04 0.  0.
        3    1    3    3  502    0  0.14515892615E+04  0.55988059127E+03  0.15786963847E+04  0.22164972244E+04  0.10100000352E+00 0.  1.
       -3    1    3    3    0  502 -0.14515892615E+04 -0.55988059127E+03  0.59997293400E+03  0.16674966843E+04  0.10100000352E+00 0. -1.
</event>
<event>
 5   0  0.1860500E-07  0.2989089E+04  0.7818609E-02  0.8246853E-01
       -1   -1    0    0    0  501  0.00000000000E+00  0.00000000000E+00  0.12393550249E+04  0.12393550249E+04  0.50400001928E-02 0.  1.
        1   -1    0    0  501    0  0.00000000000E+00  0.00000000000E+00 -0.18022791390E+04  0.18022791390E+04  0.50400001928E-02 0. -1.
    10030    2    1    2    0    0  0.00000000000E+00  0.00000000000E+00 -0.56292411407E+03  0.30416341639E+04  0.29890892976E+04 0.  0.
        4    1    3    3  502    0 -0.13898230475E+04 -0.46284880345E+03 -0.58302439930E+03  0.15766281050E+04  0.12699999809E+01 0. -1.
       -4    1    3    3    0  502  0.13898230475E+04  0.46284880345E+03  0.20100285235E+02  0.14650060589E+04  0.12699999809E+01 0.  1.
</event>
<event>
 5   0  0.5805753E-07  0.3926506E+04  0.7818609E-02  0.8019539E-01
       -2   -1    0    0    0  501  0.00000000000E+00  0.00000000000E+00  0.25386009062E+04  0.25386009062E+04  0.25500000920E-02 0. -1.
        2   -1    0    0  501    0  0.00000000000E+00  0.00000000000E+00 -0.15183015374E+04  0.15183015374E+04  0.25500000920E-02 0.  1.
    10030    2    1    2    0    0  0.00000000000E+00  0.00000000000E+00  0.10202993688E+04  0.40569024436E+04  0.39265056520E+04 0.  0.
        1    1    3    3  502    0 -0.74506343214E+03  0.96710703750E+03 -0.10784231230E+04  0.16289297014E+04  0.50400001928E-02 0.  1.
       -1    1    3    3    0  502  0.74506343214E+03 -0.96710703750E+03  0.20987224917E+04  0.24279727422E+04  0.50400001928E-02 0. -1.
</event>
<event>
 5   0  0.1860500E-07  0.2850613E+04  0.7818609E-02  0.8287725E-01
        1   -1    0    0  501    0  0.00000000000E+00  0.00000000000E+00  0.20410693236E+04  0.20410693236E+04  0.50400001928E-02 0. -1.
       -1   -1    0    0    0  501  0.00000000000E+00  0.00000000000E+00 -0.99531059573E+03  0.99531059574E+03  0.50400001928E-02 0.  1.
    10030    2    1    2    0    0  0.00000000000E+00  0.00000000000E+00  0.10457587279E+04  0.30363799194E+04  0.28506125128E+04 0.  0.
        5    1    3    3  502    0  0.13656187654E+04  0.13398934393E+03  0.93349844995E+03  0.16596111601E+04  0.46999998093E+01 0. -1.
       -5    1    3    3    0  502 -0.13656187654E+04 -0.13398934393E+03  0.11226027796E+03  0.13767687593E+04  0.46999998093E+01 0.  1.
</event>
<event>
 5   0  0.1860500E-07  0.3897663E+04  0.7818609E-02  0.8025515E-01
       -1   -1    0    0    0  501  0.00000000000E+00  0.00000000000E+00  0.16523954023E+04  0.16523954023E+04  0.50400001928E-02 0. -1.
        1   -1    0    0  501    0  0.00000000000E+00  0.00000000000E+00 -0.22984472071E+04  0.22984472071E+04  0.50400001928E-02 0.  1.
    10030    2    1    2    0    0  0.00000000000E+00  0.00000000000E+00 -0.64605180476E+03  0.39508426094E+04  0.38976626829E+04 0.  0.
        4    1    3    3  502    0  0.13815469077E+04 -0.33035483279E+03  0.10293955355E+04  0.17542699208E+04  0.12699999809E+01 0.  1.
       -4    1    3    3    0  502 -0.13815469077E+04  0.33035483279E+03 -0.16754473402E+04  0.21965726886E+04  0.12699999809E+01 0. -1.
</event>
<event>
 5   0  0.5872444E-07  0.2951626E+04  0.7818609E-02  0.8257681E-01
       -2   -1    0    0    0  501  0.00000000000E+00  0.00000000000E+00  0.12935637419E+04  0.12935637419E+04  0.25500000920E-02 0.  1.
        2   -1    0    0  501    0  0.00000000000E+00  0.00000000000E+00 -0.16837392413E+04  0.16837392413E+04  0.25500000920E-02 0. -1.
    10030    2    1    2    0    0  0.00000000000E+00  0.00000000000E+00 -0.39017549941E+03  0.29773029832E+04  0.29516260152E+04 0.  0.
        3    1    3    3  502    0 -0.48539522960E+03 -0.48288095334E+03 -0.15138406108E+04  0.16614740290E+04  0.10100000352E+00 0. -1.
       -3    1    3    3    0  502  0.48539522960E+03  0.48288095334E+03  0.11236651114E+04  0.13158289542E+04  0.10100000352E+00 0.  1.
</event>
<event>
 5   0  0.1860500E-07  0.3928019E+04  0.7818609E-02  0.8019227E-01
        1   -1    0    0  501    0  0.00000000000E+00  0.00000000000E+00  0.22370371884E+04  0.22370371884E+04  0.50400001928E-02 0.  1.
       -1   -1    0    0    0  501  0.00000000000E+00  0.00000000000E+00 -0.17243047054E+04  0.17243047054E+04  0.50400001928E-02 0. -1.
    10030    2    1    2    0    0  0.00000000000E+00  0.00000000000E+00  0.51273248304E+03  0.39613418938E+04  0.39280192210E+04 0.  0.
        5    1    3    3  502    0  0.74776468187E+03 -0.12014207945E+04  0.16298108380E+04  0.21584414290E+04  0.46999998093E+01 0.  1.
       -5    1    3    3    0  502 -0.74776468187E+03  0.12014207945E+04 -0.11170783549E+04  0.18029004648E+04  0.46999998093E+01 0. -1.
</event>
<event>
 5   0  0.1876027E-07  0.3332482E+04  0.7818609E-02  0.8154679E-01
        1   -1    0    0  501    0  0.00000000000E+00  0.00000000000E+00  0.11256157903E+04  0.11256157903E+04  0.50400001928E-02 0. -1.
       -1   -1    0    0    0  501  0.00000000000E+00  0.00000000000E+00 -0.24665252980E+04  0.24665252980E+04  0.50400001928E-02 0.  1.
    10030    2    1    2    0    0  0.00000000000E+00  0.00000000000E+00 -0.13409095077E+04  0.35921410883E+04  0.33324824516E+04 0.  0.
        3    1    3    3  502    0  0.15342838619E+04 -0.33202732724E+03 -0.68275309294E+02  0.15712831200E+04  0.10100000352E+00 0. -1.
       -3    1    3    3    0  502 -0.15342838619E+04  0.33202732724E+03 -0.12726341984E+04  0.20208579683E+04  0.10100000352E+00 0.  1.
</event>
<event>
 5   0  0.1943459E-07  0.3535086E+04  0.7818609E-02  0.8105525E-01
        1   -1    0    0  501    0  0.00000000000E+00  0.00000000000E+00  0.18437600767E+04  0.18437600768E+04  0.50400001928E-02 0.  1.
       -1   -1    0    0    0  501  0.00000000000E+00  0.00000000000E+00 -0.16944763679E+04  0.16944763679E+04  0.50400001928E-02 0. -1.
    10030    2    1    2    0    0  0.00000000000E+00  0.00000000000E+00  0.14928370890E+03  0.35382364446E+04  0.35350857857E+04 0.  0.
        2    1    3    3  502    0  0.53219451832E+02  0.12125869907E+04 -0.12114190324E+04  0.17148573095E+04  0.25500000920E-02 0. -1.
       -2    1    3    3    0  502 -0.53219451832E+02 -0.12125869907E+04  0.13607027413E+04  0.18233791351E+04  0.25500000920E-02 0.  1.
</event>
<event>
 5   0  0.3959190E-07  0.4228111E+04  0.7818609E-02  0.7960046E-01
        2   -1    0    0  501    0  0.00000000000E+00  0.00000000000E+00  0.29100679003E+04  0.29100679003E+04  0.25500000920E-02 0.  1.
       -2   -1    0    0    0  501  0.00000000000E+00  0.00000000000E+00 -0.15357824424E+04  0.15357824424E+04  0.25500000920E-02 0. -1.
    10030    2    1    2    0    0  0.00000000000E+00  0.00000000000E+00  0.13742854579E+04  0.44458503427E+04  0.42281112509E+04 0.  0.
        2    1    3    3  502    0 -0.10869020464E+04  0.47656029454E+02 -0.12188272012E+04  0.16337585201E+04  0.25500000920E-02 0. -1.
       -2    1    3    3    0  502  0.10869020464E+04 -0.47656029454E+02  0.25931126591E+04  0.28120918226E+04  0.25500000920E-02 0.  1.
</event>
<event>
 5   0  0.1943459E-07  0.3873758E+04  0.7818609E-02  0.8030509E-01
        1   -1    0    0  501    0  0.00000000000E+00  0.00000000000E+00  0.19838930396E+04  0.19838930396E+04  0.50400001928E-02 0.  1.
       -1   -1    0    0    0  501  0.00000000000E+00  0.00000000000E+00 -0.18909789743E+04  0.18909789743E+04  0.50400001928E-02 0. -1.
    10030    2    1    2    0    0  0.00000000000E+00  0.00000000000E+00  0.92914065304E+02  0.38748720140E+04  0.38737578785E+04 0.  0.
        2    1    3    3  502    0 -0.16707895791E+04  0.97254832759E+03 -0.72370896562E+02  0.19345866778E+04  0.25500000920E-02 0. -1.
       -2    1    3    3    0  502  0.16707895791E+04 -0.97254832759E+03  0.16528496187E+03  0.19402853362E+04  0.25500000920E-02 0.  1.
</event>
<event>
 5   0  0.1943459E-07  0.2454006E+04  0.7818609E-02  0.8419557E-01
        1   -1    0    0  501    0  0.00000000000E+00  0.00000000000E+00  0.52676105473E+03  0.52676105476E+03  0.50400001928E-02 0. -1.
       -1   -1    0    0    0  501  0.00000000000E+00  0.00000000000E+00 -0.28581008849E+04  0.28581008849E+04  0.50400001928E-02 0.  1.
    10030    2    1    2    0    0  0.00000000000E+00  0.00000000000E+00 -0.23313398302E+04  0.33848619397E+04  0.24540058979E+04 0.  0.
        2    1    3    3  502    0  0.33463445662E+03 -0.59325017159E+03  0.24205559286E+03  0.72285330164E+03  0.25500000920E-02 0. -1.
       -2    1    3    3    0  502 -0.33463445662E+03  0.59325017159E+03 -0.25733954230E+04  0.26620086380E+04  0.25500000920E-02 0.  1.
</event>
<event>
 5   0  0.1876027E-07  0.3786890E+04  0.7818609E-02  0.8048974E-01
        1   -1    0    0  501    0  0.00000000000E+00  0.00000000000E+00  0.10639526511E+04  0.10639526511E+04  0.50400001928E-02 0.  1.
       -1   -1    0    0    0  501  0.00000000000E+00  0.00000000000E+00 -0.33696361515E+04  0.33696361515E+04  0.50400001928E-02 0. -1.
    10030    2    1    2    0    0  0.00000000000E+00  0.00000000000E+00 -0.23056835004E+04  0.44335888026E+04  0.37868896559E+04 0.  0.
        3    1    3    3  502    0 -0.13514063664E+04  0.47442949471E+03  0.29709868423E+03  0.14627543030E+04  0.10100000352E+00 0.  1.
       -3    1    3    3    0  502  0.13514063664E+04 -0.47442949471E+03 -0.26027821847E+04  0.29708344996E+04  0.10100000352E+00 0. -1.
</event>
<event>
 5   0  0.5805753E-07  0.3796334E+04  0.7818609E-02  0.8046942E-01
        2   -1    0    0  501    0  0.00000000000E+00  0.00000000000E+00  0.34444395321E+04  0.34444395321E+04  0.25500000920E-02 0.  1.
       -2   -1    0    0    0  501  0.00000000000E+00  0.00000000000E+00 -0.10460449430E+04  0.10460449430E+04  0.25500000920E-02 0. -1.
    10030    2    1    2    0    0  0.00000000000E+00  0.00000000000E+00  0.23983945891E+04  0.44904844752E+04  0.37963343131E+04 0.  0.
        1    1    3    3  502    0 -0.12035088991E+04 -0.78591233646E+03  0.26656165341E+04  0.30284655154E+04  0.50400001928E-02 0.  1.
       -1    1    3    3    0  502  0.12035088991E+04  0.78591233646E+03 -0.26722194499E+03  0.14620189598E+04  0.50400001928E-02 0. -1.
</event>
<event>
 5   0  0.6095665E-07  0.3847416E+04  0.7818609E-02  0.8036055E-01
       -2   -1    0    0    0  501  0.00000000000E+00  0.00000000000E+00  0.13402774456E+04  0.13402774456E+04  0.25500000920E-02 0. -1.
        2   -1    0    0  501    0  0.00000000000E+00  0.00000000000E+00 -0.27611098727E+04  0.27611098727E+04  0.25500000920E-02 0.  1.
    10030    2    1    2    0    0  0.00000000000E+00  0.00000000000E+00 -0.14208324271E+04  0.41013873183E+04  0.38474164252E+04 0.  0.
        4    1    3    3  502    0 -0.18176381612E+04  0.62922716802E+03 -0.67814653068E+03  0.20395145609E+04  0.12699999809E+01 0.  1.
       -4    1    3    3    0  502  0.18176381612E+04 -0.62922716802E+03 -0.74268589646E+03  0.20618727574E+04  0.12699999809E+01 0. -1.
</event>
<event>
 5   0  0.2666813E-07  0.3872576E+04  0.7818609E-02  0.8030757E-01
        1   -1    0    0  501    0  0.00000000000E+00  0.00000000000E+00  0.17074576696E+04  0.17074576696E+04  0.50400001928E-02 0.  1.
       -1   -1    0    0    0  501  0.00000000000E+00  0.00000000000E+00 -0.21957852122E+04  0.21957852122E+04  0.50400001928E-02 0. -1.
    10030    2    1    2    0    0  0.00000000000E+00  0.00000000000E+00 -0.48832754264E+03  0.39032428818E+04  0.38725755261E+04 0.  0.
        1    1    3    3  502    0 -0.14293051634E+04  0.18881066446E+03 -0.15469348341E+04  0.21146087340E+04  0.50400001928E-02 0. -1.
       -1    1    3    3    0  502  0.14293051634E+04 -0.18881066446E+03  0.10586072915E+04  0.17886341478E+04  0.50400001928E-02 0.  1.
</event>
<event>
 5   0  0.6095665E-07  0.3580849E+04  0.7818609E-02  0.8094893E-01
        2   -1    0    0  501    0  0.00000000000E+00  0.00000000000E+00  0.18309802520E+04  0.18309802520E+04  0.25500000920E-02 0.  1.
       -2   -1    0    0    0  501  0.00000000000E+00  0.00000000000E+00 -0.17507668881E+04  0.17507668881E+04  0.25500000920E-02 0. -1.
    10030    2    1    2    0    0  0.00000000000E+00  0.00000000000E+00  0.80213363913E+02  0.35817471400E+04  0.35808488367E+04 0.  0.
        4    1    3    3  502    0 -0.10489562679E+04 -0.85753621139E+03 -0.11306314615E+04  0.17646548446E+04  0.12699999809E+01 0. -1.
       -4    1    3    3    0  502  0.10489562679E+04  0.85753621139E+03  0.12108448255E+04  0.18170922954E+04  0.12699999809E+01 0.  1.
</event>
<event>
 5   0  0.6095665E-07  0.3969284E+04  0.7818609E-02  0.8010772E-01
        2   -1    0    0  501    0  0.00000000000E+00  0.00000000000E+00  0.31601935231E+04  0.31601935231E+04  0.25500000920E-02 0. -1.
       -2   -1    0    0    0  501  0.00000000000E+00  0.00000000000E+00 -0.12463808123E+04  0.12463808123E+04  0.25500000920E-02 0.  1.
    10030    2    1    2    0    0  0.00000000000E+00  0.00000000000E+00  0.19138127108E+04  0.44065743354E+04  0.39692843539E+04 0.  0.
        4    1    3    3  502    0 -0.13986194387E+04  0.43649829769E+02 -0.60553944578E+03  0.15247036680E+04  0.12699999809E+01 0.  1.
       -4    1    3    3    0  502  0.13986194387E+04 -0.43649829769E+02  0.25193521566E+04  0.28818706674E+04  0.12699999809E+01 0. -1.
</event>
<event>
 5   0  0.5735179E-07  0.4293629E+04  0.7818609E-02  0.7947797E-01
       -2   -1    0    0    0  501  0.00000000000E+00  0.00000000000E+00  0.31123113841E+04  0.31123113841E+04  0.25500000920E-02 0. -1.
        2   -1    0    0  501    0  0.00000000000E+00  0.00000000000E+00 -0.14808329493E+04  0.14808329493E+04  0.25500000920E-02 0.  1.
    10030    2    1    2    0    0  0.00000000000E+00  0.00000000000E+00  0.16314784348E+04  0.45931443334E+04  0.42936293487E+04 0.  0.
        5    1    3    3  502    0  0.39170534727E+03 -0.20649930562E+04  0.12834593305E+04  0.24627056959E+04  0.46999998093E+01 0. -1.
       -5    1    3    3    0  502 -0.39170534727E+03  0.20649930562E+04  0.34801910432E+03  0.21304386375E+04  0.46999998093E+01 0.  1.
</event>
<event>
 5   0  0.5805753E-07  0.3278421E+04  0.7818609E-02  0.8168408E-01
       -2   -1    0    0    0  501  0.00000000000E+00  0.00000000000E+00  0.91641451581E+03  0.91641451581E+03  0.25500000920E-02 0.  1.
        2   -1    0    0  501    0  0.00000000000E+00  0.00000000000E+00 -0.29320905210E+04  0.29320905210E+04  0.25500000920E-02 0. -1.
    10030    2    1    2    0    0  0.00000000000E+00  0.00000000000E+00 -0.20156760052E+04  0.38485050368E+04  0.32784205436E+04 0.  0.
        1    1    3    3  502    0 -0.16224182254E+04 -0.62687266851E+02 -0.12725227935E+04  0.20628826558E+04  0.50400001928E-02 0. -1.
       -1    1    3    3    0  502  0.16224182254E+04  0.62687266851E+02 -0.74315321167E+03  0.17856223810E+04  0.50400001928E-02 0.  1.
</event>
<event>
 5   0  0.5735179E-07  0.2569408E+04  0.7818609E-02  0.8378667E-01
       -2   -1    0    0    0  501  0.00000000000E+00  0.00000000000E+00  0.15016900259E+04  0.15016900259E+04  0.25500000920E-02 0.  1.
        2   -1    0    0  501    0  0.00000000000E+00  0.00000000000E+00 -0.10990712862E+04  0.10990712862E+04  0.25500000920E-02 0. -1.
    10030    2    1    2    0    0  0.00000000000E+00  0.00000000000E+00  0.40261873966E+03  0.26007613121E+04  0.25694080161E+04 0.  0.
        5    1    3    3  502    0  0.27316638573E+03 -0.16328309381E+03  0.14611502797E+04  0.14954141476E+04  0.46999998093E+01 0.  1.
       -5    1    3    3    0  502 -0.27316638573E+03  0.16328309381E+03 -0.10585315400E+04  0.11053471646E+04  0.46999998093E+01 0. -1.
</event>
<event>
 5   0  0.5805753E-07  0.3789687E+04  0.7818609E-02  0.8048372E-01
       -2   -1    0    0    0  501  0.00000000000E+00  0.00000000000E+00  0.12904201358E+04  0.12904201358E+04  0.25500000920E-02 0.  1.
        2   -1    0    0  501    0  0.00000000000E+00  0.00000000000E+00 -0.27823744749E+04  0.27823744749E+04  0.25500000920E-02 0. -1.
    10030    2    1    2    0    0  0.00000000000E+00  0.00000000000E+00 -0.14919543391E+04  0.40727946107E+04  0.37896870836E+04 0.  0.
        1    1    3    3  502    0  0.11462211837E+04 -0.14793718709E+04 -0.42704523215E+03  0.19195655146E+04  0.50400001928E-02 0. -1.
       -1    1    3    3    0  502 -0.11462211837E+04  0.14793718709E+04 -0.10649091070E+04  0.21532290962E+04  0.50400001928E-02 0.  1.
</event>
<event>
 5   0  0.1860500E-07  0.3856554E+04  0.7818609E-02  0.8034126E-01
        1   -1    0    0  501    0  0.00000000000E+00  0.00000000000E+00  0.21896153690E+04  0.21896153690E+04  0.50400001928E-02 0. -1.
       -1   -1    0    0    0  501  0.00000000000E+00  0.00000000000E+00 -0.16981299795E+04  0.16981299795E+04  0.50400001928E-02 0.  1.
    10030    2    1    2    0    0  0.00000000000E+00  0.00000000000E+00  0.49148538950E+03  0.38877453485E+04  0.38565536437E+04 0.  0.
        4    1    3    3  502    0 -0.10065831594E+04 -0.29659404537E+03  0.18765636609E+04  0.21500396440E+04  0.12699999809E+01 0. -1.
       -4    1    3    3    0  502  0.10065831594E+04  0.29659404537E+03 -0.13850782714E+04  0.17377057045E+04  0.12699999809E+01 0.  1.
</event>
<event>
 5   0  0.1876027E-07  0.3732440E+04  0.7818609E-02  0.8060811E-01
       -1   -1    0    0    0  501  0.00000000000E+00  0.00000000000E+00  0.21140178472E+04  0.21140178472E+04  0.50400001928E-02 0.  1.
        1   -1    0    0  501    0  0.00000000000E+00  0.00000000000E+00 -0.16474677748E+04  0.16474677748E+04  0.50400001928E-02 0. -1.
    10030    2    1    2    0    0  0.00000000000E+00  0.00000000000E+00  0.46655007245E+03  0.37614856220E+04  0.37324395660E+04 0.  0.
        3    1    3    3  502    0 -0.15970530719E+03 -0.21540384302E+03  0.20945018961E+04  0.21115972163E+04  0.10100000352E+00 0.  1.
       -3    1    3    3    0  502  0.15970530719E+03  0.21540384302E+03 -0.16279518237E+04  0.16498884057E+04  0.10100000352E+00 0. -1.
</event>
<event>
 5   0  0.5805753E-07  0.3847883E+04  0.7818609E-02  0.8035957E-01
        2   -1    0    0  501    0  0.00000000000E+00  0.00000000000E+00  0.18697322014E+04  0.18697322014E+04  0.25500000920E-02 0.  1.
       -2   -1    0    0    0  501  0.00000000000E+00  0.00000000000E+00 -0.19797224663E+04  0.19797224663E+04  0.25500000920E-02 0. -1.
    10030    2    1    2    0    0  0.00000000000E+00  0.00000000000E+00 -0.10999026490E+03  0.38494546677E+04  0.38478829738E+04 0.  0.
        1    1    3    3  502    0 -0.39981977286E+02 -0.12923522502E+03  0.18649684232E+04  0.18698683166E+04  0.50400001928E-02 0.  1.
       -1    1    3    3    0  502  0.39981977286E+02  0.12923522502E+03 -0.19749586881E+04  0.19795863511E+04  0.50400001928E-02 0. -1.
</event>
<event>
 5   0  0.1943459E-07  0.4078963E+04  0.7818609E-02  0.7988804E-01
        1   -1    0    0  501    0  0.00000000000E+00  0.00000000000E+00  0.22733385669E+04  0.22733385669E+04  0.50400001928E-02 0. -1.
       -1   -1    0    0    0  501  0.00000000000E+00  0.00000000000E+00 -0.18296816102E+04  0.18296816102E+04  0.50400001928E-02 0.  1.
    10030    2    1    2    0    0  0.00000000000E+00  0.00000000000E+00  0.44365695668E+03  0.41030201771E+04  0.40789634809E+04 0.  0.
        2    1    3    3  502    0 -0.12444628055E+04  0.23854970473E+03  0.18293437623E+04  0.22253296917E+04  0.25500000920E-02 0. -1.
       -2    1    3    3    0  502  0.12444628055E+04 -0.23854970473E+03 -0.13856868056E+04  0.18776904855E+04  0.25500000920E-02 0.  1.
</event>
<event>
 5   0  0.3959190E-07  0.3856704E+04  0.7818609E-02  0.8034095E-01
       -2   -1    0    0    0  501  0.00000000000E+00  0.00000000000E+00  0.17460196920E+04  0.17460196920E+04  0.25500000920E-02 0.  1.
        2   -1    0    0  501    0  0.00000000000E+00  0.00000000000E+00 -0.21297247433E+04  0.21297247433E+04  0.25500000920E-02 0. -1.
    10030    2    1    2    0    0  0.00000000000E+00  0.00000000000E+00 -0.38370505127E+03  0.38757444353E+04  0.38567039505E+04 0.  0.
        2    1    3    3  502    0  0.10898982106E+04  0.87044618790E+03 -0.15299617485E+04  0.20703472238E+04  0.25500000920E-02 0. -1.
       -2    1    3    3    0  502 -0.10898982106E+04 -0.87044618790E+03  0.11462566972E+04  0.18053972115E+04  0.25500000920E-02 0.  1.
</event>
<event>
 5   0  0.1860500E-07  0.3919492E+04  0.7818609E-02  0.8020987E-01
       -1   -1    0    0    0  501  0.00000000000E+00  0.00000000000E+00  0.21644722182E+04  0.21644722182E+04  0.50400001928E-02 0.  1.
        1   -1    0    0  501    0  0.00000000000E+00  0.00000000000E+00 -0.17743838746E+04  0.17743838746E+04  0.50400001928E-02 0. -1.
    10030    2    1    2    0    0  0.00000000000E+00  0.00000000000E+00  0.39008834365E+03  0.39388560928E+04  0.39194921104E+04 0.  0.
        4    1    3    3  502    0  0.11824668301E+04  0.48802032454E+03  0.16870376896E+04  0.21171890375E+04  0.12699999809E+01 0.  1.
       -4    1    3    3    0  502 -0.11824668301E+04 -0.48802032454E+03 -0.12969493460E+04  0.18216670553E+04  0.12699999809E+01 0. -1.
</event>
<event>
 5   0  0.5872444E-07  0.3860449E+04  0.7818609E-02  0.8033306E-01
        2   -1    0    0  501    0  0.00000000000E+00  0.00000000000E+00  0.22677701806E+04  0.22677701806E+04  0.25500000920E-02 0.  1.
       -2   -1    0    0    0  501  0.00000000000E+00  0.00000000000E+00 -0.16429209075E+04  0.16429209075E+04  0.25500000920E-02 0. -1.
    10030    2    1    2    0    0  0.00000000000E+00  0.00000000000E+00  0.62484927316E+03  0.39106910881E+04  0.38604492190E+04 0.  0.
        3    1    3    3  502    0 -0.78235977189E+03  0.41637520581E+03  0.20494748345E+04  0.22328910032E+04  0.10100000352E+00 0.  1.
       -3    1    3    3    0  502  0.78235977189E+03 -0.41637520581E+03 -0.14246255613E+04  0.16778000849E+04  0.10100000352E+00 0. -1.
</event>
<event>
 5   0  0.1860500E-07  0.3887104E+04  0.7818609E-02  0.8027717E-01
        1   -1    0    0  501    0  0.00000000000E+00  0.00000000000E+00  0.22709151805E+04  0.22709151805E+04  0.50400001928E-02 0. -1.
       -1   -1    0    0    0  501  0.00000000000E+00  0.00000000000E+00 -0.16633795026E+04  0.16633795026E+04  0.50400001928E-02 0.  1.
    10030    2    1    2    0    0  0.00000000000E+00  0.00000000000E+00  0.60753567789E+03  0.39342946832E+04  0.38871036845E+04 0.  0.
        4    1    3    3  502    0 -0.54595376148E+03 -0.91432755353E+03  0.19493387373E+04  0.22212571914E+04  0.12699999809E+01 0. -1.
       -4    1    3    3    0  502  0.54595376148E+03  0.91432755353E+03 -0.13418030594E+04  0.17130374917E+04  0.12699999809E+01 0.  1.
</event>
<event>
 5   0  0.5805753E-07  0.3873592E+04  0.7818609E-02  0.8030544E-01
       -2   -1    0    0    0  501  0.00000000000E+00  0.00000000000E+00  0.30635904672E+04  0.30635904672E+04  0.25500000920E-02 0. -1.
        2   -1    0    0  501    0  0.00000000000E+00  0.00000000000E+00 -0.12244384047E+04  0.12244384047E+04  0.25500000920E-02 0.  1.
    10030    2    1    2    0    0  0.00000000000E+00  0.00000000000E+00  0.18391520625E+04  0.42880288719E+04  0.38735915243E+04 0.  0.
        1    1    3    3  502    0  0.56470470966E+02 -0.67283705400E+03  0.29290851819E+04  0.30059006334E+04  0.50400001928E-02 0. -1.
       -1    1    3    3    0  502 -0.56470470966E+02  0.67283705400E+03 -0.10899331193E+04  0.12821282385E+04  0.50400001928E-02 0.  1.
</event>
<event>
 5   0  0.1943459E-07  0.3753552E+04  0.7818609E-02  0.8056197E-01
       -1   -1    0    0    0  501  0.00000000000E+00  0.00000000000E+00  0.27444770540E+04  0.27444770540E+04  0.50400001928E-02 0.  1.
        1   -1    0    0  501    0  0.00000000000E+00  0.00000000000E+00 -0.12834092615E+04  0.12834092615E+04  0.50400001928E-02 0. -1.
    10030    2    1    2    0    0  0.00000000000E+00  0.00000000000E+00  0.14610677924E+04  0.40278863155E+04  0.37535515285E+04 0.  0.
        2    1    3    3  502    0 -0.47178095384E+03 -0.48669832577E+03 -0.11474704993E+04  0.13327194286E+04  0.25500000920E-02 0. -1.
       -2    1    3    3    0  502  0.47178095384E+03  0.48669832577E+03  0.26085382917E+04  0.26951668869E+04  0.25500000920E-02 0.  1.
</event>
<event>
 5   0  0.5735179E-07  0.3954246E+04  0.7818609E-02  0.8013841E-01
       -2   -1    0    0    0  501  0.00000000000E+00  0.00000000000E+00  0.23732785893E+04  0.23732785893E+04  0.25500000920E-02 0.  1.
        2   -1    0    0  501    0  0.00000000000E+00  0.00000000000E+00 -0.16470950515E+04  0.16470950515E+04  0.25500000920E-02 0. -1.
    10030    2    1    2    0    0  0.00000000000E+00  0.00000000000E+00  0.72618353784E+03  0.40203736408E+04  0.39542460319E+04 0.  0.
        5    1    3    3  502    0  0.69596529760E+03 -0.10977933655E+04  0.18777961918E+04  0.22837816439E+04  0.46999998093E+01 0.  1.
       -5    1    3    3    0  502 -0.69596529760E+03  0.10977933655E+04 -0.11516126540E+04  0.17365919969E+04  0.46999998093E+01 0. -1.
</event>
<event>
 5   0  0.1876027E-07  0.3905340E+04  0.7818609E-02  0.8023919E-01
       -1   -1    0    0    0  501  0.00000000000E+00  0.00000000000E+00  0.15673677580E+04  0.15673677580E+04  0.50400001928E-02 0. -1.
        1   -1    0    0  501    0  0.00000000000E+00  0.00000000000E+00 -0.24326906690E+04  0.24326906690E+04  0.50400001928E-02 0.  1.
    10030    2    1    2    0    0  0.00000000000E+00  0.00000000000E+00 -0.86532291104E+03  0.40000584270E+04  0.39053404050E+04 0.  0.
        3    1    3    3  502    0 -0.98694690446E+03 -0.16611503340E+04 -0.72134159285E+03  0.20624786855E+04  0.10100000352E+00 0. -1.
       -3    1    3    3    0  502  0.98694690446E+03  0.16611503340E+04 -0.14398131819E+03  0.19375797415E+04  0.10100000352E+00 0.  1.
</event>
<event>
 5   0  0.1860500E-07  0.3402222E+04  0.7818609E-02  0.8137361E-01
       -1   -1    0    0    0  501  0.00000000000E+00  0.00000000000E+00  0.14956841441E+04  0.14956841441E+04  0.50400001928E-02 0.  1.
        1   -1    0    0  501    0  0.00000000000E+00  0.00000000000E+00 -0.19347522319E+04  0.19347522319E+04  0.50400001928E-02 0. -1.
    10030    2    1    2    0    0  0.00000000000E+00  0.00000000000E+00 -0.43906808774E+03  0.34304363760E+04  0.34022217659E+04 0.  0.
        5    1    3    3  502    0  0.94392177516E+03 -0.18419758587E+03 -0.16343236501E+04  0.18962998053E+04  0.46999998093E+01 0. -1.
       -5    1    3    3    0  502 -0.94392177516E+03  0.18419758587E+03  0.11952555624E+04  0.15341365707E+04  0.46999998093E+01 0.  1.
</event>
<event>
 5   0  0.1943459E-07  0.3929357E+04  0.7818609E-02  0.8018951E-01
        1   -1    0    0  501    0  0.00000000000E+00  0.00000000000E+00  0.29987307828E+04  0.29987307828E+04  0.50400001928E-02 0. -1.
       -1   -1    0    0    0  501  0.00000000000E+00  0.00000000000E+00 -0.12871981355E+04  0.12871981355E+04  0.50400001928E-02 0.  1.
    10030    2    1    2    0    0  0.00000000000E+00  0.00000000000E+00  0.17115326474E+04  0.42859289183E+04  0.39293565236E+04 0.  0.
        2    1    3    3  502    0  0.50016304165E+03 -0.20535831205E+03  0.29159842527E+04  0.29656869806E+04  0.25500000920E-02 0. -1.
       -2    1    3    3    0  502 -0.50016304165E+03  0.20535831205E+03 -0.12044516054E+04  0.13202419378E+04  0.25500000920E-02 0.  1.
</event>
<event>
 5   0  0.3959190E-07  0.3472936E+04  0.7818609E-02  0.8120234E-01
       -2   -1    0    0    0  501  0.00000000000E+00  0.00000000000E+00  0.17095050471E+04  0.17095050471E+04  0.25500000920E-02 0. -1.
        2   -1    0    0  501    0  0.00000000000E+00  0.00000000000E+00 -0.17638564306E+04  0.17638564306E+04  0.25500000920E-02 0.  1.
    10030    2    1    2    0    0  0.00000000000E+00  0.00000000000E+00 -0.54351383444E+02  0.34733614777E+04  0.34729362047E+04 0.  0.
        2    1    3    3  502    0 -0.11505599053E+03 -0.15807271268E+04  0.68240772850E+03  0.17255771319E+04  0.25500000920E-02 0. -1.
       -2    1    3    3    0  502  0.11505599053E+03  0.15807271268E+04 -0.73675911195E+03  0.17477843458E+04  0.25500000920E-02 0.  1.
</event>
<event>
 5   0  0.6095665E-07  0.3878939E+04  0.7818609E-02  0.8029424E-01
       -2   -1    0    0    0  501  0.00000000000E+00  0.00000000000E+00  0.18023005759E+04  0.18023005759E+04  0.25500000920E-02 0.  1.
        2   -1    0    0  501    0  0.00000000000E+00  0.00000000000E+00 -0.20870785147E+04  0.20870785147E+04  0.25500000920E-02 0. -1.
    10030    2    1    2    0    0  0.00000000000E+00  0.00000000000E+00 -0.28477793886E+03  0.38893790906E+04  0.38789394473E+04 0.  0.
        4    1    3    3  502    0  0.15953080016E+04  0.10636932659E+04 -0.43487631327E+03  0.19661052883E+04  0.12699999809E+01 0. -1.
       -4    1    3    3    0  502 -0.15953080016E+04 -0.10636932659E+04  0.15009837441E+03  0.19232738023E+04  0.12699999809E+01 0.  1.
</event>
<event>
 5   0  0.5872444E-07  0.3857576E+04  0.7818609E-02  0.8033911E-01
       -2   -1    0    0    0  501  0.00000000000E+00  0.00000000000E+00  0.32304857375E+04  0.32304857375E+04  0.25500000920E-02 0. -1.
        2   -1    0    0  501    0  0.00000000000E+00  0.00000000000E+00 -0.11515988643E+04  0.11515988643E+04  0.25500000920E-02 0.  1.
    10030    2    1    2    0    0  0.00000000000E+00  0.00000000000E+00  0.20788868732E+04  0.43820846017E+04  0.38575762890E+04 0.  0.
        3    1    3    3  502    0  0.54850164643E+03 -0.10287058303E+04  0.27849703431E+04  0.30191305973E+04  0.10100000352E+00 0. -1.
       -3    1    3    3    0  502 -0.54850164643E+03  0.10287058303E+04 -0.70608346994E+03  0.13629540044E+04  0.10100000352E+00 0.  1.
</event>
<event>
 5   0  0.3959190E-07  0.3687975E+04  0.7818609E-02  0.8070632E-01
        2   -1    0    0  501    0  0.00000000000E+00  0.00000000000E+00  0.12309263831E+04  0.12309263831E+04  0.25500000920E-02 0. -1.
       -2   -1    0    0    0  501  0.00000000000E+00  0.00000000000E+00 -0.27623833116E+04  0.27623833116E+04  0.25500000920E-02 0.  1.
    10030    2    1    2    0    0  0.00000000000E+00  0.00000000000E+00 -0.15314569285E+04  0.39933096947E+04  0.36879753245E+04 0.  0.
        2    1    3    3  502    0 -0.45832355752E+03 -0.12709089423E+04  0.59317337964E+03  0.14755082790E+04  0.25500000920E-02 0. -1.
       -2    1    3    3    0  502  0.45832355752E+03  0.12709089423E+04 -0.21246303081E+04  0.25178014158E+04  0.25500000920E-02 0.  1.
</event>
<event>
 5   0  0.5735179E-07  0.3871801E+04  0.7818609E-02  0.8030920E-01
        2   -1    0    0  501    0  0.00000000000E+00  0.00000000000E+00  0.16292158445E+04  0.16292158445E+04  0.25500000920E-02 0. -1.
       -2   -1    0    0    0  501  0.00000000000E+00  0.00000000000E+00 -0.23003152223E+04  0.23003152223E+04  0.25500000920E-02 0.  1.
    10030    2    1    2    0    0  0.00000000000E+00  0.00000000000E+00 -0.67109937778E+03  0.39295310668E+04  0.38718006185E+04 0.  0.
        5    1    3    3  502    0  0.14613844212E+04 -0.23680320161E+03 -0.16015331594E+04  0.21809747209E+04  0.46999998093E+01 0.  1.
       -5    1    3    3    0  502 -0.14613844212E+04  0.23680320161E+03  0.93043378158E+03  0.17485563459E+04  0.46999998093E+01 0. -1.
</event>
<event>
 5   0  0.2666813E-07  0.3893470E+04  0.7818609E-02  0.8026389E-01
       -1   -1    0    0    0  501  0.00000000000E+00  0.00000000000E+00  0.21477529058E+04  0.21477529058E+04  0.50400001928E-02 0.  1.
        1   -1    0    0  501    0  0.00000000000E+00  0.00000000000E+00 -0.17645315137E+04  0.17645315137E+04  0.50400001928E-02 0. -1.
    10030    2    1    2    0    0  0.00000000000E+00  0.00000000000E+00  0.38322139211E+03  0.39122844195E+04  0.38934702701E+04 0.  0.
        1    1    3    3  502    0  0.17134338618E+04 -0.65683407960E+03  0.84474475111E+03  0.20201188830E+04  0.50400001928E-02 0.  1.
       -1    1    3    3    0  502 -0.17134338618E+04  0.65683407960E+03 -0.46152335901E+03  0.18921655366E+04  0.50400001928E-02 0. -1.
</event>
<event>
 5   0  0.5872444E-07  0.3890110E+04  0.7818609E-02  0.8027089E-01
       -2   -1    0    0    0  501  0.00000000000E+00  0.00000000000E+00  0.25581660372E+04  0.25581660372E+04  0.25500000920E-02 0.  1.
        2   -1    0    0  501    0  0.00000000000E+00  0.00000000000E+00 -0.14788872871E+04  0.14788872871E+04  0.25500000920E-02 0. -1.
    10030    2    1    2    0    0  0.00000000000E+00  0.00000000000E+00  0.10792787501E+04  0.40370533244E+04  0.38901101428E+04 0.  0.
        3    1    3    3  502    0 -0.10446182846E+04  0.13406709470E+04  0.15212070696E+04  0.22809421096E+04  0.10100000352E+00 0.  1.
       -3    1    3    3    0  502  0.10446182846E+04 -0.13406709470E+04 -0.44192831952E+03  0.17561112147E+04  0.10100000352E+00 0. -1.
</event>
<event>
 5   0  0.5805753E-07  0.3852982E+04  0.7818609E-02  0.8034880E-01
        2   -1    0    0  501    0  0.00000000000E+00  0.00000000000E+00  0.20172861146E+04  0.20172861146E+04  0.25500000920E-02 0.  1.
       -2   -1    0    0    0  501  0.00000000000E+00  0.00000000000E+00 -0.18397820984E+04  0.18397820984E+04  0.25500000920E-02 0. -1.
    10030    2    1    2    0    0  0.00000000000E+00  0.00000000000E+00  0.17750401617E+03  0.38570682130E+04  0.38529816407E+04 0.  0.
        1    1    3    3  502    0 -0.13306982367E+04 -0.13933563633E+03 -0.12987897618E+04  0.18646788094E+04  0.50400001928E-02 0. -1.
       -1    1    3    3    0  502  0.13306982367E+04  0.13933563633E+03  0.14762937779E+04  0.19923894036E+04  0.50400001928E-02 0.  1.
</event>
<event>
 5   0  0.1860500E-07  0.3907896E+04  0.7818609E-02  0.8023389E-01
       -1   -1    0    0    0  501  0.00000000000E+00  0.00000000000E+00  0.27288983363E+04  0.27288983363E+04  0.50400001928E-02 0.  1.
        1   -1    0    0  501    0  0.00000000000E+00  0.00000000000E+00 -0.13990671813E+04  0.13990671813E+04  0.50400001928E-02 0. -1.
    10030    2    1    2    0    0  0.00000000000E+00  0.00000000000E+00  0.13298311550E+04  0.41279655176E+04  0.39078956503E+04 0.  0.
        5    1    3    3  502    0 -0.12810322383E+04 -0.42164342052E+03 -0.82858835085E+03  0.15828479127E+04  0.46999998093E+01 0. -1.
       -5    1    3    3    0  502  0.12810322383E+04  0.42164342052E+03  0.21584195058E+04  0.25451176049E+04  0.46999998093E+01 0.  1.
</event>
<event>
 5   0  0.1876027E-07  0.3242961E+04  0.7818609E-02  0.8177563E-01
        1   -1    0    0  501    0  0.00000000000E+00  0.00000000000E+00  0.18391353569E+04  0.18391353569E+04  0.50400001928E-02 0. -1.
       -1   -1    0    0    0  501  0.00000000000E+00  0.00000000000E+00 -0.14295839014E+04  0.14295839014E+04  0.50400001928E-02 0.  1.
    10030    2    1    2    0    0  0.00000000000E+00  0.00000000000E+00  0.40955145550E+03  0.32687192584E+04  0.32429605602E+04 0.  0.
        3    1    3    3  502    0 -0.24599719399E+03 -0.10724197183E+04 -0.99573452643E+03  0.14839426973E+04  0.10100000352E+00 0.  1.
       -3    1    3    3    0  502  0.24599719399E+03  0.10724197183E+04  0.14052859819E+04  0.17847765610E+04  0.10100000352E+00 0. -1.
</event>
<event>
 5   0  0.5735179E-07  0.3807616E+04  0.7818609E-02  0.8044523E-01
        2   -1    0    0  501    0  0.00000000000E+00  0.00000000000E+00  0.24807854842E+04  0.24807854842E+04  0.25500000920E-02 0. -1.
       -2   -1    0    0    0  501  0.00000000000E+00  0.00000000000E+00 -0.14610228711E+04  0.14610228711E+04  0.25500000920E-02 0.  1.
    10030    2    1    2    0    0  0.00000000000E+00  0.00000000000E+00  0.10197626132E+04  0.39418083553E+04  0.38076157005E+04 0.  0.
        5    1    3    3  502    0  0.11062375810E+04  0.53909404918E+03 -0.99392422642E+03  0.15818632802E+04  0.46999998093E+01 0.  1.
       -5    1    3    3    0  502 -0.11062375810E+04 -0.53909404918E+03  0.20136868396E+04  0.23599450751E+04  0.46999998093E+01 0. -1.
</event>
<event>
 5   0  0.1876027E-07  0.3245123E+04  0.7818609E-02  0.8177001E-01
        1   -1    0    0  501    0  0.00000000000E+00  0.00000000000E+00  0.30515033333E+04  0.30515033333E+04  0.50400001928E-02 0. -1.
       -1   -1    0    0    0  501  0.00000000000E+00  0.00000000000E+00 -0.86275722395E+03  0.86275722396E+03  0.50400001928E-02 0.  1.
    10030    2    1    2    0    0  0.00000000000E+00  0.00000000000E+00  0.21887461094E+04  0.39142605573E+04  0.32451234459E+04 0.  0.
        3    1    3    3  502    0  0.35684277826E+02  0.16219948368E+04  0.10656788211E+04  0.19410852578E+04  0.10100000352E+00 0.  1.
       -3    1    3    3    0  502 -0.35684277826E+02 -0.16219948368E+04  0.11230672883E+04  0.19731752995E+04  0.10100000352E+00 0. -1.
</event>
<event>
 5   0  0.5872444E-07  0.3905207E+04  0.7818609E-02  0.8023947E-01
       -2   -1    0    0    0  501  0.00000000000E+00  0.00000000000E+00  0.16013701540E+04  0.16013701540E+04  0.25500000920E-02 0.  1.
        2   -1    0    0  501    0  0.00000000000E+00  0.00000000000E+00 -0.23808739256E+04  0.23808739256E+04  0.25500000920E-02 0. -1.
    10030    2    1    2    0    0  0.00000000000E+00  0.00000000000E+00 -0.77950377168E+03  0.39822440796E+04  0.39052070085E+04 0.  0.
        3    1    3    3  502    0  0.67636555721E+03 -0.17687866423E+04 -0.87515026477E+03  0.20861362729E+04  0.10100000352E+00 0. -1.
       -3    1    3    3    0  502 -0.67636555721E+03  0.17687866423E+04  0.95646493090E+02  0.18961078067E+04  0.10100000352E+00 0.  1.
</event>
<event>
 5   0  0.5735179E-07  0.3751978E+04  0.7818609E-02  0.8056539E-01
        2   -1    0    0  501    0  0.00000000000E+00  0.00000000000E+00  0.21053996831E+04  0.21053996831E+04  0.25500000920E-02 0.  1.
       -2   -1    0    0    0  501  0.00000000000E+00  0.00000000000E+00 -0.16715759865E+04  0.16715759865E+04  0.25500000920E-02 0. -1.
    10030    2    1    2    0    0  0.00000000000E+00  0.00000000000E+00  0.43382369660E+03  0.37769756695E+04  0.37519784392E+04 0.  0.
        5    1    3    3  502    0 -0.17525765034E+04 -0.42352135002E+03  0.73845501542E+03  0.19483923204E+04  0.46999998093E+01 0. -1.
       -5    1    3    3    0  502  0.17525765034E+04  0.42352135002E+03 -0.30463131882E+03  0.18285833491E+04  0.46999998093E+01 0.  1.
</event>
<event>
 5   0  0.6095665E-07  0.3875927E+04  0.7818609E-02  0.8030055E-01
       -2   -1    0    0    0  501  0.00000000000E+00  0.00000000000E+00  0.14491095160E+04  0.14491095160E+04  0.25500000920E-02 0.  1.
        2   -1    0    0  501    0  0.00000000000E+00  0.00000000000E+00 -0.25917314075E+04  0.25917314075E+04  0.25500000920E-02 0. -1.
    10030    2    1    2    0    0  0.00000000000E+00  0.00000000000E+00 -0.11426218915E+04  0.40408409236E+04  0.38759270610E+04 0.  0.
        4    1    3    3  502    0 -0.61966776363E+03  0.18093422010E+04 -0.89766966881E+03  0.21127043771E+04  0.12699999809E+01 0. -1.
       -4    1    3    3    0  502  0.61966776363E+03 -0.18093422010E+04 -0.24495222272E+03  0.19281365465E+04  0.12699999809E+01 0.  1.
</event>
<event>
 5   0  0.5735179E-07  0.3869871E+04  0.7818609E-02  0.8031325E-01
        2   -1    0    0  501    0  0.00000000000E+00  0.00000000000E+00  0.32522277036E+04  0.32522277036E+04  0.25500000920E-02 0.  1.
       -2   -1    0    0    0  501  0.00000000000E+00  0.00000000000E+00 -0.11512031154E+04  0.11512031154E+04  0.25500000920E-02 0. -1.
    10030    2    1    2    0    0  0.00000000000E+00  0.00000000000E+00  0.21010245882E+04  0.44034308189E+04  0.38698706254E+04 0.  0.
        5    1    3    3  502    0  0.17722364947E+03 -0.12099639673E+04  0.27567684226E+04  0.30158274569E+04  0.46999998093E+01 0.  1.
       -5    1    3    3    0  502 -0.17722364947E+03  0.12099639673E+04 -0.65574383438E+03  0.13876033621E+04  0.46999998093E+01 0. -1.
</event>
<event>
 5   0  0.3959190E-07  0.3726447E+04  0.7818609E-02  0.8062126E-01
       -2   -1    0    0    0  501  0.00000000000E+00  0.00000000000E+00  0.14114249131E+04  0.14114249131E+04  0.25500000920E-02 0. -1.
        2   -1    0    0  501    0  0.00000000000E+00  0.00000000000E+00 -0.24596436875E+04  0.24596436875E+04  0.25500000920E-02 0.  1.
    10030    2    1    2    0    0  0.00000000000E+00  0.00000000000E+00 -0.10482187745E+04  0.38710686006E+04  0.37264473043E+04 0.  0.
        2    1    3    3  502    0  0.48896896868E+02 -0.16112478494E+04 -0.14947665146E+04  0.21983715500E+04  0.25500000920E-02 0.  1.
       -2    1    3    3    0  502 -0.48896896868E+02  0.16112478494E+04  0.44654774012E+03  0.16726970506E+04  0.25500000920E-02 0. -1.
</event>
<event>
 5   0  0.1943459E-07  0.3586920E+04  0.7818609E-02  0.8093494E-01
       -1   -1    0    0    0  501  0.00000000000E+00  0.00000000000E+00  0.28284196020E+04  0.28284196020E+04  0.50400001928E-02 0. -1.
        1   -1    0    0  501    0  0.00000000000E+00  0.00000000000E+00 -0.11372068923E+04  0.11372068923E+04  0.50400001928E-02 0.  1.
    10030    2    1    2    0    0  0.00000000000E+00  0.00000000000E+00  0.16912127098E+04  0.39656264943E+04  0.35869197179E+04 0.  0.
        2    1    3    3  502    0  0.16039527958E+04 -0.30478418786E+03  0.24985747187E+02  0.16328448365E+04  0.25500000920E-02 0.  1.
       -2    1    3    3    0  502 -0.16039527958E+04  0.30478418786E+03  0.16662269626E+04  0.23327816579E+04  0.25500000920E-02 0. -1.
</event>
<event>
 5   0  0.5735179E-07  0.2866221E+04  0.7818609E-02  0.8282999E-01
        2   -1    0    0  501    0  0.00000000000E+00  0.00000000000E+00  0.14442948323E+04  0.14442948323E+04  0.25500000920E-02 0. -1.
       -2   -1    0    0    0  501  0.00000000000E+00  0.00000000000E+00 -0.14220127246E+04  0.14220127246E+04  0.25500000920E-02 0.  1.
    10030    2    1    2    0    0  0.00000000000E+00  0.00000000000E+00  0.22282107701E+02  0.28663075570E+04  0.28662209473E+04 0.  0.
        5    1    3    3  502    0  0.14309975150E+04 -0.34157289521E+02  0.80877882799E+02  0.14336958988E+04  0.46999998093E+01 0.  1.
       -5    1    3    3    0  502 -0.14309975150E+04  0.34157289521E+02 -0.58595775098E+02  0.14326116582E+04  0.46999998093E+01 0. -1.
</event>
<event>
 5   0  0.1860500E-07  0.3299331E+04  0.7818609E-02  0.8163066E-01
       -1   -1    0    0    0  501  0.00000000000E+00  0.00000000000E+00  0.11482822704E+04  0.11482822704E+04  0.50400001928E-02 0.  1.
        1   -1    0    0  501    0  0.00000000000E+00  0.00000000000E+00 -0.23699711347E+04  0.23699711347E+04  0.50400001928E-02 0. -1.
    10030    2    1    2    0    0  0.00000000000E+00  0.00000000000E+00 -0.12216888643E+04  0.35182534050E+04  0.32993307414E+04 0.  0.
        5    1    3    3  502    0  0.87939196981E+03 -0.62003641961E+03 -0.19442549129E+04  0.22221441570E+04  0.46999998093E+01 0. -1.
       -5    1    3    3    0  502 -0.87939196981E+03  0.62003641961E+03  0.72256604860E+03  0.12961092480E+04  0.46999998093E+01 0.  1.
</event>
<event>
 5   0  0.1943459E-07  0.3913005E+04  0.7818609E-02  0.8022330E-01
        1   -1    0    0  501    0  0.00000000000E+00  0.00000000000E+00  0.24739970830E+04  0.24739970830E+04  0.50400001928E-02 0. -1.
       -1   -1    0    0    0  501  0.00000000000E+00  0.00000000000E+00 -0.15472542135E+04  0.15472542136E+04  0.50400001928E-02 0.  1.
    10030    2    1    2    0    0  0.00000000000E+00  0.00000000000E+00  0.92674286946E+03  0.40212512966E+04  0.39130051935E+04 0.  0.
        2    1    3    3  502    0 -0.22404973166E+03 -0.12559985104E+04  0.19877017738E+04  0.23619248256E+04  0.25500000920E-02 0. -1.
       -2    1    3    3    0  502  0.22404973166E+03  0.12559985104E+04 -0.10609589044E+04  0.16593264709E+04  0.25500000920E-02 0.  1.
</event>
<event>
 5   0  0.1876027E-07  0.4216724E+04  0.7818609E-02  0.7962199E-01
       -1   -1    0    0    0  501  0.00000000000E+00  0.00000000000E+00  0.35641465695E+04  0.35641465695E+04  0.50400001928E-02 0. -1.
        1   -1    0    0  501    0  0.00000000000E+00  0.00000000000E+00 -0.12471961016E+04  0.12471961016E+04  0.50400001928E-02 0.  1.
    10030    2    1    2    0    0  0.00000000000E+00  0.00000000000E+00  0.23169504679E+04  0.48113426711E+04  0.42167237078E+04 0.  0.
        3    1    3    3  502    0 -0.16807801311E+04  0.12727207117E+04  0.11371337574E+04  0.23953941328E+04  0.10100000352E+00 0.  1.
       -3    1    3    3    0  502  0.16807801311E+04 -0.12727207117E+04  0.11798167105E+04  0.24159485383E+04  0.10100000352E+00 0. -1.
</event>
<event>
 5   0  0.1860500E-07  0.3895366E+04  0.7818609E-02  0.8025994E-01
       -1   -1    0    0    0  501  0.00000000000E+00  0.00000000000E+00  0.18590104932E+04  0.18590104933E+04  0.50400001928E-02 0. -1.
        1   -1    0    0  501    0  0.00000000000E+00  0.00000000000E+00 -0.20405850802E+04  0.20405850802E+04  0.50400001928E-02 0.  1.
    10030    2    1    2    0    0  0.00000000000E+00  0.00000000000E+00 -0.18157458696E+03  0.38995955735E+04  0.38953660041E+04 0.  0.
        5    1    3    3  502    0  0.18829325423E+04 -0.46186146015E+03 -0.27725821836E+03  0.19584803233E+04  0.46999998093E+01 0.  1.
       -5    1    3    3    0  502 -0.18829325423E+04  0.46186146015E+03  0.95683631397E+02  0.19411152502E+04  0.46999998093E+01 0. -1.
</event>
<event>
 5   0  0.1860500E-07  0.2946191E+04  0.7818609E-02  0.8259265E-01
        1   -1    0    0  501    0  0.00000000000E+00  0.00000000000E+00  0.21071736767E+04  0.21071736767E+04  0.50400001928E-02 0.  1.
       -1   -1    0    0    0  501  0.00000000000E+00  0.00000000000E+00 -0.10298203590E+04  0.10298203590E+04  0.50400001928E-02 0. -1.
    10030    2    1    2    0    0  0.00000000000E+00  0.00000000000E+00  0.10773533177E+04  0.31369940358E+04  0.29461910001E+04 0.  0.
        5    1    3    3  502    0  0.12087815251E+04 -0.47083729755E+03 -0.20448472426E+03  0.13132694425E+04  0.46999998093E+01 0. -1.
       -5    1    3    3    0  502 -0.12087815251E+04  0.47083729755E+03  0.12818380419E+04  0.18237245932E+04  0.46999998093E+01 0.  1.
</event>
<event>
 5   0  0.1860500E-07  0.3885072E+04  0.7818609E-02  0.8028141E-01
       -1   -1    0    0    0  501  0.00000000000E+00  0.00000000000E+00  0.17129354148E+04  0.17129354148E+04  0.50400001928E-02 0.  1.
        1   -1    0    0  501    0  0.00000000000E+00  0.00000000000E+00 -0.22029115334E+04  0.22029115334E+04  0.50400001928E-02 0. -1.
    10030    2    1    2    0    0  0.00000000000E+00  0.00000000000E+00 -0.48997611861E+03  0.39158469482E+04  0.38850715212E+04 0.  0.
        5    1    3    3  502    0 -0.16993671541E+04 -0.52261859765E+03 -0.10337754192E+04  0.20566216546E+04  0.46999998093E+01 0. -1.
       -5    1    3    3    0  502  0.16993671541E+04  0.52261859765E+03  0.54379930057E+03  0.18592252936E+04  0.46999998093E+01 0.  1.
</event>
<event>
 5   0  0.3959190E-07  0.3878072E+04  0.7818609E-02  0.8029605E-01
        2   -1    0    0  501    0  0.00000000000E+00  0.00000000000E+00  0.19444318577E+04  0.19444318577E+04  0.25500000920E-02 0. -1.
       -2   -1    0    0    0  501  0.00000000000E+00  0.00000000000E+00 -0.19336552163E+04  0.19336552163E+04  0.25500000920E-02 0.  1.
    10030    2    1    2    0    0  0.00000000000E+00  0.00000000000E+00  0.10776641408E+02  0.38780870740E+04  0.38780721006E+04 0.  0.
        2    1    3    3  502    0 -0.86503567543E+02  0.11669948379E+04 -0.15407421541E+04  0.19347470647E+04  0.25500000920E-02 0.  1.
       -2    1    3    3    0  502  0.86503567543E+02 -0.11669948379E+04  0.15515187955E+04  0.19433400093E+04  0.25500000920E-02 0. -1.
</event>
<event>
 5   0  0.1860500E-07  0.3821368E+04  0.7818609E-02  0.8041585E-01
       -1   -1    0    0    0  501  0.00000000000E+00  0.00000000000E+00  0.18331673813E+04  0.18331673813E+04  0.50400001928E-02 0. -1.
        1   -1    0    0  501    0  0.00000000000E+00  0.00000000000E+00 -0.19914788030E+04  0.19914788030E+04  0.50400001928E-02 0.  1.
    10030    2    1    2    0    0  0.00000000000E+00  0.00000000000E+00 -0.15831142175E+03  0.38246461843E+04  0.38213683320E+04 0.  0.
        4    1    3    3  502    0  0.18720984149E+04  0.10269799905E+03 -0.44745643164E+03  0.19275679561E+04  0.12699999809E+01 0.  1.
       -4    1    3    3    0  502 -0.18720984149E+04 -0.10269799905E+03  0.28914500989E+03  0.18970782282E+04  0.12699999809E+01 0. -1.
</event>
<event>
 5   0  0.5805753E-07  0.3833533E+04  0.7818609E-02  0.8038997E-01
       -2   -1    0    0    0  501  0.00000000000E+00  0.00000000000E+00  0.20012249976E+04  0.20012249976E+04  0.25500000920E-02 0. -1.
        2   -1    0    0  501    0  0.00000000000E+00  0.00000000000E+00 -0.18358721325E+04  0.18358721325E+04  0.25500000920E-02 0.  1.
    10030    2    1    2    0    0  0.00000000000E+00  0.00000000000E+00  0.16535286517E+03  0.38370971301E+04  0.38335326810E+04 0.  0.
        1    1    3    3  502    0  0.11699480939E+04 -0.73883220244E+03  0.14103114950E+04  0.19757606329E+04  0.50400001928E-02 0. -1.
       -1    1    3    3    0  502 -0.11699480939E+04  0.73883220244E+03 -0.12449586298E+04  0.18613364972E+04  0.50400001928E-02 0.  1.
</event>
<event>
 5   0  0.5805753E-07  0.2678411E+04  0.7818609E-02  0.8342044E-01
        2   -1    0    0  501    0  0.00000000000E+00  0.00000000000E+00  0.11537063963E+04  0.11537063963E+04  0.25500000920E-02 0. -1.
       -2   -1    0    0    0  501  0.00000000000E+00  0.00000000000E+00 -0.15545295990E+04  0.15545295990E+04  0.25500000920E-02 0.  1.
    10030    2    1    2    0    0  0.00000000000E+00  0.00000000000E+00 -0.40082320274E+03  0.27082359952E+04  0.26784105298E+04 0.  0.
        1    1    3    3  502    0  0.20756608877E+03 -0.11181630227E+04 -0.91546280956E+03  0.14599467053E+04  0.50400001928E-02 0.  1.
       -1    1    3    3    0  502 -0.20756608877E+03  0.11181630227E+04  0.51463960682E+03  0.12482892900E+04  0.50400001928E-02 0. -1.
</event>
<event>
 5   0  0.1943459E-07  0.3850752E+04  0.7818609E-02  0.8035350E-01
       -1   -1    0    0    0  501  0.00000000000E+00  0.00000000000E+00  0.33080276670E+04  0.33080276670E+04  0.50400001928E-02 0. -1.
        1   -1    0    0  501    0  0.00000000000E+00  0.00000000000E+00 -0.11206295432E+04  0.11206295432E+04  0.50400001928E-02 0.  1.
    10030    2    1    2    0    0  0.00000000000E+00  0.00000000000E+00  0.21873981238E+04  0.44286572102E+04  0.38507524113E+04 0.  0.
        2    1    3    3  502    0  0.12718647665E+04 -0.85915646900E+03 -0.24320345464E+03  0.15540069957E+04  0.25500000920E-02 0.  1.
       -2    1    3    3    0  502 -0.12718647665E+04  0.85915646900E+03  0.24306015785E+04  0.28746502145E+04  0.25500000920E-02 0. -1.
</event>
<event>
 5   0  0.6095665E-07  0.3801278E+04  0.7818609E-02  0.8045881E-01
        2   -1    0    0  501    0  0.00000000000E+00  0.00000000000E+00  0.18248911845E+04  0.18248911845E+04  0.25500000920E-02 0. -1.
       -2   -1    0    0    0  501  0.00000000000E+00  0.00000000000E+00 -0.19795308251E+04  0.19795308251E+04  0.25500000920E-02 0.  1.
    10030    2    1    2    0    0  0.00000000000E+00  0.00000000000E+00 -0.15463964058E+03  0.38044220096E+04  0.38012778653E+04 0.  0.
        4    1    3    3  502    0  0.63806905897E+03  0.10165021270E+03  0.17116042479E+04  0.18294959973E+04  0.12699999809E+01 0. -1.
       -4    1    3    3    0  502 -0.63806905897E+03 -0.10165021270E+03 -0.18662438885E+04  0.19749260123E+04  0.12699999809E+01 0.  1.
</event>
<event>
 5   0  0.5805753E-07  0.3932182E+04  0.7818609E-02  0.8018369E-01
        2   -1    0    0  501    0  0.00000000000E+00  0.00000000000E+00  0.21052082918E+04  0.21052082918E+04  0.25500000920E-02 0.  1.
       -2   -1    0    0    0  501  0.00000000000E+00  0.00000000000E+00 -0.18361667234E+04  0.18361667234E+04  0.25500000920E-02 0. -1.
    10030    2    1    2    0    0  0.00000000000E+00  0.00000000000E+00  0.26904156845E+03  0.39413750152E+04  0.39321817919E+04 0.  0.
        1    1    3    3  502    0 -0.66923925818E+03 -0.14930828358E+04  0.12271775896E+04  0.20452731787E+04  0.50400001928E-02 0.  1.
       -1    1    3    3    0  502  0.66923925818E+03  0.14930828358E+04 -0.95813602118E+03  0.18961018365E+04  0.50400001928E-02 0. -1.
</event>
<event>
 5   0  0.1943459E-07  0.3867005E+04  0.7818609E-02  0.8031927E-01
       -1   -1    0    0    0  501  0.00000000000E+00  0.00000000000E+00  0.13623164338E+04  0.13623164338E+04  0.50400001928E-02 0.  1.
        1   -1    0    0  501    0  0.00000000000E+00  0.00000000000E+00 -0.27441730660E+04  0.27441730660E+04  0.50400001928E-02 0. -1.
    10030    2    1    2    0    0  0.00000000000E+00  0.00000000000E+00 -0.13818566322E+04  0.41064894999E+04  0.38670050764E+04 0.  0.
        2    1    3    3  502    0  0.14545810535E+04  0.32800135200E+03  0.61616979510E+03  0.16133989415E+04  0.25500000920E-02 0.  1.
       -2    1    3    3    0  502 -0.14545810535E+04 -0.32800135200E+03 -0.19980264273E+04  0.24930905584E+04  0.25500000920E-02 0. -1.
</event>
<event>
 5   0  0.5805753E-07  0.3946421E+04  0.7818609E-02  0.8015443E-01
        2   -1    0    0  501    0  0.00000000000E+00  0.00000000000E+00  0.19364401046E+04  0.19364401046E+04  0.25500000920E-02 0.  1.
       -2   -1    0    0    0  501  0.00000000000E+00  0.00000000000E+00 -0.20106795082E+04  0.20106795082E+04  0.25500000920E-02 0. -1.
    10030    2    1    2    0    0  0.00000000000E+00  0.00000000000E+00 -0.74239403652E+02  0.39471196128E+04  0.39464213851E+04 0.  0.
        1    1    3    3  502    0 -0.14580312030E+04 -0.82185061710E+03  0.10081809957E+04  0.19538992671E+04  0.50400001928E-02 0.  1.
       -1    1    3    3    0  502  0.14580312030E+04  0.82185061710E+03 -0.10824203993E+04  0.19932203457E+04  0.50400001928E-02 0. -1.
</event>
<event>
 5   0  0.1860500E-07  0.3950222E+04  0.7818609E-02  0.8014664E-01
       -1   -1    0    0    0  501  0.00000000000E+00  0.00000000000E+00  0.33510308388E+04  0.33510308388E+04  0.50400001928E-02 0.  1.
        1   -1    0    0  501    0  0.00000000000E+00  0.00000000000E+00 -0.11641382920E+04  0.11641382920E+04  0.50400001928E-02 0. -1.
    10030    2    1    2    0    0  0.00000000000E+00  0.00000000000E+00  0.21868925468E+04  0.45151691308E+04  0.39502219265E+04 0.  0.
        4    1    3    3  502    0  0.66956610930E+03  0.18106645769E+04  0.15705605043E+04  0.24886717131E+04  0.12699999809E+01 0.  1.
       -4    1    3    3    0  502 -0.66956610930E+03 -0.18106645769E+04  0.61633204251E+03  0.20264974178E+04  0.12699999809E+01 0. -1.
</event>
<event>
 5   0  0.5735179E-07  0.3937245E+04  0.7818609E-02  0.8017327E-01
       -2   -1    0    0    0  501  0.00000000000E+00  0.00000000000E+00  0.13386576226E+04  0.13386576226E+04  0.25500000920E-02 0. -1.
        2   -1    0    0  501    0  0.00000000000E+00  0.00000000000E+00 -0.28950459856E+04  0.28950459856E+04  0.25500000920E-02 0.  1.
    10030    2    1    2    0    0  0.00000000000E+00  0.00000000000E+00 -0.15563883630E+04  0.42337036083E+04  0.39372454211E+04 0.  0.
        5    1    3    3  502    0  0.16048539656E+03 -0.73938167826E+03  0.11760690905E+04  0.13984281977E+04  0.46999998093E+01 0. -1.
       -5    1    3    3    0  502 -0.16048539656E+03  0.73938167826E+03 -0.27324574535E+04  0.28352754105E+04  0.46999998093E+01 0.  1.
</event>
<event>
 5   0  0.1860500E-07  0.3982337E+04  0.7818609E-02  0.8008119E-01
        1   -1    0    0  501    0  0.00000000000E+00  0.00000000000E+00  0.18988831631E+04  0.18988831631E+04  0.50400001928E-02 0. -1.
       -1   -1    0    0    0  501  0.00000000000E+00  0.00000000000E+00 -0.20879389359E+04  0.20879389359E+04  0.50400001928E-02 0.  1.
    10030    2    1    2    0    0  0.00000000000E+00  0.00000000000E+00 -0.18905577281E+03  0.39868220990E+04  0.39823370480E+04 0.  0.
        4    1    3    3  502    0 -0.93341849534E+03  0.82056494902E+03 -0.16519642262E+04  0.20672649420E+04  0.12699999809E+01 0.  1.
       -4    1    3    3    0  502  0.93341849534E+03 -0.82056494902E+03  0.14629084534E+04  0.19195571570E+04  0.12699999809E+01 0. -1.
</event>
<event>
 5   0  0.6095665E-07  0.3321741E+04  0.7818609E-02  0.8157385E-01
        2   -1    0    0  501    0  0.00000000000E+00  0.00000000000E+00  0.26019227142E+04  0.26019227142E+04  0.25500000920E-02 0. -1.
       -2   -1    0    0    0  501  0.00000000000E+00  0.00000000000E+00 -0.10601738163E+04  0.10601738163E+04  0.25500000920E-02 0.  1.
    10030    2    1    2    0    0  0.00000000000E+00  0.00000000000E+00  0.15417488979E+04  0.36620965305E+04  0.33217407085E+04 0.  0.
        4    1    3    3  502    0 -0.42429111215E+03  0.42481057069E+03 -0.93634286668E+03  0.11123068577E+04  0.12699999809E+01 0.  1.
       -4    1    3    3    0  502  0.42429111215E+03 -0.42481057069E+03  0.24780917646E+04  0.25497896728E+04  0.12699999809E+01 0. -1.
</event>
<event>
 5   0  0.1860500E-07  0.2400751E+04  0.7818609E-02  0.8439223E-01
       -1   -1    0    0    0  501  0.00000000000E+00  0.00000000000E+00  0.57204611570E+03  0.57204611572E+03  0.50400001928E-02 0. -1.
        1   -1    0    0  501    0  0.00000000000E+00  0.00000000000E+00 -0.25188543642E+04  0.25188543642E+04  0.50400001928E-02 0.  1.
    10030    2    1    2    0    0  0.00000000000E+00  0.00000000000E+00 -0.19468082485E+04  0.30909004800E+04  0.24007505952E+04 0.  0.
        4    1    3    3  502    0  0.96868142742E+03  0.32689597051E+03 -0.17832791672E+04  0.20555512361E+04  0.12699999809E+01 0.  1.
       -4    1    3    3    0  502 -0.96868142742E+03 -0.32689597051E+03 -0.16352908136E+03  0.10353492438E+04  0.12699999809E+01 0. -1.
</event>
<event>
 5   0  0.1943459E-07  0.3821510E+04  0.7818609E-02  0.8041555E-01
        1   -1    0    0  501    0  0.00000000000E+00  0.00000000000E+00  0.18006322170E+04  0.18006322170E+04  0.50400001928E-02 0. -1.
       -1   -1    0    0    0  501  0.00000000000E+00  0.00000000000E+00 -0.20276125338E+04  0.20276125338E+04  0.50400001928E-02 0.  1.
    10030    2    1    2    0    0  0.00000000000E+00  0.00000000000E+00 -0.22698031682E+03  0.38282447509E+04  0.38215098859E+04 0.  0.
        2    1    3    3  502    0  0.16874596797E+04 -0.40197699826E+03  0.68909516851E+03  0.18665363187E+04  0.25500000920E-02 0. -1.
       -2    1    3    3    0  502 -0.16874596797E+04  0.40197699826E+03 -0.91607548533E+03  0.19617084321E+04  0.25500000920E-02 0.  1.
</event>
<event>
 5   0  0.3959190E-07  0.3767197E+04  0.7818609E-02  0.8053231E-01
       -2   -1    0    0    0  501  0.00000000000E+00  0.00000000000E+00  0.13981785653E+04  0.13981785653E+04  0.25500000920E-02 0. -1.
        2   -1    0    0  501    0  0.00000000000E+00  0.00000000000E+00 -0.25375460065E+04  0.25375460065E+04  0.25500000920E-02 0.  1.
    10030    2    1    2    0    0  0.00000000000E+00  0.00000000000E+00 -0.11393674412E+04  0.39357245719E+04  0.37671965358E+04 0.  0.
        2    1    3    3  502    0 -0.18413662393E+04  0.18902485495E+03 -0.20539829399E+03  0.18624039524E+04  0.25500000920E-02 0.  1.
       -2    1    3    3    0  502  0.18413662393E+04 -0.18902485495E+03 -0.93396914723E+03  0.20733206194E+04  0.25500000920E-02 0. -1.
</event>
<event>
 5   0  0.3959190E-07  0.3899942E+04  0.7818609E-02  0.8025041E-01
        2   -1    0    0  501    0  0.00000000000E+00  0.00000000000E+00  0.32031780128E+04  0.32031780128E+04  0.25500000920E-02 0.  1.
       -2   -1    0    0    0  501  0.00000000000E+00  0.00000000000E+00 -0.11870670558E+04  0.11870670558E+04  0.25500000920E-02 0. -1.
    10030    2    1    2    0    0  0.00000000000E+00  0.00000000000E+00  0.20161109570E+04  0.43902450686E+04  0.38999420985E+04 0.  0.
        2    1    3    3  502    0 -0.99061811841E+02  0.60273051606E+03  0.30927033031E+04  0.31524452475E+04  0.25500000920E-02 0.  1.
       -2    1    3    3    0  502  0.99061811841E+02 -0.60273051606E+03 -0.10765923461E+04  0.12377998211E+04  0.25500000920E-02 0. -1.
</event>
<event>
 5   0  0.5735179E-07  0.3900685E+04  0.7818609E-02  0.8024887E-01
       -2   -1    0    0    0  501  0.00000000000E+00  0.00000000000E+00  0.16094243123E+04  0.16094243123E+04  0.25500000920E-02 0.  1.
        2   -1    0    0  501    0  0.00000000000E+00  0.00000000000E+00 -0.23634764069E+04  0.23634764069E+04  0.25500000920E-02 0. -1.
    10030    2    1    2    0    0  0.00000000000E+00  0.00000000000E+00 -0.75405209460E+03  0.39729007192E+04  0.39006852684E+04 0.  0.
        5    1    3    3  502    0 -0.10497483522E+04 -0.16420794540E+04 -0.30205788413E+03  0.19722214864E+04  0.46999998093E+01 0. -1.
       -5    1    3    3    0  502  0.10497483522E+04  0.16420794540E+04 -0.45199421047E+03  0.20006792328E+04  0.46999998093E+01 0.  1.
</event>
<event>
 5   0  0.6095665E-07  0.3811311E+04  0.7818609E-02  0.8043732E-01
        2   -1    0    0  501    0  0.00000000000E+00  0.00000000000E+00  0.13745740894E+04  0.13745740894E+04  0.25500000920E-02 0.  1.
       -2   -1    0    0    0  501  0.00000000000E+00  0.00000000000E+00 -0.26419256468E+04  0.26419256468E+04  0.25500000920E-02 0. -1.
    10030    2    1    2    0    0  0.00000000000E+00  0.00000000000E+00 -0.12673515574E+04  0.40164997362E+04  0.38113108193E+04 0.  0.
        4    1    3    3  502    0 -0.73140884952E+03  0.34716819374E+03  0.11843183855E+04  0.14346066747E+04  0.12699999809E+01 0.  1.
       -4    1    3    3    0  502  0.73140884952E+03 -0.34716819374E+03 -0.24516699428E+04  0.25818930616E+04  0.12699999809E+01 0. -1.
</event>
<event>
 5   0  0.1876027E-07  0.3769683E+04  0.7818609E-02  0.8052692E-01
       -1   -1    0    0    0  501  0.00000000000E+00  0.00000000000E+00  0.14860499530E+04  0.14860499530E+04  0.50400001928E-02 0.  1.
        1   -1    0    0  501    0  0.00000000000E+00  0.00000000000E+00 -0.23906510312E+04  0.23906510312E+04  0.50400001928E-02 0. -1.
    10030    2    1    2    0    0  0.00000000000E+00  0.00000000000E+00 -0.90460107816E+03  0.38767009842E+04  0.37696826671E+04 0.  0.
        3    1    3    3  502    0  0.12948062424E+04  0.89489382098E+02  0.95328417095E+03  0.16103671245E+04  0.10100000352E+00 0.  1.
       -3    1    3    3    0  502 -0.12948062424E+04 -0.89489382098E+02 -0.18578852491E+04  0.22663338598E+04  0.10100000352E+00 0. -1.
</event>
<event>
 5   0  0.3959190E-07  0.3733902E+04  0.7818609E-02  0.8060490E-01
       -2   -1    0    0    0  501  0.00000000000E+00  0.00000000000E+00  0.15670767492E+04  0.15670767492E+04  0.25500000920E-02 0.  1.
        2   -1    0    0  501    0  0.00000000000E+00  0.00000000000E+00 -0.22242090341E+04  0.22242090341E+04  0.25500000920E-02 0. -1.
    10030    2    1    2    0    0  0.00000000000E+00  0.00000000000E+00 -0.65713228483E+03  0.37912857833E+04  0.37339021212E+04 0.  0.
        2    1    3    3  502    0  0.16363052279E+04  0.89514004295E+03 -0.41189916497E+03  0.19100867565E+04  0.25500000920E-02 0.  1.
       -2    1    3    3    0  502 -0.16363052279E+04 -0.89514004295E+03 -0.24523311987E+03  0.18811990268E+04  0.25500000920E-02 0. -1.
</event>
<event>
 5   0  0.5735179E-07  0.4017096E+04  0.7818609E-02  0.8001107E-01
        2   -1    0    0  501    0  0.00000000000E+00  0.00000000000E+00  0.26198770291E+04  0.26198770291E+04  0.25500000920E-02 0. -1.
       -2   -1    0    0    0  501  0.00000000000E+00  0.00000000000E+00 -0.15398680297E+04  0.15398680297E+04  0.25500000920E-02 0.  1.
    10030    2    1    2    0    0  0.00000000000E+00  0.00000000000E+00  0.10800089995E+04  0.41597450588E+04  0.40170959056E+04 0.  0.
        5    1    3    3  502    0 -0.81113641964E+03  0.83036719765E+03 -0.11573456445E+04  0.16391836398E+04  0.46999998093E+01 0.  1.
       -5    1    3    3    0  502  0.81113641964E+03 -0.83036719765E+03  0.22373546439E+04  0.25205614190E+04  0.46999998093E+01 0. -1.
</event>
<event>
 5   0  0.5805753E-07  0.2888447E+04  0.7818609E-02  0.8276323E-01
       -2   -1    0    0    0  501  0.00000000000E+00  0.00000000000E+00  0.15638331205E+04  0.15638331205E+04  0.25500000920E-02 0.  1.
        2   -1    0    0  501    0  0.00000000000E+00  0.00000000000E+00 -0.13337621025E+04  0.13337621025E+04  0.25500000920E-02 0. -1.
    10030    2    1    2    0    0  0.00000000000E+00  0.00000000000E+00  0.23007101801E+03  0.28975952230E+04  0.28884468842E+04 0.  0.
        1    1    3    3  502    0  0.81691895051E+02 -0.91041926008E+01  0.15614846788E+04  0.15636466526E+04  0.50400001928E-02 0.  1.
       -1    1    3    3    0  502 -0.81691895051E+02  0.91041926008E+01 -0.13314136608E+04  0.13339485703E+04  0.50400001928E-02 0. -1.
</event>
<event>
 5   0  0.2666813E-07  0.3902686E+04  0.7818609E-02  0.8024471E-01
       -1   -1    0    0    0  501  0.00000000000E+00  0.00000000000E+00  0.16499869391E+04  0.16499869391E+04  0.50400001928E-02 0. -1.
        1   -1    0    0  501    0  0.00000000000E+00  0.00000000000E+00 -0.23077389242E+04  0.23077389242E+04  0.50400001928E-02 0.  1.
    10030    2    1    2    0    0  0.00000000000E+00  0.00000000000E+00 -0.65775198511E+03  0.39577258634E+04  0.39026857849E+04 0.  0.
        1    1    3    3  502    0 -0.44043178365E+03  0.17450190581E+04 -0.10936115682E+04  0.21059577231E+04  0.50400001928E-02 0.  1.
       -1    1    3    3    0  502  0.44043178365E+03 -0.17450190581E+04  0.43585958308E+03  0.18517681403E+04  0.50400001928E-02 0. -1.
</event>
<event>
 5   0  0.5735179E-07  0.3682309E+04  0.7818609E-02  0.8071894E-01
        2   -1    0    0  501    0  0.00000000000E+00  0.00000000000E+00  0.17538627858E+04  0.17538627858E+04  0.25500000920E-02 0.  1.
       -2   -1    0    0    0  501  0.00000000000E+00  0.00000000000E+00 -0.19327911047E+04  0.19327911047E+04  0.25500000920E-02 0. -1.
    10030    2    1    2    0    0  0.00000000000E+00  0.00000000000E+00 -0.17892831893E+03  0.36866538906E+04  0.36823092708E+04 0.  0.
        5    1    3    3  502    0  0.19980554798E+03 -0.17067179915E+04 -0.75131882394E+03  0.18754494461E+04  0.46999998093E+01 0.  1.
       -5    1    3    3    0  502 -0.19980554798E+03  0.17067179915E+04  0.57239050501E+03  0.18112044445E+04  0.46999998093E+01 0. -1.
</event>
<event>
 5   0  0.1943459E-07  0.3504764E+04  0.7818609E-02  0.8112662E-01
        1   -1    0    0  501    0  0.00000000000E+00  0.00000000000E+00  0.20470255551E+04  0.20470255551E+04  0.50400001928E-02 0. -1.
       -1   -1    0    0    0  501  0.00000000000E+00  0.00000000000E+00 -0.15001483166E+04  0.15001483166E+04  0.50400001928E-02 0.  1.
    10030    2    1    2    0    0  0.00000000000E+00  0.00000000000E+00  0.54687723852E+03  0.35471738718E+04  0.35047635815E+04 0.  0.
        2    1    3    3  502    0 -0.10752097991E+04  0.13404182421E+04 -0.74295347922E+02  0.17199758645E+04  0.25500000920E-02 0. -1.
       -2    1    3    3    0  502  0.10752097991E+04 -0.13404182421E+04  0.62117258644E+03  0.18271980073E+04  0.25500000920E-02 0.  1.
</event>
<event>
 5   0  0.3959190E-07  0.3880537E+04  0.7818609E-02  0.8029089E-01
        2   -1    0    0  501    0  0.00000000000E+00  0.00000000000E+00  0.23712248058E+04  0.23712248058E+04  0.25500000920E-02 0.  1.
       -2   -1    0    0    0  501  0.00000000000E+00  0.00000000000E+00 -0.15876359176E+04  0.15876359176E+04  0.25500000920E-02 0. -1.
    10030    2    1    2    0    0  0.00000000000E+00  0.00000000000E+00  0.78358888812E+03  0.39588607234E+04  0.38805369064E+04 0.  0.
        2    1    3    3  502    0 -0.45525221224E+03 -0.16200588057E+04 -0.59351324688E+03  0.17844055270E+04  0.25500000920E-02 0. -1.
       -2    1    3    3    0  502  0.45525221224E+03  0.16200588057E+04  0.13771021350E+04  0.21744551963E+04  0.25500000920E-02 0.  1.
</event>
<event>
 5   0  0.3959190E-07  0.3894569E+04  0.7818609E-02  0.8026160E-01
        2   -1    0    0  501    0  0.00000000000E+00  0.00000000000E+00  0.14123930850E+04  0.14123930850E+04  0.25500000920E-02 0.  1.
       -2   -1    0    0    0  501  0.00000000000E+00  0.00000000000E+00 -0.26847465712E+04  0.26847465712E+04  0.25500000920E-02 0. -1.
    10030    2    1    2    0    0  0.00000000000E+00  0.00000000000E+00 -0.12723534862E+04  0.40971396562E+04  0.38945692918E+04 0.  0.
        2    1    3    3  502    0  0.73581338392E+03  0.17980872372E+04 -0.77486087496E+03  0.20916377373E+04  0.25500000920E-02 0.  1.
       -2    1    3    3    0  502 -0.73581338392E+03 -0.17980872372E+04 -0.49749261129E+03  0.20055019189E+04  0.25500000920E-02 0. -1.
</event>
<event>
 5   0  0.5735179E-07  0.3374730E+04  0.7818609E-02  0.8144136E-01
        2   -1    0    0  501    0  0.00000000000E+00  0.00000000000E+00  0.19516241340E+04  0.19516241340E+04  0.25500000920E-02 0.  1.
       -2   -1    0    0    0  501  0.00000000000E+00  0.00000000000E+00 -0.14588881950E+04  0.14588881950E+04  0.25500000920E-02 0. -1.
    10030    2    1    2    0    0  0.00000000000E+00  0.00000000000E+00  0.49273593905E+03  0.34105123290E+04  0.33747304545E+04 0.  0.
        5    1    3    3  502    0  0.60212698173E+03 -0.15581518145E+04  0.55445867768E+01  0.16704630530E+04  0.46999998093E+01 0. -1.
       -5    1    3    3    0  502 -0.60212698173E+03  0.15581518145E+04  0.48719135228E+03  0.17400492760E+04  0.46999998093E+01 0.  1.
</event>
<event>
 5   0  0.1860500E-07  0.3575925E+04  0.7818609E-02  0.8096029E-01
        1   -1    0    0  501    0  0.00000000000E+00  0.00000000000E+00  0.29353243891E+04  0.29353243891E+04  0.50400001928E-02 0. -1.
       -1   -1    0    0    0  501  0.00000000000E+00  0.00000000000E+00 -0.10890824289E+04  0.10890824289E+04  0.50400001928E-02 0.  1.
    10030    2    1    2    0    0  0.00000000000E+00  0.00000000000E+00  0.18462419602E+04  0.40244068180E+04  0.35759251756E+04 0.  0.
        4    1    3    3  502    0 -0.28301644514E+02 -0.40003405834E+03  0.28840547827E+04  0.29118038797E+04  0.12699999809E+01 0. -1.
       -4    1    3    3    0  502  0.28301644514E+02  0.40003405834E+03 -0.10378128225E+04  0.11126029383E+04  0.12699999809E+01 0.  1.
</event>
<event>
 5   0  0.1860500E-07  0.3701810E+04  0.7818609E-02  0.8067561E-01
        1   -1    0    0  501    0  0.00000000000E+00  0.00000000000E+00  0.17755328183E+04  0.17755328183E+04  0.50400001928E-02 0. -1.
       -1   -1    0    0    0  501  0.00000000000E+00  0.00000000000E+00 -0.19294770896E+04  0.19294770896E+04  0.50400001928E-02 0.  1.
    10030    2    1    2    0    0  0.00000000000E+00  0.00000000000E+00 -0.15394427132E+03  0.37050099080E+04  0.37018103111E+04 0.  0.
        4    1    3    3  502    0  0.36212900465E+03 -0.47671121135E+03  0.16759574658E+04  0.17796702040E+04  0.12699999809E+01 0. -1.
       -4    1    3    3    0  502 -0.36212900465E+03  0.47671121135E+03 -0.18299017371E+04  0.19253397039E+04  0.12699999809E+01 0.  1.
</event>
<event>
 5   0  0.3959190E-07  0.3788064E+04  0.7818609E-02  0.8048721E-01
       -2   -1    0    0    0  501  0.00000000000E+00  0.00000000000E+00  0.22539831726E+04  0.22539831726E+04  0.25500000920E-02 0.  1.
        2   -1    0    0  501    0  0.00000000000E+00  0.00000000000E+00 -0.15915631348E+04  0.15915631348E+04  0.25500000920E-02 0. -1.
    10030    2    1    2    0    0  0.00000000000E+00  0.00000000000E+00  0.66242003777E+03  0.38455463075E+04  0.37880636341E+04 0.  0.
        2    1    3    3  502    0 -0.17463662661E+04  0.60128721671E+03  0.75711793074E+03  0.19961385256E+04  0.25500000920E-02 0. -1.
       -2    1    3    3    0  502  0.17463662661E+04 -0.60128721671E+03 -0.94697892972E+02  0.18494077818E+04  0.25500000920E-02 0.  1.
</event>
<event>
 5   0  0.5805753E-07  0.3159632E+04  0.7818609E-02  0.8199560E-01
       -2   -1    0    0    0  501  0.00000000000E+00  0.00000000000E+00  0.15191010738E+04  0.15191010738E+04  0.25500000920E-02 0.  1.
        2   -1    0    0  501    0  0.00000000000E+00  0.00000000000E+00 -0.16429578863E+04  0.16429578863E+04  0.25500000920E-02 0. -1.
    10030    2    1    2    0    0  0.00000000000E+00  0.00000000000E+00 -0.12385681252E+03  0.31620589601E+04  0.31596323136E+04 0.  0.
        1    1    3    3  502    0  0.49350790933E+03  0.35022658466E+03 -0.15223676469E+04  0.16382344062E+04  0.50400001928E-02 0. -1.
       -1    1    3    3    0  502 -0.49350790933E+03 -0.35022658466E+03  0.13985108344E+04  0.15238245539E+04  0.50400001928E-02 0.  1.
</event>
<event>
 5   0  0.6095665E-07  0.2864675E+04  0.7818609E-02  0.8283466E-01
       -2   -1    0    0    0  501  0.00000000000E+00  0.00000000000E+00  0.13982904954E+04  0.13982904954E+04  0.25500000920E-02 0.  1.
        2   -1    0    0  501    0  0.00000000000E+00  0.00000000000E+00 -0.14672135101E+04  0.14672135101E+04  0.25500000920E-02 0. -1.
    10030    2    1    2    0    0  0.00000000000E+00  0.00000000000E+00 -0.68923014706E+02  0.28655040054E+04  0.28646749943E+04 0.  0.
        4    1    3    3  502    0 -0.47816474604E+03 -0.12972823947E+04 -0.40874348870E+03  0.14417544827E+04  0.12699999809E+01 0.  1.
       -4    1    3    3    0  502  0.47816474604E+03  0.12972823947E+04  0.33982047399E+03  0.14237495227E+04  0.12699999809E+01 0. -1.
</event>
<event>
 5   0  0.5735179E-07  0.3763458E+04  0.7818609E-02  0.8054043E-01
       -2   -1    0    0    0  501  0.00000000000E+00  0.00000000000E+00  0.19075105512E+04  0.19075105512E+04  0.25500000920E-02 0. -1.
        2   -1    0    0  501    0  0.00000000000E+00  0.00000000000E+00 -0.18562955119E+04  0.18562955119E+04  0.25500000920E-02 0.  1.
    10030    2    1    2    0    0  0.00000000000E+00  0.00000000000E+00  0.51215039278E+02  0.37638060631E+04  0.37634575991E+04 0.  0.
        5    1    3    3  502    0  0.11856157550E+04  0.14362675896E+04 -0.24336324593E+03  0.18782430798E+04  0.46999998093E+01 0.  1.
       -5    1    3    3    0  502 -0.11856157550E+04 -0.14362675896E+04  0.29457828521E+03  0.18855629832E+04  0.46999998093E+01 0. -1.
</event>
<event>
 5   0  0.5872444E-07  0.2878917E+04  0.7818609E-02  0.8279178E-01
        2   -1    0    0  501    0  0.00000000000E+00  0.00000000000E+00  0.27395373084E+04  0.27395373084E+04  0.25500000920E-02 0. -1.
       -2   -1    0    0    0  501  0.00000000000E+00  0.00000000000E+00 -0.75634675755E+03  0.75634675756E+03  0.25500000920E-02 0.  1.
    10030    2    1    2    0    0  0.00000000000E+00  0.00000000000E+00  0.19831905508E+04  0.34958840659E+04  0.28789165743E+04 0.  0.
        3    1    3    3  502    0 -0.12434180466E+04  0.69281333350E+03  0.73126507655E+03  0.16002585341E+04  0.10100000352E+00 0.  1.
       -3    1    3    3    0  502  0.12434180466E+04 -0.69281333350E+03  0.12519254743E+04  0.18956255318E+04  0.10100000352E+00 0. -1.
</event>
<event>
 5   0  0.1860500E-07  0.2672598E+04  0.7818609E-02  0.8343951E-01
        1   -1    0    0  501    0  0.00000000000E+00  0.00000000000E+00  0.16899555047E+04  0.16899555047E+04  0.50400001928E-02 0. -1.
       -1   -1    0    0    0  501  0.00000000000E+00  0.00000000000E+00 -0.10566517853E+04  0.10566517853E+04  0.50400001928E-02 0.  1.
    10030    2    1    2    0    0  0.00000000000E+00  0.00000000000E+00  0.63330371942E+03  0.27466072901E+04  0.26725976137E+04 0.  0.
        4    1    3    3  502    0  0.11625984148E+04  0.29664012610E+02 -0.35973648920E+03  0.12173442333E+04  0.12699999809E+01 0.  1.
       -4    1    3    3    0  502 -0.11625984148E+04 -0.29664012610E+02  0.99304020862E+03  0.15292630567E+04  0.12699999809E+01 0. -1.
</event>
<event>
 5   0  0.2666813E-07  0.2949569E+04  0.7818609E-02  0.8258280E-01
       -1   -1    0    0    0  501  0.00000000000E+00  0.00000000000E+00  0.12262730858E+04  0.12262730858E+04  0.50400001928E-02 0.  1.
        1   -1    0    0  501    0  0.00000000000E+00  0.00000000000E+00 -0.17736582652E+04  0.17736582652E+04  0.50400001928E-02 0. -1.
    10030    2    1    2    0    0  0.00000000000E+00  0.00000000000E+00 -0.54738517938E+03  0.29999313509E+04  0.29495690492E+04 0.  0.
        1    1    3    3  502    0 -0.15320420360E+02 -0.99929409732E+03 -0.13767219104E+04  0.17012309152E+04  0.50400001928E-02 0. -1.
       -1    1    3    3    0  502  0.15320420360E+02  0.99929409732E+03  0.82933673106E+03  0.12987004357E+04  0.50400001928E-02 0.  1.
</event>
<event>
 5   0  0.2666813E-07  0.3831971E+04  0.7818609E-02  0.8039329E-01
       -1   -1    0    0    0  501  0.00000000000E+00  0.00000000000E+00  0.16207056396E+04  0.16207056396E+04  0.50400001928E-02 0.  1.
        1   -1    0    0  501    0  0.00000000000E+00  0.00000000000E+00 -0.22650629430E+04  0.22650629430E+04  0.50400001928E-02 0. -1.
    10030    2    1    2    0    0  0.00000000000E+00  0.00000000000E+00 -0.64435730340E+03  0.38857685825E+04  0.38319709214E+04 0.  0.
        1    1    3    3  502    0 -0.64998375896E+03  0.42882036984E+03 -0.20973654936E+04  0.22372545252E+04  0.50400001928E-02 0. -1.
       -1    1    3    3    0  502  0.64998375896E+03 -0.42882036984E+03  0.14530081902E+04  0.16485140574E+04  0.50400001928E-02 0.  1.
</event>
<event>
 5   0  0.5735179E-07  0.3851113E+04  0.7818609E-02  0.8035274E-01
       -2   -1    0    0    0  501  0.00000000000E+00  0.00000000000E+00  0.20276178685E+04  0.20276178685E+04  0.25500000920E-02 0.  1.
        2   -1    0    0  501    0  0.00000000000E+00  0.00000000000E+00 -0.18286319935E+04  0.18286319935E+04  0.25500000920E-02 0. -1.
    10030    2    1    2    0    0  0.00000000000E+00  0.00000000000E+00  0.19898587497E+03  0.38562498620E+04  0.38511125172E+04 0.  0.
        5    1    3    3  502    0 -0.59138676790E+02 -0.10733798187E+04 -0.15001684947E+04  0.18455809981E+04  0.46999998093E+01 0. -1.
       -5    1    3    3    0  502  0.59138676790E+02  0.10733798187E+04  0.16991543697E+04  0.20106688639E+04  0.46999998093E+01 0.  1.
</event>
<event>
 5   0  0.3000658E-07  0.2450376E+04  0.7818609E-02  0.8420881E-01
       -1   -1    0    0    0  501  0.00000000000E+00  0.00000000000E+00  0.14064531050E+04  0.14064531050E+04  0.50400001928E-02 0.  1.
        1   -1    0    0  501    0  0.00000000000E+00  0.00000000000E+00 -0.10672845753E+04  0.10672845753E+04  0.50400001928E-02 0. -1.
    10030    2    1    2    0    0  0.00000000000E+00  0.00000000000E+00  0.33916852971E+03  0.24737376804E+04  0.24503760568E+04 0.  0.
        1    1    3    3  502    0  0.94863823514E+02  0.66926867207E+03 -0.86200230368E+03  0.10954303593E+04  0.50400001928E-02 0. -1.
       -1    1    3    3    0  502 -0.94863823514E+02 -0.66926867207E+03  0.12011708334E+04  0.13783073211E+04  0.50400001928E-02 0.  1.
</event>
<event>
 5   0  0.5805753E-07  0.3841866E+04  0.7818609E-02  0.8037230E-01
        2   -1    0    0  501    0  0.00000000000E+00  0.00000000000E+00  0.21648637706E+04  0.21648637706E+04  0.25500000920E-02 0.  1.
       -2   -1    0    0    0  501  0.00000000000E+00  0.00000000000E+00 -0.17044877486E+04  0.17044877486E+04  0.25500000920E-02 0. -1.
    10030    2    1    2    0    0  0.00000000000E+00  0.00000000000E+00  0.46037602200E+03  0.38693515192E+04  0.38418660957E+04 0.  0.
        1    1    3    3  502    0 -0.52942144560E+03 -0.15370577297E+04  0.12608125077E+04  0.20572996162E+04  0.50400001928E-02 0.  1.
       -1    1    3    3    0  502  0.52942144560E+03  0.15370577297E+04 -0.80043648568E+03  0.18120519030E+04  0.50400001928E-02 0. -1.
</event>
<event>
 5   0  0.1876027E-07  0.3876073E+04  0.7818609E-02  0.8030024E-01
       -1   -1    0    0    0  501  0.00000000000E+00  0.00000000000E+00  0.14313120349E+04  0.14313120349E+04  0.50400001928E-02 0.  1.
        1   -1    0    0  501    0  0.00000000000E+00  0.00000000000E+00 -0.26241560564E+04  0.26241560564E+04  0.50400001928E-02 0. -1.
    10030    2    1    2    0    0  0.00000000000E+00  0.00000000000E+00 -0.11928440215E+04  0.40554680913E+04  0.38760733455E+04 0.  0.
        3    1    3    3  502    0 -0.88412246092E+01 -0.17624216800E+04  0.24697378801E+03  0.17796641278E+04  0.10100000352E+00 0. -1.
       -3    1    3    3    0  502  0.88412246092E+01  0.17624216800E+04 -0.14398178095E+04  0.22758039635E+04  0.10100000352E+00 0.  1.
</event>
<event>
 5   0  0.6095665E-07  0.3869133E+04  0.7818609E-02  0.8031480E-01
       -2   -1    0    0    0  501  0.00000000000E+00  0.00000000000E+00  0.29619739963E+04  0.29619739963E+04  0.25500000920E-02 0. -1.
        2   -1    0    0  501    0  0.00000000000E+00  0.00000000000E+00 -0.12635315213E+04  0.12635315213E+04  0.25500000920E-02 0.  1.
    10030    2    1    2    0    0  0.00000000000E+00  0.00000000000E+00  0.16984424750E+04  0.42255055176E+04  0.38691329828E+04 0.  0.
        4    1    3    3  502    0 -0.23597594930E+03 -0.15432985176E+04 -0.39840759514E+03  0.16112681924E+04  0.12699999809E+01 0.  1.
       -4    1    3    3    0  502  0.23597594930E+03  0.15432985176E+04  0.20968500702E+04  0.26142373252E+04  0.12699999809E+01 0. -1.
</event>
<event>
 5   0  0.5872444E-07  0.3010532E+04  0.7818609E-02  0.8240730E-01
       -2   -1    0    0    0  501  0.00000000000E+00  0.00000000000E+00  0.21226671978E+04  0.21226671978E+04  0.25500000920E-02 0. -1.
        2   -1    0    0  501    0  0.00000000000E+00  0.00000000000E+00 -0.10674429544E+04  0.10674429544E+04  0.25500000920E-02 0.  1.
    10030    2    1    2    0    0  0.00000000000E+00  0.00000000000E+00  0.10552242435E+04  0.31901101522E+04  0.30105322750E+04 0.  0.
        3    1    3    3  502    0 -0.73486292102E+03 -0.12867630964E+04  0.24716830874E+03  0.15022899061E+04  0.10100000352E+00 0.  1.
       -3    1    3    3    0  502  0.73486292102E+03  0.12867630964E+04  0.80805593473E+03  0.16878202460E+04  0.10100000352E+00 0. -1.
</event>
<event>
 5   0  0.3959190E-07  0.4060983E+04  0.7818609E-02  0.7992356E-01
        2   -1    0    0  501    0  0.00000000000E+00  0.00000000000E+00  0.25276129202E+04  0.25276129202E+04  0.25500000920E-02 0.  1.
       -2   -1    0    0    0  501  0.00000000000E+00  0.00000000000E+00 -0.16311424036E+04  0.16311424036E+04  0.25500000920E-02 0. -1.
    10030    2    1    2    0    0  0.00000000000E+00  0.00000000000E+00  0.89647051660E+03  0.41587553238E+04  0.40609834346E+04 0.  0.
        2    1    3    3  502    0  0.70603936321E+03  0.13968905348E+03  0.23926024346E+04  0.24985097607E+04  0.25500000920E-02 0.  1.
       -2    1    3    3    0  502 -0.70603936321E+03 -0.13968905348E+03 -0.14961319180E+04  0.16602455632E+04  0.25500000920E-02 0. -1.
</event>
<event>
 5   0  0.1860500E-07  0.3713073E+04  0.7818609E-02  0.8065071E-01
       -1   -1    0    0    0  501  0.00000000000E+00  0.00000000000E+00  0.14915513032E+04  0.14915513032E+04  0.50400001928E-02 0.  1.
        1   -1    0    0  501    0  0.00000000000E+00  0.00000000000E+00 -0.23108338144E+04  0.23108338144E+04  0.50400001928E-02 0. -1.
    10030    2    1    2    0    0  0.00000000000E+00  0.00000000000E+00 -0.81928251122E+03  0.38023851177E+04  0.37130726831E+04 0.  0.
        5    1    3    3  502    0  0.31861884322E+03 -0.17231791518E+04  0.21816346768E+03  0.17659223497E+04  0.46999998093E+01 0. -1.
       -5    1    3    3    0  502 -0.31861884322E+03  0.17231791518E+04 -0.10374459789E+04  0.20364627680E+04  0.46999998093E+01 0.  1.
</event>
<event>
 5   0  0.2666813E-07  0.3900224E+04  0.7818609E-02  0.8024983E-01
       -1   -1    0    0    0  501  0.00000000000E+00  0.00000000000E+00  0.21875750610E+04  0.21875750610E+04  0.50400001928E-02 0. -1.
        1   -1    0    0  501    0  0.00000000000E+00  0.00000000000E+00 -0.17384258682E+04  0.17384258682E+04  0.50400001928E-02 0.  1.
    10030    2    1    2    0    0  0.00000000000E+00  0.00000000000E+00  0.44914919275E+03  0.39260009292E+04  0.39002241344E+04 0.  0.
        1    1    3    3  502    0 -0.15198402795E+04 -0.11683100359E+04  0.58481445159E+03  0.20042132516E+04  0.50400001928E-02 0.  1.
       -1    1    3    3    0  502  0.15198402795E+04  0.11683100359E+04 -0.13566525884E+03  0.19217876776E+04  0.50400001928E-02 0. -1.
</event>
<event>
 5   0  0.6095665E-07  0.3901350E+04  0.7818609E-02  0.8024749E-01
        2   -1    0    0  501    0  0.00000000000E+00  0.00000000000E+00  0.25112586983E+04  0.25112586983E+04  0.25500000920E-02 0.  1.
       -2   -1    0    0    0  501  0.00000000000E+00  0.00000000000E+00 -0.15152290014E+04  0.15152290014E+04  0.25500000920E-02 0. -1.
    10030    2    1    2    0    0  0.00000000000E+00  0.00000000000E+00  0.99602969686E+03  0.40264876997E+04  0.39013495151E+04 0.  0.
        4    1    3    3  502    0  0.85460511757E+03 -0.14642665180E+03  0.23014439813E+04  0.24593569654E+04  0.12699999809E+01 0.  1.
       -4    1    3    3    0  502 -0.85460511757E+03  0.14642665180E+03 -0.13054142845E+04  0.15671307343E+04  0.12699999809E+01 0. -1.
</event>
<event>
 5   0  0.3959190E-07  0.3841693E+04  0.7818609E-02  0.8037266E-01
       -2   -1    0    0    0  501  0.00000000000E+00  0.00000000000E+00  0.27014116442E+04  0.27014116442E+04  0.25500000920E-02 0.  1.
        2   -1    0    0  501    0  0.00000000000E+00  0.00000000000E+00 -0.13658231364E+04  0.13658231364E+04  0.25500000920E-02 0. -1.
    10030    2    1    2    0    0  0.00000000000E+00  0.00000000000E+00  0.13355885078E+04  0.40672347806E+04  0.38416926085E+04 0.  0.
        2    1    3    3  502    0 -0.11464782172E+04  0.15364136488E+04  0.79603063553E+03  0.20757273365E+04  0.25500000920E-02 0.  1.
       -2    1    3    3    0  502  0.11464782172E+04 -0.15364136488E+04  0.53955787226E+03  0.19915074442E+04  0.25500000920E-02 0. -1.
</event>
<event>
 5   0  0.5735179E-07  0.3223494E+04  0.7818609E-02  0.8182640E-01
       -2   -1    0    0    0  501  0.00000000000E+00  0.00000000000E+00  0.19949706001E+04  0.19949706001E+04  0.25500000920E-02 0. -1.
        2   -1    0    0  501    0  0.00000000000E+00  0.00000000000E+00 -0.13021387815E+04  0.13021387815E+04  0.25500000920E-02 0.  1.
    10030    2    1    2    0    0  0.00000000000E+00  0.00000000000E+00  0.69283181853E+03  0.32971093816E+04  0.32234941206E+04 0.  0.
        5    1    3    3  502    0  0.12168067265E+04  0.74451624766E+03 -0.42090516996E+03  0.14873151330E+04  0.46999998093E+01 0.  1.
       -5    1    3    3    0  502 -0.12168067265E+04 -0.74451624766E+03  0.11137369885E+04  0.18097942486E+04  0.46999998093E+01 0. -1.
</event>
<event>
 5   0  0.5805753E-07  0.2752125E+04  0.7818609E-02  0.8318288E-01
        2   -1    0    0  501    0  0.00000000000E+00  0.00000000000E+00  0.98983079041E+03  0.98983079042E+03  0.25500000920E-02 0. -1.
       -2   -1    0    0    0  501  0.00000000000E+00  0.00000000000E+00 -0.19130022529E+04  0.19130022529E+04  0.25500000920E-02 0.  1.
    10030    2    1    2    0    0  0.00000000000E+00  0.00000000000E+00 -0.92317146250E+03  0.29028330433E+04  0.27521253838E+04 0.  0.
        1    1    3    3  502    0  0.84788158431E+03  0.21119734025E+03 -0.15828318406E+04  0.18080000369E+04  0.50400001928E-02 0.  1.
       -1    1    3    3    0  502 -0.84788158431E+03 -0.21119734025E+03  0.65966037813E+03  0.10948330065E+04  0.50400001928E-02 0. -1.
</event>
<event>
 5   0  0.6095665E-07  0.3886894E+04  0.7818609E-02  0.8027760E-01
       -2   -1    0    0    0  501  0.00000000000E+00  0.00000000000E+00  0.23633346759E+04  0.23633346759E+04  0.25500000920E-02 0. -1.
        2   -1    0    0  501    0  0.00000000000E+00  0.00000000000E+00 -0.15981600686E+04  0.15981600686E+04  0.25500000920E-02 0.  1.
    10030    2    1    2    0    0  0.00000000000E+00  0.00000000000E+00  0.76517460731E+03  0.39614947445E+04  0.38868944456E+04 0.  0.
        4    1    3    3  502    0  0.80263932867E+02 -0.17023963899E+04 -0.56935715211E+03  0.17968764417E+04  0.12699999809E+01 0.  1.
       -4    1    3    3    0  502 -0.80263932867E+02  0.17023963899E+04  0.13345317594E+04  0.21646183028E+04  0.12699999809E+01 0. -1.
</event>
<event>
 5   0  0.1860500E-07  0.3669328E+04  0.7818609E-02  0.8074793E-01
        1   -1    0    0  501    0  0.00000000000E+00  0.00000000000E+00  0.17327470108E+04  0.17327470108E+04  0.50400001928E-02 0. -1.
       -1   -1    0    0    0  501  0.00000000000E+00  0.00000000000E+00 -0.19425752848E+04  0.19425752848E+04  0.50400001928E-02 0.  1.
    10030    2    1    2    0    0  0.00000000000E+00  0.00000000000E+00 -0.20982827398E+03  0.36753222955E+04  0.36693277411E+04 0.  0.
        5    1    3    3  502    0  0.14097768692E+04  0.96683709811E+03 -0.77212897225E+03  0.18757531914E+04  0.46999998093E+01 0.  1.
       -5    1    3    3    0  502 -0.14097768692E+04 -0.96683709811E+03  0.56230069827E+03  0.17995691041E+04  0.46999998093E+01 0. -1.
</event>
<event>
 5   0  0.1943459E-07  0.3705495E+04  0.7818609E-02  0.8066745E-01
       -1   -1    0    0    0  501  0.00000000000E+00  0.00000000000E+00  0.19488702963E+04  0.19488702963E+04  0.50400001928E-02 0.  1.
        1   -1    0    0  501    0  0.00000000000E+00  0.00000000000E+00 -0.17613656136E+04  0.17613656136E+04  0.50400001928E-02 0. -1.
    10030    2    1    2    0    0  0.00000000000E+00  0.00000000000E+00  0.18750468267E+03  0.37102359099E+04  0.37054949063E+04 0.  0.
        2    1    3    3  502    0 -0.16542693530E+03  0.61504535599E+03  0.18358135028E+04  0.19431567302E+04  0.25500000920E-02 0.  1.
       -2    1    3    3    0  502  0.16542693530E+03 -0.61504535599E+03 -0.16483088201E+04  0.17670791797E+04  0.25500000920E-02 0. -1.
</event>
<event>
 5   0  0.6095665E-07  0.3988888E+04  0.7818609E-02  0.8006792E-01
        2   -1    0    0  501    0  0.00000000000E+00  0.00000000000E+00  0.18525832621E+04  0.18525832621E+04  0.25500000920E-02 0.  1.
       -2   -1    0    0    0  501  0.00000000000E+00  0.00000000000E+00 -0.21471674998E+04  0.21471674998E+04  0.25500000920E-02 0. -1.
    10030    2    1    2    0    0  0.00000000000E+00  0.00000000000E+00 -0.29458423772E+03  0.39997507619E+04  0.39888878506E+04 0.  0.
        4    1    3    3  502    0 -0.75790897979E+03  0.84899790363E+03 -0.17896113032E+04  0.21208332540E+04  0.12699999809E+01 0. -1.
       -4    1    3    3    0  502  0.75790897979E+03 -0.84899790363E+03  0.14950270655E+04  0.18789175079E+04  0.12699999809E+01 0.  1.
</event>
<event>
 5   0  0.5805753E-07  0.3924196E+04  0.7818609E-02  0.8020016E-01
        2   -1    0    0  501    0  0.00000000000E+00  0.00000000000E+00  0.19532046122E+04  0.19532046122E+04  0.25500000920E-02 0.  1.
       -2   -1    0    0    0  501  0.00000000000E+00  0.00000000000E+00 -0.19710315193E+04  0.19710315193E+04  0.25500000920E-02 0. -1.
    10030    2    1    2    0    0  0.00000000000E+00  0.00000000000E+00 -0.17826907077E+02  0.39242361315E+04  0.39241956395E+04 0.  0.
        1    1    3    3  502    0  0.18171304621E+04 -0.47788868948E+03 -0.57415121914E+03  0.19646858116E+04  0.50400001928E-02 0. -1.
       -1    1    3    3    0  502 -0.18171304621E+04  0.47788868948E+03  0.55632431207E+03  0.19595503199E+04  0.50400001928E-02 0.  1.
</event>
<event>
 5   0  0.1860500E-07  0.3000767E+04  0.7818609E-02  0.8243512E-01
        3   -1    0    0  501    0  0.00000000000E+00  0.00000000000E+00  0.18578197884E+04  0.18578197912E+04  0.10100000352E+00 0.  1.
       -3   -1    0    0    0  501  0.00000000000E+00  0.00000000000E+00 -0.12117161259E+04  0.12117161302E+04  0.10100000352E+00 0. -1.
    10030    2    1    2    0    0  0.00000000000E+00  0.00000000000E+00  0.64610366248E+03  0.30695359213E+04  0.30007667070E+04 0.  0.
        4    1    3    3  502    0 -0.14528340935E+03  0.12357240713E+04  0.11807344247E+04  0.17153007445E+04  0.12699999809E+01 0.  1.
       -4    1    3    3    0  502  0.14528340935E+03 -0.12357240713E+04 -0.53463076226E+03  0.13542351768E+04  0.12699999809E+01 0. -1.
</event>
<event>
 5   0  0.3959190E-07  0.3954882E+04  0.7818609E-02  0.8013711E-01
       -2   -1    0    0    0  501  0.00000000000E+00  0.00000000000E+00  0.28537536572E+04  0.28537536572E+04  0.25500000920E-02 0.  1.
        2   -1    0    0  501    0  0.00000000000E+00  0.00000000000E+00 -0.13702212096E+04  0.13702212096E+04  0.25500000920E-02 0. -1.
    10030    2    1    2    0    0  0.00000000000E+00  0.00000000000E+00  0.14835324477E+04  0.42239748668E+04  0.39548824448E+04 0.  0.
        2    1    3    3  502    0 -0.12304221455E+04  0.96256341089E+03 -0.55307904506E+03  0.16572155582E+04  0.25500000920E-02 0. -1.
       -2    1    3    3    0  502  0.12304221455E+04 -0.96256341089E+03  0.20366114927E+04  0.25667593086E+04  0.25500000920E-02 0.  1.
</event>
<event>
 5   0  0.6095665E-07  0.3907987E+04  0.7818609E-02  0.8023370E-01
        2   -1    0    0  501    0  0.00000000000E+00  0.00000000000E+00  0.13204573781E+04  0.13204573781E+04  0.25500000920E-02 0. -1.
       -2   -1    0    0    0  501  0.00000000000E+00  0.00000000000E+00 -0.28914909926E+04  0.28914909926E+04  0.25500000920E-02 0.  1.
    10030    2    1    2    0    0  0.00000000000E+00  0.00000000000E+00 -0.15710336145E+04  0.42119483707E+04  0.39079870086E+04 0.  0.
        4    1    3    3  502    0 -0.15162619703E+04  0.56560654855E+03 -0.19657360098E+04  0.25461894673E+04  0.12699999809E+01 0.  1.
       -4    1    3    3    0  502  0.15162619703E+04 -0.56560654855E+03  0.39470239527E+03  0.16657589034E+04  0.12699999809E+01 0. -1.
</event>
<event>
 5   0  0.1860500E-07  0.3616959E+04  0.7818609E-02  0.8086618E-01
        1   -1    0    0  501    0  0.00000000000E+00  0.00000000000E+00  0.20369620748E+04  0.20369620748E+04  0.50400001928E-02 0.  1.
       -1   -1    0    0    0  501  0.00000000000E+00  0.00000000000E+00 -0.16056251121E+04  0.16056251121E+04  0.50400001928E-02 0. -1.
    10030    2    1    2    0    0  0.00000000000E+00  0.00000000000E+00  0.43133696272E+03  0.36425871869E+04  0.36169586448E+04 0.  0.
        4    1    3    3  502    0  0.42111886202E+03  0.93014824049E+03 -0.12875832240E+04  0.16432860423E+04  0.12699999809E+01 0. -1.
       -4    1    3    3    0  502 -0.42111886202E+03 -0.93014824049E+03  0.17189201867E+04  0.19993011445E+04  0.12699999809E+01 0.  1.
</event>
<event>
 5   0  0.3959190E-07  0.3903117E+04  0.7818609E-02  0.8024381E-01
       -2   -1    0    0    0  501  0.00000000000E+00  0.00000000000E+00  0.18329044487E+04  0.18329044487E+04  0.25500000920E-02 0. -1.
        2   -1    0    0  501    0  0.00000000000E+00  0.00000000000E+00 -0.20778941512E+04  0.20778941512E+04  0.25500000920E-02 0.  1.
    10030    2    1    2    0    0  0.00000000000E+00  0.00000000000E+00 -0.24498970250E+03  0.39107985999E+04  0.39031174380E+04 0.  0.
        2    1    3    3  502    0 -0.10222999052E+04  0.59029754490E+03 -0.16795908197E+04  0.20529426708E+04  0.25500000920E-02 0.  1.
       -2    1    3    3    0  502  0.10222999052E+04 -0.59029754490E+03  0.14346011172E+04  0.18578559291E+04  0.25500000920E-02 0. -1.
</event>
<event>
 5   0  0.1860500E-07  0.3747969E+04  0.7818609E-02  0.8057414E-01
        1   -1    0    0  501    0  0.00000000000E+00  0.00000000000E+00  0.27610375669E+04  0.27610375669E+04  0.50400001928E-02 0.  1.
       -1   -1    0    0    0  501  0.00000000000E+00  0.00000000000E+00 -0.12719195717E+04  0.12719195717E+04  0.50400001928E-02 0. -1.
    10030    2    1    2    0    0  0.00000000000E+00  0.00000000000E+00  0.14891179952E+04  0.40329571386E+04  0.37479689003E+04 0.  0.
        5    1    3    3  502    0 -0.70681992994E+03  0.11641943773E+04  0.21296221434E+04  0.25278954736E+04  0.46999998093E+01 0.  1.
       -5    1    3    3    0  502  0.70681992994E+03 -0.11641943773E+04 -0.64050414827E+03  0.15050616650E+04  0.46999998093E+01 0. -1.
</event>
<event>
 5   0  0.1876027E-07  0.3532348E+04  0.7818609E-02  0.8106166E-01
       -1   -1    0    0    0  501  0.00000000000E+00  0.00000000000E+00  0.19532338908E+04  0.19532338908E+04  0.50400001928E-02 0.  1.
        1   -1    0    0  501    0  0.00000000000E+00  0.00000000000E+00 -0.15970289492E+04  0.15970289492E+04  0.50400001928E-02 0. -1.
    10030    2    1    2    0    0  0.00000000000E+00  0.00000000000E+00  0.35620494166E+03  0.35502628400E+04  0.35323482661E+04 0.  0.
        3    1    3    3  502    0 -0.68415481186E+03  0.10195221734E+04  0.14541388225E+04  0.19031586886E+04  0.10100000352E+00 0.  1.
       -3    1    3    3    0  502  0.68415481186E+03 -0.10195221734E+04 -0.10979338809E+04  0.16471041514E+04  0.10100000352E+00 0. -1.
</event>
<event>
 5   0  0.5735179E-07  0.3265318E+04  0.7818609E-02  0.8171777E-01
       -2   -1    0    0    0  501  0.00000000000E+00  0.00000000000E+00  0.10584602792E+04  0.10584602792E+04  0.25500000920E-02 0.  1.
        2   -1    0    0  501    0  0.00000000000E+00  0.00000000000E+00 -0.25183515425E+04  0.25183515425E+04  0.25500000920E-02 0. -1.
    10030    2    1    2    0    0  0.00000000000E+00  0.00000000000E+00 -0.14598912633E+04  0.35768118217E+04  0.32653177957E+04 0.  0.
        5    1    3    3  502    0 -0.79122279464E+03 -0.53793518575E+03 -0.21790767388E+04  0.23798750594E+04  0.46999998093E+01 0. -1.
       -5    1    3    3    0  502  0.79122279464E+03  0.53793518575E+03  0.71918547547E+03  0.11969367623E+04  0.46999998093E+01 0.  1.
</event>
<event>
 5   0  0.1860500E-07  0.3793704E+04  0.7818609E-02  0.8047507E-01
        1   -1    0    0  501    0  0.00000000000E+00  0.00000000000E+00  0.20009714717E+04  0.20009714717E+04  0.50400001928E-02 0. -1.
       -1   -1    0    0    0  501  0.00000000000E+00  0.00000000000E+00 -0.17981503416E+04  0.17981503416E+04  0.50400001928E-02 0.  1.
    10030    2    1    2    0    0  0.00000000000E+00  0.00000000000E+00  0.20282113013E+03  0.37991218133E+04  0.37937040134E+04 0.  0.
        5    1    3    3  502    0  0.11174689319E+04  0.13848613857E+04  0.75919529947E+03  0.19346776125E+04  0.46999998093E+01 0.  1.
       -5    1    3    3    0  502 -0.11174689319E+04 -0.13848613857E+04 -0.55637416934E+03  0.18644442008E+04  0.46999998093E+01 0. -1.
</event>
<event>
 5   0  0.5805753E-07  0.3963399E+04  0.7818609E-02  0.8011971E-01
        2   -1    0    0  501    0  0.00000000000E+00  0.00000000000E+00  0.22381820608E+04  0.22381820608E+04  0.25500000920E-02 0. -1.
       -2   -1    0    0    0  501  0.00000000000E+00  0.00000000000E+00 -0.17546080954E+04  0.17546080954E+04  0.25500000920E-02 0.  1.
    10030    2    1    2    0    0  0.00000000000E+00  0.00000000000E+00  0.48357396538E+03  0.39927901562E+04  0.39633987247E+04 0.  0.
        1    1    3    3  502    0 -0.19045591613E+04  0.52013871371E+03  0.41405943640E+03  0.20172593034E+04  0.50400001928E-02 0.  1.
       -1    1    3    3    0  502  0.19045591613E+04 -0.52013871371E+03  0.69514528977E+02  0.19755308527E+04  0.50400001928E-02 0. -1.
</event>
<event>
 5   0  0.1860500E-07  0.2918405E+04  0.7818609E-02  0.8267422E-01
        1   -1    0    0  501    0  0.00000000000E+00  0.00000000000E+00  0.20568884391E+04  0.20568884391E+04  0.50400001928E-02 0. -1.
       -1   -1    0    0    0  501  0.00000000000E+00  0.00000000000E+00 -0.10351911223E+04  0.10351911223E+04  0.50400001928E-02 0.  1.
    10030    2    1    2    0    0  0.00000000000E+00  0.00000000000E+00  0.10216973168E+04  0.30920795614E+04  0.29184054905E+04 0.  0.
        4    1    3    3  502    0 -0.13250531173E+04  0.59982956365E+03  0.63490532483E+03  0.15870310815E+04  0.12699999809E+01 0.  1.
       -4    1    3    3    0  502  0.13250531173E+04 -0.59982956365E+03  0.38679199195E+03  0.15050484800E+04  0.12699999809E+01 0. -1.
</event>
<event>
 5   0  0.1860500E-07  0.2450739E+04  0.7818609E-02  0.8420748E-01
       -1   -1    0    0    0  501  0.00000000000E+00  0.00000000000E+00  0.92740972055E+03  0.92740972057E+03  0.50400001928E-02 0.  1.
        1   -1    0    0  501    0  0.00000000000E+00  0.00000000000E+00 -0.16190585987E+04  0.16190585987E+04  0.50400001928E-02 0. -1.
    10030    2    1    2    0    0  0.00000000000E+00  0.00000000000E+00 -0.69164887817E+03  0.25464683193E+04  0.24507392212E+04 0.  0.
        5    1    3    3  502    0 -0.10079770317E+04 -0.47735835392E+03 -0.87321320976E+03  0.14164787659E+04  0.46999998093E+01 0. -1.
       -5    1    3    3    0  502  0.10079770317E+04  0.47735835392E+03  0.18156433159E+03  0.11299895535E+04  0.46999998093E+01 0.  1.
</event>
<event>
 5   0  0.5872444E-07  0.4066491E+04  0.7818609E-02  0.7991266E-01
        2   -1    0    0  501    0  0.00000000000E+00  0.00000000000E+00  0.19717625725E+04  0.19717625725E+04  0.25500000920E-02 0.  1.
       -2   -1    0    0    0  501  0.00000000000E+00  0.00000000000E+00 -0.20966459105E+04  0.20966459105E+04  0.25500000920E-02 0. -1.
    10030    2    1    2    0    0  0.00000000000E+00  0.00000000000E+00 -0.12488333791E+03  0.40684084830E+04  0.40664913299E+04 0.  0.
        3    1    3    3  502    0  0.11888100125E+04  0.16171572086E+04 -0.38758910438E+03  0.20441849249E+04  0.10100000352E+00 0. -1.
       -3    1    3    3    0  502 -0.11888100125E+04 -0.16171572086E+04  0.26270576647E+03  0.20242235581E+04  0.10100000352E+00 0.  1.
</event>
<event>
 5   0  0.5872444E-07  0.2530084E+04  0.7818609E-02  0.8392346E-01
        2   -1    0    0  501    0  0.00000000000E+00  0.00000000000E+00  0.20138247823E+04  0.20138247823E+04  0.25500000920E-02 0.  1.
       -2   -1    0    0    0  501  0.00000000000E+00  0.00000000000E+00 -0.79467244294E+03  0.79467244295E+03  0.25500000920E-02 0. -1.
    10030    2    1    2    0    0  0.00000000000E+00  0.00000000000E+00  0.12191523394E+04  0.28084972253E+04  0.25300838400E+04 0.  0.
        3    1    3    3  502    0  0.55102377368E+03  0.71135807647E+03 -0.37747050165E+03  0.97577738339E+03  0.10100000352E+00 0. -1.
       -3    1    3    3    0  502 -0.55102377368E+03 -0.71135807647E+03  0.15966228410E+04  0.18327198419E+04  0.10100000352E+00 0.  1.
</event>
<event>
 5   0  0.5735179E-07  0.3997360E+04  0.7818609E-02  0.8005079E-01
       -2   -1    0    0    0  501  0.00000000000E+00  0.00000000000E+00  0.23860341424E+04  0.23860341424E+04  0.25500000920E-02 0. -1.
        2   -1    0    0  501    0  0.00000000000E+00  0.00000000000E+00 -0.16742096729E+04  0.16742096729E+04  0.25500000920E-02 0.  1.
    10030    2    1    2    0    0  0.00000000000E+00  0.00000000000E+00  0.71182446954E+03  0.40602438153E+04  0.39973598492E+04 0.  0.
        5    1    3    3  502    0 -0.10492264746E+04 -0.13425573526E+04  0.14170297002E+04  0.22161524544E+04  0.46999998093E+01 0.  1.
       -5    1    3    3    0  502  0.10492264746E+04  0.13425573526E+04 -0.70520523067E+03  0.18440913609E+04  0.46999998093E+01 0. -1.
</event>
<event>
 5   0  0.1860500E-07  0.3761310E+04  0.7818609E-02  0.8054509E-01
       -1   -1    0    0    0  501  0.00000000000E+00  0.00000000000E+00  0.20099296535E+04  0.20099296535E+04  0.50400001928E-02 0.  1.
        1   -1    0    0  501    0  0.00000000000E+00  0.00000000000E+00 -0.17596947773E+04  0.17596947773E+04  0.50400001928E-02 0. -1.
    10030    2    1    2    0    0  0.00000000000E+00  0.00000000000E+00  0.25023487623E+03  0.37696244308E+04  0.37613097262E+04 0.  0.
        4    1    3    3  502    0  0.28187433195E+03 -0.29601506249E+03 -0.17146374133E+04  0.17626857713E+04  0.12699999809E+01 0. -1.
       -4    1    3    3    0  502 -0.28187433195E+03  0.29601506249E+03  0.19648722895E+04  0.20069386596E+04  0.12699999809E+01 0.  1.
</event>
<event>
 5   0  0.1860500E-07  0.3944081E+04  0.7818609E-02  0.8015923E-01
       -1   -1    0    0    0  501  0.00000000000E+00  0.00000000000E+00  0.19006485261E+04  0.19006485261E+04  0.50400001928E-02 0. -1.
        1   -1    0    0  501    0  0.00000000000E+00  0.00000000000E+00 -0.20461138555E+04  0.20461138555E+04  0.50400001928E-02 0.  1.
    10030    2    1    2    0    0  0.00000000000E+00  0.00000000000E+00 -0.14546532935E+03  0.39467623816E+04  0.39440807718E+04 0.  0.
        5    1    3    3  502    0  0.10471588555E+02  0.46504627856E+03  0.18449584406E+04  0.19027010887E+04  0.46999998093E+01 0. -1.
       -5    1    3    3    0  502 -0.10471588555E+02 -0.46504627856E+03 -0.19904237699E+04  0.20440612929E+04  0.46999998093E+01 0.  1.
</event>
<event>
 5   0  0.1943459E-07  0.3653604E+04  0.7818609E-02  0.8078322E-01
        1   -1    0    0  501    0  0.00000000000E+00  0.00000000000E+00  0.23276824768E+04  0.23276824768E+04  0.50400001928E-02 0. -1.
       -1   -1    0    0    0  501  0.00000000000E+00  0.00000000000E+00 -0.14337032757E+04  0.14337032758E+04  0.50400001928E-02 0.  1.
    10030    2    1    2    0    0  0.00000000000E+00  0.00000000000E+00  0.89397920101E+03  0.37613857525E+04  0.36536042434E+04 0.  0.
        2    1    3    3  502    0  0.14228572748E+03  0.10819949618E+03  0.23186573960E+04  0.23255374603E+04  0.25500000920E-02 0. -1.
       -2    1    3    3    0  502 -0.14228572748E+03 -0.10819949618E+03 -0.14246781949E+04  0.14358482923E+04  0.25500000920E-02 0.  1.
</event>
<event>
 5   0  0.1876027E-07  0.3896255E+04  0.7818609E-02  0.8025809E-01
       -1   -1    0    0    0  501  0.00000000000E+00  0.00000000000E+00  0.26661090985E+04  0.26661090985E+04  0.50400001928E-02 0.  1.
        1   -1    0    0  501    0  0.00000000000E+00  0.00000000000E+00 -0.14234980504E+04  0.14234980504E+04  0.50400001928E-02 0. -1.
    10030    2    1    2    0    0  0.00000000000E+00  0.00000000000E+00  0.12426110480E+04  0.40896071489E+04  0.38962551785E+04 0.  0.
        3    1    3    3  502    0  0.90253597391E+03 -0.16164164801E+04 -0.15279471863E+02  0.18513797271E+04  0.10100000352E+00 0.  1.
       -3    1    3    3    0  502 -0.90253597391E+03  0.16164164801E+04  0.12578905199E+04  0.22382274218E+04  0.10100000352E+00 0. -1.
</event>
<event>
 5   0  0.1860500E-07  0.3590429E+04  0.7818609E-02  0.8092688E-01
        1   -1    0    0  501    0  0.00000000000E+00  0.00000000000E+00  0.16710232654E+04  0.16710232654E+04  0.50400001928E-02 0. -1.
       -1   -1    0    0    0  501  0.00000000000E+00  0.00000000000E+00 -0.19286356026E+04  0.19286356026E+04  0.50400001928E-02 0.  1.
    10030    2    1    2    0    0  0.00000000000E+00  0.00000000000E+00 -0.25761233725E+03  0.35996588680E+04  0.35904289228E+04 0.  0.
        4    1    3    3  502    0  0.10890470365E+04  0.75455643609E+02  0.13000158565E+04  0.16975746941E+04  0.12699999809E+01 0. -1.
       -4    1    3    3    0  502 -0.10890470365E+04 -0.75455643609E+02 -0.15576281938E+04  0.19020841739E+04  0.12699999809E+01 0.  1.
</event>
<event>
 5   0  0.5872444E-07  0.3816345E+04  0.7818609E-02  0.8042656E-01
        2   -1    0    0  501    0  0.00000000000E+00  0.00000000000E+00  0.15509613025E+04  0.15509613025E+04  0.25500000920E-02 0. -1.
       -2   -1    0    0    0  501  0.00000000000E+00  0.00000000000E+00 -0.23476552330E+04  0.23476552330E+04  0.25500000920E-02 0.  1.
    10030    2    1    2    0    0  0.00000000000E+00  0.00000000000E+00 -0.79669393050E+03  0.38986165354E+04  0.38163450671E+04 0.  0.
        3    1    3    3  502    0 -0.15148170541E+03 -0.61549272310E+03  0.14402707782E+04  0.15735812416E+04  0.10100000352E+00 0. -1.
       -3    1    3    3    0  502  0.15148170541E+03  0.61549272310E+03 -0.22369647087E+04  0.23250352938E+04  0.10100000352E+00 0.  1.
</event>
<event>
 5   0  0.5735179E-07  0.3873699E+04  0.7818609E-02  0.8030522E-01
       -2   -1    0    0    0  501  0.00000000000E+00  0.00000000000E+00  0.27167390915E+04  0.27167390915E+04  0.25500000920E-02 0. -1.
        2   -1    0    0  501    0  0.00000000000E+00  0.00000000000E+00 -0.13808416348E+04  0.13808416348E+04  0.25500000920E-02 0.  1.
    10030    2    1    2    0    0  0.00000000000E+00  0.00000000000E+00  0.13358974567E+04  0.40975807263E+04  0.38736992390E+04 0.  0.
        5    1    3    3  502    0  0.22067107861E+03 -0.32814005632E+03  0.26735778582E+04  0.27026676221E+04  0.46999998093E+01 0. -1.
       -5    1    3    3    0  502 -0.22067107861E+03  0.32814005632E+03 -0.13376804016E+04  0.13949131042E+04  0.46999998093E+01 0.  1.
</event>
<event>
 5   0  0.5735179E-07  0.2646401E+04  0.7818609E-02  0.8352608E-01
        2   -1    0    0  501    0  0.00000000000E+00  0.00000000000E+00  0.84539862023E+03  0.84539862023E+03  0.25500000920E-02 0.  1.
       -2   -1    0    0    0  501  0.00000000000E+00  0.00000000000E+00 -0.20710461630E+04  0.20710461630E+04  0.25500000920E-02 0. -1.
    10030    2    1    2    0    0  0.00000000000E+00  0.00000000000E+00 -0.12256475428E+04  0.29164447832E+04  0.26464010041E+04 0.  0.
        5    1    3    3  502    0  0.20865397160E+03 -0.40702973764E+03 -0.19811443899E+04  0.20332645846E+04  0.46999998093E+01 0. -1.
       -5    1    3    3    0  502 -0.20865397160E+03  0.40702973764E+03  0.75549684716E+03  0.88318019863E+03  0.46999998093E+01 0.  1.
</event>
<event>
 5   0  0.2666813E-07  0.3944780E+04  0.7818609E-02  0.8015780E-01
        1   -1    0    0  501    0  0.00000000000E+00  0.00000000000E+00  0.27623568796E+04  0.27623568796E+04  0.50400001928E-02 0. -1.
       -1   -1    0    0    0  501  0.00000000000E+00  0.00000000000E+00 -0.14083345529E+04  0.14083345529E+04  0.50400001928E-02 0.  1.
    10030    2    1    2    0    0  0.00000000000E+00  0.00000000000E+00  0.13540223267E+04  0.41706914325E+04  0.39447801668E+04 0.  0.
        1    1    3    3  502    0  0.78627639948E+03 -0.41119546407E+03 -0.11854055754E+04  0.14807088385E+04  0.50400001928E-02 0.  1.
       -1    1    3    3    0  502 -0.78627639948E+03  0.41119546407E+03  0.25394279022E+04  0.26899825941E+04  0.50400001928E-02 0. -1.
</event>
<event>
 5   0  0.5805753E-07  0.3490328E+04  0.7818609E-02  0.8116086E-01
        2   -1    0    0  501    0  0.00000000000E+00  0.00000000000E+00  0.17902845644E+04  0.17902845644E+04  0.25500000920E-02 0. -1.
       -2   -1    0    0    0  501  0.00000000000E+00  0.00000000000E+00 -0.17011803560E+04  0.17011803560E+04  0.25500000920E-02 0.  1.
    10030    2    1    2    0    0  0.00000000000E+00  0.00000000000E+00  0.89104208375E+02  0.34914649204E+04  0.34903277397E+04 0.  0.
        1    1    3    3  502    0  0.55336204123E+03  0.64951068851E+03  0.15673894678E+04  0.17845961524E+04  0.50400001928E-02 0. -1.
       -1    1    3    3    0  502 -0.55336204123E+03 -0.64951068851E+03 -0.14782852594E+04  0.17068687681E+04  0.50400001928E-02 0.  1.
</event>
<event>
 5   0  0.5805753E-07  0.2901326E+04  0.7818609E-02  0.8272483E-01
       -2   -1    0    0    0  501  0.00000000000E+00  0.00000000000E+00  0.11422443721E+04  0.11422443721E+04  0.25500000920E-02 0. -1.
        2   -1    0    0  501    0  0.00000000000E+00  0.00000000000E+00 -0.18423586179E+04  0.18423586179E+04  0.25500000920E-02 0.  1.
    10030    2    1    2    0    0  0.00000000000E+00  0.00000000000E+00 -0.70011424587E+03  0.29846029900E+04  0.29013264295E+04 0.  0.
        1    1    3    3  502    0  0.25996580622E+03 -0.38229628274E+03 -0.17645483714E+04  0.18241062533E+04  0.50400001928E-02 0.  1.
       -1    1    3    3    0  502 -0.25996580622E+03  0.38229628274E+03  0.10644341256E+04  0.11604967367E+04  0.50400001928E-02 0. -1.
</event>
<event>
 5   0  0.1876027E-07  0.3089374E+04  0.7818609E-02  0.8218660E-01
       -1   -1    0    0    0  501  0.00000000000E+00  0.00000000000E+00  0.11601564074E+04  0.11601564074E+04  0.50400001928E-02 0.  1.
        1   -1    0    0  501    0  0.00000000000E+00  0.00000000000E+00 -0.20566686058E+04  0.20566686058E+04  0.50400001928E-02 0. -1.
    10030    2    1    2    0    0  0.00000000000E+00  0.00000000000E+00 -0.89651219840E+03  0.32168250132E+04  0.30893735681E+04 0.  0.
        3    1    3    3  502    0 -0.39647409948E+03 -0.14891807090E+04 -0.55848340714E+03  0.16391322771E+04  0.10100000352E+00 0.  1.
       -3    1    3    3    0  502  0.39647409948E+03  0.14891807090E+04 -0.33802879126E+03  0.15776927361E+04  0.10100000352E+00 0. -1.
</event>
<event>
 5   0  0.3959190E-07  0.2972967E+04  0.7818609E-02  0.8251493E-01
        2   -1    0    0  501    0  0.00000000000E+00  0.00000000000E+00  0.11104148287E+04  0.11104148287E+04  0.25500000920E-02 0. -1.
       -2   -1    0    0    0  501  0.00000000000E+00  0.00000000000E+00 -0.19899166191E+04  0.19899166191E+04  0.25500000920E-02 0.  1.
    10030    2    1    2    0    0  0.00000000000E+00  0.00000000000E+00 -0.87950179040E+03  0.31003314478E+04  0.29729668157E+04 0.  0.
        2    1    3    3  502    0  0.71392948134E+01  0.14248160611E+04  0.20509027039E+01  0.14248354233E+04  0.25500000920E-02 0. -1.
       -2    1    3    3    0  502 -0.71392948134E+01 -0.14248160611E+04 -0.88155269311E+03  0.16754960245E+04  0.25500000920E-02 0.  1.
</event>
<event>
 5   0  0.1943459E-07  0.2997709E+04  0.7818609E-02  0.8244385E-01
       -1   -1    0    0    0  501  0.00000000000E+00  0.00000000000E+00  0.17748807175E+04  0.17748807175E+04  0.50400001928E-02 0. -1.
        1   -1    0    0  501    0  0.00000000000E+00  0.00000000000E+00 -0.12657550652E+04  0.12657550652E+04  0.50400001928E-02 0.  1.
    10030    2    1    2    0    0  0.00000000000E+00  0.00000000000E+00  0.50912565231E+03  0.30406357827E+04  0.29977086305E+04 0.  0.
        2    1    3    3  502    0  0.13954409583E+04 -0.37354299945E+03  0.66000470482E+03  0.15882052925E+04  0.25500000920E-02 0. -1.
       -2    1    3    3    0  502 -0.13954409583E+04  0.37354299945E+03 -0.15087905251E+03  0.14524304903E+04  0.25500000920E-02 0.  1.
</event>
<event>
 5   0  0.3959190E-07  0.3636993E+04  0.7818609E-02  0.8082070E-01
        2   -1    0    0  501    0  0.00000000000E+00  0.00000000000E+00  0.16436040982E+04  0.16436040982E+04  0.25500000920E-02 0.  1.
       -2   -1    0    0    0  501  0.00000000000E+00  0.00000000000E+00 -0.20119988154E+04  0.20119988154E+04  0.25500000920E-02 0. -1.
    10030    2    1    2    0    0  0.00000000000E+00  0.00000000000E+00 -0.36839471723E+03  0.36556029135E+04  0.36369929879E+04 0.  0.
        2    1    3    3  502    0 -0.15772806064E+04 -0.54775116038E+03 -0.90835879666E+03  0.19007790899E+04  0.25500000920E-02 0. -1.
       -2    1    3    3    0  502  0.15772806064E+04  0.54775116038E+03  0.53996407942E+03  0.17548238237E+04  0.25500000920E-02 0.  1.
</event>
<event>
 5   0  0.2666813E-07  0.3979051E+04  0.7818609E-02  0.8008786E-01
        1   -1    0    0  501    0  0.00000000000E+00  0.00000000000E+00  0.27172618944E+04  0.27172618944E+04  0.50400001928E-02 0.  1.
       -1   -1    0    0    0  501  0.00000000000E+00  0.00000000000E+00 -0.14566911381E+04  0.14566911381E+04  0.50400001928E-02 0. -1.
    10030    2    1    2    0    0  0.00000000000E+00  0.00000000000E+00  0.12605707563E+04  0.41739530325E+04  0.39790508021E+04 0.  0.
        1    1    3    3  502    0  0.71099743766E+02  0.10852609106E+04  0.23778293805E+04  0.26147502711E+04  0.50400001928E-02 0.  1.
       -1    1    3    3    0  502 -0.71099743766E+02 -0.10852609106E+04 -0.11172586242E+04  0.15592027614E+04  0.50400001928E-02 0. -1.
</event>
<event>
 5   0  0.3959190E-07  0.2430865E+04  0.7818609E-02  0.8428038E-01
        2   -1    0    0  501    0  0.00000000000E+00  0.00000000000E+00  0.15329691877E+04  0.15329691877E+04  0.25500000920E-02 0. -1.
       -2   -1    0    0    0  501  0.00000000000E+00  0.00000000000E+00 -0.96366945052E+03  0.96366945053E+03  0.25500000920E-02 0.  1.
    10030    2    1    2    0    0  0.00000000000E+00  0.00000000000E+00  0.56929973715E+03  0.24966386382E+04  0.24308645168E+04 0.  0.
        2    1    3    3  502    0  0.92937239037E+03 -0.46467745597E+03  0.93228085818E+03  0.13959963383E+04  0.25500000920E-02 0. -1.
       -2    1    3    3    0  502 -0.92937239037E+03  0.46467745597E+03 -0.36298112102E+03  0.11006422999E+04  0.25500000920E-02 0.  1.
</event>
<event>
 5   0  0.5872444E-07  0.3917659E+04  0.7818609E-02  0.8021366E-01
        2   -1    0    0  501    0  0.00000000000E+00  0.00000000000E+00  0.16106357920E+04  0.16106357920E+04  0.25500000920E-02 0.  1.
       -2   -1    0    0    0  501  0.00000000000E+00  0.00000000000E+00 -0.23822971524E+04  0.23822971524E+04  0.25500000920E-02 0. -1.
    10030    2    1    2    0    0  0.00000000000E+00  0.00000000000E+00 -0.77166136045E+03  0.39929329444E+04  0.39176590259E+04 0.  0.
        3    1    3    3  502    0  0.37505456529E+03 -0.80802888061E+03  0.13922337802E+04  0.16528434613E+04  0.10100000352E+00 0.  1.
       -3    1    3    3    0  502 -0.37505456529E+03  0.80802888061E+03 -0.21638951406E+04  0.23400894830E+04  0.10100000352E+00 0. -1.
</event>
<event>
 5   0  0.5872444E-07  0.3911649E+04  0.7818609E-02  0.8022611E-01
       -2   -1    0    0    0  501  0.00000000000E+00  0.00000000000E+00  0.16874684925E+04  0.16874684925E+04  0.25500000920E-02 0.  1.
        2   -1    0    0  501    0  0.00000000000E+00  0.00000000000E+00 -0.22668571773E+04  0.22668571773E+04  0.25500000920E-02 0. -1.
    10030    2    1    2    0    0  0.00000000000E+00  0.00000000000E+00 -0.57938868476E+03  0.39543256697E+04  0.39116493010E+04 0.  0.
        3    1    3    3  502    0  0.14089076158E+04  0.37290888053E+03  0.10288239822E+04  0.17839732340E+04  0.10100000352E+00 0.  1.
       -3    1    3    3    0  502 -0.14089076158E+04 -0.37290888053E+03 -0.16082126670E+04  0.21703524358E+04  0.10100000352E+00 0. -1.
</event>
<event>
 5   0  0.5735179E-07  0.3897012E+04  0.7818609E-02  0.8025651E-01
       -2   -1    0    0    0  501  0.00000000000E+00  0.00000000000E+00  0.26671391827E+04  0.26671391827E+04  0.25500000920E-02 0. -1.
        2   -1    0    0  501    0  0.00000000000E+00  0.00000000000E+00 -0.14235007795E+04  0.14235007795E+04  0.25500000920E-02 0.  1.
    10030    2    1    2    0    0  0.00000000000E+00  0.00000000000E+00  0.12436384031E+04  0.40906399622E+04  0.38970115246E+04 0.  0.
        5    1    3    3  502    0 -0.21443333049E+03  0.18753171024E+04  0.11420413863E+03  0.18909945963E+04  0.46999998093E+01 0. -1.
       -5    1    3    3    0  502  0.21443333049E+03 -0.18753171024E+04  0.11294342645E+04  0.21996453659E+04  0.46999998093E+01 0.  1.
</event>
<event>
 5   0  0.2666813E-07  0.3891809E+04  0.7818609E-02  0.8026735E-01
       -1   -1    0    0    0  501  0.00000000000E+00  0.00000000000E+00  0.19536865118E+04  0.19536865119E+04  0.50400001928E-02 0. -1.
        1   -1    0    0  501    0  0.00000000000E+00  0.00000000000E+00 -0.19381534405E+04  0.19381534405E+04  0.50400001928E-02 0.  1.
    10030    2    1    2    0    0  0.00000000000E+00  0.00000000000E+00  0.15533071316E+02  0.38918399524E+04  0.38918089545E+04 0.  0.
        1    1    3    3  502    0 -0.18110143875E+04 -0.26691009175E+03  0.66771885488E+03  0.19485539711E+04  0.50400001928E-02 0. -1.
       -1    1    3    3    0  502  0.18110143875E+04  0.26691009175E+03 -0.65218578357E+03  0.19432859813E+04  0.50400001928E-02 0.  1.
</event>
<event>
 5   0  0.1876027E-07  0.3878483E+04  0.7818609E-02  0.8029519E-01
        1   -1    0    0  501    0  0.00000000000E+00  0.00000000000E+00  0.29476932880E+04  0.29476932880E+04  0.50400001928E-02 0.  1.
       -1   -1    0    0    0  501  0.00000000000E+00  0.00000000000E+00 -0.12757970177E+04  0.12757970177E+04  0.50400001928E-02 0. -1.
    10030    2    1    2    0    0  0.00000000000E+00  0.00000000000E+00  0.16718962703E+04  0.42234903057E+04  0.38784833664E+04 0.  0.
        3    1    3    3  502    0 -0.17802479746E+04 -0.39657074975E+03  0.15534251712E+04  0.23957631317E+04  0.10100000352E+00 0.  1.
       -3    1    3    3    0  502  0.17802479746E+04  0.39657074975E+03  0.11847109913E+03  0.18277271739E+04  0.10100000352E+00 0. -1.
</event>
<event>
 5   0  0.1876027E-07  0.3922842E+04  0.7818609E-02  0.8020295E-01
        1   -1    0    0  501    0  0.00000000000E+00  0.00000000000E+00  0.22281385664E+04  0.22281385664E+04  0.50400001928E-02 0. -1.
       -1   -1    0    0    0  501  0.00000000000E+00  0.00000000000E+00 -0.17266302929E+04  0.17266302929E+04  0.50400001928E-02 0.  1.
    10030    2    1    2    0    0  0.00000000000E+00  0.00000000000E+00  0.50150827349E+03  0.39547688593E+04  0.39228415954E+04 0.  0.
        3    1    3    3  502    0 -0.22937848195E+03  0.17037465828E+04  0.12027941358E+04  0.20981135932E+04  0.10100000352E+00 0. -1.
       -3    1    3    3    0  502  0.22937848195E+03 -0.17037465828E+04 -0.70128586232E+03  0.18566552662E+04  0.10100000352E+00 0.  1.
</event>
<event>
 5   0  0.5805753E-07  0.3970749E+04  0.7818609E-02  0.8010474E-01
       -2   -1    0    0    0  501  0.00000000000E+00  0.00000000000E+00  0.20263757556E+04  0.20263757556E+04  0.25500000920E-02 0. -1.
        2   -1    0    0  501    0  0.00000000000E+00  0.00000000000E+00 -0.19452029672E+04  0.19452029672E+04  0.25500000920E-02 0.  1.
    10030    2    1    2    0    0  0.00000000000E+00  0.00000000000E+00  0.81172788417E+02  0.39715787228E+04  0.39707491144E+04 0.  0.
        1    1    3    3  502    0  0.67959302464E+03  0.17833710770E+03  0.18978699714E+04  0.20237493006E+04  0.50400001928E-02 0. -1.
       -1    1    3    3    0  502 -0.67959302464E+03 -0.17833710770E+03 -0.18166971830E+04  0.19478294222E+04  0.50400001928E-02 0.  1.
</event>
<event>
 5   0  0.1860500E-07  0.2510765E+04  0.7818609E-02  0.8399160E-01
       -1   -1    0    0    0  501  0.00000000000E+00  0.00000000000E+00  0.12489572452E+04  0.12489572452E+04  0.50400001928E-02 0.  1.
        1   -1    0    0  501    0  0.00000000000E+00  0.00000000000E+00 -0.12618408610E+04  0.12618408610E+04  0.50400001928E-02 0. -1.
    10030    2    1    2    0    0  0.00000000000E+00  0.00000000000E+00 -0.12883615799E+02  0.25107981062E+04  0.25107650512E+04 0.  0.
        5    1    3    3  502    0 -0.32746989430E+03  0.20495253347E+03 -0.12009118534E+04  0.12615282170E+04  0.46999998093E+01 0. -1.
       -5    1    3    3    0  502  0.32746989430E+03 -0.20495253347E+03  0.11880282376E+04  0.12492698892E+04  0.46999998093E+01 0.  1.
</event>
<event>
 5   0  0.5805753E-07  0.3816712E+04  0.7818609E-02  0.8042578E-01
        2   -1    0    0  501    0  0.00000000000E+00  0.00000000000E+00  0.17418189796E+04  0.17418189796E+04  0.25500000920E-02 0.  1.
       -2   -1    0    0    0  501  0.00000000000E+00  0.00000000000E+00 -0.20908160046E+04  0.20908160046E+04  0.25500000920E-02 0. -1.
    10030    2    1    2    0    0  0.00000000000E+00  0.00000000000E+00 -0.34899702506E+03  0.38326349842E+04  0.38167121975E+04 0.  0.
        1    1    3    3  502    0 -0.18787370295E+03  0.15046916119E+04 -0.13379648180E+04  0.20222619092E+04  0.50400001928E-02 0.  1.
       -1    1    3    3    0  502  0.18787370295E+03 -0.15046916119E+04  0.98896779292E+03  0.18103730750E+04  0.50400001928E-02 0. -1.
</event>
<event>
 5   0  0.5805753E-07  0.3896752E+04  0.7818609E-02  0.8025705E-01
       -2   -1    0    0    0  501  0.00000000000E+00  0.00000000000E+00  0.16144858629E+04  0.16144858629E+04  0.25500000920E-02 0.  1.
        2   -1    0    0  501    0  0.00000000000E+00  0.00000000000E+00 -0.23513174469E+04  0.23513174469E+04  0.25500000920E-02 0. -1.
    10030    2    1    2    0    0  0.00000000000E+00  0.00000000000E+00 -0.73683158403E+03  0.39658033098E+04  0.38967518665E+04 0.  0.
        1    1    3    3  502    0 -0.15517299544E+04  0.11423556406E+04 -0.66219430661E+03  0.20374846161E+04  0.50400001928E-02 0.  1.
       -1    1    3    3    0  502  0.15517299544E+04 -0.11423556406E+04 -0.74637277421E+02  0.19283186937E+04  0.50400001928E-02 0. -1.
</event>
<event>
 5   0  0.3959190E-07  0.4032043E+04  0.7818609E-02  0.7998114E-01
        2   -1    0    0  501    0  0.00000000000E+00  0.00000000000E+00  0.22215694943E+04  0.22215694943E+04  0.25500000920E-02 0.  1.
       -2   -1    0    0    0  501  0.00000000000E+00  0.00000000000E+00 -0.18294914516E+04  0.18294914516E+04  0.25500000920E-02 0. -1.
    10030    2    1    2    0    0  0.00000000000E+00  0.00000000000E+00  0.39207804267E+03  0.40510609459E+04  0.40320428564E+04 0.  0.
        2    1    3    3  502    0  0.17193513528E+04  0.76379318279E+03 -0.53180409279E+03  0.19550868762E+04  0.25500000920E-02 0. -1.
       -2    1    3    3    0  502 -0.17193513528E+04 -0.76379318279E+03  0.92388213546E+03  0.20959740697E+04  0.25500000920E-02 0.  1.
</event>
<event>
 5   0  0.1943459E-07  0.3768049E+04  0.7818609E-02  0.8053046E-01
        1   -1    0    0  501    0  0.00000000000E+00  0.00000000000E+00  0.27505520944E+04  0.27505520944E+04  0.50400001928E-02 0.  1.
       -1   -1    0    0    0  501  0.00000000000E+00  0.00000000000E+00 -0.12904857260E+04  0.12904857260E+04  0.50400001928E-02 0. -1.
    10030    2    1    2    0    0  0.00000000000E+00  0.00000000000E+00  0.14600663685E+04  0.40410378204E+04  0.37680489468E+04 0.  0.
        2    1    3    3  502    0 -0.10980954773E+04  0.11512543465E+04 -0.35220905507E+03  0.16294942363E+04  0.25500000920E-02 0. -1.
       -2    1    3    3    0  502  0.10980954773E+04 -0.11512543465E+04  0.18122754235E+04  0.24115435842E+04  0.25500000920E-02 0.  1.
</event>
<event>
 5   0  0.5735179E-07  0.3500017E+04  0.7818609E-02  0.8113786E-01
       -2   -1    0    0    0  501  0.00000000000E+00  0.00000000000E+00  0.16316056471E+04  0.16316056471E+04  0.25500000920E-02 0. -1.
        2   -1    0    0  501    0  0.00000000000E+00  0.00000000000E+00 -0.18770039873E+04  0.18770039873E+04  0.25500000920E-02 0.  1.
    10030    2    1    2    0    0  0.00000000000E+00  0.00000000000E+00 -0.24539834021E+03  0.35086096343E+04  0.35000173172E+04 0.  0.
        5    1    3    3  502    0 -0.13471661288E+04  0.10306345642E+04 -0.55438847486E+03  0.17844979278E+04  0.46999998093E+01 0. -1.
       -5    1    3    3    0  502  0.13471661288E+04 -0.10306345642E+04  0.30899013466E+03  0.17241117065E+04  0.46999998093E+01 0.  1.
</event>
<event>
 5   0  0.1860500E-07  0.3047849E+04  0.7818609E-02  0.8230198E-01
        3   -1    0    0  501    0  0.00000000000E+00  0.00000000000E+00  0.15970554006E+04  0.15970554038E+04  0.10100000352E+00 0. -1.
       -3   -1    0    0    0  501  0.00000000000E+00  0.00000000000E+00 -0.14541423383E+04  0.14541423418E+04  0.10100000352E+00 0.  1.
    10030    2    1    2    0    0  0.00000000000E+00  0.00000000000E+00  0.14291306230E+03  0.30511977456E+04  0.30478490021E+04 0.  0.
        1    1    3    3  502    0 -0.14588984114E+04 -0.18704205945E+03 -0.32770022079E+03  0.15069030299E+04  0.50400001928E-02 0. -1.
       -1    1    3    3    0  502  0.14588984114E+04  0.18704205945E+03  0.47061328309E+03  0.15442947157E+04  0.50400001928E-02 0.  1.
</event>
<event>
 5   0  0.5872444E-07  0.3894926E+04  0.7818609E-02  0.8026085E-01
        2   -1    0    0  501    0  0.00000000000E+00  0.00000000000E+00  0.20462119198E+04  0.20462119198E+04  0.25500000920E-02 0.  1.
       -2   -1    0    0    0  501  0.00000000000E+00  0.00000000000E+00 -0.18534796394E+04  0.18534796394E+04  0.25500000920E-02 0. -1.
    10030    2    1    2    0    0  0.00000000000E+00  0.00000000000E+00  0.19273228040E+03  0.38996915592E+04  0.38949259974E+04 0.  0.
        3    1    3    3  502    0  0.15189247009E+04 -0.32888934818E+02  0.13162156506E+04  0.20101337215E+04  0.10100000352E+00 0.  1.
       -3    1    3    3    0  502 -0.15189247009E+04  0.32888934818E+02 -0.11234833702E+04  0.18895578378E+04  0.10100000352E+00 0. -1.
</event>
<event>
 5   0  0.5805753E-07  0.3906959E+04  0.7818609E-02  0.8023583E-01
        2   -1    0    0  501    0  0.00000000000E+00  0.00000000000E+00  0.16162461918E+04  0.16162461918E+04  0.25500000920E-02 0. -1.
       -2   -1    0    0    0  501  0.00000000000E+00  0.00000000000E+00 -0.23610776763E+04  0.23610776763E+04  0.25500000920E-02 0.  1.
    10030    2    1    2    0    0  0.00000000000E+00  0.00000000000E+00 -0.74483148456E+03  0.39773238681E+04  0.39069593306E+04 0.  0.
        1    1    3    3  502    0 -0.89996557954E+03 -0.10284382554E+04  0.10485963022E+04  0.17225497074E+04  0.50400001928E-02 0. -1.
       -1    1    3    3    0  502  0.89996557954E+03  0.10284382554E+04 -0.17934277867E+04  0.22547741607E+04  0.50400001928E-02 0.  1.
</event>
<event>
 5   0  0.3959190E-07  0.3990780E+04  0.7818609E-02  0.8006409E-01
       -2   -1    0    0    0  501  0.00000000000E+00  0.00000000000E+00  0.17463760454E+04  0.17463760454E+04  0.25500000920E-02 0.  1.
        2   -1    0    0  501    0  0.00000000000E+00  0.00000000000E+00 -0.22799106005E+04  0.22799106005E+04  0.25500000920E-02 0. -1.
    10030    2    1    2    0    0  0.00000000000E+00  0.00000000000E+00 -0.53353455510E+03  0.40262866459E+04  0.39907800032E+04 0.  0.
        2    1    3    3  502    0  0.75874390366E+03  0.52313957234E+03  0.15187851723E+04  0.17765347514E+04  0.25500000920E-02 0.  1.
       -2    1    3    3    0  502 -0.75874390366E+03 -0.52313957234E+03 -0.20523197274E+04  0.22497518945E+04  0.25500000920E-02 0. -1.
</event>
<event>
 5   0  0.1943459E-07  0.2701134E+04  0.7818609E-02  0.8334637E-01
       -1   -1    0    0    0  501  0.00000000000E+00  0.00000000000E+00  0.11152070572E+04  0.11152070572E+04  0.50400001928E-02 0. -1.
        1   -1    0    0  501    0  0.00000000000E+00  0.00000000000E+00 -0.16355987102E+04  0.16355987102E+04  0.50400001928E-02 0.  1.
    10030    2    1    2    0    0  0.00000000000E+00  0.00000000000E+00 -0.52039165300E+03  0.27508057674E+04  0.27011340021E+04 0.  0.
        2    1    3    3  502    0  0.11536171414E+04  0.16256230339E+03 -0.95596677905E+03  0.15070273700E+04  0.25500000920E-02 0.  1.
       -2    1    3    3    0  502 -0.11536171414E+04 -0.16256230339E+03  0.43557512605E+03  0.12437783974E+04  0.25500000920E-02 0. -1.
</event>
<event>
 5   0  0.1943459E-07  0.3857997E+04  0.7818609E-02  0.8033822E-01
        1   -1    0    0  501    0  0.00000000000E+00  0.00000000000E+00  0.24294182760E+04  0.24294182760E+04  0.50400001928E-02 0.  1.
       -1   -1    0    0    0  501  0.00000000000E+00  0.00000000000E+00 -0.15316568313E+04  0.15316568313E+04  0.50400001928E-02 0. -1.
    10030    2    1    2    0    0  0.00000000000E+00  0.00000000000E+00  0.89776144471E+03  0.39610751073E+04  0.38579969407E+04 0.  0.
        2    1    3    3  502    0 -0.72208211543E+03 -0.12228195457E+03 -0.13833665090E+04  0.15652662253E+04  0.25500000920E-02 0. -1.
       -2    1    3    3    0  502  0.72208211543E+03  0.12228195457E+03  0.22811279537E+04  0.23958088820E+04  0.25500000920E-02 0.  1.
</event>
<event>
 5   0  0.5735179E-07  0.3926029E+04  0.7818609E-02  0.8019637E-01
       -2   -1    0    0    0  501  0.00000000000E+00  0.00000000000E+00  0.17178669462E+04  0.17178669462E+04  0.25500000920E-02 0.  1.
        2   -1    0    0  501    0  0.00000000000E+00  0.00000000000E+00 -0.22431454712E+04  0.22431454712E+04  0.25500000920E-02 0. -1.
    10030    2    1    2    0    0  0.00000000000E+00  0.00000000000E+00 -0.52527852500E+03  0.39610124174E+04  0.39260287623E+04 0.  0.
        5    1    3    3  502    0 -0.30294377588E+03 -0.16588680437E+04 -0.12764741664E+04  0.21149530740E+04  0.46999998093E+01 0. -1.
       -5    1    3    3    0  502  0.30294377588E+03  0.16588680437E+04  0.75119564143E+03  0.18460593434E+04  0.46999998093E+01 0.  1.
</event>
<event>
 5   0  0.5805753E-07  0.3648328E+04  0.7818609E-02  0.8079510E-01
       -2   -1    0    0    0  501  0.00000000000E+00  0.00000000000E+00  0.15252812729E+04  0.15252812729E+04  0.25500000920E-02 0. -1.
        2   -1    0    0  501    0  0.00000000000E+00  0.00000000000E+00 -0.21816140133E+04  0.21816140133E+04  0.25500000920E-02 0.  1.
    10030    2    1    2    0    0  0.00000000000E+00  0.00000000000E+00 -0.65633274042E+03  0.37068952862E+04  0.36483283839E+04 0.  0.
        1    1    3    3  502    0  0.13716616559E+02  0.26158766184E+03 -0.21624049666E+04  0.21782129120E+04  0.50400001928E-02 0.  1.
       -1    1    3    3    0  502 -0.13716616559E+02 -0.26158766184E+03  0.15060722262E+04  0.15286823741E+04  0.50400001928E-02 0. -1.
</event>
<event>
 5   0  0.5735179E-07  0.2831725E+04  0.7818609E-02  0.8293486E-01
        2   -1    0    0  501    0  0.00000000000E+00  0.00000000000E+00  0.12358246166E+04  0.12358246166E+04  0.25500000920E-02 0. -1.
       -2   -1    0    0    0  501  0.00000000000E+00  0.00000000000E+00 -0.16221289551E+04  0.16221289551E+04  0.25500000920E-02 0.  1.
    10030    2    1    2    0    0  0.00000000000E+00  0.00000000000E+00 -0.38630433841E+03  0.28579535717E+04  0.28317251943E+04 0.  0.
        5    1    3    3  502    0 -0.12751995962E+04 -0.39849142991E+02  0.42647477074E+03  0.13452229497E+04  0.46999998093E+01 0. -1.
       -5    1    3    3    0  502  0.12751995962E+04  0.39849142991E+02 -0.81277910915E+03  0.15127306220E+04  0.46999998093E+01 0.  1.
</event>
<event>
 5   0  0.3959190E-07  0.3907001E+04  0.7818609E-02  0.8023575E-01
        2   -1    0    0  501    0  0.00000000000E+00  0.00000000000E+00  0.15623645961E+04  0.15623645962E+04  0.25500000920E-02 0. -1.
       -2   -1    0    0    0  501  0.00000000000E+00  0.00000000000E+00 -0.24425562557E+04  0.24425562557E+04  0.25500000920E-02 0.  1.
    10030    2    1    2    0    0  0.00000000000E+00  0.00000000000E+00 -0.88019165950E+03  0.40049208518E+04  0.39070005979E+04 0.  0.
        2    1    3    3  502    0  0.89532703602E+03 -0.10751777399E+04  0.95735677454E+03  0.16953317279E+04  0.25500000920E-02 0. -1.
       -2    1    3    3    0  502 -0.89532703602E+03  0.10751777399E+04 -0.18375484340E+04  0.23095891239E+04  0.25500000920E-02 0.  1.
</event>
<event>
 5   0  0.1943459E-07  0.3928341E+04  0.7818609E-02  0.8019160E-01
        1   -1    0    0  501    0  0.00000000000E+00  0.00000000000E+00  0.17964010296E+04  0.17964010296E+04  0.50400001928E-02 0.  1.
       -1   -1    0    0    0  501  0.00000000000E+00  0.00000000000E+00 -0.21476084470E+04  0.21476084470E+04  0.50400001928E-02 0. -1.
    10030    2    1    2    0    0  0.00000000000E+00  0.00000000000E+00 -0.35120741741E+03  0.39440094766E+04  0.39283411386E+04 0.  0.
        2    1    3    3  502    0  0.81656325153E+03  0.14979825991E+04 -0.11527474432E+04  0.20590177461E+04  0.25500000920E-02 0.  1.
       -2    1    3    3    0  502 -0.81656325153E+03 -0.14979825991E+04  0.80154002583E+03  0.18849917305E+04  0.25500000920E-02 0. -1.
</event>
<event>
 5   0  0.1876027E-07  0.3875656E+04  0.7818609E-02  0.8030112E-01
        1   -1    0    0  501    0  0.00000000000E+00  0.00000000000E+00  0.24033105391E+04  0.24033105391E+04  0.50400001928E-02 0.  1.
       -1   -1    0    0    0  501  0.00000000000E+00  0.00000000000E+00 -0.15625015819E+04  0.15625015819E+04  0.50400001928E-02 0. -1.
    10030    2    1    2    0    0  0.00000000000E+00  0.00000000000E+00  0.84080895726E+03  0.39658121210E+04  0.38756555674E+04 0.  0.
        3    1    3    3  502    0 -0.12001388993E+04 -0.98931511570E+03  0.16031906490E+04  0.22336736653E+04  0.10100000352E+00 0.  1.
       -3    1    3    3    0  502  0.12001388993E+04  0.98931511570E+03 -0.76238169174E+03  0.17321384557E+04  0.10100000352E+00 0. -1.
</event>
<event>
 5   0  0.5805753E-07  0.2723572E+04  0.7818609E-02  0.8327397E-01
        2   -1    0    0  501    0  0.00000000000E+00  0.00000000000E+00  0.25794459415E+04  0.25794459415E+04  0.25500000920E-02 0.  1.
       -2   -1    0    0    0  501  0.00000000000E+00  0.00000000000E+00 -0.71893759896E+03  0.71893759896E+03  0.25500000920E-02 0. -1.
    10030    2    1    2    0    0  0.00000000000E+00  0.00000000000E+00  0.18605083425E+04  0.32983835405E+04  0.27235716784E+04 0.  0.
        1    1    3    3  502    0 -0.51208834643E+03  0.50278234092E+03 -0.47134343603E+03  0.85859722315E+03  0.50400001928E-02 0. -1.
       -1    1    3    3    0  502  0.51208834643E+03 -0.50278234092E+03  0.23318517786E+04  0.24397863173E+04  0.50400001928E-02 0.  1.
</event>
<event>
 5   0  0.1943459E-07  0.3871989E+04  0.7818609E-02  0.8030880E-01
        1   -1    0    0  501    0  0.00000000000E+00  0.00000000000E+00  0.20387302535E+04  0.20387302535E+04  0.50400001928E-02 0.  1.
       -1   -1    0    0    0  501  0.00000000000E+00  0.00000000000E+00 -0.18384361131E+04  0.18384361131E+04  0.50400001928E-02 0. -1.
    10030    2    1    2    0    0  0.00000000000E+00  0.00000000000E+00  0.20029414037E+03  0.38771663666E+04  0.38719893197E+04 0.  0.
        2    1    3    3  502    0  0.16921987642E+04 -0.71220018981E+03  0.71522364569E+03  0.19703579957E+04  0.25500000920E-02 0.  1.
       -2    1    3    3    0  502 -0.16921987642E+04  0.71220018981E+03 -0.51492950532E+03  0.19068083709E+04  0.25500000920E-02 0. -1.
</event>
<event>
 5   0  0.5805753E-07  0.3916274E+04  0.7818609E-02  0.8021653E-01
       -2   -1    0    0    0  501  0.00000000000E+00  0.00000000000E+00  0.28972377776E+04  0.28972377776E+04  0.25500000920E-02 0. -1.
        2   -1    0    0  501    0  0.00000000000E+00  0.00000000000E+00 -0.13234332829E+04  0.13234332829E+04  0.25500000920E-02 0.  1.
    10030    2    1    2    0    0  0.00000000000E+00  0.00000000000E+00  0.15738044946E+04  0.42206710605E+04  0.39162742005E+04 0.  0.
        1    1    3    3  502    0  0.62984030601E+03 -0.18434202350E+04  0.57296905008E+03  0.20305640857E+04  0.50400001928E-02 0. -1.
       -1    1    3    3    0  502 -0.62984030601E+03  0.18434202350E+04  0.10008354445E+04  0.21901069748E+04  0.50400001928E-02 0.  1.
</event>
<event>
 5   0  0.5805753E-07  0.3685340E+04  0.7818609E-02  0.8071218E-01
       -2   -1    0    0    0  501  0.00000000000E+00  0.00000000000E+00  0.20994189101E+04  0.20994189101E+04  0.25500000920E-02 0.  1.
        2   -1    0    0  501    0  0.00000000000E+00  0.00000000000E+00 -0.16173200241E+04  0.16173200241E+04  0.25500000920E-02 0. -1.
    10030    2    1    2    0    0  0.00000000000E+00  0.00000000000E+00  0.48209888606E+03  0.37167389342E+04  0.36853397359E+04 0.  0.
        1    1    3    3  502    0 -0.16413751357E+03 -0.87108486083E+03 -0.13881715974E+04  0.16470429083E+04  0.50400001928E-02 0. -1.
       -1    1    3    3    0  502  0.16413751357E+03  0.87108486083E+03  0.18702704834E+04  0.20696960258E+04  0.50400001928E-02 0.  1.
</event>
<event>
 5   0  0.2666813E-07  0.3510452E+04  0.7818609E-02  0.8111317E-01
        1   -1    0    0  501    0  0.00000000000E+00  0.00000000000E+00  0.11168518950E+04  0.11168518950E+04  0.50400001928E-02 0.  1.
       -1   -1    0    0    0  501  0.00000000000E+00  0.00000000000E+00 -0.27584838194E+04  0.27584838194E+04  0.50400001928E-02 0. -1.
    10030    2    1    2    0    0  0.00000000000E+00  0.00000000000E+00 -0.16416319244E+04  0.38753357144E+04  0.35104517549E+04 0.  0.
        1    1    3    3  502    0 -0.26185764166E+02 -0.11773893790E+04 -0.22575899850E+04  0.25463000578E+04  0.50400001928E-02 0. -1.
       -1    1    3    3    0  502  0.26185764166E+02  0.11773893790E+04  0.61595806059E+03  0.13290356566E+04  0.50400001928E-02 0.  1.
</event>
<event>
 5   0  0.4077932E-07  0.2463810E+04  0.7818609E-02  0.8415993E-01
        1   -1    0    0  501    0  0.00000000000E+00  0.00000000000E+00  0.16058861209E+04  0.16058861209E+04  0.50400001928E-02 0. -1.
       -1   -1    0    0    0  501  0.00000000000E+00  0.00000000000E+00 -0.94501691948E+03  0.94501691949E+03  0.50400001928E-02 0.  1.
    10030    2    1    2    0    0  0.00000000000E+00  0.00000000000E+00  0.66086920146E+03  0.25509030404E+04  0.24638096964E+04 0.  0.
        1    1    3    3  502    0  0.31699746299E+03 -0.46246697955E+02  0.15620054351E+04  0.15945178355E+04  0.50400001928E-02 0. -1.
       -1    1    3    3    0  502 -0.31699746299E+03  0.46246697955E+02 -0.90113623361E+03  0.95638520491E+03  0.50400001928E-02 0.  1.
</event>
<event>
 5   0  0.5805753E-07  0.3951632E+04  0.7818609E-02  0.8014376E-01
       -2   -1    0    0    0  501  0.00000000000E+00  0.00000000000E+00  0.25668368645E+04  0.25668368645E+04  0.25500000920E-02 0. -1.
        2   -1    0    0  501    0  0.00000000000E+00  0.00000000000E+00 -0.15208792192E+04  0.15208792193E+04  0.25500000920E-02 0.  1.
    10030    2    1    2    0    0  0.00000000000E+00  0.00000000000E+00  0.10459576452E+04  0.40877160837E+04  0.39516319902E+04 0.  0.
        1    1    3    3  502    0 -0.19108999947E+03  0.18248246473E+04 -0.23530578030E+03  0.18498295033E+04  0.50400001928E-02 0.  1.
       -1    1    3    3    0  502  0.19108999947E+03 -0.18248246473E+04  0.12812634255E+04  0.22378865804E+04  0.50400001928E-02 0. -1.
</event>
<event>
 5   0  0.5735179E-07  0.3729269E+04  0.7818609E-02  0.8061506E-01
       -2   -1    0    0    0  501  0.00000000000E+00  0.00000000000E+00  0.15468589363E+04  0.15468589363E+04  0.25500000920E-02 0.  1.
        2   -1    0    0  501    0  0.00000000000E+00  0.00000000000E+00 -0.22476919526E+04  0.22476919526E+04  0.25500000920E-02 0. -1.
    10030    2    1    2    0    0  0.00000000000E+00  0.00000000000E+00 -0.70083301636E+03  0.37945508889E+04  0.37292693026E+04 0.  0.
        5    1    3    3  502    0  0.11194626849E+04  0.10526071293E+04 -0.14251552910E+04  0.20957738821E+04  0.46999998093E+01 0. -1.
       -5    1    3    3    0  502 -0.11194626849E+04 -0.10526071293E+04  0.72432227460E+03  0.16987770068E+04  0.46999998093E+01 0.  1.
</event>
<event>
 5   0  0.2666813E-07  0.3774188E+04  0.7818609E-02  0.8051717E-01
       -1   -1    0    0    0  501  0.00000000000E+00  0.00000000000E+00  0.18055947793E+04  0.18055947793E+04  0.50400001928E-02 0.  1.
        1   -1    0    0  501    0  0.00000000000E+00  0.00000000000E+00 -0.19722715742E+04  0.19722715742E+04  0.50400001928E-02 0. -1.
    10030    2    1    2    0    0  0.00000000000E+00  0.00000000000E+00 -0.16667679496E+03  0.37778663535E+04  0.37741877313E+04 0.  0.
        1    1    3    3  502    0 -0.37313141404E+03  0.13749960795E+04 -0.13219943057E+04  0.19435818005E+04  0.50400001928E-02 0. -1.
       -1    1    3    3    0  502  0.37313141404E+03 -0.13749960795E+04  0.11553175107E+04  0.18342845530E+04  0.50400001928E-02 0.  1.
</event>
<event>
 5   0  0.5805753E-07  0.2511966E+04  0.7818609E-02  0.8398735E-01
        2   -1    0    0  501    0  0.00000000000E+00  0.00000000000E+00  0.11797920732E+04  0.11797920732E+04  0.25500000920E-02 0. -1.
       -2   -1    0    0    0  501  0.00000000000E+00  0.00000000000E+00 -0.13370941571E+04  0.13370941571E+04  0.25500000920E-02 0.  1.
    10030    2    1    2    0    0  0.00000000000E+00  0.00000000000E+00 -0.15730208393E+03  0.25168862303E+04  0.25119658339E+04 0.  0.
        1    1    3    3  502    0  0.47646943460E+03  0.10435120785E+04 -0.59107485146E+03  0.12904689303E+04  0.50400001928E-02 0.  1.
       -1    1    3    3    0  502 -0.47646943460E+03 -0.10435120785E+04  0.43377276753E+03  0.12264173001E+04  0.50400001928E-02 0. -1.
</event>
<event>
 5   0  0.1860500E-07  0.3840883E+04  0.7818609E-02  0.8037438E-01
       -1   -1    0    0    0  501  0.00000000000E+00  0.00000000000E+00  0.17777285143E+04  0.17777285143E+04  0.50400001928E-02 0.  1.
        1   -1    0    0  501    0  0.00000000000E+00  0.00000000000E+00 -0.20746116961E+04  0.20746116961E+04  0.50400001928E-02 0. -1.
    10030    2    1    2    0    0  0.00000000000E+00  0.00000000000E+00 -0.29688318179E+03  0.38523402104E+04  0.38408834235E+04 0.  0.
        4    1    3    3  502    0  0.11589210938E+04 -0.13491712854E+04  0.57810405118E+03  0.18701783781E+04  0.12699999809E+01 0.  1.
       -4    1    3    3    0  502 -0.11589210938E+04  0.13491712854E+04 -0.87498723298E+03  0.19821618324E+04  0.12699999809E+01 0. -1.
</event>
<event>
 5   0  0.1860500E-07  0.3881835E+04  0.7818609E-02  0.8028818E-01
        1   -1    0    0  501    0  0.00000000000E+00  0.00000000000E+00  0.24814696716E+04  0.24814696716E+04  0.50400001928E-02 0. -1.
       -1   -1    0    0    0  501  0.00000000000E+00  0.00000000000E+00 -0.15181165021E+04  0.15181165021E+04  0.50400001928E-02 0.  1.
    10030    2    1    2    0    0  0.00000000000E+00  0.00000000000E+00  0.96335316954E+03  0.39995861737E+04  0.38818346477E+04 0.  0.
        4    1    3    3  502    0 -0.39474987642E+03 -0.13043721788E+04 -0.94225251643E+03  0.16568209509E+04  0.12699999809E+01 0.  1.
       -4    1    3    3    0  502  0.39474987642E+03  0.13043721788E+04  0.19056056860E+04  0.23427652228E+04  0.12699999809E+01 0. -1.
</event>
<event>
 5   0  0.1860500E-07  0.3891668E+04  0.7818609E-02  0.8026764E-01
        1   -1    0    0  501    0  0.00000000000E+00  0.00000000000E+00  0.15281503175E+04  0.15281503175E+04  0.50400001928E-02 0.  1.
       -1   -1    0    0    0  501  0.00000000000E+00  0.00000000000E+00 -0.24776811714E+04  0.24776811714E+04  0.50400001928E-02 0. -1.
    10030    2    1    2    0    0  0.00000000000E+00  0.00000000000E+00 -0.94953085391E+03  0.40058314889E+04  0.38916676470E+04 0.  0.
        4    1    3    3  502    0 -0.20505984783E+02 -0.15691105818E+04 -0.16590556329E+04  0.22836365121E+04  0.12699999809E+01 0. -1.
       -4    1    3    3    0  502  0.20505984783E+02  0.15691105818E+04  0.70952477900E+03  0.17221949768E+04  0.12699999809E+01 0.  1.
</event>
<event>
 5   0  0.3959190E-07  0.3892939E+04  0.7818609E-02  0.8026499E-01
        2   -1    0    0  501    0  0.00000000000E+00  0.00000000000E+00  0.13533154324E+04  0.13533154324E+04  0.25500000920E-02 0. -1.
       -2   -1    0    0    0  501  0.00000000000E+00  0.00000000000E+00 -0.27996013254E+04  0.27996013254E+04  0.25500000920E-02 0.  1.
    10030    2    1    2    0    0  0.00000000000E+00  0.00000000000E+00 -0.14462858929E+04  0.41529167578E+04  0.38929390842E+04 0.  0.
        2    1    3    3  502    0 -0.88457780271E+03  0.14707277564E+04 -0.17027401212E+04  0.24176107923E+04  0.25500000920E-02 0.  1.
       -2    1    3    3    0  502  0.88457780271E+03 -0.14707277564E+04  0.25645422830E+03  0.17353059655E+04  0.25500000920E-02 0. -1.
</event>
<event>
 5   0  0.3959190E-07  0.3878708E+04  0.7818609E-02  0.8029472E-01
       -2   -1    0    0    0  501  0.00000000000E+00  0.00000000000E+00  0.15803228937E+04  0.15803228937E+04  0.25500000920E-02 0. -1.
        2   -1    0    0  501    0  0.00000000000E+00  0.00000000000E+00 -0.23799528266E+04  0.23799528266E+04  0.25500000920E-02 0.  1.
    10030    2    1    2    0    0  0.00000000000E+00  0.00000000000E+00 -0.79962993292E+03  0.39602757203E+04  0.38787080002E+04 0.  0.
        2    1    3    3  502    0 -0.17829672474E+03 -0.18517817310E+04 -0.95925034594E+03  0.20930949638E+04  0.25500000920E-02 0. -1.
       -2    1    3    3    0  502  0.17829672474E+03  0.18517817310E+04  0.15962041302E+03  0.18671807565E+04  0.25500000920E-02 0.  1.
</event>
<event>
 5   0  0.5872444E-07  0.3898714E+04  0.7818609E-02  0.8025297E-01
       -2   -1    0    0    0  501  0.00000000000E+00  0.00000000000E+00  0.18710361272E+04  0.18710361272E+04  0.25500000920E-02 0. -1.
        2   -1    0    0  501    0  0.00000000000E+00  0.00000000000E+00 -0.20309567980E+04  0.20309567980E+04  0.25500000920E-02 0.  1.
    10030    2    1    2    0    0  0.00000000000E+00  0.00000000000E+00 -0.15992067083E+03  0.39019929252E+04  0.38987144249E+04 0.  0.
        3    1    3    3  502    0  0.15660947675E+04 -0.11561782268E+04 -0.18296733090E+03  0.19552181381E+04  0.10100000352E+00 0.  1.
       -3    1    3    3    0  502 -0.15660947675E+04  0.11561782268E+04  0.23046660066E+02  0.19467747871E+04  0.10100000352E+00 0. -1.
</event>
<event>
 5   0  0.1876027E-07  0.3794107E+04  0.7818609E-02  0.8047421E-01
       -1   -1    0    0    0  501  0.00000000000E+00  0.00000000000E+00  0.17360985927E+04  0.17360985927E+04  0.50400001928E-02 0. -1.
        1   -1    0    0  501    0  0.00000000000E+00  0.00000000000E+00 -0.20729308002E+04  0.20729308002E+04  0.50400001928E-02 0.  1.
    10030    2    1    2    0    0  0.00000000000E+00  0.00000000000E+00 -0.33683220752E+03  0.38090293930E+04  0.37941071388E+04 0.  0.
        3    1    3    3  502    0  0.41548785207E+03 -0.18481389356E+04 -0.65227835638E+02  0.18953897650E+04  0.10100000352E+00 0. -1.
       -3    1    3    3    0  502 -0.41548785207E+03  0.18481389356E+04 -0.27160437188E+03  0.19136396279E+04  0.10100000352E+00 0.  1.
</event>
<event>
 5   0  0.5872444E-07  0.3847666E+04  0.7818609E-02  0.8036003E-01
        2   -1    0    0  501    0  0.00000000000E+00  0.00000000000E+00  0.15209214048E+04  0.15209214048E+04  0.25500000920E-02 0. -1.
       -2   -1    0    0    0  501  0.00000000000E+00  0.00000000000E+00 -0.24334810946E+04  0.24334810946E+04  0.25500000920E-02 0.  1.
    10030    2    1    2    0    0  0.00000000000E+00  0.00000000000E+00 -0.91255968980E+03  0.39544024995E+04  0.38476660381E+04 0.  0.
        3    1    3    3  502    0 -0.81430714401E+02  0.16819023358E+04  0.49996471664E+03  0.17565281542E+04  0.10100000352E+00 0. -1.
       -3    1    3    3    0  502  0.81430714401E+02 -0.16819023358E+04 -0.14125244064E+04  0.21978743452E+04  0.10100000352E+00 0.  1.
</event>
<event>
 5   0  0.3959190E-07  0.2815381E+04  0.7818609E-02  0.8298509E-01
       -2   -1    0    0    0  501  0.00000000000E+00  0.00000000000E+00  0.30660153270E+04  0.30660153270E+04  0.25500000920E-02 0.  1.
        2   -1    0    0  501    0  0.00000000000E+00  0.00000000000E+00 -0.64630866196E+03  0.64630866196E+03  0.25500000920E-02 0. -1.
    10030    2    1    2    0    0  0.00000000000E+00  0.00000000000E+00  0.24197066651E+04  0.37123239890E+04  0.28153808009E+04 0.  0.
        2    1    3    3  502    0  0.37416342263E+03  0.12831827226E+04  0.62752727251E+03  0.14765996899E+04  0.25500000920E-02 0. -1.
       -2    1    3    3    0  502 -0.37416342263E+03 -0.12831827226E+04  0.17921793926E+04  0.22357242991E+04  0.25500000920E-02 0.  1.
</event>
<event>
 5   0  0.1876027E-07  0.3894171E+04  0.7818609E-02  0.8026243E-01
       -1   -1    0    0    0  501  0.00000000000E+00  0.00000000000E+00  0.19189024049E+04  0.19189024049E+04  0.50400001928E-02 0.  1.
        1   -1    0    0  501    0  0.00000000000E+00  0.00000000000E+00 -0.19756825494E+04  0.19756825494E+04  0.50400001928E-02 0. -1.
    10030    2    1    2    0    0  0.00000000000E+00  0.00000000000E+00 -0.56780144477E+02  0.38945849542E+04  0.38941710262E+04 0.  0.
        3    1    3    3  502    0  0.14977320756E+04 -0.44132313469E+03  0.11349938671E+04  0.19303312068E+04  0.10100000352E+00 0.  1.
       -3    1    3    3    0  502 -0.14977320756E+04  0.44132313469E+03 -0.11917740116E+04  0.19642537474E+04  0.10100000352E+00 0. -1.
</event>
<event>
 5   0  0.5735179E-07  0.3869508E+04  0.7818609E-02  0.8031401E-01
       -2   -1    0    0    0  501  0.00000000000E+00  0.00000000000E+00  0.16315952516E+04  0.16315952516E+04  0.25500000920E-02 0. -1.
        2   -1    0    0  501    0  0.00000000000E+00  0.00000000000E+00 -0.22942412880E+04  0.22942412880E+04  0.25500000920E-02 0.  1.
    10030    2    1    2    0    0  0.00000000000E+00  0.00000000000E+00 -0.66264603641E+03  0.39258365395E+04  0.38695080780E+04 0.  0.
        5    1    3    3  502    0 -0.46878466515E+03  0.18422099907E+04  0.34134990836E+02  0.19012322320E+04  0.46999998093E+01 0. -1.
       -5    1    3    3    0  502  0.46878466515E+03 -0.18422099907E+04 -0.69678102725E+03  0.20246043076E+04  0.46999998093E+01 0.  1.
</event>
<event>
 5   0  0.1860500E-07  0.3936999E+04  0.7818609E-02  0.8017378E-01
       -1   -1    0    0    0  501  0.00000000000E+00  0.00000000000E+00  0.16598088496E+04  0.16598088496E+04  0.50400001928E-02 0. -1.
        1   -1    0    0  501    0  0.00000000000E+00  0.00000000000E+00 -0.23346004378E+04  0.23346004378E+04  0.50400001928E-02 0.  1.
    10030    2    1    2    0    0  0.00000000000E+00  0.00000000000E+00 -0.67479158825E+03  0.39944092874E+04  0.39369990942E+04 0.  0.
        5    1    3    3  502    0 -0.15091824496E+04  0.69674625770E+03 -0.14072299849E+04  0.21779360262E+04  0.46999998093E+01 0.  1.
       -5    1    3    3    0  502  0.15091824496E+04 -0.69674625770E+03  0.73243839660E+03  0.18164732612E+04  0.46999998093E+01 0. -1.
</event>
<event>
 5   0  0.5872444E-07  0.3849567E+04  0.7818609E-02  0.8035601E-01
       -2   -1    0    0    0  501  0.00000000000E+00  0.00000000000E+00  0.26170319484E+04  0.26170319484E+04  0.25500000920E-02 0.  1.
        2   -1    0    0  501    0  0.00000000000E+00  0.00000000000E+00 -0.14156464716E+04  0.14156464716E+04  0.25500000920E-02 0. -1.
    10030    2    1    2    0    0  0.00000000000E+00  0.00000000000E+00  0.12013854768E+04  0.40326784199E+04  0.38495672711E+04 0.  0.
        3    1    3    3  502    0  0.75878930744E+03 -0.13015146439E+04 -0.65424250285E+03  0.16424782629E+04  0.10100000352E+00 0. -1.
       -3    1    3    3    0  502 -0.75878930744E+03  0.13015146439E+04  0.18556279797E+04  0.23902001570E+04  0.10100000352E+00 0.  1.
</event>
<event>
 5   0  0.6095665E-07  0.3952257E+04  0.7818609E-02  0.8014248E-01
        2   -1    0    0  501    0  0.00000000000E+00  0.00000000000E+00  0.28824246714E+04  0.28824246714E+04  0.25500000920E-02 0.  1.
       -2   -1    0    0    0  501  0.00000000000E+00  0.00000000000E+00 -0.13547909620E+04  0.13547909620E+04  0.25500000920E-02 0. -1.
    10030    2    1    2    0    0  0.00000000000E+00  0.00000000000E+00  0.15276337095E+04  0.42372156334E+04  0.39522565167E+04 0.  0.
        4    1    3    3  502    0  0.15885802899E+04 -0.11746681772E+04  0.72028619489E+03  0.21029138070E+04  0.12699999809E+01 0.  1.
       -4    1    3    3    0  502 -0.15885802899E+04  0.11746681772E+04  0.80734751457E+03  0.21343018264E+04  0.12699999809E+01 0. -1.
</event>
<event>
 5   0  0.3959190E-07  0.3875875E+04  0.7818609E-02  0.8030066E-01
        2   -1    0    0  501    0  0.00000000000E+00  0.00000000000E+00  0.22787714235E+04  0.22787714235E+04  0.25500000920E-02 0.  1.
       -2   -1    0    0    0  501  0.00000000000E+00  0.00000000000E+00 -0.16480815795E+04  0.16480815795E+04  0.25500000920E-02 0. -1.
    10030    2    1    2    0    0  0.00000000000E+00  0.00000000000E+00  0.63068984400E+03  0.39268530030E+04  0.38758747178E+04 0.  0.
        2    1    3    3  502    0 -0.39948299256E+03 -0.47340960720E+03 -0.15450798812E+04  0.16646246294E+04  0.25500000920E-02 0. -1.
       -2    1    3    3    0  502  0.39948299256E+03  0.47340960720E+03  0.21757697252E+04  0.22622283736E+04  0.25500000920E-02 0.  1.
</event>
<event>
 5   0  0.1876027E-07  0.3907951E+04  0.7818609E-02  0.8023378E-01
        1   -1    0    0  501    0  0.00000000000E+00  0.00000000000E+00  0.17633804137E+04  0.17633804137E+04  0.50400001928E-02 0.  1.
       -1   -1    0    0    0  501  0.00000000000E+00  0.00000000000E+00 -0.21651709834E+04  0.21651709834E+04  0.50400001928E-02 0. -1.
    10030    2    1    2    0    0  0.00000000000E+00  0.00000000000E+00 -0.40179056969E+03  0.39285513971E+04  0.39079509231E+04 0.  0.
        3    1    3    3  502    0  0.68576675043E+03 -0.14258204318E+04  0.95178776870E+03  0.18463856332E+04  0.10100000352E+00 0.  1.
       -3    1    3    3    0  502 -0.68576675043E+03  0.14258204318E+04 -0.13535783384E+04  0.20821657638E+04  0.10100000352E+00 0. -1.
</event>
<event>
 5   0  0.1860500E-07  0.3308291E+04  0.7818609E-02  0.8160789E-01
        1   -1    0    0  501    0  0.00000000000E+00  0.00000000000E+00  0.11279329712E+04  0.11279329712E+04  0.50400001928E-02 0.  1.
       -1   -1    0    0    0  501  0.00000000000E+00  0.00000000000E+00 -0.24258505521E+04  0.24258505521E+04  0.50400001928E-02 0. -1.
    10030    2    1    2    0    0  0.00000000000E+00  0.00000000000E+00 -0.12979175809E+04  0.35537835233E+04  0.33082906891E+04 0.  0.
        4    1    3    3  502    0  0.19384231484E+03 -0.98552030909E+03 -0.20607809817E+04  0.22925193544E+04  0.12699999809E+01 0. -1.
       -4    1    3    3    0  502 -0.19384231484E+03  0.98552030909E+03  0.76286340077E+03  0.12612641689E+04  0.12699999809E+01 0.  1.
</event>
<event>
 5   0  0.5805753E-07  0.3832814E+04  0.7818609E-02  0.8039149E-01
        2   -1    0    0  501    0  0.00000000000E+00  0.00000000000E+00  0.12787937874E+04  0.12787937874E+04  0.25500000920E-02 0. -1.
       -2   -1    0    0    0  501  0.00000000000E+00  0.00000000000E+00 -0.28719379404E+04  0.28719379404E+04  0.25500000920E-02 0.  1.
    10030    2    1    2    0    0  0.00000000000E+00  0.00000000000E+00 -0.15931441529E+04  0.41507317278E+04  0.38328143164E+04 0.  0.
        1    1    3    3  502    0  0.92466697356E+03  0.49659549224E+03  0.93986059434E+03  0.14088839667E+04  0.50400001928E-02 0. -1.
       -1    1    3    3    0  502 -0.92466697356E+03 -0.49659549224E+03 -0.25330047473E+04  0.27418477610E+04  0.50400001928E-02 0.  1.
</event>
<event>
 5   0  0.1860500E-07  0.3816376E+04  0.7818609E-02  0.8042650E-01
       -1   -1    0    0    0  501  0.00000000000E+00  0.00000000000E+00  0.22293178546E+04  0.22293178546E+04  0.50400001928E-02 0. -1.
        1   -1    0    0  501    0  0.00000000000E+00  0.00000000000E+00 -0.16333166581E+04  0.16333166581E+04  0.50400001928E-02 0.  1.
    10030    2    1    2    0    0  0.00000000000E+00  0.00000000000E+00  0.59600119655E+03  0.38626345127E+04  0.38163762855E+04 0.  0.
        4    1    3    3  502    0 -0.17694811842E+04  0.34358137439E+03 -0.33574277782E+03  0.18335311963E+04  0.12699999809E+01 0.  1.
       -4    1    3    3    0  502  0.17694811842E+04 -0.34358137439E+03  0.93174397437E+03  0.20291033164E+04  0.12699999809E+01 0. -1.
</event>
<event>
 5   0  0.6095665E-07  0.3857129E+04  0.7818609E-02  0.8034005E-01
       -2   -1    0    0    0  501  0.00000000000E+00  0.00000000000E+00  0.12734803741E+04  0.12734803741E+04  0.25500000920E-02 0. -1.
        2   -1    0    0  501    0  0.00000000000E+00  0.00000000000E+00 -0.29206267686E+04  0.29206267686E+04  0.25500000920E-02 0.  1.
    10030    2    1    2    0    0  0.00000000000E+00  0.00000000000E+00 -0.16471463945E+04  0.41941071426E+04  0.38571289166E+04 0.  0.
        4    1    3    3  502    0  0.12284649006E+03  0.11182032270E+04  0.87977278685E+03  0.14281006569E+04  0.12699999809E+01 0. -1.
       -4    1    3    3    0  502 -0.12284649006E+03 -0.11182032270E+04 -0.25269191813E+04  0.27660064857E+04  0.12699999809E+01 0.  1.
</event>
<event>
 5   0  0.5872444E-07  0.2924449E+04  0.7818609E-02  0.8265640E-01
       -2   -1    0    0    0  501  0.00000000000E+00  0.00000000000E+00  0.11501711171E+04  0.11501711171E+04  0.25500000920E-02 0.  1.
        2   -1    0    0  501    0  0.00000000000E+00  0.00000000000E+00 -0.18589415344E+04  0.18589415344E+04  0.25500000920E-02 0. -1.
    10030    2    1    2    0    0  0.00000000000E+00  0.00000000000E+00 -0.70877041730E+03  0.30091126515E+04  0.29244492549E+04 0.  0.
        3    1    3    3  502    0  0.74906538296E+03 -0.11024347203E+04  0.26438919629E+03  0.13588093751E+04  0.10100000352E+00 0. -1.
       -3    1    3    3    0  502 -0.74906538296E+03  0.11024347203E+04 -0.97315961359E+03  0.16503032764E+04  0.10100000352E+00 0.  1.
</event>
<event>
 5   0  0.5735179E-07  0.2739061E+04  0.7818609E-02  0.8322441E-01
        2   -1    0    0  501    0  0.00000000000E+00  0.00000000000E+00  0.89086288129E+03  0.89086288129E+03  0.25500000920E-02 0. -1.
       -2   -1    0    0    0  501  0.00000000000E+00  0.00000000000E+00 -0.21053899710E+04  0.21053899710E+04  0.25500000920E-02 0.  1.
    10030    2    1    2    0    0  0.00000000000E+00  0.00000000000E+00 -0.12145270897E+04  0.29962528523E+04  0.27390609893E+04 0.  0.
        5    1    3    3  502    0 -0.45063366369E+03  0.12664718335E+04 -0.89371042192E+03  0.16142372850E+04  0.46999998093E+01 0.  1.
       -5    1    3    3    0  502  0.45063366369E+03 -0.12664718335E+04 -0.32081666777E+03  0.13820155673E+04  0.46999998093E+01 0. -1.
</event>
<event>
 5   0  0.1943459E-07  0.3893494E+04  0.7818609E-02  0.8026384E-01
       -1   -1    0    0    0  501  0.00000000000E+00  0.00000000000E+00  0.11269976470E+04  0.11269976470E+04  0.50400001928E-02 0. -1.
        1   -1    0    0  501    0  0.00000000000E+00  0.00000000000E+00 -0.33627619255E+04  0.33627619256E+04  0.50400001928E-02 0.  1.
    10030    2    1    2    0    0  0.00000000000E+00  0.00000000000E+00 -0.22357642785E+04  0.44897595726E+04  0.38934944600E+04 0.  0.
        2    1    3    3  502    0 -0.18165733720E+04  0.57131502082E+03 -0.15841361970E+04  0.24770601849E+04  0.25500000920E-02 0. -1.
       -2    1    3    3    0  502  0.18165733720E+04 -0.57131502082E+03 -0.65162808151E+03  0.20126993877E+04  0.25500000920E-02 0.  1.
</event>
<event>
 5   0  0.1943459E-07  0.3884925E+04  0.7818609E-02  0.8028172E-01
       -1   -1    0    0    0  501  0.00000000000E+00  0.00000000000E+00  0.16724163613E+04  0.16724163613E+04  0.50400001928E-02 0.  1.
        1   -1    0    0  501    0  0.00000000000E+00  0.00000000000E+00 -0.22561130582E+04  0.22561130582E+04  0.50400001928E-02 0. -1.
    10030    2    1    2    0    0  0.00000000000E+00  0.00000000000E+00 -0.58369669690E+03  0.39285294195E+04  0.38849249112E+04 0.  0.
        2    1    3    3  502    0  0.29577687406E+03  0.18566716207E+04  0.20194273539E+03  0.18908977590E+04  0.25500000920E-02 0.  1.
       -2    1    3    3    0  502 -0.29577687406E+03 -0.18566716207E+04 -0.78563943229E+03  0.20376316605E+04  0.25500000920E-02 0. -1.
</event>
<event>
 5   0  0.2666813E-07  0.3556836E+04  0.7818609E-02  0.8100451E-01
       -1   -1    0    0    0  501  0.00000000000E+00  0.00000000000E+00  0.18486213547E+04  0.18486213547E+04  0.50400001928E-02 0. -1.
        1   -1    0    0  501    0  0.00000000000E+00  0.00000000000E+00 -0.17108809248E+04  0.17108809248E+04  0.50400001928E-02 0.  1.
    10030    2    1    2    0    0  0.00000000000E+00  0.00000000000E+00  0.13774042988E+03  0.35595022796E+04  0.35568362420E+04 0.  0.
        1    1    3    3  502    0 -0.82913060722E+03  0.88876168067E+03 -0.12303386554E+04  0.17294762490E+04  0.50400001928E-02 0.  1.
       -1    1    3    3    0  502  0.82913060722E+03 -0.88876168067E+03  0.13680790853E+04  0.18300260305E+04  0.50400001928E-02 0. -1.
</event>
<event>
 5   0  0.5735179E-07  0.4118903E+04  0.7818609E-02  0.7980980E-01
        2   -1    0    0  501    0  0.00000000000E+00  0.00000000000E+00  0.25375754844E+04  0.25375754844E+04  0.25500000920E-02 0. -1.
       -2   -1    0    0    0  501  0.00000000000E+00  0.00000000000E+00 -0.16714142704E+04  0.16714142704E+04  0.25500000920E-02 0.  1.
    10030    2    1    2    0    0  0.00000000000E+00  0.00000000000E+00  0.86616121405E+03  0.42089897548E+04  0.41189027067E+04 0.  0.
        5    1    3    3  502    0  0.44898920781E+03 -0.21463911371E+03 -0.16090414238E+04  0.16842498779E+04  0.46999998093E+01 0.  1.
       -5    1    3    3    0  502 -0.44898920781E+03  0.21463911371E+03  0.24752026378E+04  0.25247398769E+04  0.46999998093E+01 0. -1.
</event>
<event>
 5   0  0.6095665E-07  0.3915604E+04  0.7818609E-02  0.8021792E-01
       -2   -1    0    0    0  501  0.00000000000E+00  0.00000000000E+00  0.31670700149E+04  0.31670700149E+04  0.25500000920E-02 0. -1.
        2   -1    0    0  501    0  0.00000000000E+00  0.00000000000E+00 -0.12102631876E+04  0.12102631876E+04  0.25500000920E-02 0.  1.
    10030    2    1    2    0    0  0.00000000000E+00  0.00000000000E+00  0.19568068274E+04  0.43773332025E+04  0.39156037856E+04 0.  0.
        4    1    3    3  502    0  0.15164413222E+04 -0.11694472450E+04  0.52322240571E+03  0.19851862485E+04  0.12699999809E+01 0.  1.
       -4    1    3    3    0  502 -0.15164413222E+04  0.11694472450E+04  0.14335844217E+04  0.23921469540E+04  0.12699999809E+01 0. -1.
</event>
<event>
 5   0  0.5805753E-07  0.3907347E+04  0.7818609E-02  0.8023503E-01
        2   -1    0    0  501    0  0.00000000000E+00  0.00000000000E+00  0.21506949081E+04  0.21506949081E+04  0.25500000920E-02 0. -1.
       -2   -1    0    0    0  501  0.00000000000E+00  0.00000000000E+00 -0.17747007876E+04  0.17747007876E+04  0.25500000920E-02 0.  1.
    10030    2    1    2    0    0  0.00000000000E+00  0.00000000000E+00  0.37599412042E+03  0.39253956957E+04  0.39073468990E+04 0.  0.
        1    1    3    3  502    0  0.78944798384E+03  0.66029077416E+03  0.18562784521E+04  0.21224942208E+04  0.50400001928E-02 0. -1.
       -1    1    3    3    0  502 -0.78944798384E+03 -0.66029077416E+03 -0.14802843317E+04  0.18029014749E+04  0.50400001928E-02 0.  1.
</event>
<event>
 5   0  0.5805753E-07  0.3831912E+04  0.7818609E-02  0.8039341E-01
       -2   -1    0    0    0  501  0.00000000000E+00  0.00000000000E+00  0.15128065402E+04  0.15128065402E+04  0.25500000920E-02 0.  1.
        2   -1    0    0  501    0  0.00000000000E+00  0.00000000000E+00 -0.24265416452E+04  0.24265416452E+04  0.25500000920E-02 0. -1.
    10030    2    1    2    0    0  0.00000000000E+00  0.00000000000E+00 -0.91373510501E+03  0.39393481854E+04  0.38319123534E+04 0.  0.
        1    1    3    3  502    0 -0.83873451109E+03  0.10250877072E+04 -0.18800986148E+04  0.22997937275E+04  0.50400001928E-02 0. -1.
       -1    1    3    3    0  502  0.83873451109E+03 -0.10250877072E+04  0.96636350975E+03  0.16395544580E+04  0.50400001928E-02 0.  1.
</event>
<event>
 5   0  0.1943459E-07  0.3890066E+04  0.7818609E-02  0.8027098E-01
       -1   -1    0    0    0  501  0.00000000000E+00  0.00000000000E+00  0.17357837258E+04  0.17357837258E+04  0.50400001928E-02 0.  1.
        1   -1    0    0  501    0  0.00000000000E+00  0.00000000000E+00 -0.21795075546E+04  0.21795075546E+04  0.50400001928E-02 0. -1.
    10030    2    1    2    0    0  0.00000000000E+00  0.00000000000E+00 -0.44372382880E+03  0.39152912805E+04  0.38900661915E+04 0.  0.
        2    1    3    3  502    0  0.19943551032E+03 -0.10404467238E+04  0.14199268114E+04  0.17715801020E+04  0.25500000920E-02 0.  1.
       -2    1    3    3    0  502 -0.19943551032E+03  0.10404467238E+04 -0.18636506402E+04  0.21437111785E+04  0.25500000920E-02 0. -1.
</event>
<event>
 5   0  0.1860500E-07  0.3819223E+04  0.7818609E-02  0.8042042E-01
       -1   -1    0    0    0  501  0.00000000000E+00  0.00000000000E+00  0.36183036196E+04  0.36183036196E+04  0.50400001928E-02 0. -1.
        1   -1    0    0  501    0  0.00000000000E+00  0.00000000000E+00 -0.10078246292E+04  0.10078246292E+04  0.50400001928E-02 0.  1.
    10030    2    1    2    0    0  0.00000000000E+00  0.00000000000E+00  0.26104789904E+04  0.46261282487E+04  0.38192226977E+04 0.  0.
        5    1    3    3  502    0  0.68207914388E+03 -0.16646825937E+04  0.20810166318E+04  0.27508275860E+04  0.46999998093E+01 0.  1.
       -5    1    3    3    0  502 -0.68207914388E+03  0.16646825937E+04  0.52946235861E+03  0.18753006627E+04  0.46999998093E+01 0. -1.
</event>
<event>
 5   0  0.5872444E-07  0.2674811E+04  0.7818609E-02  0.8343225E-01
        2   -1    0    0  501    0  0.00000000000E+00  0.00000000000E+00  0.20821005330E+04  0.20821005330E+04  0.25500000920E-02 0.  1.
       -2   -1    0    0    0  501  0.00000000000E+00  0.00000000000E+00 -0.85906188146E+03  0.85906188146E+03  0.25500000920E-02 0. -1.
    10030    2    1    2    0    0  0.00000000000E+00  0.00000000000E+00  0.12230386515E+04  0.29411624144E+04  0.26748107980E+04 0.  0.
        3    1    3    3  502    0 -0.60250283147E+03  0.82256249213E+03 -0.34012977892E+03  0.10748520792E+04  0.10100000352E+00 0. -1.
       -3    1    3    3    0  502  0.60250283147E+03 -0.82256249213E+03  0.15631684304E+04  0.18663103353E+04  0.10100000352E+00 0.  1.
</event>
<event>
 5   0  0.1943459E-07  0.2564021E+04  0.7818609E-02  0.8380526E-01
       -1   -1    0    0    0  501  0.00000000000E+00  0.00000000000E+00  0.10733292026E+04  0.10733292026E+04  0.50400001928E-02 0.  1.
        1   -1    0    0  501    0  0.00000000000E+00  0.00000000000E+00 -0.15312650291E+04  0.15312650291E+04  0.50400001928E-02 0. -1.
    10030    2    1    2    0    0  0.00000000000E+00  0.00000000000E+00 -0.45793582650E+03  0.26045942318E+04  0.25640214295E+04 0.  0.
        2    1    3    3  502    0  0.18603231598E+03 -0.12655688330E+04 -0.31563489292E+03  0.13175347734E+04  0.25500000920E-02 0.  1.
       -2    1    3    3    0  502 -0.18603231598E+03  0.12655688330E+04 -0.14230093358E+03  0.12870594583E+04  0.25500000920E-02 0. -1.
</event>
<event>
 5   0  0.3959190E-07  0.3809894E+04  0.7818609E-02  0.8044035E-01
       -2   -1    0    0    0  501  0.00000000000E+00  0.00000000000E+00  0.18511890559E+04  0.18511890559E+04  0.25500000920E-02 0. -1.
        2   -1    0    0  501    0  0.00000000000E+00  0.00000000000E+00 -0.19602663256E+04  0.19602663256E+04  0.25500000920E-02 0.  1.
    10030    2    1    2    0    0  0.00000000000E+00  0.00000000000E+00 -0.10907726971E+03  0.38114553815E+04  0.38098942603E+04 0.  0.
        2    1    3    3  502    0 -0.14293417576E+04  0.11227240476E+04 -0.62511996954E+03  0.19220567430E+04  0.25500000920E-02 0.  1.
       -2    1    3    3    0  502  0.14293417576E+04 -0.11227240476E+04  0.51604269984E+03  0.18893986385E+04  0.25500000920E-02 0. -1.
</event>
<event>
 5   0  0.2666813E-07  0.3789813E+04  0.7818609E-02  0.8048345E-01
        1   -1    0    0  501    0  0.00000000000E+00  0.00000000000E+00  0.26587707690E+04  0.26587707690E+04  0.50400001928E-02 0.  1.
       -1   -1    0    0    0  501  0.00000000000E+00  0.00000000000E+00 -0.13505000958E+04  0.13505000958E+04  0.50400001928E-02 0. -1.
    10030    2    1    2    0    0  0.00000000000E+00  0.00000000000E+00  0.13082706732E+04  0.40092708649E+04  0.37898127544E+04 0.  0.
        1    1    3    3  502    0 -0.35066695979E+03  0.15556026924E+04  0.17370331821E+04  0.23579973132E+04  0.50400001928E-02 0.  1.
       -1    1    3    3    0  502  0.35066695979E+03 -0.15556026924E+04 -0.42876250891E+03  0.16512735517E+04  0.50400001928E-02 0. -1.
</event>
<event>
 5   0  0.5872444E-07  0.3686600E+04  0.7818609E-02  0.8070938E-01
        2   -1    0    0  501    0  0.00000000000E+00  0.00000000000E+00  0.14001508191E+04  0.14001508191E+04  0.25500000920E-02 0. -1.
       -2   -1    0    0    0  501  0.00000000000E+00  0.00000000000E+00 -0.24267069775E+04  0.24267069775E+04  0.25500000920E-02 0.  1.
    10030    2    1    2    0    0  0.00000000000E+00  0.00000000000E+00 -0.10265561585E+04  0.38268577966E+04  0.36866004732E+04 0.  0.
        3    1    3    3  502    0  0.29801273651E+03 -0.15781412753E+04  0.42580247615E+03  0.16615201578E+04  0.10100000352E+00 0. -1.
       -3    1    3    3    0  502 -0.29801273651E+03  0.15781412753E+04 -0.14523586346E+04  0.21653376387E+04  0.10100000352E+00 0.  1.
</event>
<event>
 5   0  0.5735179E-07  0.3857141E+04  0.7818609E-02  0.8034003E-01
        2   -1    0    0  501    0  0.00000000000E+00  0.00000000000E+00  0.19804646715E+04  0.19804646715E+04  0.25500000920E-02 0.  1.
       -2   -1    0    0    0  501  0.00000000000E+00  0.00000000000E+00 -0.18780360000E+04  0.18780360000E+04  0.25500000920E-02 0. -1.
    10030    2    1    2    0    0  0.00000000000E+00  0.00000000000E+00  0.10242867155E+03  0.38585006715E+04  0.38571408840E+04 0.  0.
        5    1    3    3  502    0 -0.75399862077E+03 -0.17049517905E+04 -0.44291053853E+03  0.19161331799E+04  0.46999998093E+01 0. -1.
       -5    1    3    3    0  502  0.75399862077E+03  0.17049517905E+04  0.54533921008E+03  0.19423674915E+04  0.46999998093E+01 0.  1.
</event>
<event>
 5   0  0.2666813E-07  0.3600258E+04  0.7818609E-02  0.8090433E-01
        1   -1    0    0  501    0  0.00000000000E+00  0.00000000000E+00  0.22986909595E+04  0.22986909595E+04  0.50400001928E-02 0.  1.
       -1   -1    0    0    0  501  0.00000000000E+00  0.00000000000E+00 -0.14096996215E+04  0.14096996215E+04  0.50400001928E-02 0. -1.
    10030    2    1    2    0    0  0.00000000000E+00  0.00000000000E+00  0.88899133801E+03  0.37083905811E+04  0.36002576440E+04 0.  0.
        1    1    3    3  502    0  0.15428138618E+04 -0.92288109893E+03  0.53934638510E+03  0.18769333121E+04  0.50400001928E-02 0.  1.
       -1    1    3    3    0  502 -0.15428138618E+04  0.92288109893E+03  0.34964495290E+03  0.18314572690E+04  0.50400001928E-02 0. -1.
</event>
<event>
 5   0  0.1860500E-07  0.3958137E+04  0.7818609E-02  0.8013045E-01
        1   -1    0    0  501    0  0.00000000000E+00  0.00000000000E+00  0.15238087895E+04  0.15238087896E+04  0.50400001928E-02 0. -1.
       -1   -1    0    0    0  501  0.00000000000E+00  0.00000000000E+00 -0.25703436035E+04  0.25703436035E+04  0.50400001928E-02 0.  1.
    10030    2    1    2    0    0  0.00000000000E+00  0.00000000000E+00 -0.10465348140E+04  0.40941523931E+04  0.39581370240E+04 0.  0.
        4    1    3    3  502    0 -0.65356866915E+03 -0.18034036728E+04 -0.10271348863E+04  0.21758732730E+04  0.12699999809E+01 0. -1.
       -4    1    3    3    0  502  0.65356866915E+03  0.18034036728E+04 -0.19399927665E+02  0.19182791201E+04  0.12699999809E+01 0.  1.
</event>
<event>
 5   0  0.1860500E-07  0.3819086E+04  0.7818609E-02  0.8042071E-01
        1   -1    0    0  501    0  0.00000000000E+00  0.00000000000E+00  0.24681996164E+04  0.24681996164E+04  0.50400001928E-02 0. -1.
       -1   -1    0    0    0  501  0.00000000000E+00  0.00000000000E+00 -0.14773340134E+04  0.14773340134E+04  0.50400001928E-02 0.  1.
    10030    2    1    2    0    0  0.00000000000E+00  0.00000000000E+00  0.99086560293E+03  0.39455336298E+04  0.38190864066E+04 0.  0.
        5    1    3    3  502    0  0.16862357548E+04  0.42448192398E+03  0.13107106724E+04  0.21775124526E+04  0.46999998093E+01 0. -1.
       -5    1    3    3    0  502 -0.16862357548E+04 -0.42448192398E+03 -0.31984506949E+03  0.17680211772E+04  0.46999998093E+01 0.  1.
</event>
<event>
 5   0  0.1860500E-07  0.3727864E+04  0.7818609E-02  0.8061815E-01
       -1   -1    0    0    0  501  0.00000000000E+00  0.00000000000E+00  0.12226517435E+04  0.12226517435E+04  0.50400001928E-02 0. -1.
        1   -1    0    0  501    0  0.00000000000E+00  0.00000000000E+00 -0.28415635854E+04  0.28415635855E+04  0.50400001928E-02 0.  1.
    10030    2    1    2    0    0  0.00000000000E+00  0.00000000000E+00 -0.16189118420E+04  0.40642153289E+04  0.37278640919E+04 0.  0.
        5    1    3    3  502    0  0.17884864816E+04  0.52136812851E+03 -0.87587890448E+03  0.20585661431E+04  0.46999998093E+01 0. -1.
       -5    1    3    3    0  502 -0.17884864816E+04 -0.52136812851E+03 -0.74303293750E+03  0.20056491858E+04  0.46999998093E+01 0.  1.
</event>
<event>
 5   0  0.5735179E-07  0.3959627E+04  0.7818609E-02  0.8012741E-01
        2   -1    0    0  501    0  0.00000000000E+00  0.00000000000E+00  0.20032077258E+04  0.20032077258E+04  0.25500000920E-02 0.  1.
       -2   -1    0    0    0  501  0.00000000000E+00  0.00000000000E+00 -0.19566925269E+04  0.19566925269E+04  0.25500000920E-02 0. -1.
    10030    2    1    2    0    0  0.00000000000E+00  0.00000000000E+00  0.46515198888E+02  0.39599002526E+04  0.39596270465E+04 0.  0.
        5    1    3    3  502    0 -0.89047237060E+03  0.16783913984E+04 -0.53328845144E+03  0.19734126257E+04  0.46999998093E+01 0.  1.
       -5    1    3    3    0  502  0.89047237060E+03 -0.16783913984E+04  0.57980365033E+03  0.19864876269E+04  0.46999998093E+01 0. -1.
</event>
<event>
 5   0  0.5872444E-07  0.3139080E+04  0.7818609E-02  0.8205094E-01
       -2   -1    0    0    0  501  0.00000000000E+00  0.00000000000E+00  0.88851087629E+03  0.88851087629E+03  0.25500000920E-02 0. -1.
        2   -1    0    0  501    0  0.00000000000E+00  0.00000000000E+00 -0.27725667504E+04  0.27725667504E+04  0.25500000920E-02 0.  1.
    10030    2    1    2    0    0  0.00000000000E+00  0.00000000000E+00 -0.18840558741E+04  0.36610776267E+04  0.31390799372E+04 0.  0.
        3    1    3    3  502    0 -0.15402751184E+04 -0.26678529621E+03 -0.77777608560E+03  0.17460118797E+04  0.10100000352E+00 0.  1.
       -3    1    3    3    0  502  0.15402751184E+04  0.26678529621E+03 -0.11062797885E+04  0.19150657470E+04  0.10100000352E+00 0. -1.
</event>
<event>
 5   0  0.5872444E-07  0.3891551E+04  0.7818609E-02  0.8026789E-01
       -2   -1    0    0    0  501  0.00000000000E+00  0.00000000000E+00  0.15641312692E+04  0.15641312692E+04  0.25500000920E-02 0.  1.
        2   -1    0    0  501    0  0.00000000000E+00  0.00000000000E+00 -0.24205399014E+04  0.24205399014E+04  0.25500000920E-02 0. -1.
    10030    2    1    2    0    0  0.00000000000E+00  0.00000000000E+00 -0.85640863215E+03  0.39846711706E+04  0.38915509238E+04 0.  0.
        3    1    3    3  502    0 -0.12057354350E+04 -0.14681652045E+04 -0.85866274172E+03  0.20848522060E+04  0.10100000352E+00 0. -1.
       -3    1    3    3    0  502  0.12057354350E+04  0.14681652045E+04  0.22541095727E+01  0.18998189645E+04  0.10100000352E+00 0.  1.
</event>
<event>
 5   0  0.5872444E-07  0.4006366E+04  0.7818609E-02  0.8003264E-01
       -2   -1    0    0    0  501  0.00000000000E+00  0.00000000000E+00  0.18558290072E+04  0.18558290072E+04  0.25500000920E-02 0. -1.
        2   -1    0    0  501    0  0.00000000000E+00  0.00000000000E+00 -0.21622368485E+04  0.21622368485E+04  0.25500000920E-02 0.  1.
    10030    2    1    2    0    0  0.00000000000E+00  0.00000000000E+00 -0.30640784125E+03  0.40180658557E+04  0.40063658664E+04 0.  0.
        3    1    3    3  502    0  0.16363695599E+04 -0.39426494981E+03  0.93605792435E+03  0.19259684928E+04  0.10100000352E+00 0. -1.
       -3    1    3    3    0  502 -0.16363695599E+04  0.39426494981E+03 -0.12424657656E+04  0.20920973629E+04  0.10100000352E+00 0.  1.
</event>
<event>
 5   0  0.1943459E-07  0.3859941E+04  0.7818609E-02  0.8033413E-01
        1   -1    0    0  501    0  0.00000000000E+00  0.00000000000E+00  0.20249547486E+04  0.20249547486E+04  0.50400001928E-02 0.  1.
       -1   -1    0    0    0  501  0.00000000000E+00  0.00000000000E+00 -0.18394419528E+04  0.18394419528E+04  0.50400001928E-02 0. -1.
    10030    2    1    2    0    0  0.00000000000E+00  0.00000000000E+00  0.18551279578E+03  0.38643967014E+04  0.38599413038E+04 0.  0.
        2    1    3    3  502    0 -0.12201870350E+03  0.50653069726E+03 -0.17677009425E+04  0.18428859252E+04  0.25500000920E-02 0. -1.
       -2    1    3    3    0  502  0.12201870350E+03 -0.50653069726E+03  0.19532137382E+04  0.20215107762E+04  0.25500000920E-02 0.  1.
</event>
<event>
 5   0  0.5872444E-07  0.3929638E+04  0.7818609E-02  0.8018893E-01
       -2   -1    0    0    0  501  0.00000000000E+00  0.00000000000E+00  0.14922748737E+04  0.14922748737E+04  0.25500000920E-02 0. -1.
        2   -1    0    0  501    0  0.00000000000E+00  0.00000000000E+00 -0.25869993449E+04  0.25869993449E+04  0.25500000920E-02 0.  1.
    10030    2    1    2    0    0  0.00000000000E+00  0.00000000000E+00 -0.10947244713E+04  0.40792742186E+04  0.39296382127E+04 0.  0.
        3    1    3    3  502    0  0.92373127614E+02  0.70457595745E+03 -0.24489328204E+04  0.25499474590E+04  0.10100000352E+00 0.  1.
       -3    1    3    3    0  502 -0.92373127614E+02 -0.70457595745E+03  0.13542083492E+04  0.15293267596E+04  0.10100000352E+00 0. -1.
</event>
<event>
 5   0  0.3959190E-07  0.3905264E+04  0.7818609E-02  0.8023935E-01
        2   -1    0    0  501    0  0.00000000000E+00  0.00000000000E+00  0.24659582921E+04  0.24659582921E+04  0.25500000920E-02 0. -1.
       -2   -1    0    0    0  501  0.00000000000E+00  0.00000000000E+00 -0.15461626139E+04  0.15461626139E+04  0.25500000920E-02 0.  1.
    10030    2    1    2    0    0  0.00000000000E+00  0.00000000000E+00  0.91979567818E+03  0.40121209061E+04  0.39052644053E+04 0.  0.
        2    1    3    3  502    0  0.92537025470E+03 -0.16852314380E+04  0.81049398225E+03  0.20864361009E+04  0.25500000920E-02 0. -1.
       -2    1    3    3    0  502 -0.92537025470E+03  0.16852314380E+04  0.10930169593E+03  0.19256848051E+04  0.25500000920E-02 0.  1.
</event>
<event>
 5   0  0.5872444E-07  0.3683730E+04  0.7818609E-02  0.8071577E-01
       -2   -1    0    0    0  501  0.00000000000E+00  0.00000000000E+00  0.12711069419E+04  0.12711069419E+04  0.25500000920E-02 0. -1.
        2   -1    0    0  501    0  0.00000000000E+00  0.00000000000E+00 -0.26689079834E+04  0.26689079834E+04  0.25500000920E-02 0.  1.
    10030    2    1    2    0    0  0.00000000000E+00  0.00000000000E+00 -0.13978010415E+04  0.39400149253E+04  0.36837304272E+04 0.  0.
        3    1    3    3  502    0 -0.15385192186E+04 -0.69704446210E+03 -0.14845483616E+04  0.22487321353E+04  0.10100000352E+00 0. -1.
       -3    1    3    3    0  502  0.15385192186E+04  0.69704446210E+03  0.86747320080E+02  0.16912827900E+04  0.10100000352E+00 0.  1.
</event>
<event>
 5   0  0.5735179E-07  0.3858685E+04  0.7818609E-02  0.8033677E-01
       -2   -1    0    0    0  501  0.00000000000E+00  0.00000000000E+00  0.29435857000E+04  0.29435857000E+04  0.25500000920E-02 0.  1.
        2   -1    0    0  501    0  0.00000000000E+00  0.00000000000E+00 -0.12645671442E+04  0.12645671443E+04  0.25500000920E-02 0. -1.
    10030    2    1    2    0    0  0.00000000000E+00  0.00000000000E+00  0.16790185557E+04  0.42081528442E+04  0.38586846269E+04 0.  0.
        5    1    3    3  502    0 -0.30424492760E+03  0.14850213247E+04  0.21411207520E+04  0.26234087511E+04  0.46999998093E+01 0.  1.
       -5    1    3    3    0  502  0.30424492760E+03 -0.14850213247E+04 -0.46210219627E+03  0.15847440931E+04  0.46999998093E+01 0. -1.
</event>
<event>
 5   0  0.3959190E-07  0.2856575E+04  0.7818609E-02  0.8285916E-01
       -2   -1    0    0    0  501  0.00000000000E+00  0.00000000000E+00  0.10598182661E+04  0.10598182661E+04  0.25500000920E-02 0. -1.
        2   -1    0    0  501    0  0.00000000000E+00  0.00000000000E+00 -0.19248627631E+04  0.19248627631E+04  0.25500000920E-02 0.  1.
    10030    2    1    2    0    0  0.00000000000E+00  0.00000000000E+00 -0.86504449700E+03  0.29846810292E+04  0.28565746733E+04 0.  0.
        2    1    3    3  502    0 -0.50180576588E+02 -0.11066303584E+04 -0.13745400688E+04  0.17653637702E+04  0.25500000920E-02 0.  1.
       -2    1    3    3    0  502  0.50180576588E+02  0.11066303584E+04  0.50949557176E+03  0.12193172590E+04  0.25500000920E-02 0. -1.
</event>
<event>
 5   0  0.1943459E-07  0.3962943E+04  0.7818609E-02  0.8012064E-01
        1   -1    0    0  501    0  0.00000000000E+00  0.00000000000E+00  0.21187619559E+04  0.21187619559E+04  0.50400001928E-02 0. -1.
       -1   -1    0    0    0  501  0.00000000000E+00  0.00000000000E+00 -0.18530767507E+04  0.18530767507E+04  0.50400001928E-02 0.  1.
    10030    2    1    2    0    0  0.00000000000E+00  0.00000000000E+00  0.26568520522E+03  0.39718387067E+04  0.39629426041E+04 0.  0.
        2    1    3    3  502    0 -0.13314405076E+04 -0.22128957724E+03 -0.13211122785E+04  0.18886610482E+04  0.25500000920E-02 0.  1.
       -2    1    3    3    0  502  0.13314405076E+04  0.22128957724E+03  0.15867974838E+04  0.20831776585E+04  0.25500000920E-02 0. -1.
</event>
<event>
 5   0  0.1943459E-07  0.3892919E+04  0.7818609E-02  0.8026504E-01
        1   -1    0    0  501    0  0.00000000000E+00  0.00000000000E+00  0.24484011702E+04  0.24484011702E+04  0.50400001928E-02 0.  1.
       -1   -1    0    0    0  501  0.00000000000E+00  0.00000000000E+00 -0.15474194748E+04  0.15474194748E+04  0.50400001928E-02 0. -1.
    10030    2    1    2    0    0  0.00000000000E+00  0.00000000000E+00  0.90098169548E+03  0.39958206450E+04  0.38929185211E+04 0.  0.
        2    1    3    3  502    0  0.15045881099E+04  0.68078901791E+02  0.17160806551E+04  0.22832767971E+04  0.25500000920E-02 0.  1.
       -2    1    3    3    0  502 -0.15045881099E+04 -0.68078901791E+02 -0.81509895958E+03  0.17125438480E+04  0.25500000920E-02 0. -1.
</event>
<event>
 5   0  0.6095665E-07  0.2777715E+04  0.7818609E-02  0.8310220E-01
        2   -1    0    0  501    0  0.00000000000E+00  0.00000000000E+00  0.14664016293E+04  0.14664016293E+04  0.25500000920E-02 0.  1.
       -2   -1    0    0    0  501  0.00000000000E+00  0.00000000000E+00 -0.13154143242E+04  0.13154143242E+04  0.25500000920E-02 0. -1.
    10030    2    1    2    0    0  0.00000000000E+00  0.00000000000E+00  0.15098730510E+03  0.27818159536E+04  0.27777153982E+04 0.  0.
        4    1    3    3  502    0  0.12534205655E+03  0.56285005641E+03  0.13408513543E+04  0.14595871966E+04  0.12699999809E+01 0.  1.
       -4    1    3    3    0  502 -0.12534205655E+03 -0.56285005641E+03 -0.11898640492E+04  0.13222287570E+04  0.12699999809E+01 0. -1.
</event>
<event>
 5   0  0.1876027E-07  0.3894551E+04  0.7818609E-02  0.8026163E-01
       -1   -1    0    0    0  501  0.00000000000E+00  0.00000000000E+00  0.23131654368E+04  0.23131654368E+04  0.50400001928E-02 0.  1.
        1   -1    0    0  501    0  0.00000000000E+00  0.00000000000E+00 -0.16392612553E+04  0.16392612553E+04  0.50400001928E-02 0. -1.
    10030    2    1    2    0    0  0.00000000000E+00  0.00000000000E+00  0.67390418145E+03  0.39524266921E+04  0.38945513106E+04 0.  0.
        3    1    3    3  502    0  0.14893536853E+03  0.87406383749E+03 -0.14225109881E+04  0.16762180221E+04  0.10100000352E+00 0. -1.
       -3    1    3    3    0  502 -0.14893536853E+03 -0.87406383749E+03  0.20964151696E+04  0.22762086700E+04  0.10100000352E+00 0.  1.
</event>
<event>
 5   0  0.5735179E-07  0.2811731E+04  0.7818609E-02  0.8299636E-01
       -2   -1    0    0    0  501  0.00000000000E+00  0.00000000000E+00  0.13474539547E+04  0.13474539547E+04  0.25500000920E-02 0.  1.
        2   -1    0    0  501    0  0.00000000000E+00  0.00000000000E+00 -0.14668087592E+04  0.14668087592E+04  0.25500000920E-02 0. -1.
    10030    2    1    2    0    0  0.00000000000E+00  0.00000000000E+00 -0.11935480450E+03  0.28142627139E+04  0.28117306154E+04 0.  0.
        5    1    3    3  502    0 -0.30681987039E+03  0.47319992066E+03  0.12292627902E+04  0.13524665227E+04  0.46999998093E+01 0.  1.
       -5    1    3    3    0  502  0.30681987039E+03 -0.47319992066E+03 -0.13486175947E+04  0.14617961912E+04  0.46999998093E+01 0. -1.
</event>
<event>
 5   0  0.5805753E-07  0.3907756E+04  0.7818609E-02  0.8023418E-01
       -2   -1    0    0    0  501  0.00000000000E+00  0.00000000000E+00  0.17608084749E+04  0.17608084749E+04  0.25500000920E-02 0.  1.
        2   -1    0    0  501    0  0.00000000000E+00  0.00000000000E+00 -0.21681176987E+04  0.21681176987E+04  0.25500000920E-02 0. -1.
    10030    2    1    2    0    0  0.00000000000E+00  0.00000000000E+00 -0.40730922378E+03  0.39289261736E+04  0.39077563990E+04 0.  0.
        1    1    3    3  502    0 -0.23891477197E+03 -0.19176214739E+04  0.86504788899E+02  0.19343824502E+04  0.50400001928E-02 0. -1.
       -1    1    3    3    0  502  0.23891477197E+03  0.19176214739E+04 -0.49381401268E+03  0.19945437234E+04  0.50400001928E-02 0.  1.
</event>
<event>
 5   0  0.6666310E-07  0.2398062E+04  0.7818609E-02  0.8440229E-01
        2   -1    0    0  501    0  0.00000000000E+00  0.00000000000E+00  0.16009730758E+04  0.16009730758E+04  0.25500000920E-02 0. -1.
       -2   -1    0    0    0  501  0.00000000000E+00  0.00000000000E+00 -0.89800093197E+03  0.89800093197E+03  0.25500000920E-02 0.  1.
    10030    2    1    2    0    0  0.00000000000E+00  0.00000000000E+00  0.70297214387E+03  0.24989740078E+04  0.23980619793E+04 0.  0.
        3    1    3    3  502    0  0.16319233572E+03 -0.60470093443E+03 -0.71397724219E+03  0.94976758794E+03  0.10100000352E+00 0.  1.
       -3    1    3    3    0  502 -0.16319233572E+03  0.60470093443E+03  0.14169493861E+04  0.15492064199E+04  0.10100000352E+00 0. -1.
</event>
<event>
 5   0  0.3959190E-07  0.3865718E+04  0.7818609E-02  0.8032197E-01
       -2   -1    0    0    0  501  0.00000000000E+00  0.00000000000E+00  0.13651903653E+04  0.13651903653E+04  0.25500000920E-02 0. -1.
        2   -1    0    0  501    0  0.00000000000E+00  0.00000000000E+00 -0.27365737653E+04  0.27365737653E+04  0.25500000920E-02 0.  1.
    10030    2    1    2    0    0  0.00000000000E+00  0.00000000000E+00 -0.13713834000E+04  0.41017641306E+04  0.38657181161E+04 0.  0.
        2    1    3    3  502    0 -0.21545356758E+03 -0.19095822982E+04 -0.90576755419E+03  0.21244622039E+04  0.25500000920E-02 0. -1.
       -2    1    3    3    0  502  0.21545356758E+03  0.19095822982E+04 -0.46561584581E+03  0.19773019267E+04  0.25500000920E-02 0.  1.
</event>
<event>
 5   0  0.2666813E-07  0.3963223E+04  0.7818609E-02  0.8012007E-01
       -1   -1    0    0    0  501  0.00000000000E+00  0.00000000000E+00  0.30450051131E+04  0.30450051131E+04  0.50400001928E-02 0.  1.
        1   -1    0    0  501    0  0.00000000000E+00  0.00000000000E+00 -0.12895823171E+04  0.12895823171E+04  0.50400001928E-02 0. -1.
    10030    2    1    2    0    0  0.00000000000E+00  0.00000000000E+00  0.17554227960E+04  0.43345874301E+04  0.39632233090E+04 0.  0.
        1    1    3    3  502    0 -0.38356681443E+03 -0.19033438207E+04  0.13109937070E+04  0.23427645424E+04  0.50400001928E-02 0.  1.
       -1    1    3    3    0  502  0.38356681443E+03  0.19033438207E+04  0.44442908903E+03  0.19918228878E+04  0.50400001928E-02 0. -1.
</event>
<event>
 5   0  0.6095665E-07  0.3702794E+04  0.7818609E-02  0.8067343E-01
       -2   -1    0    0    0  501  0.00000000000E+00  0.00000000000E+00  0.22672755015E+04  0.22672755015E+04  0.25500000920E-02 0. -1.
        2   -1    0    0  501    0  0.00000000000E+00  0.00000000000E+00 -0.15118015358E+04  0.15118015358E+04  0.25500000920E-02 0.  1.
    10030    2    1    2    0    0  0.00000000000E+00  0.00000000000E+00  0.75547396576E+03  0.37790770373E+04  0.37027938561E+04 0.  0.
        4    1    3    3  502    0  0.11837337772E+04 -0.16023310002E+03  0.18213628324E+04  0.21781332562E+04  0.12699999809E+01 0. -1.
       -4    1    3    3    0  502 -0.11837337772E+04  0.16023310002E+03 -0.10658888666E+04  0.16009437812E+04  0.12699999809E+01 0.  1.
</event>
<event>
 5   0  0.1876027E-07  0.2814271E+04  0.7818609E-02  0.8298851E-01
       -1   -1    0    0    0  501  0.00000000000E+00  0.00000000000E+00  0.11348154629E+04  0.11348154629E+04  0.50400001928E-02 0.  1.
        1   -1    0    0  501    0  0.00000000000E+00  0.00000000000E+00 -0.17448040999E+04  0.17448040999E+04  0.50400001928E-02 0. -1.
    10030    2    1    2    0    0  0.00000000000E+00  0.00000000000E+00 -0.60998863705E+03  0.28796195628E+04  0.28142712537E+04 0.  0.
        3    1    3    3  502    0  0.34068497206E+03 -0.12881496341E+04 -0.76786433198E+03  0.15378593475E+04  0.10100000352E+00 0. -1.
       -3    1    3    3    0  502 -0.34068497206E+03  0.12881496341E+04  0.15787569494E+03  0.13417602153E+04  0.10100000352E+00 0.  1.
</event>
<event>
 5   0  0.5872444E-07  0.3901622E+04  0.7818609E-02  0.8024692E-01
        2   -1    0    0  501    0  0.00000000000E+00  0.00000000000E+00  0.24571116045E+04  0.24571116045E+04  0.25500000920E-02 0.  1.
       -2   -1    0    0    0  501  0.00000000000E+00  0.00000000000E+00 -0.15488362808E+04  0.15488362808E+04  0.25500000920E-02 0. -1.
    10030    2    1    2    0    0  0.00000000000E+00  0.00000000000E+00  0.90827532374E+03  0.40059478853E+04  0.39016220211E+04 0.  0.
        3    1    3    3  502    0 -0.40873899011E+03 -0.54477771836E+03 -0.14228057989E+04  0.15774113846E+04  0.10100000352E+00 0. -1.
       -3    1    3    3    0  502  0.40873899011E+03  0.54477771836E+03  0.23310811227E+04  0.24285365007E+04  0.10100000352E+00 0.  1.
</event>
<event>
 5   0  0.5872444E-07  0.3833395E+04  0.7818609E-02  0.8039026E-01
        2   -1    0    0  501    0  0.00000000000E+00  0.00000000000E+00  0.21558974639E+04  0.21558974639E+04  0.25500000920E-02 0.  1.
       -2   -1    0    0    0  501  0.00000000000E+00  0.00000000000E+00 -0.17040375195E+04  0.17040375195E+04  0.25500000920E-02 0. -1.
    10030    2    1    2    0    0  0.00000000000E+00  0.00000000000E+00  0.45185994440E+03  0.38599349834E+04  0.38333954488E+04 0.  0.
        3    1    3    3  502    0 -0.16598766045E+04 -0.14046374694E+03 -0.72868942355E+03  0.18182157993E+04  0.10100000352E+00 0. -1.
       -3    1    3    3    0  502  0.16598766045E+04  0.14046374694E+03  0.11805493680E+04  0.20417191841E+04  0.10100000352E+00 0.  1.
</event>
<event>
 5   0  0.1860500E-07  0.3676562E+04  0.7818609E-02  0.8073176E-01
        1   -1    0    0  501    0  0.00000000000E+00  0.00000000000E+00  0.19507360356E+04  0.19507360356E+04  0.50400001928E-02 0. -1.
       -1   -1    0    0    0  501  0.00000000000E+00  0.00000000000E+00 -0.17323088715E+04  0.17323088715E+04  0.50400001928E-02 0.  1.
    10030    2    1    2    0    0  0.00000000000E+00  0.00000000000E+00  0.21842716416E+03  0.36830449071E+04  0.36765621661E+04 0.  0.
        4    1    3    3  502    0 -0.49992090925E+03 -0.11264016938E+04 -0.12572201626E+04  0.17604845473E+04  0.12699999809E+01 0.  1.
       -4    1    3    3    0  502  0.49992090925E+03  0.11264016938E+04  0.14756473267E+04  0.19225603598E+04  0.12699999809E+01 0. -1.
</event>
<event>
 5   0  0.2666813E-07  0.2620363E+04  0.7818609E-02  0.8361317E-01
        1   -1    0    0  501    0  0.00000000000E+00  0.00000000000E+00  0.18414041094E+04  0.18414041094E+04  0.50400001928E-02 0.  1.
       -1   -1    0    0    0  501  0.00000000000E+00  0.00000000000E+00 -0.93221029780E+03  0.93221029782E+03  0.50400001928E-02 0. -1.
    10030    2    1    2    0    0  0.00000000000E+00  0.00000000000E+00  0.90919381163E+03  0.27736144073E+04  0.26203632369E+04 0.  0.
        1    1    3    3  502    0  0.41256138407E+03 -0.67182895601E+03  0.15622265935E+04  0.17498894169E+04  0.50400001928E-02 0.  1.
       -1    1    3    3    0  502 -0.41256138407E+03  0.67182895601E+03 -0.65303278187E+03  0.10237249904E+04  0.50400001928E-02 0. -1.
</event>
<event>
 5   0  0.5805753E-07  0.2726599E+04  0.7818609E-02  0.8326426E-01
        2   -1    0    0  501    0  0.00000000000E+00  0.00000000000E+00  0.15416336951E+04  0.15416336951E+04  0.25500000920E-02 0.  1.
       -2   -1    0    0    0  501  0.00000000000E+00  0.00000000000E+00 -0.12055947736E+04  0.12055947736E+04  0.25500000920E-02 0. -1.
    10030    2    1    2    0    0  0.00000000000E+00  0.00000000000E+00  0.33603892143E+03  0.27472284687E+04  0.27265989992E+04 0.  0.
        1    1    3    3  502    0 -0.25686767420E+03 -0.12316644111E+04  0.69697463180E+03  0.14383156333E+04  0.50400001928E-02 0.  1.
       -1    1    3    3    0  502  0.25686767420E+03  0.12316644111E+04 -0.36093571038E+03  0.13089128354E+04  0.50400001928E-02 0. -1.
</event>
<event>
 5   0  0.1943459E-07  0.4019765E+04  0.7818609E-02  0.8000571E-01
        1   -1    0    0  501    0  0.00000000000E+00  0.00000000000E+00  0.11321085997E+04  0.11321085998E+04  0.50400001928E-02 0.  1.
       -1   -1    0    0    0  501  0.00000000000E+00  0.00000000000E+00 -0.35682330423E+04  0.35682330423E+04  0.50400001928E-02 0. -1.
    10030    2    1    2    0    0  0.00000000000E+00  0.00000000000E+00 -0.24361244425E+04  0.47003416420E+04  0.40197648255E+04 0.  0.
        2    1    3    3  502    0 -0.15078954323E+04 -0.86076987466E+03 -0.24018693375E+04  0.29637222755E+04  0.25500000920E-02 0. -1.
       -2    1    3    3    0  502  0.15078954323E+04  0.86076987466E+03 -0.34255105027E+02  0.17366193665E+04  0.25500000920E-02 0.  1.
</event>
<event>
 5   0  0.5872444E-07  0.3902634E+04  0.7818609E-02  0.8024482E-01
        2   -1    0    0  501    0  0.00000000000E+00  0.00000000000E+00  0.26365807738E+04  0.26365807738E+04  0.25500000920E-02 0.  1.
       -2   -1    0    0    0  501  0.00000000000E+00  0.00000000000E+00 -0.14441576260E+04  0.14441576260E+04  0.25500000920E-02 0. -1.
    10030    2    1    2    0    0  0.00000000000E+00  0.00000000000E+00  0.11924231478E+04  0.40807383998E+04  0.39026341008E+04 0.  0.
        3    1    3    3  502    0 -0.10174879145E+04 -0.33804841195E+03 -0.11085550344E+04  0.15422232846E+04  0.10100000352E+00 0. -1.
       -3    1    3    3    0  502  0.10174879145E+04  0.33804841195E+03  0.23009781822E+04  0.25385151152E+04  0.10100000352E+00 0.  1.
</event>
<event>
 5   0  0.1943459E-07  0.3213628E+04  0.7818609E-02  0.8185227E-01
        1   -1    0    0  501    0  0.00000000000E+00  0.00000000000E+00  0.23311702662E+04  0.23311702662E+04  0.50400001928E-02 0.  1.
       -1   -1    0    0    0  501  0.00000000000E+00  0.00000000000E+00 -0.11075341722E+04  0.11075341722E+04  0.50400001928E-02 0. -1.
    10030    2    1    2    0    0  0.00000000000E+00  0.00000000000E+00  0.12236360940E+04  0.34387044384E+04  0.32136276891E+04 0.  0.
        2    1    3    3  502    0 -0.80366866663E+03  0.13610979229E+04  0.92079767214E+03  0.18293002035E+04  0.25500000920E-02 0.  1.
       -2    1    3    3    0  502  0.80366866663E+03 -0.13610979229E+04  0.30283842186E+03  0.16094042349E+04  0.25500000920E-02 0. -1.
</event>
<event>
 5   0  0.1860500E-07  0.3842278E+04  0.7818609E-02  0.8037143E-01
        1   -1    0    0  501    0  0.00000000000E+00  0.00000000000E+00  0.22915350410E+04  0.22915350410E+04  0.50400001928E-02 0. -1.
       -1   -1    0    0    0  501  0.00000000000E+00  0.00000000000E+00 -0.16106125193E+04  0.16106125193E+04  0.50400001928E-02 0.  1.
    10030    2    1    2    0    0  0.00000000000E+00  0.00000000000E+00  0.68092252172E+03  0.39021475603E+04  0.38422779834E+04 0.  0.
        5    1    3    3  502    0  0.87795507064E+03  0.15549694815E+04 -0.37911104211E+03  0.18255088241E+04  0.46999998093E+01 0.  1.
       -5    1    3    3    0  502 -0.87795507064E+03 -0.15549694815E+04  0.10600335638E+04  0.20766387362E+04  0.46999998093E+01 0. -1.
</event>
<event>
 5   0  0.2666813E-07  0.3908265E+04  0.7818609E-02  0.8023312E-01
       -1   -1    0    0    0  501  0.00000000000E+00  0.00000000000E+00  0.14620820018E+04  0.14620820018E+04  0.50400001928E-02 0. -1.
        1   -1    0    0  501    0  0.00000000000E+00  0.00000000000E+00 -0.26117780982E+04  0.26117780982E+04  0.50400001928E-02 0.  1.
    10030    2    1    2    0    0  0.00000000000E+00  0.00000000000E+00 -0.11496960964E+04  0.40738601000E+04  0.39082649603E+04 0.  0.
        1    1    3    3  502    0 -0.15676441299E+04  0.90422255978E+03 -0.13433142307E+04  0.22538011620E+04  0.50400001928E-02 0.  1.
       -1    1    3    3    0  502  0.15676441299E+04 -0.90422255978E+03  0.19361813426E+03  0.18200589379E+04  0.50400001928E-02 0. -1.
</event>
<event>
 5   0  0.5735179E-07  0.2452678E+04  0.7818609E-02  0.8420041E-01
        2   -1    0    0  501    0  0.00000000000E+00  0.00000000000E+00  0.25652633673E+04  0.25652633673E+04  0.25500000920E-02 0.  1.
       -2   -1    0    0    0  501  0.00000000000E+00  0.00000000000E+00 -0.58625849822E+03  0.58625849823E+03  0.25500000920E-02 0. -1.
    10030    2    1    2    0    0  0.00000000000E+00  0.00000000000E+00  0.19790048690E+04  0.31515218655E+04  0.24526780867E+04 0.  0.
        5    1    3    3  502    0 -0.10676229027E+03  0.11521948299E+04  0.15113398255E+04  0.19034498341E+04  0.46999998093E+01 0.  1.
       -5    1    3    3    0  502  0.10676229027E+03 -0.11521948299E+04  0.46766504349E+03  0.12480720314E+04  0.46999998093E+01 0. -1.
</event>
<event>
 5   0  0.1943459E-07  0.3807247E+04  0.7818609E-02  0.8044601E-01
        1   -1    0    0  501    0  0.00000000000E+00  0.00000000000E+00  0.15820300057E+04  0.15820300057E+04  0.50400001928E-02 0.  1.
       -1   -1    0    0    0  501  0.00000000000E+00  0.00000000000E+00 -0.22905904127E+04  0.22905904127E+04  0.50400001928E-02 0. -1.
    10030    2    1    2    0    0  0.00000000000E+00  0.00000000000E+00 -0.70856040695E+03  0.38726204184E+04  0.38072471754E+04 0.  0.
        2    1    3    3  502    0  0.17091862890E+04 -0.83168739240E+03 -0.45979701833E+03  0.19556162679E+04  0.25500000920E-02 0.  1.
       -2    1    3    3    0  502 -0.17091862890E+04  0.83168739240E+03 -0.24876338862E+03  0.19170041504E+04  0.25500000920E-02 0. -1.
</event>
<event>
 5   0  0.1876027E-07  0.2905231E+04  0.7818609E-02  0.8271323E-01
       -1   -1    0    0    0  501  0.00000000000E+00  0.00000000000E+00  0.16704851490E+04  0.16704851490E+04  0.50400001928E-02 0.  1.
        1   -1    0    0  501    0  0.00000000000E+00  0.00000000000E+00 -0.12631614882E+04  0.12631614882E+04  0.50400001928E-02 0. -1.
    10030    2    1    2    0    0  0.00000000000E+00  0.00000000000E+00  0.40732366081E+03  0.29336466372E+04  0.29052314929E+04 0.  0.
        3    1    3    3  502    0  0.23004974259E+03  0.47797512883E+03 -0.11618623821E+04  0.12772264141E+04  0.10100000352E+00 0. -1.
       -3    1    3    3    0  502 -0.23004974259E+03 -0.47797512883E+03  0.15691860429E+04  0.16564202230E+04  0.10100000352E+00 0.  1.
</event>
<event>
 5   0  0.5872444E-07  0.3904882E+04  0.7818609E-02  0.8024015E-01
        2   -1    0    0  501    0  0.00000000000E+00  0.00000000000E+00  0.20711148220E+04  0.20711148220E+04  0.25500000920E-02 0. -1.
       -2   -1    0    0    0  501  0.00000000000E+00  0.00000000000E+00 -0.18405667053E+04  0.18405667053E+04  0.25500000920E-02 0.  1.
    10030    2    1    2    0    0  0.00000000000E+00  0.00000000000E+00  0.23054811675E+03  0.39116815273E+04  0.39048815522E+04 0.  0.
        3    1    3    3  502    0  0.71706192609E+03 -0.12282461881E+04  0.14552350795E+04  0.20348158765E+04  0.10100000352E+00 0. -1.
       -3    1    3    3    0  502 -0.71706192609E+03  0.12282461881E+04 -0.12246869627E+04  0.18768656508E+04  0.10100000352E+00 0.  1.
</event>
<event>
 5   0  0.5735179E-07  0.4016142E+04  0.7818609E-02  0.8001298E-01
        2   -1    0    0  501    0  0.00000000000E+00  0.00000000000E+00  0.32886181422E+04  0.32886181422E+04  0.25500000920E-02 0.  1.
       -2   -1    0    0    0  501  0.00000000000E+00  0.00000000000E+00 -0.12261533459E+04  0.12261533459E+04  0.25500000920E-02 0. -1.
    10030    2    1    2    0    0  0.00000000000E+00  0.00000000000E+00  0.20624647963E+04  0.45147714881E+04  0.40161424967E+04 0.  0.
        5    1    3    3  502    0  0.64766070235E+03 -0.14161147792E+04  0.24565111142E+04  0.29084900545E+04  0.46999998093E+01 0.  1.
       -5    1    3    3    0  502 -0.64766070235E+03  0.14161147792E+04 -0.39404631787E+03  0.16062814336E+04  0.46999998093E+01 0. -1.
</event>
<event>
 5   0  0.5805753E-07  0.3888232E+04  0.7818609E-02  0.8027481E-01
        2   -1    0    0  501    0  0.00000000000E+00  0.00000000000E+00  0.17851267539E+04  0.17851267539E+04  0.25500000920E-02 0.  1.
       -2   -1    0    0    0  501  0.00000000000E+00  0.00000000000E+00 -0.21172654164E+04  0.21172654164E+04  0.25500000920E-02 0. -1.
    10030    2    1    2    0    0  0.00000000000E+00  0.00000000000E+00 -0.33213866248E+03  0.39023921702E+04  0.38882320609E+04 0.  0.
        1    1    3    3  502    0 -0.15309748933E+04  0.77241645594E+03  0.75327741089E+03  0.18729490551E+04  0.50400001928E-02 0.  1.
       -1    1    3    3    0  502  0.15309748933E+04 -0.77241645594E+03 -0.10854160734E+04  0.20294431151E+04  0.50400001928E-02 0. -1.
</event>
<event>
 5   0  0.1860500E-07  0.2969634E+04  0.7818609E-02  0.8252456E-01
        1   -1    0    0  501    0  0.00000000000E+00  0.00000000000E+00  0.18242768168E+04  0.18242768168E+04  0.50400001928E-02 0.  1.
       -1   -1    0    0    0  501  0.00000000000E+00  0.00000000000E+00 -0.12085237338E+04  0.12085237338E+04  0.50400001928E-02 0. -1.
    10030    2    1    2    0    0  0.00000000000E+00  0.00000000000E+00  0.61575308302E+03  0.30328005506E+04  0.29696342065E+04 0.  0.
        4    1    3    3  502    0 -0.45453924411E+03 -0.11557937119E+04  0.11389520076E+04  0.16851345102E+04  0.12699999809E+01 0.  1.
       -4    1    3    3    0  502  0.45453924411E+03  0.11557937119E+04 -0.52319892460E+03  0.13476660404E+04  0.12699999809E+01 0. -1.
</event>
<event>
 5   0  0.1876027E-07  0.2686153E+04  0.7818609E-02  0.8339512E-01
        1   -1    0    0  501    0  0.00000000000E+00  0.00000000000E+00  0.13829171298E+04  0.13829171298E+04  0.50400001928E-02 0.  1.
       -1   -1    0    0    0  501  0.00000000000E+00  0.00000000000E+00 -0.13043834644E+04  0.13043834644E+04  0.50400001928E-02 0. -1.
    10030    2    1    2    0    0  0.00000000000E+00  0.00000000000E+00  0.78533665347E+02  0.26873005942E+04  0.26861528153E+04 0.  0.
        3    1    3    3  502    0 -0.11229673266E+04 -0.71782978462E+03 -0.12669259794E+03  0.13388002991E+04  0.10100000352E+00 0.  1.
       -3    1    3    3    0  502  0.11229673266E+04  0.71782978462E+03  0.20522626329E+03  0.13485002950E+04  0.10100000352E+00 0. -1.
</event>
<event>
 5   0  0.2666813E-07  0.2575477E+04  0.7818609E-02  0.8376579E-01
       -1   -1    0    0    0  501  0.00000000000E+00  0.00000000000E+00  0.95650015160E+03  0.95650015161E+03  0.50400001928E-02 0. -1.
        1   -1    0    0  501    0  0.00000000000E+00  0.00000000000E+00 -0.17336857748E+04  0.17336857748E+04  0.50400001928E-02 0.  1.
    10030    2    1    2    0    0  0.00000000000E+00  0.00000000000E+00 -0.77718562318E+03  0.26901859264E+04  0.25754772035E+04 0.  0.
        1    1    3    3  502    0  0.36503963178E+03  0.99312683601E+03  0.37807012355E+03  0.11236066320E+04  0.50400001928E-02 0. -1.
       -1    1    3    3    0  502 -0.36503963178E+03 -0.99312683601E+03 -0.11552557467E+04  0.15665792944E+04  0.50400001928E-02 0.  1.
</event>
<event>
 5   0  0.3959190E-07  0.3888992E+04  0.7818609E-02  0.8027322E-01
       -2   -1    0    0    0  501  0.00000000000E+00  0.00000000000E+00  0.15746282561E+04  0.15746282561E+04  0.25500000920E-02 0. -1.
        2   -1    0    0  501    0  0.00000000000E+00  0.00000000000E+00 -0.24012432419E+04  0.24012432419E+04  0.25500000920E-02 0.  1.
    10030    2    1    2    0    0  0.00000000000E+00  0.00000000000E+00 -0.82661498576E+03  0.39758714981E+04  0.38889923932E+04 0.  0.
        2    1    3    3  502    0 -0.17249917842E+04 -0.35473596994E+03 -0.12561217973E+04  0.21631634782E+04  0.25500000920E-02 0.  1.
       -2    1    3    3    0  502  0.17249917842E+04  0.35473596994E+03  0.42950681156E+03  0.18127080198E+04  0.25500000920E-02 0. -1.
</event>
<event>
 5   0  0.2666813E-07  0.3799008E+04  0.7818609E-02  0.8046368E-01
       -1   -1    0    0    0  501  0.00000000000E+00  0.00000000000E+00  0.12801303152E+04  0.12801303152E+04  0.50400001928E-02 0. -1.
        1   -1    0    0  501    0  0.00000000000E+00  0.00000000000E+00 -0.28185539252E+04  0.28185539252E+04  0.50400001928E-02 0.  1.
    10030    2    1    2    0    0  0.00000000000E+00  0.00000000000E+00 -0.15384236100E+04  0.40986842403E+04  0.37990084625E+04 0.  0.
        1    1    3    3  502    0  0.17669296486E+04 -0.67082931665E+03 -0.56432642830E+03  0.19724392698E+04  0.50400001928E-02 0.  1.
       -1    1    3    3    0  502 -0.17669296486E+04  0.67082931665E+03 -0.97409718170E+03  0.21262449705E+04  0.50400001928E-02 0. -1.
</event>
<event>
 5   0  0.5735179E-07  0.3911661E+04  0.7818609E-02  0.8022608E-01
       -2   -1    0    0    0  501  0.00000000000E+00  0.00000000000E+00  0.18769649876E+04  0.18769649876E+04  0.25500000920E-02 0.  1.
        2   -1    0    0  501    0  0.00000000000E+00  0.00000000000E+00 -0.20380094398E+04  0.20380094398E+04  0.25500000920E-02 0. -1.
    10030    2    1    2    0    0  0.00000000000E+00  0.00000000000E+00 -0.16104445213E+03  0.39149744274E+04  0.39116607025E+04 0.  0.
        5    1    3    3  502    0  0.47414801534E+03  0.17354789033E+04 -0.84834023464E+03  0.19890717956E+04  0.46999998093E+01 0. -1.
       -5    1    3    3    0  502 -0.47414801534E+03 -0.17354789033E+04  0.68729578251E+03  0.19259026318E+04  0.46999998093E+01 0.  1.
</event>
<event>
 5   0  0.1860500E-07  0.3871244E+04  0.7818609E-02  0.8031037E-01
        1   -1    0    0  501    0  0.00000000000E+00  0.00000000000E+00  0.19538665441E+04  0.19538665441E+04  0.50400001928E-02 0.  1.
       -1   -1    0    0    0  501  0.00000000000E+00  0.00000000000E+00 -0.19175476421E+04  0.19175476421E+04  0.50400001928E-02 0. -1.
    10030    2    1    2    0    0  0.00000000000E+00  0.00000000000E+00  0.36318901944E+02  0.38714141862E+04  0.38712438232E+04 0.  0.
        4    1    3    3  502    0 -0.35860900152E+03  0.19018472249E+04  0.49898662237E+02  0.19360048482E+04  0.12699999809E+01 0. -1.
       -4    1    3    3    0  502  0.35860900152E+03 -0.19018472249E+04 -0.13579760293E+02  0.19354093380E+04  0.12699999809E+01 0.  1.
</event>
<event>
 5   0  0.5805753E-07  0.3799152E+04  0.7818609E-02  0.8046337E-01
        2   -1    0    0  501    0  0.00000000000E+00  0.00000000000E+00  0.21875561255E+04  0.21875561255E+04  0.25500000920E-02 0.  1.
       -2   -1    0    0    0  501  0.00000000000E+00  0.00000000000E+00 -0.16495071731E+04  0.16495071731E+04  0.25500000920E-02 0. -1.
    10030    2    1    2    0    0  0.00000000000E+00  0.00000000000E+00  0.53804895237E+03  0.38370632986E+04  0.37991522847E+04 0.  0.
        1    1    3    3  502    0 -0.18547934691E+04 -0.14436200363E+03 -0.11858944263E+03  0.18641788157E+04  0.50400001928E-02 0. -1.
       -1    1    3    3    0  502  0.18547934691E+04  0.14436200363E+03  0.65663839500E+03  0.19728844829E+04  0.50400001928E-02 0.  1.
</event>
<event>
 5   0  0.5805753E-07  0.3879258E+04  0.7818609E-02  0.8029357E-01
       -2   -1    0    0    0  501  0.00000000000E+00  0.00000000000E+00  0.24234449616E+04  0.24234449616E+04  0.25500000920E-02 0. -1.
        2   -1    0    0  501    0  0.00000000000E+00  0.00000000000E+00 -0.15524020923E+04  0.15524020923E+04  0.25500000920E-02 0.  1.
    10030    2    1    2    0    0  0.00000000000E+00  0.00000000000E+00  0.87104286929E+03  0.39758470539E+04  0.38792581914E+04 0.  0.
        1    1    3    3  502    0 -0.14334906752E+04 -0.78309589449E+02 -0.90122838325E+03  0.16950635700E+04  0.50400001928E-02 0.  1.
       -1    1    3    3    0  502  0.14334906752E+04  0.78309589449E+02  0.17722712525E+04  0.22807834838E+04  0.50400001928E-02 0. -1.
</event>
<event>
 5   0  0.5735179E-07  0.4043468E+04  0.7818609E-02  0.7995835E-01
        2   -1    0    0  501    0  0.00000000000E+00  0.00000000000E+00  0.18780916564E+04  0.18780916564E+04  0.25500000920E-02 0.  1.
       -2   -1    0    0    0  501  0.00000000000E+00  0.00000000000E+00 -0.21763628618E+04  0.21763628618E+04  0.25500000920E-02 0. -1.
    10030    2    1    2    0    0  0.00000000000E+00  0.00000000000E+00 -0.29827120538E+03  0.40544545182E+04  0.40434682797E+04 0.  0.
        5    1    3    3  502    0 -0.37027033937E+02  0.28540855903E+03 -0.21557118891E+04  0.21748436462E+04  0.46999998093E+01 0. -1.
       -5    1    3    3    0  502  0.37027033937E+02 -0.28540855903E+03  0.18574406837E+04  0.18796108720E+04  0.46999998093E+01 0.  1.
</event>
<event>
 5   0  0.1860500E-07  0.2602549E+04  0.7818609E-02  0.8367336E-01
       -1   -1    0    0    0  501  0.00000000000E+00  0.00000000000E+00  0.11696737203E+04  0.11696737203E+04  0.50400001928E-02 0.  1.
        1   -1    0    0  501    0  0.00000000000E+00  0.00000000000E+00 -0.14476817720E+04  0.14476817720E+04  0.50400001928E-02 0. -1.
    10030    2    1    2    0    0  0.00000000000E+00  0.00000000000E+00 -0.27800805175E+03  0.26173554923E+04  0.26025489998E+04 0.  0.
        5    1    3    3  502    0 -0.86737530147E+03 -0.14752445542E+03 -0.11032024324E+04  0.14110921569E+04  0.46999998093E+01 0. -1.
       -5    1    3    3    0  502  0.86737530147E+03  0.14752445542E+03  0.82519438062E+03  0.12062633354E+04  0.46999998093E+01 0.  1.
</event>
<event>
 5   0  0.5735179E-07  0.3878859E+04  0.7818609E-02  0.8029441E-01
       -2   -1    0    0    0  501  0.00000000000E+00  0.00000000000E+00  0.14599138739E+04  0.14599138739E+04  0.25500000920E-02 0.  1.
        2   -1    0    0  501    0  0.00000000000E+00  0.00000000000E+00 -0.25764441919E+04  0.25764441919E+04  0.25500000920E-02 0. -1.
    10030    2    1    2    0    0  0.00000000000E+00  0.00000000000E+00 -0.11165303180E+04  0.40363580658E+04  0.38788589153E+04 0.  0.
        5    1    3    3  502    0 -0.80741266217E+03 -0.16837827650E+04 -0.11032925595E+04  0.21689435605E+04  0.46999998093E+01 0.  1.
       -5    1    3    3    0  502  0.80741266217E+03  0.16837827650E+04 -0.13237758407E+02  0.18674145054E+04  0.46999998093E+01 0. -1.
</event>
<event>
 5   0  0.5805753E-07  0.3248099E+04  0.7818609E-02  0.8176229E-01
        2   -1    0    0  501    0  0.00000000000E+00  0.00000000000E+00  0.21701525897E+04  0.21701525897E+04  0.25500000920E-02 0. -1.
       -2   -1    0    0    0  501  0.00000000000E+00  0.00000000000E+00 -0.12153694321E+04  0.12153694321E+04  0.25500000920E-02 0.  1.
    10030    2    1    2    0    0  0.00000000000E+00  0.00000000000E+00  0.95478315757E+03  0.33855220218E+04  0.32480992107E+04 0.  0.
        1    1    3    3  502    0  0.59695155020E+03  0.48843206695E+03 -0.10122787101E+04  0.12726449718E+04  0.50400001928E-02 0.  1.
       -1    1    3    3    0  502 -0.59695155020E+03 -0.48843206695E+03  0.19670618677E+04  0.21128770500E+04  0.50400001928E-02 0. -1.
</event>
<event>
 5   0  0.1860500E-07  0.3677158E+04  0.7818609E-02  0.8073043E-01
        1   -1    0    0  501    0  0.00000000000E+00  0.00000000000E+00  0.21762500505E+04  0.21762500505E+04  0.50400001928E-02 0. -1.
       -1   -1    0    0    0  501  0.00000000000E+00  0.00000000000E+00 -0.15533018246E+04  0.15533018246E+04  0.50400001928E-02 0.  1.
    10030    2    1    2    0    0  0.00000000000E+00  0.00000000000E+00  0.62294822589E+03  0.37295518751E+04  0.36771582366E+04 0.  0.
        5    1    3    3  502    0  0.63710934785E+03 -0.15914106944E+04 -0.36271867852E+03  0.17521653030E+04  0.46999998093E+01 0.  1.
       -5    1    3    3    0  502 -0.63710934785E+03  0.15914106944E+04  0.98566690441E+03  0.19773865721E+04  0.46999998093E+01 0. -1.
</event>
<event>
 5   0  0.1943459E-07  0.3683673E+04  0.7818609E-02  0.8071590E-01
        1   -1    0    0  501    0  0.00000000000E+00  0.00000000000E+00  0.17932103735E+04  0.17932103735E+04  0.50400001928E-02 0. -1.
       -1   -1    0    0    0  501  0.00000000000E+00  0.00000000000E+00 -0.18917813573E+04  0.18917813573E+04  0.50400001928E-02 0.  1.
    10030    2    1    2    0    0  0.00000000000E+00  0.00000000000E+00 -0.98570983807E+02  0.36849917307E+04  0.36836731419E+04 0.  0.
        2    1    3    3  502    0  0.18110288603E+04  0.23336973314E+03 -0.29035928346E+03  0.18489444228E+04  0.25500000920E-02 0. -1.
       -2    1    3    3    0  502 -0.18110288603E+04 -0.23336973314E+03  0.19178829965E+03  0.18360473079E+04  0.25500000920E-02 0.  1.
</event>
<event>
 5   0  0.3959190E-07  0.3880865E+04  0.7818609E-02  0.8029021E-01
       -2   -1    0    0    0  501  0.00000000000E+00  0.00000000000E+00  0.20882243965E+04  0.20882243965E+04  0.25500000920E-02 0. -1.
        2   -1    0    0  501    0  0.00000000000E+00  0.00000000000E+00 -0.18031001102E+04  0.18031001102E+04  0.25500000920E-02 0.  1.
    10030    2    1    2    0    0  0.00000000000E+00  0.00000000000E+00  0.28512428624E+03  0.38913245067E+04  0.38808646663E+04 0.  0.
        2    1    3    3  502    0 -0.17177467836E+04 -0.84378371089E+03 -0.17869595861E+03  0.19221230993E+04  0.25500000920E-02 0.  1.
       -2    1    3    3    0  502  0.17177467836E+04  0.84378371089E+03  0.46382024484E+03  0.19692014074E+04  0.25500000920E-02 0. -1.
</event>
<event>
 5   0  0.5805753E-07  0.3936412E+04  0.7818609E-02  0.8017498E-01
       -2   -1    0    0    0  501  0.00000000000E+00  0.00000000000E+00  0.13771659425E+04  0.13771659425E+04  0.25500000920E-02 0. -1.
        2   -1    0    0  501    0  0.00000000000E+00  0.00000000000E+00 -0.28129040229E+04  0.28129040229E+04  0.25500000920E-02 0.  1.
    10030    2    1    2    0    0  0.00000000000E+00  0.00000000000E+00 -0.14357380805E+04  0.41900699654E+04  0.39364123868E+04 0.  0.
        1    1    3    3  502    0  0.90333845702E+03  0.11378947682E+04  0.69547588904E+03  0.16107487649E+04  0.50400001928E-02 0. -1.
       -1    1    3    3    0  502 -0.90333845702E+03 -0.11378947682E+04 -0.21312139695E+04  0.25793212005E+04  0.50400001928E-02 0.  1.
</event>
<event>
 5   0  0.5872444E-07  0.3889741E+04  0.7818609E-02  0.8027166E-01
        2   -1    0    0  501    0  0.00000000000E+00  0.00000000000E+00  0.20483369685E+04  0.20483369685E+04  0.25500000920E-02 0.  1.
       -2   -1    0    0    0  501  0.00000000000E+00  0.00000000000E+00 -0.18466299195E+04  0.18466299195E+04  0.25500000920E-02 0. -1.
    10030    2    1    2    0    0  0.00000000000E+00  0.00000000000E+00  0.20170704901E+03  0.38949668881E+04  0.38897405216E+04 0.  0.
        3    1    3    3  502    0 -0.16343917089E+04  0.10284132401E+04 -0.13108297504E+03  0.19354722439E+04  0.10100000352E+00 0. -1.
       -3    1    3    3    0  502  0.16343917089E+04 -0.10284132401E+04  0.33279002404E+03  0.19594946442E+04  0.10100000352E+00 0.  1.
</event>
<event>
 5   0  0.5735179E-07  0.3902811E+04  0.7818609E-02  0.8024445E-01
        2   -1    0    0  501    0  0.00000000000E+00  0.00000000000E+00  0.29124876817E+04  0.29124876817E+04  0.25500000920E-02 0.  1.
       -2   -1    0    0    0  501  0.00000000000E+00  0.00000000000E+00 -0.13074675160E+04  0.13074675160E+04  0.25500000920E-02 0. -1.
    10030    2    1    2    0    0  0.00000000000E+00  0.00000000000E+00  0.16050201657E+04  0.42199551976E+04  0.39028107996E+04 0.  0.
        5    1    3    3  502    0  0.38817111901E+03  0.37881627724E+03 -0.12243220035E+04  0.13390911275E+04  0.46999998093E+01 0. -1.
       -5    1    3    3    0  502 -0.38817111901E+03 -0.37881627724E+03  0.28293421693E+04  0.28808640701E+04  0.46999998093E+01 0.  1.
</event>
<event>
 5   0  0.5735179E-07  0.3918701E+04  0.7818609E-02  0.8021151E-01
        2   -1    0    0  501    0  0.00000000000E+00  0.00000000000E+00  0.27075322567E+04  0.27075322567E+04  0.25500000920E-02 0.  1.
       -2   -1    0    0    0  501  0.00000000000E+00  0.00000000000E+00 -0.14179160654E+04  0.14179160654E+04  0.25500000920E-02 0. -1.
    10030    2    1    2    0    0  0.00000000000E+00  0.00000000000E+00  0.12896161913E+04  0.41254483222E+04  0.39187005420E+04 0.  0.
        5    1    3    3  502    0  0.10763297232E+04 -0.72625627616E+03 -0.89995159004E+03  0.15798318918E+04  0.46999998093E+01 0. -1.
       -5    1    3    3    0  502 -0.10763297232E+04  0.72625627616E+03  0.21895677813E+04  0.25456164304E+04  0.46999998093E+01 0.  1.
</event>
<event>
 5   0  0.1860500E-07  0.3784858E+04  0.7818609E-02  0.8049412E-01
       -1   -1    0    0    0  501  0.00000000000E+00  0.00000000000E+00  0.18249617398E+04  0.18249617398E+04  0.50400001928E-02 0. -1.
        1   -1    0    0  501    0  0.00000000000E+00  0.00000000000E+00 -0.19623909318E+04  0.19623909318E+04  0.50400001928E-02 0.  1.
    10030    2    1    2    0    0  0.00000000000E+00  0.00000000000E+00 -0.13742919196E+03  0.37873526716E+04  0.37848584486E+04 0.  0.
        5    1    3    3  502    0 -0.14869312693E+04 -0.95978994346E+03 -0.73930915260E+03  0.19180097623E+04  0.46999998093E+01 0.  1.
       -5    1    3    3    0  502  0.14869312693E+04  0.95978994346E+03  0.60187996063E+03  0.18693429092E+04  0.46999998093E+01 0. -1.
</event>
<event>
 5   0  0.6095665E-07  0.3900385E+04  0.7818609E-02  0.8024949E-01
        2   -1    0    0  501    0  0.00000000000E+00  0.00000000000E+00  0.19603536555E+04  0.19603536555E+04  0.25500000920E-02 0. -1.
       -2   -1    0    0    0  501  0.00000000000E+00  0.00000000000E+00 -0.19400838344E+04  0.19400838344E+04  0.25500000920E-02 0.  1.
    10030    2    1    2    0    0  0.00000000000E+00  0.00000000000E+00  0.20269821077E+02  0.39004374899E+04  0.39003848203E+04 0.  0.
        4    1    3    3  502    0 -0.10723110420E+04  0.12338299115E+04  0.10736630717E+04  0.19557456956E+04  0.12699999809E+01 0.  1.
       -4    1    3    3    0  502  0.10723110420E+04 -0.12338299115E+04 -0.10533932506E+04  0.19446917943E+04  0.12699999809E+01 0. -1.
</event>
<event>
 5   0  0.5735179E-07  0.4024669E+04  0.7818609E-02  0.7999588E-01
       -2   -1    0    0    0  501  0.00000000000E+00  0.00000000000E+00  0.16630705530E+04  0.16630705530E+04  0.25500000920E-02 0.  1.
        2   -1    0    0  501    0  0.00000000000E+00  0.00000000000E+00 -0.24349480660E+04  0.24349480660E+04  0.25500000920E-02 0. -1.
    10030    2    1    2    0    0  0.00000000000E+00  0.00000000000E+00 -0.77187751305E+03  0.40980186190E+04  0.40246691425E+04 0.  0.
        5    1    3    3  502    0  0.31972420972E+03 -0.16913133521E+04  0.67551079632E+03  0.18490812181E+04  0.46999998093E+01 0.  1.
       -5    1    3    3    0  502 -0.31972420972E+03  0.16913133521E+04 -0.14473883094E+04  0.22489374009E+04  0.46999998093E+01 0. -1.
</event>
<event>
 5   0  0.1943459E-07  0.3188902E+04  0.7818609E-02  0.8191754E-01
        1   -1    0    0  501    0  0.00000000000E+00  0.00000000000E+00  0.16159148334E+04  0.16159148334E+04  0.50400001928E-02 0.  1.
       -1   -1    0    0    0  501  0.00000000000E+00  0.00000000000E+00 -0.15732725432E+04  0.15732725432E+04  0.50400001928E-02 0. -1.
    10030    2    1    2    0    0  0.00000000000E+00  0.00000000000E+00  0.42642290183E+02  0.31891873765E+04  0.31889022810E+04 0.  0.
        2    1    3    3  502    0 -0.11187247237E+03 -0.14054927127E+04 -0.72329174008E+03  0.15846375474E+04  0.25500000920E-02 0. -1.
       -2    1    3    3    0  502  0.11187247237E+03  0.14054927127E+04  0.76593403026E+03  0.16045498291E+04  0.25500000920E-02 0.  1.
</event>
<event>
 5   0  0.1876027E-07  0.3946374E+04  0.7818609E-02  0.8015453E-01
        1   -1    0    0  501    0  0.00000000000E+00  0.00000000000E+00  0.12285821310E+04  0.12285821310E+04  0.50400001928E-02 0. -1.
       -1   -1    0    0    0  501  0.00000000000E+00  0.00000000000E+00 -0.31690733371E+04  0.31690733371E+04  0.50400001928E-02 0.  1.
    10030    2    1    2    0    0  0.00000000000E+00  0.00000000000E+00 -0.19404912061E+04  0.43976554680E+04  0.39463739679E+04 0.  0.
        3    1    3    3  502    0  0.13197773102E+03  0.80177909336E+03  0.10334843201E+04  0.13146701815E+04  0.10100000352E+00 0. -1.
       -3    1    3    3    0  502 -0.13197773102E+03 -0.80177909336E+03 -0.29739755262E+04  0.30829852865E+04  0.10100000352E+00 0.  1.
</event>
<event>
 5   0  0.5805753E-07  0.3901461E+04  0.7818609E-02  0.8024725E-01
       -2   -1    0    0    0  501  0.00000000000E+00  0.00000000000E+00  0.31290647889E+04  0.31290647889E+04  0.25500000920E-02 0. -1.
        2   -1    0    0  501    0  0.00000000000E+00  0.00000000000E+00 -0.12161301901E+04  0.12161301901E+04  0.25500000920E-02 0.  1.
    10030    2    1    2    0    0  0.00000000000E+00  0.00000000000E+00  0.19129345989E+04  0.43451949790E+04  0.39014613449E+04 0.  0.
        1    1    3    3  502    0 -0.19297080024E+04  0.89543209354E+02  0.12585323271E+04  0.23055790117E+04  0.50400001928E-02 0.  1.
       -1    1    3    3    0  502  0.19297080024E+04 -0.89543209354E+02  0.65440227171E+03  0.20396159673E+04  0.50400001928E-02 0. -1.
</event>
<event>
 5   0  0.1860500E-07  0.3940077E+04  0.7818609E-02  0.8016745E-01
       -1   -1    0    0    0  501  0.00000000000E+00  0.00000000000E+00  0.28009469767E+04  0.28009469767E+04  0.50400001928E-02 0.  1.
        1   -1    0    0  501    0  0.00000000000E+00  0.00000000000E+00 -0.13856213118E+04  0.13856213118E+04  0.50400001928E-02 0. -1.
    10030    2    1    2    0    0  0.00000000000E+00  0.00000000000E+00  0.14153256649E+04  0.41865682885E+04  0.39400770673E+04 0.  0.
        4    1    3    3  502    0  0.85340818296E+03 -0.40503613556E+03  0.25445984207E+04  0.27142849028E+04  0.12699999809E+01 0.  1.
       -4    1    3    3    0  502 -0.85340818296E+03  0.40503613556E+03 -0.11292727558E+04  0.14722833857E+04  0.12699999809E+01 0. -1.
</event>
<event>
 5   0  0.1860500E-07  0.3911833E+04  0.7818609E-02  0.8022573E-01
        1   -1    0    0  501    0  0.00000000000E+00  0.00000000000E+00  0.28016314304E+04  0.28016314304E+04  0.50400001928E-02 0.  1.
       -1   -1    0    0    0  501  0.00000000000E+00  0.00000000000E+00 -0.13654936645E+04  0.13654936645E+04  0.50400001928E-02 0. -1.
    10030    2    1    2    0    0  0.00000000000E+00  0.00000000000E+00  0.14361377659E+04  0.41671250949E+04  0.39118333136E+04 0.  0.
        4    1    3    3  502    0  0.18774341269E+04 -0.43287197940E+03  0.10769075381E+04  0.22072309598E+04  0.12699999809E+01 0.  1.
       -4    1    3    3    0  502 -0.18774341269E+04  0.43287197940E+03  0.35923022782E+03  0.19598941351E+04  0.12699999809E+01 0. -1.
</event>
<event>
 5   0  0.1860500E-07  0.2635680E+04  0.7818609E-02  0.8356182E-01
        1   -1    0    0  501    0  0.00000000000E+00  0.00000000000E+00  0.12799635963E+04  0.12799635963E+04  0.50400001928E-02 0. -1.
       -1   -1    0    0    0  501  0.00000000000E+00  0.00000000000E+00 -0.13568368601E+04  0.13568368601E+04  0.50400001928E-02 0.  1.
    10030    2    1    2    0    0  0.00000000000E+00  0.00000000000E+00 -0.76873263734E+02  0.26368004564E+04  0.26356796369E+04 0.  0.
        5    1    3    3  502    0 -0.83510679693E+02  0.11069933032E+04 -0.74885936723E+03  0.13391118881E+04  0.46999998093E+01 0.  1.
       -5    1    3    3    0  502  0.83510679693E+02 -0.11069933032E+04  0.67198610349E+03  0.12976885683E+04  0.46999998093E+01 0. -1.
</event>
<event>
 5   0  0.3959190E-07  0.4044530E+04  0.7818609E-02  0.7995623E-01
        2   -1    0    0  501    0  0.00000000000E+00  0.00000000000E+00  0.29555899157E+04  0.29555899157E+04  0.25500000920E-02 0. -1.
       -2   -1    0    0    0  501  0.00000000000E+00  0.00000000000E+00 -0.13836683199E+04  0.13836683199E+04  0.25500000920E-02 0.  1.
    10030    2    1    2    0    0  0.00000000000E+00  0.00000000000E+00  0.15719215958E+04  0.43392582356E+04  0.40445301991E+04 0.  0.
        2    1    3    3  502    0  0.26615192778E+03 -0.14798164018E+04 -0.66494082098E+03  0.16440315469E+04  0.25500000920E-02 0.  1.
       -2    1    3    3    0  502 -0.26615192778E+03  0.14798164018E+04  0.22368624168E+04  0.26952266887E+04  0.25500000920E-02 0. -1.
</event>
<event>
 5   0  0.3959190E-07  0.3978767E+04  0.7818609E-02  0.8008844E-01
       -2   -1    0    0    0  501  0.00000000000E+00  0.00000000000E+00  0.20942346811E+04  0.20942346811E+04  0.25500000920E-02 0.  1.
        2   -1    0    0  501    0  0.00000000000E+00  0.00000000000E+00 -0.18897821430E+04  0.18897821430E+04  0.25500000920E-02 0. -1.
    10030    2    1    2    0    0  0.00000000000E+00  0.00000000000E+00  0.20445253807E+03  0.39840168241E+04  0.39787672984E+04 0.  0.
        2    1    3    3  502    0 -0.88798022551E+03 -0.99450431451E+03  0.15806903935E+04  0.20678805170E+04  0.25500000920E-02 0.  1.
       -2    1    3    3    0  502  0.88798022551E+03  0.99450431451E+03 -0.13762378555E+04  0.19161363071E+04  0.25500000920E-02 0. -1.
</event>
<event>
 5   0  0.5735179E-07  0.3611129E+04  0.7818609E-02  0.8087947E-01
       -2   -1    0    0    0  501  0.00000000000E+00  0.00000000000E+00  0.10680902774E+04  0.10680902774E+04  0.25500000920E-02 0. -1.
        2   -1    0    0  501    0  0.00000000000E+00  0.00000000000E+00 -0.30522354432E+04  0.30522354432E+04  0.25500000920E-02 0.  1.
    10030    2    1    2    0    0  0.00000000000E+00  0.00000000000E+00 -0.19841451658E+04  0.41203257206E+04  0.36111289100E+04 0.  0.
        5    1    3    3  502    0 -0.12156447231E+04  0.13340845909E+04 -0.93539857428E+03  0.20328714596E+04  0.46999998093E+01 0.  1.
       -5    1    3    3    0  502  0.12156447231E+04 -0.13340845909E+04 -0.10487465915E+04  0.20874542610E+04  0.46999998093E+01 0. -1.
</event>
<event>
 5   0  0.5805753E-07  0.3915262E+04  0.7818609E-02  0.8021863E-01
       -2   -1    0    0    0  501  0.00000000000E+00  0.00000000000E+00  0.14607125180E+04  0.14607125180E+04  0.25500000920E-02 0.  1.
        2   -1    0    0  501    0  0.00000000000E+00  0.00000000000E+00 -0.26235951184E+04  0.26235951184E+04  0.25500000920E-02 0. -1.
    10030    2    1    2    0    0  0.00000000000E+00  0.00000000000E+00 -0.11628826004E+04  0.40843076364E+04  0.39152615400E+04 0.  0.
        1    1    3    3  502    0  0.11734182150E+04  0.12542239011E+04 -0.15613221548E+04  0.23211451425E+04  0.50400001928E-02 0. -1.
       -1    1    3    3    0  502 -0.11734182150E+04 -0.12542239011E+04  0.39843955439E+03  0.17631624939E+04  0.50400001928E-02 0.  1.
</event>
<event>
 5   0  0.5735179E-07  0.4127454E+04  0.7818609E-02  0.7979317E-01
        2   -1    0    0  501    0  0.00000000000E+00  0.00000000000E+00  0.15912719516E+04  0.15912719516E+04  0.25500000920E-02 0. -1.
       -2   -1    0    0    0  501  0.00000000000E+00  0.00000000000E+00 -0.26764554930E+04  0.26764554930E+04  0.25500000920E-02 0.  1.
    10030    2    1    2    0    0  0.00000000000E+00  0.00000000000E+00 -0.10851835414E+04  0.42677274446E+04  0.41274537215E+04 0.  0.
        5    1    3    3  502    0 -0.12070960569E+04  0.12662203854E+04 -0.16745823565E+04  0.24217025238E+04  0.46999998093E+01 0.  1.
       -5    1    3    3    0  502  0.12070960569E+04 -0.12662203854E+04  0.58939881510E+03  0.18460249208E+04  0.46999998093E+01 0. -1.
</event>
<event>
 5   0  0.3959190E-07  0.2769049E+04  0.7818609E-02  0.8312942E-01
       -2   -1    0    0    0  501  0.00000000000E+00  0.00000000000E+00  0.11722755217E+04  0.11722755217E+04  0.25500000920E-02 0. -1.
        2   -1    0    0  501    0  0.00000000000E+00  0.00000000000E+00 -0.16352021102E+04  0.16352021102E+04  0.25500000920E-02 0.  1.
    10030    2    1    2    0    0  0.00000000000E+00  0.00000000000E+00 -0.46292658845E+03  0.28074776319E+04  0.27690485058E+04 0.  0.
        2    1    3    3  502    0  0.75784320961E+02 -0.46527299298E+02  0.11693770214E+04  0.11727534571E+04  0.25500000920E-02 0. -1.
       -2    1    3    3    0  502 -0.75784320961E+02  0.46527299298E+02 -0.16323036099E+04  0.16347241748E+04  0.25500000920E-02 0.  1.
</event>
<event>
 5   0  0.2666813E-07  0.2597605E+04  0.7818609E-02  0.8369015E-01
       -1   -1    0    0    0  501  0.00000000000E+00  0.00000000000E+00  0.13009038407E+04  0.13009038408E+04  0.50400001928E-02 0. -1.
        1   -1    0    0  501    0  0.00000000000E+00  0.00000000000E+00 -0.12967050273E+04  0.12967050273E+04  0.50400001928E-02 0.  1.
    10030    2    1    2    0    0  0.00000000000E+00  0.00000000000E+00  0.41988134553E+01  0.25976088681E+04  0.25976054745E+04 0.  0.
        1    1    3    3  502    0  0.11089482576E+04  0.63640074185E+03 -0.22619107552E+03  0.12984354219E+04  0.50400001928E-02 0.  1.
       -1    1    3    3    0  502 -0.11089482576E+04 -0.63640074185E+03  0.23038988897E+03  0.12991734461E+04  0.50400001928E-02 0. -1.
</event>
<event>
 5   0  0.1860500E-07  0.3899869E+04  0.7818609E-02  0.8025056E-01
        1   -1    0    0  501    0  0.00000000000E+00  0.00000000000E+00  0.24554346371E+04  0.24554346371E+04  0.50400001928E-02 0.  1.
       -1   -1    0    0    0  501  0.00000000000E+00  0.00000000000E+00 -0.15485017207E+04  0.15485017207E+04  0.50400001928E-02 0. -1.
    10030    2    1    2    0    0  0.00000000000E+00  0.00000000000E+00  0.90693291645E+03  0.40039363578E+04  0.38998691058E+04 0.  0.
        4    1    3    3  502    0 -0.16678004438E+03 -0.13687874145E+04 -0.96203687449E+03  0.16813420622E+04  0.12699999809E+01 0. -1.
       -4    1    3    3    0  502  0.16678004438E+03  0.13687874145E+04  0.18689697909E+04  0.23225942955E+04  0.12699999809E+01 0.  1.
</event>
<event>
 5   0  0.6095665E-07  0.3880152E+04  0.7818609E-02  0.8029170E-01
       -2   -1    0    0    0  501  0.00000000000E+00  0.00000000000E+00  0.14303036813E+04  0.14303036813E+04  0.25500000920E-02 0.  1.
        2   -1    0    0  501    0  0.00000000000E+00  0.00000000000E+00 -0.26315352341E+04  0.26315352341E+04  0.25500000920E-02 0. -1.
    10030    2    1    2    0    0  0.00000000000E+00  0.00000000000E+00 -0.12012315528E+04  0.40618389153E+04  0.38801518180E+04 0.  0.
        4    1    3    3  502    0  0.80712762575E+03  0.11253874850E+04  0.82165693249E+03  0.16103023702E+04  0.12699999809E+01 0.  1.
       -4    1    3    3    0  502 -0.80712762575E+03 -0.11253874850E+04 -0.20228884853E+04  0.24515365452E+04  0.12699999809E+01 0. -1.
</event>
<event>
 5   0  0.6095665E-07  0.3665073E+04  0.7818609E-02  0.8075746E-01
        2   -1    0    0  501    0  0.00000000000E+00  0.00000000000E+00  0.20371964418E+04  0.20371964418E+04  0.25500000920E-02 0. -1.
       -2   -1    0    0    0  501  0.00000000000E+00  0.00000000000E+00 -0.16484372189E+04  0.16484372189E+04  0.25500000920E-02 0.  1.
    10030    2    1    2    0    0  0.00000000000E+00  0.00000000000E+00  0.38875922296E+03  0.36856336607E+04  0.36650732254E+04 0.  0.
        4    1    3    3  502    0  0.31693034390E+03 -0.72430072652E+03 -0.14681134754E+04  0.16674576981E+04  0.12699999809E+01 0.  1.
       -4    1    3    3    0  502 -0.31693034390E+03  0.72430072652E+03  0.18568726983E+04  0.20181759626E+04  0.12699999809E+01 0. -1.
</event>
<event>
 5   0  0.1943459E-07  0.3668090E+04  0.7818609E-02  0.8075071E-01
       -1   -1    0    0    0  501  0.00000000000E+00  0.00000000000E+00  0.30059097583E+04  0.30059097583E+04  0.50400001928E-02 0. -1.
        1   -1    0    0  501    0  0.00000000000E+00  0.00000000000E+00 -0.11190357966E+04  0.11190357966E+04  0.50400001928E-02 0.  1.
    10030    2    1    2    0    0  0.00000000000E+00  0.00000000000E+00  0.18868739616E+04  0.41249455549E+04  0.36680897595E+04 0.  0.
        2    1    3    3  502    0  0.57003128002E+03  0.71140542276E+03  0.27330908811E+04  0.28811142116E+04  0.25500000920E-02 0. -1.
       -2    1    3    3    0  502 -0.57003128002E+03 -0.71140542276E+03 -0.84621691950E+03  0.12438313433E+04  0.25500000920E-02 0.  1.
</event>
<event>
 5   0  0.5735179E-07  0.3876915E+04  0.7818609E-02  0.8029848E-01
        2   -1    0    0  501    0  0.00000000000E+00  0.00000000000E+00  0.34124862764E+04  0.34124862764E+04  0.25500000920E-02 0.  1.
       -2   -1    0    0    0  501  0.00000000000E+00  0.00000000000E+00 -0.11011375387E+04  0.11011375387E+04  0.25500000920E-02 0. -1.
    10030    2    1    2    0    0  0.00000000000E+00  0.00000000000E+00  0.23113487378E+04  0.45136238151E+04  0.38769146182E+04 0.  0.
        5    1    3    3  502    0  0.13128879953E+04  0.13009591936E+04  0.47539587258E+03  0.19084530482E+04  0.46999998093E+01 0.  1.
       -5    1    3    3    0  502 -0.13128879953E+04 -0.13009591936E+04  0.18359528652E+04  0.26051707669E+04  0.46999998093E+01 0. -1.
</event>
<event>
 5   0  0.3959190E-07  0.3916139E+04  0.7818609E-02  0.8021681E-01
        2   -1    0    0  501    0  0.00000000000E+00  0.00000000000E+00  0.24487135941E+04  0.24487135941E+04  0.25500000920E-02 0.  1.
       -2   -1    0    0    0  501  0.00000000000E+00  0.00000000000E+00 -0.15657349327E+04  0.15657349327E+04  0.25500000920E-02 0. -1.
    10030    2    1    2    0    0  0.00000000000E+00  0.00000000000E+00  0.88297866138E+03  0.40144485268E+04  0.39161391264E+04 0.  0.
        2    1    3    3  502    0 -0.16205055887E+04  0.89018498926E+03 -0.21933985467E+03  0.18618747675E+04  0.25500000920E-02 0. -1.
       -2    1    3    3    0  502  0.16205055887E+04 -0.89018498926E+03  0.11023185161E+04  0.21525737592E+04  0.25500000920E-02 0.  1.
</event>
<event>
 5   0  0.5805753E-07  0.2571630E+04  0.7818609E-02  0.8377902E-01
       -2   -1    0    0    0  501  0.00000000000E+00  0.00000000000E+00  0.96628716774E+03  0.96628716774E+03  0.25500000920E-02 0. -1.
        2   -1    0    0  501    0  0.00000000000E+00  0.00000000000E+00 -0.17110031415E+04  0.17110031415E+04  0.25500000920E-02 0.  1.
    10030    2    1    2    0    0  0.00000000000E+00  0.00000000000E+00 -0.74471597378E+03  0.26772903093E+04  0.25716301286E+04 0.  0.
        1    1    3    3  502    0 -0.39054677790E+03 -0.38825842646E+03  0.83729756949E+03  0.10021669578E+04  0.50400001928E-02 0. -1.
       -1    1    3    3    0  502  0.39054677790E+03  0.38825842646E+03 -0.15820135433E+04  0.16751233514E+04  0.50400001928E-02 0.  1.
</event>
<event>
 5   0  0.3959190E-07  0.2568433E+04  0.7818609E-02  0.8379003E-01
       -2   -1    0    0    0  501  0.00000000000E+00  0.00000000000E+00  0.12397081858E+04  0.12397081858E+04  0.25500000920E-02 0. -1.
        2   -1    0    0  501    0  0.00000000000E+00  0.00000000000E+00 -0.13303230564E+04  0.13303230564E+04  0.25500000920E-02 0.  1.
    10030    2    1    2    0    0  0.00000000000E+00  0.00000000000E+00 -0.90614870632E+02  0.25700312422E+04  0.25684332834E+04 0.  0.
        2    1    3    3  502    0  0.85161792327E+03 -0.37163191528E+03  0.84172534658E+03  0.12537403746E+04  0.25500000920E-02 0. -1.
       -2    1    3    3    0  502 -0.85161792327E+03  0.37163191528E+03 -0.93234021722E+03  0.13162908677E+04  0.25500000920E-02 0.  1.
</event>
<event>
 5   0  0.5805753E-07  0.3826702E+04  0.7818609E-02  0.8040449E-01
        2   -1    0    0  501    0  0.00000000000E+00  0.00000000000E+00  0.22487636070E+04  0.22487636070E+04  0.25500000920E-02 0.  1.
       -2   -1    0    0    0  501  0.00000000000E+00  0.00000000000E+00 -0.16279666855E+04  0.16279666855E+04  0.25500000920E-02 0. -1.
    10030    2    1    2    0    0  0.00000000000E+00  0.00000000000E+00  0.62079692157E+03  0.38767302925E+04  0.38267020975E+04 0.  0.
        1    1    3    3  502    0 -0.15142736362E+04 -0.16809543620E+03 -0.86215758765E+03  0.17505988767E+04  0.50400001928E-02 0. -1.
       -1    1    3    3    0  502  0.15142736362E+04  0.16809543620E+03  0.14829545092E+04  0.21261314158E+04  0.50400001928E-02 0.  1.
</event>
<event>
 5   0  0.1860500E-07  0.3835967E+04  0.7818609E-02  0.8038480E-01
       -1   -1    0    0    0  501  0.00000000000E+00  0.00000000000E+00  0.23907163657E+04  0.23907163657E+04  0.50400001928E-02 0.  1.
        1   -1    0    0  501    0  0.00000000000E+00  0.00000000000E+00 -0.15387274211E+04  0.15387274211E+04  0.50400001928E-02 0. -1.
    10030    2    1    2    0    0  0.00000000000E+00  0.00000000000E+00  0.85198894454E+03  0.39294437868E+04  0.38359670635E+04 0.  0.
        5    1    3    3  502    0 -0.74970342407E+01  0.17667806169E+04 -0.33856385401E+03  0.17989490063E+04  0.46999998093E+01 0. -1.
       -5    1    3    3    0  502  0.74970342407E+01 -0.17667806169E+04  0.11905527986E+04  0.21304947806E+04  0.46999998093E+01 0.  1.
</event>
<event>
 5   0  0.5735179E-07  0.3893549E+04  0.7818609E-02  0.8026372E-01
        2   -1    0    0  501    0  0.00000000000E+00  0.00000000000E+00  0.20724525263E+04  0.20724525263E+04  0.25500000920E-02 0. -1.
       -2   -1    0    0    0  501  0.00000000000E+00  0.00000000000E+00 -0.18287177899E+04  0.18287177899E+04  0.25500000920E-02 0.  1.
    10030    2    1    2    0    0  0.00000000000E+00  0.00000000000E+00  0.24373473644E+03  0.39011703162E+04  0.38935489228E+04 0.  0.
        5    1    3    3  502    0 -0.15905011169E+03  0.14536896738E+04 -0.11657154310E+04  0.18701404123E+04  0.46999998093E+01 0.  1.
       -5    1    3    3    0  502  0.15905011169E+03 -0.14536896738E+04  0.14094501674E+04  0.20310299038E+04  0.46999998093E+01 0. -1.
</event>
<event>
 5   0  0.3959190E-07  0.3917431E+04  0.7818609E-02  0.8021414E-01
        2   -1    0    0  501    0  0.00000000000E+00  0.00000000000E+00  0.26410156706E+04  0.26410156706E+04  0.25500000920E-02 0. -1.
       -2   -1    0    0    0  501  0.00000000000E+00  0.00000000000E+00 -0.14526856030E+04  0.14526856030E+04  0.25500000920E-02 0.  1.
    10030    2    1    2    0    0  0.00000000000E+00  0.00000000000E+00  0.11883300675E+04  0.40937012736E+04  0.39174305058E+04 0.  0.
        2    1    3    3  502    0 -0.95892225321E+03  0.11877715985E+04 -0.68834510970E+03  0.16745603148E+04  0.25500000920E-02 0.  1.
       -2    1    3    3    0  502  0.95892225321E+03 -0.11877715985E+04  0.18766751772E+04  0.24191409588E+04  0.25500000920E-02 0. -1.
</event>
<event>
 5   0  0.3959190E-07  0.3980327E+04  0.7818609E-02  0.8008527E-01
       -2   -1    0    0    0  501  0.00000000000E+00  0.00000000000E+00  0.14955978615E+04  0.14955978615E+04  0.25500000920E-02 0.  1.
        2   -1    0    0  501    0  0.00000000000E+00  0.00000000000E+00 -0.26482731872E+04  0.26482731872E+04  0.25500000920E-02 0. -1.
    10030    2    1    2    0    0  0.00000000000E+00  0.00000000000E+00 -0.11526753257E+04  0.41438710487E+04  0.39803274817E+04 0.  0.
        2    1    3    3  502    0  0.22302466883E+03 -0.19616955695E+04 -0.31552028531E+03  0.19993855458E+04  0.25500000920E-02 0.  1.
       -2    1    3    3    0  502 -0.22302466883E+03  0.19616955695E+04 -0.83715504038E+03  0.21444855029E+04  0.25500000920E-02 0. -1.
</event>
<event>
 5   0  0.1876027E-07  0.2900043E+04  0.7818609E-02  0.8272865E-01
       -1   -1    0    0    0  501  0.00000000000E+00  0.00000000000E+00  0.11654757386E+04  0.11654757386E+04  0.50400001928E-02 0. -1.
        1   -1    0    0  501    0  0.00000000000E+00  0.00000000000E+00 -0.18040384428E+04  0.18040384429E+04  0.50400001928E-02 0.  1.
    10030    2    1    2    0    0  0.00000000000E+00  0.00000000000E+00 -0.63856270424E+03  0.29695141815E+04  0.29000434732E+04 0.  0.
        3    1    3    3  502    0 -0.13162980030E+04  0.45877350993E+03  0.89595404009E+02  0.13968324569E+04  0.10100000352E+00 0. -1.
       -3    1    3    3    0  502  0.13162980030E+04 -0.45877350993E+03 -0.72815810825E+03  0.15726817246E+04  0.10100000352E+00 0.  1.
</event>
<event>
 5   0  0.1860500E-07  0.3890693E+04  0.7818609E-02  0.8026968E-01
        1   -1    0    0  501    0  0.00000000000E+00  0.00000000000E+00  0.25917244139E+04  0.25917244139E+04  0.50400001928E-02 0.  1.
       -1   -1    0    0    0  501  0.00000000000E+00  0.00000000000E+00 -0.14601757137E+04  0.14601757137E+04  0.50400001928E-02 0. -1.
    10030    2    1    2    0    0  0.00000000000E+00  0.00000000000E+00  0.11315487002E+04  0.40519001276E+04  0.38906930209E+04 0.  0.
        5    1    3    3  502    0 -0.21266175189E+03 -0.15195006369E+03 -0.14418006906E+04  0.14653071910E+04  0.46999998093E+01 0. -1.
       -5    1    3    3    0  502  0.21266175189E+03  0.15195006369E+03  0.25733493908E+04  0.25865929366E+04  0.46999998093E+01 0.  1.
</event>
<event>
 5   0  0.6095665E-07  0.2618522E+04  0.7818609E-02  0.8361937E-01
        2   -1    0    0  501    0  0.00000000000E+00  0.00000000000E+00  0.11232830528E+04  0.11232830528E+04  0.25500000920E-02 0.  1.
       -2   -1    0    0    0  501  0.00000000000E+00  0.00000000000E+00 -0.15260309986E+04  0.15260309986E+04  0.25500000920E-02 0. -1.
    10030    2    1    2    0    0  0.00000000000E+00  0.00000000000E+00 -0.40274794572E+03  0.26493140514E+04  0.26185222999E+04 0.  0.
        4    1    3    3  502    0  0.42081876305E+03  0.41967619200E+03  0.97894043884E+03  0.11452259747E+04  0.12699999809E+01 0.  1.
       -4    1    3    3    0  502 -0.42081876305E+03 -0.41967619200E+03 -0.13816883846E+04  0.15040880767E+04  0.12699999809E+01 0. -1.
</event>
<event>
 5   0  0.5735179E-07  0.3657825E+04  0.7818609E-02  0.8077373E-01
       -2   -1    0    0    0  501  0.00000000000E+00  0.00000000000E+00  0.19452139724E+04  0.19452139724E+04  0.25500000920E-02 0.  1.
        2   -1    0    0  501    0  0.00000000000E+00  0.00000000000E+00 -0.17195641620E+04  0.17195641620E+04  0.25500000920E-02 0. -1.
    10030    2    1    2    0    0  0.00000000000E+00  0.00000000000E+00  0.22564981035E+03  0.36647781344E+04  0.36578246182E+04 0.  0.
        5    1    3    3  502    0 -0.13278584635E+04  0.24639031979E+03  0.13484503007E+04  0.19084696991E+04  0.46999998093E+01 0.  1.
       -5    1    3    3    0  502  0.13278584635E+04 -0.24639031979E+03 -0.11228004904E+04  0.17563084353E+04  0.46999998093E+01 0. -1.
</event>
<event>
 5   0  0.5872444E-07  0.3693160E+04  0.7818609E-02  0.8069479E-01
        2   -1    0    0  501    0  0.00000000000E+00  0.00000000000E+00  0.23678797368E+04  0.23678797368E+04  0.25500000920E-02 0. -1.
       -2   -1    0    0    0  501  0.00000000000E+00  0.00000000000E+00 -0.14400466102E+04  0.14400466102E+04  0.25500000920E-02 0.  1.
    10030    2    1    2    0    0  0.00000000000E+00  0.00000000000E+00  0.92783312659E+03  0.38079263471E+04  0.36931597249E+04 0.  0.
        3    1    3    3  502    0 -0.66619253437E+03 -0.16166739276E+04  0.10760056277E+04  0.20531037972E+04  0.10100000352E+00 0. -1.
       -3    1    3    3    0  502  0.66619253437E+03  0.16166739276E+04 -0.14817250115E+03  0.17548225498E+04  0.10100000352E+00 0.  1.
</event>
<event>
 5   0  0.1943459E-07  0.3851812E+04  0.7818609E-02  0.8035127E-01
        1   -1    0    0  501    0  0.00000000000E+00  0.00000000000E+00  0.14696458930E+04  0.14696458930E+04  0.50400001928E-02 0.  1.
       -1   -1    0    0    0  501  0.00000000000E+00  0.00000000000E+00 -0.25238143258E+04  0.25238143258E+04  0.50400001928E-02 0. -1.
    10030    2    1    2    0    0  0.00000000000E+00  0.00000000000E+00 -0.10541684328E+04  0.39934602188E+04  0.38518117080E+04 0.  0.
        2    1    3    3  502    0 -0.79047793672E+03 -0.10014806488E+04  0.96863847353E+03  0.16018986706E+04  0.25500000920E-02 0.  1.
       -2    1    3    3    0  502  0.79047793672E+03  0.10014806488E+04 -0.20228069064E+04  0.23915615482E+04  0.25500000920E-02 0. -1.
</event>
<event>
 5   0  0.1860500E-07  0.4254994E+04  0.7818609E-02  0.7954993E-01
        1   -1    0    0  501    0  0.00000000000E+00  0.00000000000E+00  0.13532925125E+04  0.13532925125E+04  0.50400001928E-02 0. -1.
       -1   -1    0    0    0  501  0.00000000000E+00  0.00000000000E+00 -0.33446159100E+04  0.33446159100E+04  0.50400001928E-02 0.  1.
    10030    2    1    2    0    0  0.00000000000E+00  0.00000000000E+00 -0.19913233974E+04  0.46979084225E+04  0.42549940862E+04 0.  0.
        4    1    3    3  502    0  0.19435650454E+03 -0.13016221748E+04  0.84994011090E+03  0.15666507402E+04  0.12699999809E+01 0. -1.
       -4    1    3    3    0  502 -0.19435650454E+03  0.13016221748E+04 -0.28412635083E+04  0.31312576824E+04  0.12699999809E+01 0.  1.
</event>
<event>
 5   0  0.1943459E-07  0.4107017E+04  0.7818609E-02  0.7983299E-01
       -1   -1    0    0    0  501  0.00000000000E+00  0.00000000000E+00  0.20511772189E+04  0.20511772189E+04  0.50400001928E-02 0.  1.
        1   -1    0    0  501    0  0.00000000000E+00  0.00000000000E+00 -0.20558422063E+04  0.20558422063E+04  0.50400001928E-02 0. -1.
    10030    2    1    2    0    0  0.00000000000E+00  0.00000000000E+00 -0.46649874380E+01  0.41070194252E+04  0.41070167758E+04 0.  0.
        2    1    3    3  502    0  0.95641184201E+03  0.93640619588E+03 -0.15596762750E+04  0.20552786327E+04  0.25500000920E-02 0. -1.
       -2    1    3    3    0  502 -0.95641184201E+03 -0.93640619588E+03  0.15550112875E+04  0.20517407925E+04  0.25500000920E-02 0.  1.
</event>
<event>
 5   0  0.6095665E-07  0.3781638E+04  0.7818609E-02  0.8050107E-01
        2   -1    0    0  501    0  0.00000000000E+00  0.00000000000E+00  0.29515827671E+04  0.29515827671E+04  0.25500000920E-02 0.  1.
       -2   -1    0    0    0  501  0.00000000000E+00  0.00000000000E+00 -0.12112813714E+04  0.12112813714E+04  0.25500000920E-02 0. -1.
    10030    2    1    2    0    0  0.00000000000E+00  0.00000000000E+00  0.17403013957E+04  0.41628641385E+04  0.37816383867E+04 0.  0.
        4    1    3    3  502    0  0.34646319814E+03 -0.31714370106E+03 -0.11460382710E+04  0.12385565010E+04  0.12699999809E+01 0. -1.
       -4    1    3    3    0  502 -0.34646319814E+03  0.31714370106E+03  0.28863396666E+04  0.29243076375E+04  0.12699999809E+01 0.  1.
</event>
<event>
 5   0  0.5735179E-07  0.3766590E+04  0.7818609E-02  0.8053363E-01
       -2   -1    0    0    0  501  0.00000000000E+00  0.00000000000E+00  0.18468203846E+04  0.18468203846E+04  0.25500000920E-02 0. -1.
        2   -1    0    0  501    0  0.00000000000E+00  0.00000000000E+00 -0.19204900492E+04  0.19204900492E+04  0.25500000920E-02 0.  1.
    10030    2    1    2    0    0  0.00000000000E+00  0.00000000000E+00 -0.73669664667E+02  0.37673104338E+04  0.37665900607E+04 0.  0.
        5    1    3    3  502    0  0.55194010797E+03 -0.93616110413E+03  0.15015564003E+04  0.18535720134E+04  0.46999998093E+01 0. -1.
       -5    1    3    3    0  502 -0.55194010797E+03  0.93616110413E+03 -0.15752260650E+04  0.19137384203E+04  0.46999998093E+01 0.  1.
</event>
<event>
 5   0  0.5805753E-07  0.3906539E+04  0.7818609E-02  0.8023671E-01
        2   -1    0    0  501    0  0.00000000000E+00  0.00000000000E+00  0.16561066641E+04  0.16561066641E+04  0.25500000920E-02 0.  1.
       -2   -1    0    0    0  501  0.00000000000E+00  0.00000000000E+00 -0.23037536310E+04  0.23037536310E+04  0.25500000920E-02 0. -1.
    10030    2    1    2    0    0  0.00000000000E+00  0.00000000000E+00 -0.64764696688E+03  0.39598602951E+04  0.39065390006E+04 0.  0.
        1    1    3    3  502    0  0.11826890287E+04 -0.10680017545E+04  0.82114287415E+03  0.17926674834E+04  0.50400001928E-02 0.  1.
       -1    1    3    3    0  502 -0.11826890287E+04  0.10680017545E+04 -0.14687898410E+04  0.21671928117E+04  0.50400001928E-02 0. -1.
</event>
<event>
 5   0  0.1860500E-07  0.3814778E+04  0.7818609E-02  0.8042991E-01
       -1   -1    0    0    0  501  0.00000000000E+00  0.00000000000E+00  0.19188782381E+04  0.19188782381E+04  0.50400001928E-02 0.  1.
        1   -1    0    0  501    0  0.00000000000E+00  0.00000000000E+00 -0.18959686691E+04  0.18959686691E+04  0.50400001928E-02 0. -1.
    10030    2    1    2    0    0  0.00000000000E+00  0.00000000000E+00  0.22909568914E+02  0.38148469072E+04  0.38147781164E+04 0.  0.
        4    1    3    3  502    0 -0.13956231506E+04 -0.93713828213E+03  0.91265873389E+03  0.19128355172E+04  0.12699999809E+01 0.  1.
       -4    1    3    3    0  502  0.13956231506E+04  0.93713828213E+03 -0.88974916498E+03  0.19020113900E+04  0.12699999809E+01 0. -1.
</event>
<event>
 5   0  0.6095665E-07  0.3858049E+04  0.7818609E-02  0.8033811E-01
       -2   -1    0    0    0  501  0.00000000000E+00  0.00000000000E+00  0.33575111815E+04  0.33575111815E+04  0.25500000920E-02 0.  1.
        2   -1    0    0  501    0  0.00000000000E+00  0.00000000000E+00 -0.11083017724E+04  0.11083017724E+04  0.25500000920E-02 0. -1.
    10030    2    1    2    0    0  0.00000000000E+00  0.00000000000E+00  0.22492094090E+04  0.44658129539E+04  0.38580490372E+04 0.  0.
        4    1    3    3  502    0  0.10197817637E+04  0.14930609600E+04  0.19027793393E+04  0.26248346048E+04  0.12699999809E+01 0.  1.
       -4    1    3    3    0  502 -0.10197817637E+04 -0.14930609600E+04  0.34643006975E+03  0.18409783491E+04  0.12699999809E+01 0. -1.
</event>
<event>
 5   0  0.1860500E-07  0.3167080E+04  0.7818609E-02  0.8197566E-01
       -1   -1    0    0    0  501  0.00000000000E+00  0.00000000000E+00  0.14783686575E+04  0.14783686575E+04  0.50400001928E-02 0.  1.
        1   -1    0    0  501    0  0.00000000000E+00  0.00000000000E+00 -0.16961934269E+04  0.16961934269E+04  0.50400001928E-02 0. -1.
    10030    2    1    2    0    0  0.00000000000E+00  0.00000000000E+00 -0.21782476936E+03  0.31745620844E+04  0.31670801691E+04 0.  0.
        4    1    3    3  502    0  0.15166704074E+04 -0.23568833596E+03 -0.49939586798E+03  0.16140743360E+04  0.12699999809E+01 0. -1.
       -4    1    3    3    0  502 -0.15166704074E+04  0.23568833596E+03  0.28157109862E+03  0.15604877484E+04  0.12699999809E+01 0.  1.
</event>
<event>
 5   0  0.5805753E-07  0.3946479E+04  0.7818609E-02  0.8015431E-01
        2   -1    0    0  501    0  0.00000000000E+00  0.00000000000E+00  0.24277361836E+04  0.24277361836E+04  0.25500000920E-02 0.  1.
       -2   -1    0    0    0  501  0.00000000000E+00  0.00000000000E+00 -0.16038295819E+04  0.16038295819E+04  0.25500000920E-02 0. -1.
    10030    2    1    2    0    0  0.00000000000E+00  0.00000000000E+00  0.82390660164E+03  0.40315657655E+04  0.39464794987E+04 0.  0.
        1    1    3    3  502    0 -0.11639981182E+04  0.77488490875E+03 -0.10103051590E+04  0.17251245623E+04  0.50400001928E-02 0. -1.
       -1    1    3    3    0  502  0.11639981182E+04 -0.77488490875E+03  0.18342117606E+04  0.23064412032E+04  0.50400001928E-02 0.  1.
</event>
<event>
 5   0  0.3959190E-07  0.3907465E+04  0.7818609E-02  0.8023479E-01
        2   -1    0    0  501    0  0.00000000000E+00  0.00000000000E+00  0.17987743084E+04  0.17987743084E+04  0.25500000920E-02 0.  1.
       -2   -1    0    0    0  501  0.00000000000E+00  0.00000000000E+00 -0.21220393125E+04  0.21220393125E+04  0.25500000920E-02 0. -1.
    10030    2    1    2    0    0  0.00000000000E+00  0.00000000000E+00 -0.32326500406E+03  0.39208136210E+04  0.39074645472E+04 0.  0.
        2    1    3    3  502    0  0.37047560809E+02  0.70670681858E+03  0.16656496747E+04  0.18097502281E+04  0.25500000920E-02 0.  1.
       -2    1    3    3    0  502 -0.37047560809E+02 -0.70670681858E+03 -0.19889146788E+04  0.21110633929E+04  0.25500000920E-02 0. -1.
</event>
<event>
 5   0  0.2666813E-07  0.3919736E+04  0.7818609E-02  0.8020937E-01
        1   -1    0    0  501    0  0.00000000000E+00  0.00000000000E+00  0.11256246820E+04  0.11256246820E+04  0.50400001928E-02 0. -1.
       -1   -1    0    0    0  501  0.00000000000E+00  0.00000000000E+00 -0.34124008334E+04  0.34124008334E+04  0.50400001928E-02 0.  1.
    10030    2    1    2    0    0  0.00000000000E+00  0.00000000000E+00 -0.22867761514E+04  0.45380255154E+04  0.39197360130E+04 0.  0.
        1    1    3    3  502    0  0.78764812305E+03 -0.17294120141E+04 -0.16984107863E+04  0.25486966629E+04  0.50400001928E-02 0. -1.
       -1    1    3    3    0  502 -0.78764812305E+03  0.17294120141E+04 -0.58836536512E+03  0.19893288525E+04  0.50400001928E-02 0.  1.
</event>
<event>
 5   0  0.5805753E-07  0.3865605E+04  0.7818609E-02  0.8032221E-01
       -2   -1    0    0    0  501  0.00000000000E+00  0.00000000000E+00  0.15426724617E+04  0.15426724617E+04  0.25500000920E-02 0. -1.
        2   -1    0    0  501    0  0.00000000000E+00  0.00000000000E+00 -0.24215936127E+04  0.24215936127E+04  0.25500000920E-02 0.  1.
    10030    2    1    2    0    0  0.00000000000E+00  0.00000000000E+00 -0.87892115104E+03  0.39642660745E+04  0.38656051427E+04 0.  0.
        1    1    3    3  502    0  0.21216210076E+03 -0.99348978746E+02  0.15280584507E+04  0.15459125478E+04  0.50400001928E-02 0. -1.
       -1    1    3    3    0  502 -0.21216210076E+03  0.99348978746E+02 -0.24069796018E+04  0.24183535267E+04  0.50400001928E-02 0.  1.
</event>
<event>
 5   0  0.1860500E-07  0.3871671E+04  0.7818609E-02  0.8030947E-01
       -1   -1    0    0    0  501  0.00000000000E+00  0.00000000000E+00  0.15328177135E+04  0.15328177135E+04  0.50400001928E-02 0.  1.
        1   -1    0    0  501    0  0.00000000000E+00  0.00000000000E+00 -0.24448167853E+04  0.24448167853E+04  0.50400001928E-02 0. -1.
    10030    2    1    2    0    0  0.00000000000E+00  0.00000000000E+00 -0.91199907180E+03  0.39776344988E+04  0.38716706857E+04 0.  0.
        5    1    3    3  502    0  0.79322764796E+03  0.11521938343E+04  0.91878591562E+03  0.16736040099E+04  0.46999998093E+01 0.  1.
       -5    1    3    3    0  502 -0.79322764796E+03 -0.11521938343E+04 -0.18307849874E+04  0.23040304888E+04  0.46999998093E+01 0. -1.
</event>
<event>
 5   0  0.1860500E-07  0.2670657E+04  0.7818609E-02  0.8344589E-01
        1   -1    0    0  501    0  0.00000000000E+00  0.00000000000E+00  0.29002969446E+04  0.29002969446E+04  0.50400001928E-02 0. -1.
       -1   -1    0    0    0  501  0.00000000000E+00  0.00000000000E+00 -0.61479991282E+03  0.61479991284E+03  0.50400001928E-02 0.  1.
    10030    2    1    2    0    0  0.00000000000E+00  0.00000000000E+00  0.22854970317E+04  0.35150968574E+04  0.26706570792E+04 0.  0.
        5    1    3    3  502    0 -0.10617509061E+03 -0.48559954895E+03 -0.48847997494E+03  0.69693245564E+03  0.46999998093E+01 0.  1.
       -5    1    3    3    0  502  0.10617509061E+03  0.48559954895E+03  0.27739770067E+04  0.28181644018E+04  0.46999998093E+01 0. -1.
</event>
<event>
 5   0  0.1860500E-07  0.3854019E+04  0.7818609E-02  0.8034661E-01
        1   -1    0    0  501    0  0.00000000000E+00  0.00000000000E+00  0.15573878060E+04  0.15573878060E+04  0.50400001928E-02 0. -1.
       -1   -1    0    0    0  501  0.00000000000E+00  0.00000000000E+00 -0.23843547935E+04  0.23843547935E+04  0.50400001928E-02 0.  1.
    10030    2    1    2    0    0  0.00000000000E+00  0.00000000000E+00 -0.82696698755E+03  0.39417425995E+04  0.38540187236E+04 0.  0.
        4    1    3    3  502    0 -0.53964545630E+03  0.11736517875E+04 -0.18759567607E+04  0.22776942547E+04  0.12699999809E+01 0.  1.
       -4    1    3    3    0  502  0.53964545630E+03 -0.11736517875E+04  0.10489897732E+04  0.16640483448E+04  0.12699999809E+01 0. -1.
</event>
<event>
 5   0  0.1876027E-07  0.4122644E+04  0.7818609E-02  0.7980252E-01
       -1   -1    0    0    0  501  0.00000000000E+00  0.00000000000E+00  0.27735029091E+04  0.27735029091E+04  0.50400001928E-02 0. -1.
        1   -1    0    0  501    0  0.00000000000E+00  0.00000000000E+00 -0.15320153124E+04  0.15320153124E+04  0.50400001928E-02 0.  1.
    10030    2    1    2    0    0  0.00000000000E+00  0.00000000000E+00  0.12414875966E+04  0.43055182215E+04  0.41226442611E+04 0.  0.
        3    1    3    3  502    0 -0.61917643197E+03 -0.14685589489E+04  0.19860218834E+04  0.25464343251E+04  0.10100000352E+00 0. -1.
       -3    1    3    3    0  502  0.61917643197E+03  0.14685589489E+04 -0.74453428681E+03  0.17590838964E+04  0.10100000352E+00 0.  1.
</event>
<event>
 5   0  0.1876027E-07  0.3875724E+04  0.7818609E-02  0.8030097E-01
        1   -1    0    0  501    0  0.00000000000E+00  0.00000000000E+00  0.24911092509E+04  0.24911092509E+04  0.50400001928E-02 0.  1.
       -1   -1    0    0    0  501  0.00000000000E+00  0.00000000000E+00 -0.15074848811E+04  0.15074848811E+04  0.50400001928E-02 0. -1.
    10030    2    1    2    0    0  0.00000000000E+00  0.00000000000E+00  0.98362436975E+03  0.39985941320E+04  0.38757242074E+04 0.  0.
        3    1    3    3  502    0 -0.81797247117E+03 -0.36807164902E+02 -0.13202508456E+04  0.15535430591E+04  0.10100000352E+00 0. -1.
       -3    1    3    3    0  502  0.81797247117E+03  0.36807164902E+02  0.23038752154E+04  0.24450510729E+04  0.10100000352E+00 0.  1.
</event>
<event>
 5   0  0.1860500E-07  0.3865738E+04  0.7818609E-02  0.8032193E-01
        1   -1    0    0  501    0  0.00000000000E+00  0.00000000000E+00  0.16556743663E+04  0.16556743663E+04  0.50400001928E-02 0. -1.
       -1   -1    0    0    0  501  0.00000000000E+00  0.00000000000E+00 -0.22564712849E+04  0.22564712849E+04  0.50400001928E-02 0.  1.
    10030    2    1    2    0    0  0.00000000000E+00  0.00000000000E+00 -0.60079691857E+03  0.39121456512E+04  0.38657375310E+04 0.  0.
        4    1    3    3  502    0  0.16937507030E+04  0.60373054195E+03 -0.10179221550E+04  0.20662645372E+04  0.12699999809E+01 0. -1.
       -4    1    3    3    0  502 -0.16937507030E+04 -0.60373054195E+03  0.41712523647E+03  0.18458811140E+04  0.12699999809E+01 0.  1.
</event>
<event>
 5   0  0.1876027E-07  0.3590456E+04  0.7818609E-02  0.8092681E-01
        1   -1    0    0  501    0  0.00000000000E+00  0.00000000000E+00  0.14890226634E+04  0.14890226634E+04  0.50400001928E-02 0. -1.
       -1   -1    0    0    0  501  0.00000000000E+00  0.00000000000E+00 -0.21644020885E+04  0.21644020885E+04  0.50400001928E-02 0.  1.
    10030    2    1    2    0    0  0.00000000000E+00  0.00000000000E+00 -0.67537942513E+03  0.36534247519E+04  0.35904561061E+04 0.  0.
        3    1    3    3  502    0 -0.10634267681E+04 -0.62740855329E+03  0.98836378262E+03  0.15815754679E+04  0.10100000352E+00 0. -1.
       -3    1    3    3    0  502  0.10634267681E+04  0.62740855329E+03 -0.16637432077E+04  0.20718492839E+04  0.10100000352E+00 0.  1.
</event>
<event>
 5   0  0.2666813E-07  0.3557519E+04  0.7818609E-02  0.8100292E-01
       -1   -1    0    0    0  501  0.00000000000E+00  0.00000000000E+00  0.20243338338E+04  0.20243338338E+04  0.50400001928E-02 0. -1.
        1   -1    0    0  501    0  0.00000000000E+00  0.00000000000E+00 -0.15629764999E+04  0.15629764999E+04  0.50400001928E-02 0.  1.
    10030    2    1    2    0    0  0.00000000000E+00  0.00000000000E+00  0.46135733383E+03  0.35873103337E+04  0.35575194786E+04 0.  0.
        1    1    3    3  502    0 -0.16323634693E+04  0.63519260727E+03  0.54295904760E+03  0.18338169679E+04  0.50400001928E-02 0. -1.
       -1    1    3    3    0  502  0.16323634693E+04 -0.63519260727E+03 -0.81601713765E+02  0.17534933658E+04  0.50400001928E-02 0.  1.
</event>
<event>
 5   0  0.1860500E-07  0.3608329E+04  0.7818609E-02  0.8088587E-01
        1   -1    0    0  501    0  0.00000000000E+00  0.00000000000E+00  0.14856706761E+04  0.14856706761E+04  0.50400001928E-02 0.  1.
       -1   -1    0    0    0  501  0.00000000000E+00  0.00000000000E+00 -0.21909360716E+04  0.21909360716E+04  0.50400001928E-02 0. -1.
    10030    2    1    2    0    0  0.00000000000E+00  0.00000000000E+00 -0.70526539545E+03  0.36766067477E+04  0.36083289622E+04 0.  0.
        5    1    3    3  502    0  0.12149468369E+04  0.34771149676E+03 -0.16646265025E+04  0.20899766947E+04  0.46999998093E+01 0. -1.
       -5    1    3    3    0  502 -0.12149468369E+04 -0.34771149676E+03  0.95936110705E+03  0.15866300530E+04  0.46999998093E+01 0.  1.
</event>
<event>
 5   0  0.5805753E-07  0.3819770E+04  0.7818609E-02  0.8041925E-01
       -2   -1    0    0    0  501  0.00000000000E+00  0.00000000000E+00  0.34238463542E+04  0.34238463542E+04  0.25500000920E-02 0. -1.
        2   -1    0    0  501    0  0.00000000000E+00  0.00000000000E+00 -0.10653694697E+04  0.10653694697E+04  0.25500000920E-02 0.  1.
    10030    2    1    2    0    0  0.00000000000E+00  0.00000000000E+00  0.23584768845E+04  0.44892158239E+04  0.38197703464E+04 0.  0.
        1    1    3    3  502    0 -0.58101130274E+03  0.14529286202E+04  0.24661785555E+04  0.29207212083E+04  0.50400001928E-02 0. -1.
       -1    1    3    3    0  502  0.58101130274E+03 -0.14529286202E+04 -0.10770167105E+03  0.15684946156E+04  0.50400001928E-02 0.  1.
</event>
<event>
 5   0  0.3959190E-07  0.3514340E+04  0.7818609E-02  0.8110400E-01
        2   -1    0    0  501    0  0.00000000000E+00  0.00000000000E+00  0.17095712452E+04  0.17095712452E+04  0.25500000920E-02 0.  1.
       -2   -1    0    0    0  501  0.00000000000E+00  0.00000000000E+00 -0.18060936772E+04  0.18060936772E+04  0.25500000920E-02 0. -1.
    10030    2    1    2    0    0  0.00000000000E+00  0.00000000000E+00 -0.96522432007E+02  0.35156649223E+04  0.35143396629E+04 0.  0.
        2    1    3    3  502    0 -0.13613230150E+04  0.17082798506E+03  0.10499976092E+04  0.17276798115E+04  0.25500000920E-02 0.  1.
       -2    1    3    3    0  502  0.13613230150E+04 -0.17082798506E+03 -0.11465200412E+04  0.17879851108E+04  0.25500000920E-02 0. -1.
</event>
<event>
 5   0  0.1860500E-07  0.3844526E+04  0.7818609E-02  0.8036667E-01
        1   -1    0    0  501    0  0.00000000000E+00  0.00000000000E+00  0.19081351665E+04  0.19081351665E+04  0.50400001928E-02 0. -1.
       -1   -1    0    0    0  501  0.00000000000E+00  0.00000000000E+00 -0.19364958302E+04  0.19364958302E+04  0.50400001928E-02 0.  1.
    10030    2    1    2    0    0  0.00000000000E+00  0.00000000000E+00 -0.28360663654E+02  0.38446309967E+04  0.38445263914E+04 0.  0.
        5    1    3    3  502    0 -0.64785981051E+03  0.15740528582E+04 -0.90735018080E+03  0.19289041384E+04  0.46999998093E+01 0.  1.
       -5    1    3    3    0  502  0.64785981051E+03 -0.15740528582E+04  0.87898951715E+03  0.19157268583E+04  0.46999998093E+01 0. -1.
</event>
<event>
 5   0  0.5805753E-07  0.3909963E+04  0.7818609E-02  0.8022960E-01
       -2   -1    0    0    0  501  0.00000000000E+00  0.00000000000E+00  0.25396811936E+04  0.25396811936E+04  0.25500000920E-02 0.  1.
        2   -1    0    0  501    0  0.00000000000E+00  0.00000000000E+00 -0.15048946161E+04  0.15048946161E+04  0.25500000920E-02 0. -1.
    10030    2    1    2    0    0  0.00000000000E+00  0.00000000000E+00  0.10347865776E+04  0.40445758097E+04  0.39099629435E+04 0.  0.
        1    1    3    3  502    0  0.15014872415E+04  0.36218674210E+03  0.17571153719E+04  0.23394652386E+04  0.50400001928E-02 0.  1.
       -1    1    3    3    0  502 -0.15014872415E+04 -0.36218674210E+03 -0.72232879434E+03  0.17051105711E+04  0.50400001928E-02 0. -1.
</event>
<event>
 5   0  0.5805753E-07  0.3914453E+04  0.7818609E-02  0.8022030E-01
        2   -1    0    0  501    0  0.00000000000E+00  0.00000000000E+00  0.16756413697E+04  0.16756413697E+04  0.25500000920E-02 0.  1.
       -2   -1    0    0    0  501  0.00000000000E+00  0.00000000000E+00 -0.22861305850E+04  0.22861305850E+04  0.25500000920E-02 0. -1.
    10030    2    1    2    0    0  0.00000000000E+00  0.00000000000E+00 -0.61048921531E+03  0.39617719547E+04  0.39144526998E+04 0.  0.
        1    1    3    3  502    0 -0.62975977122E+03  0.39156901101E+03 -0.21384412426E+04  0.22633723971E+04  0.50400001928E-02 0. -1.
       -1    1    3    3    0  502  0.62975977122E+03 -0.39156901101E+03  0.15279520273E+04  0.16983995577E+04  0.50400001928E-02 0.  1.
</event>
<event>
 5   0  0.3959190E-07  0.3999059E+04  0.7818609E-02  0.8004736E-01
        2   -1    0    0  501    0  0.00000000000E+00  0.00000000000E+00  0.19431208993E+04  0.19431208993E+04  0.25500000920E-02 0.  1.
       -2   -1    0    0    0  501  0.00000000000E+00  0.00000000000E+00 -0.20575752601E+04  0.20575752601E+04  0.25500000920E-02 0. -1.
    10030    2    1    2    0    0  0.00000000000E+00  0.00000000000E+00 -0.11445436084E+03  0.40006961594E+04  0.39990586341E+04 0.  0.
        2    1    3    3  502    0 -0.14083451761E+04 -0.14171739833E+04  0.22173170306E+02  0.19980765459E+04  0.25500000920E-02 0.  1.
       -2    1    3    3    0  502  0.14083451761E+04  0.14171739833E+04 -0.13662753114E+03  0.20026196134E+04  0.25500000920E-02 0. -1.
</event>
<event>
 5   0  0.3959190E-07  0.3855850E+04  0.7818609E-02  0.8034275E-01
        2   -1    0    0  501    0  0.00000000000E+00  0.00000000000E+00  0.21826763052E+04  0.21826763052E+04  0.25500000920E-02 0. -1.
       -2   -1    0    0    0  501  0.00000000000E+00  0.00000000000E+00 -0.17029071003E+04  0.17029071003E+04  0.25500000920E-02 0.  1.
    10030    2    1    2    0    0  0.00000000000E+00  0.00000000000E+00  0.47976920492E+03  0.38855834056E+04  0.38558500894E+04 0.  0.
        2    1    3    3  502    0  0.76006117994E+03  0.12000834987E+04  0.15533934000E+04  0.21049761178E+04  0.25500000920E-02 0.  1.
       -2    1    3    3    0  502 -0.76006117994E+03 -0.12000834987E+04 -0.10736241951E+04  0.17806072878E+04  0.25500000920E-02 0. -1.
</event>
<event>
 5   0  0.1860500E-07  0.3884995E+04  0.7818609E-02  0.8028157E-01
        1   -1    0    0  501    0  0.00000000000E+00  0.00000000000E+00  0.19693793779E+04  0.19693793779E+04  0.50400001928E-02 0. -1.
       -1   -1    0    0    0  501  0.00000000000E+00  0.00000000000E+00 -0.19159826450E+04  0.19159826450E+04  0.50400001928E-02 0.  1.
    10030    2    1    2    0    0  0.00000000000E+00  0.00000000000E+00  0.53396732867E+02  0.38853620230E+04  0.38849950886E+04 0.  0.
        5    1    3    3  502    0 -0.94186186068E+03 -0.29762522210E+03 -0.16460594065E+04  0.19196922142E+04  0.46999998093E+01 0.  1.
       -5    1    3    3    0  502  0.94186186068E+03  0.29762522210E+03  0.16994561394E+04  0.19656698088E+04  0.46999998093E+01 0. -1.
</event>
<event>
 5   0  0.3959190E-07  0.2910191E+04  0.7818609E-02  0.8269852E-01
        2   -1    0    0  501    0  0.00000000000E+00  0.00000000000E+00  0.12961114764E+04  0.12961114764E+04  0.25500000920E-02 0.  1.
       -2   -1    0    0    0  501  0.00000000000E+00  0.00000000000E+00 -0.16335806328E+04  0.16335806328E+04  0.25500000920E-02 0. -1.
    10030    2    1    2    0    0  0.00000000000E+00  0.00000000000E+00 -0.33746915644E+03  0.29296921092E+04  0.29101907881E+04 0.  0.
        2    1    3    3  502    0 -0.10828952897E+04 -0.29815118139E+03  0.76252987746E+03  0.13575743624E+04  0.25500000920E-02 0. -1.
       -2    1    3    3    0  502  0.10828952897E+04  0.29815118139E+03 -0.10999990339E+04  0.15721177468E+04  0.25500000920E-02 0.  1.
</event>
<event>
 5   0  0.1860500E-07  0.2856758E+04  0.7818609E-02  0.8285861E-01
       -1   -1    0    0    0  501  0.00000000000E+00  0.00000000000E+00  0.11873910060E+04  0.11873910060E+04  0.50400001928E-02 0. -1.
        1   -1    0    0  501    0  0.00000000000E+00  0.00000000000E+00 -0.17182765823E+04  0.17182765824E+04  0.50400001928E-02 0.  1.
    10030    2    1    2    0    0  0.00000000000E+00  0.00000000000E+00 -0.53088557631E+03  0.29056675884E+04  0.28567577145E+04 0.  0.
        5    1    3    3  502    0  0.65003151800E+03 -0.89885084739E+03 -0.11807216419E+04  0.16200615747E+04  0.46999998093E+01 0.  1.
       -5    1    3    3    0  502 -0.65003151800E+03  0.89885084739E+03  0.64983606559E+03  0.12856060137E+04  0.46999998093E+01 0. -1.
</event>
<event>
 5   0  0.1943459E-07  0.3154646E+04  0.7818609E-02  0.8200899E-01
       -1   -1    0    0    0  501  0.00000000000E+00  0.00000000000E+00  0.12249314830E+04  0.12249314830E+04  0.50400001928E-02 0.  1.
        1   -1    0    0  501    0  0.00000000000E+00  0.00000000000E+00 -0.20310909078E+04  0.20310909078E+04  0.50400001928E-02 0. -1.
    10030    2    1    2    0    0  0.00000000000E+00  0.00000000000E+00 -0.80615942483E+03  0.32560223909E+04  0.31546455889E+04 0.  0.
        2    1    3    3  502    0  0.26977516664E+03 -0.13906869265E+04  0.31286726023E+03  0.14507496995E+04  0.25500000920E-02 0.  1.
       -2    1    3    3    0  502 -0.26977516664E+03  0.13906869265E+04 -0.11190266851E+04  0.18052726913E+04  0.25500000920E-02 0. -1.
</event>
<event>
 5   0  0.5735179E-07  0.3879780E+04  0.7818609E-02  0.8029248E-01
        2   -1    0    0  501    0  0.00000000000E+00  0.00000000000E+00  0.17790071299E+04  0.17790071299E+04  0.25500000920E-02 0. -1.
       -2   -1    0    0    0  501  0.00000000000E+00  0.00000000000E+00 -0.21153219357E+04  0.21153219357E+04  0.25500000920E-02 0.  1.
    10030    2    1    2    0    0  0.00000000000E+00  0.00000000000E+00 -0.33631480588E+03  0.38943290656E+04  0.38797797905E+04 0.  0.
        5    1    3    3  502    0 -0.26004995179E+03  0.45672529092E+03 -0.20424913952E+04  0.21090322800E+04  0.46999998093E+01 0.  1.
       -5    1    3    3    0  502  0.26004995179E+03 -0.45672529092E+03  0.17061765893E+04  0.17852967856E+04  0.46999998093E+01 0. -1.
</event>
<event>
 5   0  0.1943459E-07  0.3897829E+04  0.7818609E-02  0.8025481E-01
        1   -1    0    0  501    0  0.00000000000E+00  0.00000000000E+00  0.17995002771E+04  0.17995002771E+04  0.50400001928E-02 0. -1.
       -1   -1    0    0    0  501  0.00000000000E+00  0.00000000000E+00 -0.21107349762E+04  0.21107349763E+04  0.50400001928E-02 0.  1.
    10030    2    1    2    0    0  0.00000000000E+00  0.00000000000E+00 -0.31123469913E+03  0.39102352534E+04  0.38978292290E+04 0.  0.
        2    1    3    3  502    0 -0.59739244016E+03  0.14031241658E+04  0.10617659687E+04  0.18582201496E+04  0.25500000920E-02 0. -1.
       -2    1    3    3    0  502  0.59739244016E+03 -0.14031241658E+04 -0.13730006678E+04  0.20520151038E+04  0.25500000920E-02 0.  1.
</event>
<event>
 5   0  0.5805753E-07  0.3575672E+04  0.7818609E-02  0.8096087E-01
       -2   -1    0    0    0  501  0.00000000000E+00  0.00000000000E+00  0.16163778916E+04  0.16163778916E+04  0.25500000920E-02 0.  1.
        2   -1    0    0  501    0  0.00000000000E+00  0.00000000000E+00 -0.19774819397E+04  0.19774819397E+04  0.25500000920E-02 0. -1.
    10030    2    1    2    0    0  0.00000000000E+00  0.00000000000E+00 -0.36110404803E+03  0.35938598313E+04  0.35756722939E+04 0.  0.
        1    1    3    3  502    0 -0.16468762001E+04  0.67406515578E+03 -0.35403657394E+03  0.18143613059E+04  0.50400001928E-02 0.  1.
       -1    1    3    3    0  502  0.16468762001E+04 -0.67406515578E+03 -0.70674740951E+01  0.17794985254E+04  0.50400001928E-02 0. -1.
</event>
<event>
 5   0  0.3959190E-07  0.4023566E+04  0.7818609E-02  0.7999809E-01
       -2   -1    0    0    0  501  0.00000000000E+00  0.00000000000E+00  0.19162575485E+04  0.19162575485E+04  0.25500000920E-02 0.  1.
        2   -1    0    0  501    0  0.00000000000E+00  0.00000000000E+00 -0.21120707357E+04  0.21120707357E+04  0.25500000920E-02 0. -1.
    10030    2    1    2    0    0  0.00000000000E+00  0.00000000000E+00 -0.19581318718E+03  0.40283282843E+04  0.40235663237E+04 0.  0.
        2    1    3    3  502    0  0.80757937350E+03  0.44382451208E+03 -0.18883482592E+04  0.21011958000E+04  0.25500000920E-02 0. -1.
       -2    1    3    3    0  502 -0.80757937350E+03 -0.44382451208E+03  0.16925350720E+04  0.19271324843E+04  0.25500000920E-02 0.  1.
</event>
<event>
 5   0  0.1876027E-07  0.3959986E+04  0.7818609E-02  0.8012668E-01
       -1   -1    0    0    0  501  0.00000000000E+00  0.00000000000E+00  0.28948454961E+04  0.28948454961E+04  0.50400001928E-02 0. -1.
        1   -1    0    0  501    0  0.00000000000E+00  0.00000000000E+00 -0.13542593380E+04  0.13542593380E+04  0.50400001928E-02 0.  1.
    10030    2    1    2    0    0  0.00000000000E+00  0.00000000000E+00  0.15405861581E+04  0.42491048342E+04  0.39599856289E+04 0.  0.
        3    1    3    3  502    0 -0.63440463228E+03  0.18247246100E+04  0.12358884925E+04  0.22933620552E+04  0.10100000352E+00 0. -1.
       -3    1    3    3    0  502  0.63440463228E+03 -0.18247246100E+04  0.30469766560E+03  0.19557427790E+04  0.10100000352E+00 0.  1.
</event>
<event>
 5   0  0.5872444E-07  0.3887679E+04  0.7818609E-02  0.8027597E-01
       -2   -1    0    0    0  501  0.00000000000E+00  0.00000000000E+00  0.15624067023E+04  0.15624067023E+04  0.25500000920E-02 0. -1.
        2   -1    0    0  501    0  0.00000000000E+00  0.00000000000E+00 -0.24183919132E+04  0.24183919132E+04  0.25500000920E-02 0.  1.
    10030    2    1    2    0    0  0.00000000000E+00  0.00000000000E+00 -0.85598521097E+03  0.39807986155E+04  0.38876788622E+04 0.  0.
        3    1    3    3  502    0 -0.15147719063E+04  0.12087461226E+04 -0.27300458973E+03  0.19570724650E+04  0.10100000352E+00 0.  1.
       -3    1    3    3    0  502  0.15147719063E+04 -0.12087461226E+04 -0.58298062123E+03  0.20237261505E+04  0.10100000352E+00 0. -1.
</event>
<event>
 5   0  0.1876027E-07  0.3835808E+04  0.7818609E-02  0.8038514E-01
        1   -1    0    0  501    0  0.00000000000E+00  0.00000000000E+00  0.16006020759E+04  0.16006020759E+04  0.50400001928E-02 0.  1.
       -1   -1    0    0    0  501  0.00000000000E+00  0.00000000000E+00 -0.22981069878E+04  0.22981069878E+04  0.50400001928E-02 0. -1.
    10030    2    1    2    0    0  0.00000000000E+00  0.00000000000E+00 -0.69750491193E+03  0.38987090637E+04  0.38358075109E+04 0.  0.
        3    1    3    3  502    0 -0.38514160695E+03 -0.16900318784E+04 -0.11830744925E+04  0.20986202783E+04  0.10100000352E+00 0. -1.
       -3    1    3    3    0  502  0.38514160695E+03  0.16900318784E+04  0.48556958062E+03  0.18000887854E+04  0.10100000352E+00 0.  1.
</event>
<event>
 5   0  0.1943459E-07  0.3933404E+04  0.7818609E-02  0.8018118E-01
        1   -1    0    0  501    0  0.00000000000E+00  0.00000000000E+00  0.20742716304E+04  0.20742716304E+04  0.50400001928E-02 0. -1.
       -1   -1    0    0    0  501  0.00000000000E+00  0.00000000000E+00 -0.18647104533E+04  0.18647104533E+04  0.50400001928E-02 0.  1.
    10030    2    1    2    0    0  0.00000000000E+00  0.00000000000E+00  0.20956117713E+03  0.39389820836E+04  0.39334036112E+04 0.  0.
        2    1    3    3  502    0 -0.11792495541E+04 -0.24266474785E+03 -0.14525456018E+04  0.18866383904E+04  0.25500000920E-02 0.  1.
       -2    1    3    3    0  502  0.11792495541E+04  0.24266474785E+03  0.16621067789E+04  0.20523436933E+04  0.25500000920E-02 0. -1.
</event>
<event>
 5   0  0.3959190E-07  0.3879121E+04  0.7818609E-02  0.8029386E-01
       -2   -1    0    0    0  501  0.00000000000E+00  0.00000000000E+00  0.19240581680E+04  0.19240581680E+04  0.25500000920E-02 0. -1.
        2   -1    0    0  501    0  0.00000000000E+00  0.00000000000E+00 -0.19551875706E+04  0.19551875706E+04  0.25500000920E-02 0.  1.
    10030    2    1    2    0    0  0.00000000000E+00  0.00000000000E+00 -0.31129402608E+02  0.38792457386E+04  0.38791208361E+04 0.  0.
        2    1    3    3  502    0  0.12801547249E+04  0.40952678726E+03  0.13828316051E+04  0.19284012957E+04  0.25500000920E-02 0. -1.
       -2    1    3    3    0  502 -0.12801547249E+04 -0.40952678726E+03 -0.14139610077E+04  0.19508444429E+04  0.25500000920E-02 0.  1.
</event>
<event>
 5   0  0.1860500E-07  0.3896228E+04  0.7818609E-02  0.8025814E-01
       -1   -1    0    0    0  501  0.00000000000E+00  0.00000000000E+00  0.14747218660E+04  0.14747218660E+04  0.50400001928E-02 0. -1.
        1   -1    0    0  501    0  0.00000000000E+00  0.00000000000E+00 -0.25734665417E+04  0.25734665417E+04  0.50400001928E-02 0.  1.
    10030    2    1    2    0    0  0.00000000000E+00  0.00000000000E+00 -0.10987446757E+04  0.40481884078E+04  0.38962276015E+04 0.  0.
        5    1    3    3  502    0 -0.13261890572E+04  0.13881092020E+04 -0.20555728873E+03  0.19307771651E+04  0.46999998093E+01 0.  1.
       -5    1    3    3    0  502  0.13261890572E+04 -0.13881092020E+04 -0.89318738697E+03  0.21174112427E+04  0.46999998093E+01 0. -1.
</event>
<event>
 5   0  0.1860500E-07  0.3894353E+04  0.7818609E-02  0.8026205E-01
       -1   -1    0    0    0  501  0.00000000000E+00  0.00000000000E+00  0.12716977560E+04  0.12716977560E+04  0.50400001928E-02 0.  1.
        1   -1    0    0  501    0  0.00000000000E+00  0.00000000000E+00 -0.29814444008E+04  0.29814444008E+04  0.50400001928E-02 0. -1.
    10030    2    1    2    0    0  0.00000000000E+00  0.00000000000E+00 -0.17097466448E+04  0.42531421568E+04  0.38943529137E+04 0.  0.
        4    1    3    3  502    0  0.87257499544E+03 -0.10531676731E+04  0.65879976386E+03  0.15180803708E+04  0.12699999809E+01 0.  1.
       -4    1    3    3    0  502 -0.87257499544E+03  0.10531676731E+04 -0.23685464087E+04  0.27350617860E+04  0.12699999809E+01 0. -1.
</event>
<event>
 5   0  0.6095665E-07  0.3814814E+04  0.7818609E-02  0.8042983E-01
        2   -1    0    0  501    0  0.00000000000E+00  0.00000000000E+00  0.26185871982E+04  0.26185871982E+04  0.25500000920E-02 0.  1.
       -2   -1    0    0    0  501  0.00000000000E+00  0.00000000000E+00 -0.13893760339E+04  0.13893760339E+04  0.25500000920E-02 0. -1.
    10030    2    1    2    0    0  0.00000000000E+00  0.00000000000E+00  0.12292111643E+04  0.40079632321E+04  0.38148144363E+04 0.  0.
        4    1    3    3  502    0  0.13597717397E+04 -0.17103614976E+03  0.20084128143E+04  0.24314514583E+04  0.12699999809E+01 0.  1.
       -4    1    3    3    0  502 -0.13597717397E+04  0.17103614976E+03 -0.77920164996E+03  0.15765117737E+04  0.12699999809E+01 0. -1.
</event>
<event>
 5   0  0.1860500E-07  0.3921099E+04  0.7818609E-02  0.8020655E-01
       -1   -1    0    0    0  501  0.00000000000E+00  0.00000000000E+00  0.14607668648E+04  0.14607668648E+04  0.50400001928E-02 0.  1.
        1   -1    0    0  501    0  0.00000000000E+00  0.00000000000E+00 -0.26313256844E+04  0.26313256844E+04  0.50400001928E-02 0. -1.
    10030    2    1    2    0    0  0.00000000000E+00  0.00000000000E+00 -0.11705588196E+04  0.40920925492E+04  0.39210985044E+04 0.  0.
        4    1    3    3  502    0 -0.16069734369E+04 -0.39299998683E+03  0.51271357888E+03  0.17319611552E+04  0.12699999809E+01 0.  1.
       -4    1    3    3    0  502  0.16069734369E+04  0.39299998683E+03 -0.16832723985E+04  0.23601313940E+04  0.12699999809E+01 0. -1.
</event>
<event>
 5   0  0.6095665E-07  0.3898584E+04  0.7818609E-02  0.8025324E-01
       -2   -1    0    0    0  501  0.00000000000E+00  0.00000000000E+00  0.32581851507E+04  0.32581851507E+04  0.25500000920E-02 0. -1.
        2   -1    0    0  501    0  0.00000000000E+00  0.00000000000E+00 -0.11662133809E+04  0.11662133809E+04  0.25500000920E-02 0.  1.
    10030    2    1    2    0    0  0.00000000000E+00  0.00000000000E+00  0.20919717698E+04  0.44243985315E+04  0.38985839071E+04 0.  0.
        4    1    3    3  502    0  0.14464933556E+02  0.21163503354E+03 -0.11530748493E+04  0.11724256235E+04  0.12699999809E+01 0.  1.
       -4    1    3    3    0  502 -0.14464933556E+02 -0.21163503354E+03  0.32450466191E+04  0.32519729080E+04  0.12699999809E+01 0. -1.
</event>
<event>
 5   0  0.5872444E-07  0.3922045E+04  0.7818609E-02  0.8020460E-01
        2   -1    0    0  501    0  0.00000000000E+00  0.00000000000E+00  0.24246675271E+04  0.24246675271E+04  0.25500000920E-02 0.  1.
       -2   -1    0    0    0  501  0.00000000000E+00  0.00000000000E+00 -0.15860359623E+04  0.15860359623E+04  0.25500000920E-02 0. -1.
    10030    2    1    2    0    0  0.00000000000E+00  0.00000000000E+00  0.83863156483E+03  0.40107034894E+04  0.39220453310E+04 0.  0.
        3    1    3    3  502    0  0.84894090386E+03 -0.14988850498E+04 -0.53902004979E+03  0.18049652836E+04  0.10100000352E+00 0. -1.
       -3    1    3    3    0  502 -0.84894090386E+03  0.14988850498E+04  0.13776516146E+04  0.22057382057E+04  0.10100000352E+00 0.  1.
</event>
<event>
 5   0  0.1860500E-07  0.2396045E+04  0.7818609E-02  0.8440986E-01
       -1   -1    0    0    0  501  0.00000000000E+00  0.00000000000E+00  0.69926261222E+03  0.69926261224E+03  0.50400001928E-02 0. -1.
        1   -1    0    0  501    0  0.00000000000E+00  0.00000000000E+00 -0.20525300437E+04  0.20525300437E+04  0.50400001928E-02 0.  1.
    10030    2    1    2    0    0  0.00000000000E+00  0.00000000000E+00 -0.13532674315E+04  0.27517926560E+04  0.23960446741E+04 0.  0.
        4    1    3    3  502    0 -0.18932649106E+03  0.11829666425E+04 -0.67794799176E+03  0.13765426583E+04  0.12699999809E+01 0.  1.
       -4    1    3    3    0  502  0.18932649106E+03 -0.11829666425E+04 -0.67531943974E+03  0.13752499977E+04  0.12699999809E+01 0. -1.
</event>
<event>
 5   0  0.5735179E-07  0.2439980E+04  0.7818609E-02  0.8424685E-01
        2   -1    0    0  501    0  0.00000000000E+00  0.00000000000E+00  0.21202689035E+04  0.21202689035E+04  0.25500000920E-02 0.  1.
       -2   -1    0    0    0  501  0.00000000000E+00  0.00000000000E+00 -0.70197518819E+03  0.70197518819E+03  0.25500000920E-02 0. -1.
    10030    2    1    2    0    0  0.00000000000E+00  0.00000000000E+00  0.14182937153E+04  0.28222440917E+04  0.24399804611E+04 0.  0.
        5    1    3    3  502    0  0.70506853894E+03 -0.63399704472E+03  0.15970572503E+04  0.18573335317E+04  0.46999998093E+01 0.  1.
       -5    1    3    3    0  502 -0.70506853894E+03  0.63399704472E+03 -0.17876353498E+03  0.96491055998E+03  0.46999998093E+01 0. -1.
</event>
<event>
 5   0  0.5735179E-07  0.3765695E+04  0.7818609E-02  0.8053557E-01
        2   -1    0    0  501    0  0.00000000000E+00  0.00000000000E+00  0.18744091835E+04  0.18744091835E+04  0.25500000920E-02 0. -1.
       -2   -1    0    0    0  501  0.00000000000E+00  0.00000000000E+00 -0.18913242347E+04  0.18913242347E+04  0.25500000920E-02 0.  1.
    10030    2    1    2    0    0  0.00000000000E+00  0.00000000000E+00 -0.16915051212E+02  0.37657334182E+04  0.37656954282E+04 0.  0.
        5    1    3    3  502    0 -0.50396073266E+03  0.37446303659E+03  0.17666362787E+04  0.18748932815E+04  0.46999998093E+01 0. -1.
       -5    1    3    3    0  502  0.50396073266E+03 -0.37446303659E+03 -0.17835513299E+04  0.18908401366E+04  0.46999998093E+01 0.  1.
</event>
<event>
 5   0  0.3959190E-07  0.3892728E+04  0.7818609E-02  0.8026543E-01
       -2   -1    0    0    0  501  0.00000000000E+00  0.00000000000E+00  0.27028678483E+04  0.27028678483E+04  0.25500000920E-02 0. -1.
        2   -1    0    0  501    0  0.00000000000E+00  0.00000000000E+00 -0.14015973808E+04  0.14015973808E+04  0.25500000920E-02 0.  1.
    10030    2    1    2    0    0  0.00000000000E+00  0.00000000000E+00  0.13012704674E+04  0.41044652291E+04  0.38927278337E+04 0.  0.
        2    1    3    3  502    0  0.91802876450E+03  0.14045459140E+04 -0.38932267837E+03  0.17225266863E+04  0.25500000920E-02 0.  1.
       -2    1    3    3    0  502 -0.91802876450E+03 -0.14045459140E+04  0.16905931458E+04  0.23819385428E+04  0.25500000920E-02 0. -1.
</event>
<event>
 5   0  0.1860500E-07  0.3969544E+04  0.7818609E-02  0.8010719E-01
       -1   -1    0    0    0  501  0.00000000000E+00  0.00000000000E+00  0.21344747286E+04  0.21344747286E+04  0.50400001928E-02 0. -1.
        1   -1    0    0  501    0  0.00000000000E+00  0.00000000000E+00 -0.18455692048E+04  0.18455692048E+04  0.50400001928E-02 0.  1.
    10030    2    1    2    0    0  0.00000000000E+00  0.00000000000E+00  0.28890552384E+03  0.39800439334E+04  0.39695444714E+04 0.  0.
        5    1    3    3  502    0 -0.13035120576E+04 -0.21094893132E+03 -0.13412410152E+04  0.18821776448E+04  0.46999998093E+01 0.  1.
       -5    1    3    3    0  502  0.13035120576E+04  0.21094893132E+03  0.16301465390E+04  0.20978662885E+04  0.46999998093E+01 0. -1.
</event>
</LesHouchesEvents>
