<LesHouchesEvents version="3.0">
<header>
<!--
#*********************************************************************
#                                                                    *
#                        MadGraph5_aMC@NLO                           *
#                                                                    *
#                           Going Beyond                             *
#                                                                    *
#                   http://madgraph.hep.uiuc.edu                     *
#                   http://madgraph.phys.ucl.ac.be                   *
#                   http://amcatnlo.cern.ch                          *
#                                                                    *
#                     The MadGraph5_aMC@NLO team                     *
#                                                                    *
#....................................................................*
#                                                                    *
# This file contains all the information necessary to reproduce      *
# the events generated:                                              *
#                                                                    *
# 1. software version                                                *
# 2. proc_card          : code generation info including model       *
# 3. param_card         : model primary parameters in the LH format  *
# 4. run_card           : running parameters (collider and cuts)     *
# 5. pythia_card        : present only if pythia has been run        *
# 6. pgs_card           : present only if pgs has been run           *
# 7. delphes_cards      : present only if delphes has been run       *
#                                                                    *
#                                                                    *
#*********************************************************************
-->
<MGVersion>
#5.2.2.3
</MGVersion>
<MG5ProcCard>
#************************************************************
#*                     MadGraph5_aMC@NLO                    *
#*                                                          *
#*                *                       *                 *
#*                  *        * *        *                   *
#*                    * * * * 5 * * * *                     *
#*                  *        * *        *                   *
#*                *                       *                 *
#*                                                          *
#*                                                          *
#*         VERSION 2.2.3                 2015-02-10         *
#*                                                          *
#*    The MadGraph5_aMC@NLO Development Team - Find us at   *
#*    https://server06.fynu.ucl.ac.be/projects/madgraph     *
#*                                                          *
#************************************************************
#*                                                          *
#*               Command File for MadGraph5_aMC@NLO         *
#*                                                          *
#*     run as ./bin/mg5_aMC  filename                       *
#*                                                          *
#************************************************************
set group_subprocesses Auto
set ignore_six_quark_processes False
set loop_optimized_output True
set gauge unitary
set complex_mass_scheme False
import model sm
define p = g u c d s u~ c~ d~ s~
define j = g u c d s u~ c~ d~ s~
define l+ = e+ mu+
define l- = e- mu-
define vl = ve vm vt
define vl~ = ve~ vm~ vt~
import model Zprime_UFO
generate p p > zph, zph > j j
add process p p > zph, zph > b b~
output Dijet_signal
</MG5ProcCard>
<MGProcCard>
#*********************************************************************
#                        MadGraph/MadEvent                           *
#                   http://madgraph.hep.uiuc.edu                     *
#                                                                    *
#                          proc_card.dat                             *
#*********************************************************************
#                                                                    *
#            This Files is generated by MADGRAPH 5                   *
#                                                                    *
# WARNING: This Files is generated for MADEVENT (compatibility issue)*
#          This files is NOT a valid MG4 proc_card.dat               *
#          Running this in MG4 will NEVER reproduce the result of MG5*
#                                                                    *
#*********************************************************************
#*********************************************************************
# Process(es) requested : mg2 input                                  *
#*********************************************************************
# Begin PROCESS # This is TAG. Do not modify this line
p p > zph , zph > j j           #Process
# Be carefull the coupling are here in MG5 convention
          
end_coup           # End the couplings input

done               # this tells MG there are no more procs
# End PROCESS  # This is TAG. Do not modify this line
#*********************************************************************
# Model information                                                  *
#*********************************************************************
# Begin MODEL  # This is TAG. Do not modify this line
Zprime_UFO
# End   MODEL  # This is TAG. Do not modify this line
#*********************************************************************
# Start multiparticle definitions                                    *
#*********************************************************************
# Begin MULTIPARTICLES # This is TAG. Do not modify this line

# End  MULTIPARTICLES # This is TAG. Do not modify this line
</MGProcCard>
<MGRunCard>
#*********************************************************************
#                       MadGraph5_aMC@NLO                            *
#                                                                    *
#                     run_card.dat MadEvent                          *
#                                                                    *
#  This file is used to set the parameters of the run.               *
#                                                                    *
#  Some notation/conventions:                                        *
#                                                                    *
#   Lines starting with a '# ' are info or comments                  *
#                                                                    *
#   mind the format:   value    = variable     ! comment             *
#*********************************************************************
#
#*******************                                                 
# Running parameters
#*******************                                                 
#                                                                    
#*********************************************************************
# Tag name for the run (one word)                                    *
#*********************************************************************
  tag_1     = run_tag ! name of the run 
#*********************************************************************
# Run to generate the grid pack                                      *
#*********************************************************************
  .false.     = gridpack  !True = setting up the grid pack
#*********************************************************************
# Number of events and rnd seed                                      *
# Warning: Do not generate more than 1M events in a single run       *
# If you want to run Pythia, avoid more than 50k events in a run.    *
#*********************************************************************
  2000 = nevents ! Number of unweighted events requested 
 1623 = iseed   ! rnd seed (0=assigned automatically=default))
#*********************************************************************
# Collider type and energy                                           *
# lpp: 0=No PDF, 1=proton, -1=antiproton, 2=photon from proton,      *
#                                         3=photon from electron     *
#*********************************************************************
        1     = lpp1    ! beam 1 type 
        1     = lpp2    ! beam 2 type
     4000     = ebeam1  ! beam 1 total energy in GeV
     4000     = ebeam2  ! beam 2 total energy in GeV
#*********************************************************************
# Beam polarization from -100 (left-handed) to 100 (right-handed)    *
#*********************************************************************
        0     = polbeam1 ! beam polarization for beam 1
        0     = polbeam2 ! beam polarization for beam 2
#*********************************************************************
# PDF CHOICE: this automatically fixes also alpha_s and its evol.    *
#*********************************************************************
 'nn23lo1'    = pdlabel     ! PDF set                                     
 230000    = lhaid     ! if pdlabel=lhapdf, this is the lhapdf number
#*********************************************************************
# Renormalization and factorization scales                           *
#*********************************************************************
 F        = fixed_ren_scale  ! if .true. use fixed ren scale
 F        = fixed_fac_scale  ! if .true. use fixed fac scale
 91.1880  = scale            ! fixed ren scale
 91.1880  = dsqrt_q2fact1    ! fixed fact scale for pdf1
 91.1880  = dsqrt_q2fact2    ! fixed fact scale for pdf2
 1        = scalefact        ! scale factor for event-by-event scales
#*********************************************************************
# Matching - Warning! ickkw > 1 is still beta
#*********************************************************************
 0        = ickkw            ! 0 no matching, 1 MLM, 2 CKKW matching
 1        = highestmult      ! for ickkw=2, highest mult group
 1        = ktscheme         ! for ickkw=1, 1 Durham kT, 2 Pythia pTE
 1        = alpsfact         ! scale factor for QCD emission vx
 F        = chcluster        ! cluster only according to channel diag
 T        = pdfwgt           ! for ickkw=1, perform pdf reweighting
 5        = asrwgtflavor     ! highest quark flavor for a_s reweight
 T        = clusinfo         ! include clustering tag in output
 3.0      = lhe_version       ! Change the way clustering information pass to shower.        
#*********************************************************************
#**********************************************************
#
#**********************************************************
# Automatic ptj and mjj cuts if xqcut > 0
# (turn off for VBF and single top processes)
#**********************************************************
   T  = auto_ptj_mjj  ! Automatic setting of ptj and mjj
#**********************************************************
#                                                                    
#**********************************
# BW cutoff (M+/-bwcutoff*Gamma)
#**********************************
  15  = bwcutoff      ! (M+/-bwcutoff*Gamma)
#**********************************************************
# Apply pt/E/eta/dr/mij cuts on decay products or not
# (note that etmiss/ptll/ptheavy/ht/sorted cuts always apply)
#**********************************************************
   T  = cut_decays    ! Cut decay products 
#*************************************************************
# Number of helicities to sum per event (0 = all helicities)
# 0 gives more stable result, but longer run time (needed for
# long decay chains e.g.).
# Use >=2 if most helicities contribute, e.g. pure QCD.
#*************************************************************
   0  = nhel          ! Number of helicities used per event
#*******************                                                 
# Standard Cuts
#*******************                                                 
#                                                                    
#*********************************************************************
# Minimum and maximum pt's (for max, -1 means no cut)                *
#*********************************************************************
 20  = ptj       ! minimum pt for the jets 
  0  = ptb       ! minimum pt for the b 
 10  = pta       ! minimum pt for the photons 
 10  = ptl       ! minimum pt for the charged leptons 
  0  = misset    ! minimum missing Et (sum of neutrino's momenta)
  0  = ptheavy   ! minimum pt for one heavy final state
 1.0 = ptonium   ! minimum pt for the quarkonium states
 -1  = ptjmax    ! maximum pt for the jets
 -1  = ptbmax    ! maximum pt for the b
 -1  = ptamax    ! maximum pt for the photons
 -1  = ptlmax    ! maximum pt for the charged leptons
 -1  = missetmax ! maximum missing Et (sum of neutrino's momenta)
#*********************************************************************
# Minimum and maximum E's (in the center of mass frame)              *
#*********************************************************************
  0  = ej     ! minimum E for the jets 
  0  = eb     ! minimum E for the b 
  0  = ea     ! minimum E for the photons 
  0  = el     ! minimum E for the charged leptons 
 -1   = ejmax ! maximum E for the jets
 -1   = ebmax ! maximum E for the b
 -1   = eamax ! maximum E for the photons
 -1   = elmax ! maximum E for the charged leptons
#*********************************************************************
# Maximum and minimum absolute rapidity (for max, -1 means no cut)   *
#*********************************************************************
   5  = etaj    ! max rap for the jets 
  -1  = etab    ! max rap for the b
 2.5  = etaa    ! max rap for the photons 
 2.5  = etal    ! max rap for the charged leptons 
 0.6  = etaonium ! max rap for the quarkonium states
   0  = etajmin ! min rap for the jets
   0  = etabmin ! min rap for the b
   0  = etaamin ! min rap for the photons
   0  = etalmin ! main rap for the charged leptons
#*********************************************************************
# Minimum and maximum DeltaR distance                                *
#*********************************************************************
 0.4 = drjj    ! min distance between jets 
 0   = drbb    ! min distance between b's 
 0.4 = drll    ! min distance between leptons 
 0.4 = draa    ! min distance between gammas 
 0   = drbj    ! min distance between b and jet 
 0.4 = draj    ! min distance between gamma and jet 
 0.4 = drjl    ! min distance between jet and lepton 
 0   = drab    ! min distance between gamma and b 
 0   = drbl    ! min distance between b and lepton 
 0.4 = dral    ! min distance between gamma and lepton 
 -1  = drjjmax ! max distance between jets
 -1  = drbbmax ! max distance between b's
 -1  = drllmax ! max distance between leptons
 -1  = draamax ! max distance between gammas
 -1  = drbjmax ! max distance between b and jet
 -1  = drajmax ! max distance between gamma and jet
 -1  = drjlmax ! max distance between jet and lepton
 -1  = drabmax ! max distance between gamma and b
 -1  = drblmax ! max distance between b and lepton
 -1  = dralmax ! maxdistance between gamma and lepton
#*********************************************************************
# Minimum and maximum invariant mass for pairs                       *
# WARNING: for four lepton final state mmll cut require to have      *
#          different lepton masses for each flavor!                  *           
#*********************************************************************
 0   = mmjj    ! min invariant mass of a jet pair 
 0   = mmbb    ! min invariant mass of a b pair 
 0   = mmaa    ! min invariant mass of gamma gamma pair
 0   = mmll    ! min invariant mass of l+l- (same flavour) lepton pair
 -1  = mmjjmax ! max invariant mass of a jet pair
 -1  = mmbbmax ! max invariant mass of a b pair
 -1  = mmaamax ! max invariant mass of gamma gamma pair
 -1  = mmllmax ! max invariant mass of l+l- (same flavour) lepton pair
#*********************************************************************
# Minimum and maximum invariant mass for all letpons                 *
#*********************************************************************
 0   = mmnl    ! min invariant mass for all letpons (l+- and vl) 
 -1  = mmnlmax ! max invariant mass for all letpons (l+- and vl) 
#*********************************************************************
# Minimum and maximum pt for 4-momenta sum of leptons                *
#*********************************************************************
 0   = ptllmin  ! Minimum pt for 4-momenta sum of leptons(l and vl)
 -1  = ptllmax  ! Maximum pt for 4-momenta sum of leptons(l and vl)
#*********************************************************************
# Inclusive cuts                                                     *
#*********************************************************************
 0  = xptj ! minimum pt for at least one jet  
 0  = xptb ! minimum pt for at least one b 
 0  = xpta ! minimum pt for at least one photon 
 0  = xptl ! minimum pt for at least one charged lepton 
#*********************************************************************
# Control the pt's of the jets sorted by pt                          *
#*********************************************************************
 0   = ptj1min ! minimum pt for the leading jet in pt
 0   = ptj2min ! minimum pt for the second jet in pt
 0   = ptj3min ! minimum pt for the third jet in pt
 0   = ptj4min ! minimum pt for the fourth jet in pt
 -1  = ptj1max ! maximum pt for the leading jet in pt 
 -1  = ptj2max ! maximum pt for the second jet in pt
 -1  = ptj3max ! maximum pt for the third jet in pt
 -1  = ptj4max ! maximum pt for the fourth jet in pt
 0   = cutuse  ! reject event if fails any (0) / all (1) jet pt cuts
#*********************************************************************
# Control the pt's of leptons sorted by pt                           *
#*********************************************************************
 0   = ptl1min ! minimum pt for the leading lepton in pt
 0   = ptl2min ! minimum pt for the second lepton in pt
 0   = ptl3min ! minimum pt for the third lepton in pt
 0   = ptl4min ! minimum pt for the fourth lepton in pt
 -1  = ptl1max ! maximum pt for the leading lepton in pt 
 -1  = ptl2max ! maximum pt for the second lepton in pt
 -1  = ptl3max ! maximum pt for the third lepton in pt
 -1  = ptl4max ! maximum pt for the fourth lepton in pt
#*********************************************************************
# Control the Ht(k)=Sum of k leading jets                            *
#*********************************************************************
 0   = htjmin ! minimum jet HT=Sum(jet pt)
 -1  = htjmax ! maximum jet HT=Sum(jet pt)
 0   = ihtmin  !inclusive Ht for all partons (including b)
 -1  = ihtmax  !inclusive Ht for all partons (including b)
 0   = ht2min ! minimum Ht for the two leading jets
 0   = ht3min ! minimum Ht for the three leading jets
 0   = ht4min ! minimum Ht for the four leading jets
 -1  = ht2max ! maximum Ht for the two leading jets
 -1  = ht3max ! maximum Ht for the three leading jets
 -1  = ht4max ! maximum Ht for the four leading jets
#***********************************************************************
# Photon-isolation cuts, according to hep-ph/9801442                   *
# When ptgmin=0, all the other parameters are ignored                  *
# When ptgmin>0, pta and draj are not going to be used                 *
#***********************************************************************
   0 = ptgmin ! Min photon transverse momentum
 0.4 = R0gamma ! Radius of isolation code
 1.0 = xn ! n parameter of eq.(3.4) in hep-ph/9801442
 1.0 = epsgamma ! epsilon_gamma parameter of eq.(3.4) in hep-ph/9801442
 .true. = isoEM ! isolate photons from EM energy (photons and leptons)
#*********************************************************************
# WBF cuts                                                           *
#*********************************************************************
 0   = xetamin ! minimum rapidity for two jets in the WBF case  
 0   = deltaeta ! minimum rapidity for two jets in the WBF case 
#*********************************************************************
# KT DURHAM CUT                                                      *
#*********************************************************************
 -1    =  ktdurham        
 0.4  =  dparameter 
#*********************************************************************
# maximal pdg code for quark to be considered as a light jet         *
# (otherwise b cuts are applied)                                     *
#*********************************************************************
 4 = maxjetflavor    ! Maximum jet pdg code
#*********************************************************************
# Jet measure cuts                                                   *
#*********************************************************************
 0   = xqcut   ! minimum kt jet measure between partons
#*********************************************************************
#
#*********************************************************************
# Store info for systematics studies                                 *
# WARNING: If use_syst is T, matched Pythia output is                *
#          meaningful ONLY if plotted taking matchscale              *
#          reweighting into account!                                 *
#*********************************************************************
   F  = use_syst      ! Enable systematics studies
#
#**************************************
# Parameter of the systematics study
#  will be used by SysCalc (if installed)
#**************************************                                  
#
0.5 1 2 = sys_scalefact  # factorization/renormalization scale factor
0.5 1 2 = sys_alpsfact  # \alpha_s emission scale factors
30 50 = sys_matchscale # variation of merging scale
# PDF sets and number of members (0 or none for all members).
CT10nlo.LHgrid = sys_pdf # matching scales
# MSTW2008nlo68cl.LHgrid 1  = sys_pdf
</MGRunCard>
<slha>
######################################################################
## PARAM_CARD AUTOMATICALY GENERATED BY MG5 FOLLOWING UFO MODEL   ####
######################################################################
##                                                                  ##
##  Width set on Auto will be computed following the information    ##
##        present in the decay.py files of the model.               ##
##        See  arXiv:1402.1178 for more details.                    ##
##                                                                  ##
######################################################################

###################################
## INFORMATION FOR CKMBLOCK
###################################
Block ckmblock 
    1 2.277360e-01 # cabi 

###################################
## INFORMATION FOR FRBLOCK
###################################
Block frblock 
    1 8.000000e-01 # gz 

###################################
## INFORMATION FOR MASS
###################################
Block mass 
    1 5.040000e-03 # MD 
    2 2.550000e-03 # MU 
    3 1.010000e-01 # MS 
    4 1.270000e+00 # MC 
    5 4.700000e+00 # MB 
    6 1.720000e+02 # MT 
   11 5.110000e-04 # Me 
   13 1.056600e-01 # MM 
   15 1.777000e+00 # MTA 
   23 9.118760e+01 # MZ 
   25 1.200000e+02 # MH 
  10030 2.200000e+03 # MZph 
  10031 3.000000e+02 # MZpl 
## Dependent parameters, given by model restrictions.
## Those values should be edited following the 
## analytical expression. MG5 ignores those values 
## but they are important for interfacing the output of MG5
## to external program such as Pythia.
  12 0.000000 # ve : 0.0 
  14 0.000000 # vm : 0.0 
  16 0.000000 # vt : 0.0 
  21 0.000000 # g : 0.0 
  22 0.000000 # a : 0.0 
  24 79.824360 # w+ : cmath.sqrt(MZ__exp__2/2. + cmath.sqrt(MZ__exp__4/4. - (aEW*cmath.pi*MZ__exp__2)/(Gf*sqrt__2))) 

###################################
## INFORMATION FOR SMINPUTS
###################################
Block sminputs 
    1 1.279000e+02 # aEWM1 
    2 1.166370e-05 # Gf 
    3 1.184000e-01 # aS 

###################################
## INFORMATION FOR YUKAWA
###################################
Block yukawa 
    1 5.040000e-03 # ymdo 
    2 2.550000e-03 # ymup 
    3 1.010000e-01 # yms 
    4 1.270000e+00 # ymc 
    5 4.700000e+00 # ymb 
    6 1.720000e+02 # ymt 
   11 5.110000e-04 # yme 
   13 1.056600e-01 # ymm 
   15 1.777000e+00 # ymtau 

###################################
## INFORMATION FOR DECAY
###################################
DECAY   6 1.508336e+00 # WT 
DECAY  23 2.495200e+00 # WZ 
DECAY  24 2.085000e+00 # WW 
DECAY  25 5.753088e-03 # WH 
## Dependent parameters, given by model restrictions.
## Those values should be edited following the 
## analytical expression. MG5 ignores those values 
## but they are important for interfacing the output of MG5
## to external program such as Pythia.
DECAY  1 0.000000 # d : 0.0 
DECAY  2 0.000000 # u : 0.0 
DECAY  3 0.000000 # s : 0.0 
DECAY  4 0.000000 # c : 0.0 
DECAY  5 0.000000 # b : 0.0 
DECAY  11 0.000000 # e- : 0.0 
DECAY  12 0.000000 # ve : 0.0 
DECAY  13 0.000000 # mu- : 0.0 
DECAY  14 0.000000 # vm : 0.0 
DECAY  15 0.000000 # ta- : 0.0 
DECAY  16 0.000000 # vt : 0.0 
DECAY  21 0.000000 # g : 0.0 
DECAY  22 0.000000 # a : 0.0 
DECAY  10030 0.308725 # zph : (gz__exp__2*MZph*(5 + cmath.sqrt(1 - (4*MT__exp__2)/MZph__exp__2)))/(144.*cmath.pi) 
DECAY  10031 0.132629 # zpl : (5*gz__exp__2*MZpl)/(144.*cmath.pi) 
#===========================================================
# QUANTUM NUMBERS OF NEW STATE(S) (NON SM PDG CODE)
#===========================================================

Block QNUMBERS 10030  # zph 
        1 0  # 3 times electric charge
        2 3  # number of spin states (2S+1)
        3 1  # colour rep (1: singlet, 3: triplet, 8: octet)
        4 0  # Particle/Antiparticle distinction (0=own anti)
Block QNUMBERS 10031  # zpl 
        1 0  # 3 times electric charge
        2 3  # number of spin states (2S+1)
        3 1  # colour rep (1: singlet, 3: triplet, 8: octet)
        4 0  # Particle/Antiparticle distinction (0=own anti)
</slha>
## END BANNER##
<MGGenerationInfo>
#  Number of Events        :         3960
#  Integrated weight (pb)  :  0.11467E-01
#  Max wgt                 :  0.41433E-05
#  Average wgt             :  0.28957E-05
</MGGenerationInfo>
</header>
<init>
     2212     2212  0.40000000000E+04  0.40000000000E+04 0 0  247000  247000 2   1
  0.11471000169E-01  0.21922644868E-04  0.41432810000E-05   0
</init>
<event>
 5   0  0.3963414E-05  0.2218457E+04  0.7818609E-02  0.8510785E-01
        2   -1    0    0  501    0  0.00000000000E+00  0.00000000000E+00  0.83647521653E+03  0.83647521653E+03  0.25500000920E-02 0.  1.
       -2   -1    0    0    0  501  0.00000000000E+00  0.00000000000E+00 -0.14709194946E+04  0.14709194946E+04  0.25500000920E-02 0. -1.
    10030    2    1    2    0    0  0.00000000000E+00  0.00000000000E+00 -0.63444427812E+03  0.23073947112E+04  0.22184568536E+04 0.  0.
        1    1    3    3  502    0 -0.97261024181E+03  0.19790765547E+02  0.23708370186E+03  0.10012846941E+04  0.50400001928E-02 0.  1.
       -1    1    3    3    0  502  0.97261024181E+03 -0.19790765547E+02 -0.87152797997E+03  0.13061100171E+04  0.50400001928E-02 0. -1.
</event>
<event>
 5   0  0.3963414E-05  0.2200930E+04  0.7818609E-02  0.8518041E-01
        2   -1    0    0  501    0  0.00000000000E+00  0.00000000000E+00  0.11562230559E+04  0.11562230559E+04  0.25500000920E-02 0.  1.
       -2   -1    0    0    0  501  0.00000000000E+00  0.00000000000E+00 -0.10473958934E+04  0.10473958934E+04  0.25500000920E-02 0. -1.
    10030    2    1    2    0    0  0.00000000000E+00  0.00000000000E+00  0.10882716250E+03  0.22036189493E+04  0.22009300585E+04 0.  0.
        1    1    3    3  502    0 -0.44564262929E+03  0.36672125357E+03  0.99254360094E+03  0.11481396390E+04  0.50400001928E-02 0.  1.
       -1    1    3    3    0  502  0.44564262929E+03 -0.36672125357E+03 -0.88371643844E+03  0.10554793103E+04  0.50400001928E-02 0. -1.
</event>
<event>
 5   0  0.4029532E-05  0.2190695E+04  0.7818609E-02  0.8522311E-01
        2   -1    0    0  501    0  0.00000000000E+00  0.00000000000E+00  0.14388772142E+04  0.14388772142E+04  0.25500000920E-02 0. -1.
       -2   -1    0    0    0  501  0.00000000000E+00  0.00000000000E+00 -0.83383502877E+03  0.83383502877E+03  0.25500000920E-02 0.  1.
    10030    2    1    2    0    0  0.00000000000E+00  0.00000000000E+00  0.60504218540E+03  0.22727122429E+04  0.21906950708E+04 0.  0.
        3    1    3    3  502    0  0.66717702560E+03 -0.32779947552E+03 -0.53209093256E+03  0.91416543926E+03  0.10100000352E+00 0.  1.
       -3    1    3    3    0  502 -0.66717702560E+03  0.32779947552E+03  0.11371331180E+04  0.13585468037E+04  0.10100000352E+00 0. -1.
</event>
<event>
 5   0  0.3963414E-05  0.2203886E+04  0.7818609E-02  0.8516812E-01
        2   -1    0    0  501    0  0.00000000000E+00  0.00000000000E+00  0.15678955649E+04  0.15678955649E+04  0.25500000920E-02 0.  1.
       -2   -1    0    0    0  501  0.00000000000E+00  0.00000000000E+00 -0.77446387849E+03  0.77446387850E+03  0.25500000920E-02 0. -1.
    10030    2    1    2    0    0  0.00000000000E+00  0.00000000000E+00  0.79343168643E+03  0.23423594434E+04  0.22038860953E+04 0.  0.
        1    1    3    3  502    0  0.23369910283E+03  0.26740436786E+03 -0.71197483833E+03  0.79563090504E+03  0.50400001928E-02 0. -1.
       -1    1    3    3    0  502 -0.23369910283E+03 -0.26740436786E+03  0.15054065248E+04  0.15467285384E+04  0.50400001928E-02 0.  1.
</event>
<event>
 5   0  0.4029532E-05  0.2198930E+04  0.7818609E-02  0.8518874E-01
        2   -1    0    0  501    0  0.00000000000E+00  0.00000000000E+00  0.19664404859E+04  0.19664404859E+04  0.25500000920E-02 0. -1.
       -2   -1    0    0    0  501  0.00000000000E+00  0.00000000000E+00 -0.61472639637E+03  0.61472639637E+03  0.25500000920E-02 0.  1.
    10030    2    1    2    0    0  0.00000000000E+00  0.00000000000E+00  0.13517140895E+04  0.25811668823E+04  0.21989296247E+04 0.  0.
        3    1    3    3  502    0  0.94742800444E+03 -0.50593136001E+03  0.39997856439E+03  0.11461104776E+04  0.10100000352E+00 0.  1.
       -3    1    3    3    0  502 -0.94742800444E+03  0.50593136001E+03  0.95173552515E+03  0.14350564047E+04  0.10100000352E+00 0. -1.
</event>
<event>
 5   0  0.1788413E-05  0.2189410E+04  0.7818609E-02  0.8522849E-01
        1   -1    0    0  501    0  0.00000000000E+00  0.00000000000E+00  0.24452530235E+04  0.24452530235E+04  0.50400001928E-02 0.  1.
       -1   -1    0    0    0  501  0.00000000000E+00  0.00000000000E+00 -0.49008373343E+03  0.49008373346E+03  0.50400001928E-02 0. -1.
    10030    2    1    2    0    0  0.00000000000E+00  0.00000000000E+00  0.19551692901E+04  0.29353367570E+04  0.21894097204E+04 0.  0.
        1    1    3    3  502    0  0.19379925757E+03 -0.41894524241E+03 -0.35322621515E+03  0.58124179776E+03  0.50400001928E-02 0. -1.
       -1    1    3    3    0  502 -0.19379925757E+03  0.41894524241E+03  0.23083955052E+04  0.23540949592E+04  0.50400001928E-02 0.  1.
</event>
<event>
 5   0  0.1884407E-05  0.2222499E+04  0.7818609E-02  0.8509121E-01
        1   -1    0    0  501    0  0.00000000000E+00  0.00000000000E+00  0.11901724722E+04  0.11901724722E+04  0.50400001928E-02 0.  1.
       -1   -1    0    0    0  501  0.00000000000E+00  0.00000000000E+00 -0.10375602931E+04  0.10375602931E+04  0.50400001928E-02 0. -1.
    10030    2    1    2    0    0  0.00000000000E+00  0.00000000000E+00  0.15261217907E+03  0.22277327653E+04  0.22224992230E+04 0.  0.
        3    1    3    3  502    0 -0.18953290172E+03  0.78119830559E+03  0.84536908946E+03  0.11665515081E+04  0.10100000352E+00 0.  1.
       -3    1    3    3    0  502  0.18953290172E+03 -0.78119830559E+03 -0.69275691039E+03  0.10611812572E+04  0.10100000352E+00 0. -1.
</event>
<event>
 5   0  0.3963414E-05  0.2199570E+04  0.7818609E-02  0.8518607E-01
        2   -1    0    0  501    0  0.00000000000E+00  0.00000000000E+00  0.24667230317E+04  0.24667230317E+04  0.25500000920E-02 0. -1.
       -2   -1    0    0    0  501  0.00000000000E+00  0.00000000000E+00 -0.49033756636E+03  0.49033756636E+03  0.25500000920E-02 0.  1.
    10030    2    1    2    0    0  0.00000000000E+00  0.00000000000E+00  0.19763854653E+04  0.29570605981E+04  0.21995699291E+04 0.  0.
        1    1    3    3  502    0 -0.18502433691E+03 -0.10364715455E+04  0.14154854437E+04  0.17641162975E+04  0.50400001928E-02 0. -1.
       -1    1    3    3    0  502  0.18502433691E+03  0.10364715455E+04  0.56090002165E+03  0.11929443005E+04  0.50400001928E-02 0.  1.
</event>
<event>
 5   0  0.1815681E-05  0.2190298E+04  0.7818609E-02  0.8522477E-01
        1   -1    0    0  501    0  0.00000000000E+00  0.00000000000E+00  0.10574683203E+04  0.10574683203E+04  0.50400001928E-02 0.  1.
       -1   -1    0    0    0  501  0.00000000000E+00  0.00000000000E+00 -0.11341724887E+04  0.11341724888E+04  0.50400001928E-02 0. -1.
    10030    2    1    2    0    0  0.00000000000E+00  0.00000000000E+00 -0.76704168476E+02  0.21916408090E+04  0.21902981319E+04 0.  0.
        2    1    3    3  502    0  0.59210799974E+03 -0.76099699994E+03 -0.55794216226E+03  0.11140052844E+04  0.25500000920E-02 0. -1.
       -2    1    3    3    0  502 -0.59210799974E+03  0.76099699994E+03  0.48123799378E+03  0.10776355246E+04  0.25500000920E-02 0.  1.
</event>
<event>
 5   0  0.3963414E-05  0.2177047E+04  0.7818609E-02  0.8528043E-01
       -2   -1    0    0    0  501  0.00000000000E+00  0.00000000000E+00  0.13731927406E+04  0.13731927406E+04  0.25500000920E-02 0. -1.
        2   -1    0    0  501    0  0.00000000000E+00  0.00000000000E+00 -0.86286752064E+03  0.86286752064E+03  0.25500000920E-02 0.  1.
    10030    2    1    2    0    0  0.00000000000E+00  0.00000000000E+00  0.51032521997E+03  0.22360602612E+04  0.21770470050E+04 0.  0.
        1    1    3    3  502    0 -0.69481491535E+03  0.28675796160E+03 -0.55350759749E+03  0.93347123985E+03  0.50400001928E-02 0.  1.
       -1    1    3    3    0  502  0.69481491535E+03 -0.28675796160E+03  0.10638328175E+04  0.13025890214E+04  0.50400001928E-02 0. -1.
</event>
<event>
 5   0  0.1433375E-05  0.2186478E+04  0.7818609E-02  0.8524077E-01
        4   -1    0    0  501    0  0.00000000000E+00  0.00000000000E+00  0.94885873299E+03  0.94885958291E+03  0.12699999809E+01 0.  1.
       -4   -1    0    0    0  501  0.00000000000E+00  0.00000000000E+00 -0.12595867735E+04  0.12595874138E+04  0.12699999809E+01 0. -1.
    10030    2    1    2    0    0  0.00000000000E+00  0.00000000000E+00 -0.31072804056E+03  0.22084469967E+04  0.21864780406E+04 0.  0.
        4    1    3    3  502    0  0.36004519922E+03  0.10314246750E+04 -0.11371211372E+03  0.10983630836E+04  0.12699999809E+01 0. -1.
       -4    1    3    3    0  502 -0.36004519922E+03 -0.10314246750E+04 -0.19701592684E+03  0.11100839131E+04  0.12699999809E+01 0.  1.
</event>
<event>
 5   0  0.4027923E-05  0.2206229E+04  0.7818609E-02  0.8515840E-01
        2   -1    0    0  501    0  0.00000000000E+00  0.00000000000E+00  0.17796572369E+04  0.17796572369E+04  0.25500000920E-02 0. -1.
       -2   -1    0    0    0  501  0.00000000000E+00  0.00000000000E+00 -0.68376160557E+03  0.68376160558E+03  0.25500000920E-02 0.  1.
    10030    2    1    2    0    0  0.00000000000E+00  0.00000000000E+00  0.10958956313E+04  0.24634188424E+04  0.22062287186E+04 0.  0.
        5    1    3    3  502    0 -0.13114002890E+03  0.59086088970E+03 -0.48180086008E+03  0.77360743076E+03  0.46999998093E+01 0.  1.
       -5    1    3    3    0  502  0.13114002890E+03 -0.59086088970E+03  0.15776964914E+04  0.16898114117E+04  0.46999998093E+01 0. -1.
</event>
<event>
 5   0  0.1786228E-05  0.2201651E+04  0.7818609E-02  0.8517741E-01
        1   -1    0    0  501    0  0.00000000000E+00  0.00000000000E+00  0.10883543624E+04  0.10883543624E+04  0.50400001928E-02 0.  1.
       -1   -1    0    0    0  501  0.00000000000E+00  0.00000000000E+00 -0.11134393390E+04  0.11134393390E+04  0.50400001928E-02 0. -1.
    10030    2    1    2    0    0  0.00000000000E+00  0.00000000000E+00 -0.25084976580E+02  0.22017937013E+04  0.22016508005E+04 0.  0.
        5    1    3    3  502    0  0.28132459278E+03  0.67658805602E+03 -0.83410633754E+03  0.11102569056E+04  0.46999998093E+01 0. -1.
       -5    1    3    3    0  502 -0.28132459278E+03 -0.67658805602E+03  0.80902136096E+03  0.10915367958E+04  0.46999998093E+01 0.  1.
</event>
<event>
 5   0  0.1788413E-05  0.2210391E+04  0.7818609E-02  0.8514116E-01
        1   -1    0    0  501    0  0.00000000000E+00  0.00000000000E+00  0.15309516699E+04  0.15309516699E+04  0.50400001928E-02 0. -1.
       -1   -1    0    0    0  501  0.00000000000E+00  0.00000000000E+00 -0.79784157037E+03  0.79784157039E+03  0.50400001928E-02 0.  1.
    10030    2    1    2    0    0  0.00000000000E+00  0.00000000000E+00  0.73311009955E+03  0.23287932403E+04  0.22103908112E+04 0.  0.
        1    1    3    3  502    0  0.38675430507E+03 -0.12567002306E+02  0.14572480995E+04  0.15077495965E+04  0.50400001928E-02 0. -1.
       -1    1    3    3    0  502 -0.38675430507E+03  0.12567002306E+02 -0.72413799999E+03  0.82104364384E+03  0.50400001928E-02 0.  1.
</event>
<event>
 5   0  0.1884407E-05  0.2195660E+04  0.7818609E-02  0.8520237E-01
       -1   -1    0    0    0  501  0.00000000000E+00  0.00000000000E+00  0.14068733593E+04  0.14068733593E+04  0.50400001928E-02 0. -1.
        1   -1    0    0  501    0  0.00000000000E+00  0.00000000000E+00 -0.85667300595E+03  0.85667300596E+03  0.50400001928E-02 0.  1.
    10030    2    1    2    0    0  0.00000000000E+00  0.00000000000E+00  0.55020035332E+03  0.22635463652E+04  0.21956597457E+04 0.  0.
        3    1    3    3  502    0 -0.48165720941E+03  0.75885738754E+03  0.92496511275E+03  0.12897358923E+04  0.10100000352E+00 0. -1.
       -3    1    3    3    0  502  0.48165720941E+03 -0.75885738754E+03 -0.37476475943E+03  0.97381047289E+03  0.10100000352E+00 0.  1.
</event>
<event>
 5   0  0.1884407E-05  0.2225792E+04  0.7818609E-02  0.8507769E-01
       -1   -1    0    0    0  501  0.00000000000E+00  0.00000000000E+00  0.16890987771E+04  0.16890987771E+04  0.50400001928E-02 0.  1.
        1   -1    0    0  501    0  0.00000000000E+00  0.00000000000E+00 -0.73325323274E+03  0.73325323276E+03  0.50400001928E-02 0. -1.
    10030    2    1    2    0    0  0.00000000000E+00  0.00000000000E+00  0.95584554438E+03  0.24223520099E+04  0.22257916693E+04 0.  0.
        3    1    3    3  502    0  0.62371405464E+02 -0.77294024158E+03 -0.39082587541E+03  0.86837300992E+03  0.10100000352E+00 0. -1.
       -3    1    3    3    0  502 -0.62371405464E+02  0.77294024158E+03  0.13466714198E+04  0.15539790000E+04  0.10100000352E+00 0.  1.
</event>
<event>
 5   0  0.3963414E-05  0.2187737E+04  0.7818609E-02  0.8523550E-01
       -2   -1    0    0    0  501  0.00000000000E+00  0.00000000000E+00  0.42948834415E+03  0.42948834416E+03  0.25500000920E-02 0. -1.
        2   -1    0    0  501    0  0.00000000000E+00  0.00000000000E+00 -0.27859856410E+04  0.27859856410E+04  0.25500000920E-02 0.  1.
    10030    2    1    2    0    0  0.00000000000E+00  0.00000000000E+00 -0.23564972969E+04  0.32154739852E+04  0.21877370590E+04 0.  0.
        1    1    3    3  502    0  0.25007562486E+02 -0.10066033311E+04 -0.18064324290E+04  0.20681087411E+04  0.50400001928E-02 0.  1.
       -1    1    3    3    0  502 -0.25007562486E+02  0.10066033311E+04 -0.55006486787E+03  0.11473652441E+04  0.50400001928E-02 0. -1.
</event>
<event>
 5   0  0.1866935E-05  0.2193171E+04  0.7818609E-02  0.8521276E-01
       -1   -1    0    0    0  501  0.00000000000E+00  0.00000000000E+00  0.11773710483E+04  0.11773710483E+04  0.50400001928E-02 0. -1.
        1   -1    0    0  501    0  0.00000000000E+00  0.00000000000E+00 -0.10213430030E+04  0.10213430031E+04  0.50400001928E-02 0.  1.
    10030    2    1    2    0    0  0.00000000000E+00  0.00000000000E+00  0.15602804522E+03  0.21987140513E+04  0.21931709301E+04 0.  0.
        4    1    3    3  502    0  0.54379336021E+03  0.95074500045E+03  0.13172924074E+03  0.11031688358E+04  0.12699999809E+01 0.  1.
       -4    1    3    3    0  502 -0.54379336021E+03 -0.95074500045E+03  0.24298804488E+02  0.10955452155E+04  0.12699999809E+01 0. -1.
</event>
<event>
 5   0  0.1788413E-05  0.2208630E+04  0.7818609E-02  0.8514845E-01
       -1   -1    0    0    0  501  0.00000000000E+00  0.00000000000E+00  0.24573579267E+04  0.24573579267E+04  0.50400001928E-02 0. -1.
        1   -1    0    0  501    0  0.00000000000E+00  0.00000000000E+00 -0.49626951812E+03  0.49626951814E+03  0.50400001928E-02 0.  1.
    10030    2    1    2    0    0  0.00000000000E+00  0.00000000000E+00  0.19610884086E+04  0.29536274448E+04  0.22086301946E+04 0.  0.
        1    1    3    3  502    0 -0.73123117209E+03 -0.63551930980E+02  0.20839472465E+04  0.22094284331E+04  0.50400001928E-02 0. -1.
       -1    1    3    3    0  502  0.73123117209E+03  0.63551930980E+02 -0.12285883791E+03  0.74419901172E+03  0.50400001928E-02 0.  1.
</event>
<event>
 5   0  0.4143281E-05  0.2182140E+04  0.7818609E-02  0.8525899E-01
        2   -1    0    0  501    0  0.00000000000E+00  0.00000000000E+00  0.25150725594E+04  0.25150725594E+04  0.25500000920E-02 0. -1.
       -2   -1    0    0    0  501  0.00000000000E+00  0.00000000000E+00 -0.47332003985E+03  0.47332003986E+03  0.25500000920E-02 0.  1.
    10030    2    1    2    0    0  0.00000000000E+00  0.00000000000E+00  0.20417525195E+04  0.29883925993E+04  0.21821404575E+04 0.  0.
        2    1    3    3  502    0 -0.55627430704E+03 -0.90006563888E+03  0.65628903975E+03  0.12451002219E+04  0.25500000920E-02 0.  1.
       -2    1    3    3    0  502  0.55627430704E+03  0.90006563888E+03  0.13854634798E+04  0.17432923773E+04  0.25500000920E-02 0. -1.
</event>
<event>
 5   0  0.1884407E-05  0.2183837E+04  0.7818609E-02  0.8525186E-01
       -1   -1    0    0    0  501  0.00000000000E+00  0.00000000000E+00  0.20897612114E+04  0.20897612114E+04  0.50400001928E-02 0. -1.
        1   -1    0    0  501    0  0.00000000000E+00  0.00000000000E+00 -0.57053709975E+03  0.57053709978E+03  0.50400001928E-02 0.  1.
    10030    2    1    2    0    0  0.00000000000E+00  0.00000000000E+00  0.15192241116E+04  0.26602983112E+04  0.21838372657E+04 0.  0.
        3    1    3    3  502    0 -0.77176447620E+02 -0.69442406050E+03 -0.26257146713E+03  0.74640790820E+03  0.10100000352E+00 0.  1.
       -3    1    3    3    0  502  0.77176447620E+02  0.69442406050E+03  0.17817955788E+04  0.19138904030E+04  0.10100000352E+00 0. -1.
</event>
<event>
 5   0  0.4029532E-05  0.2201953E+04  0.7818609E-02  0.8517615E-01
       -2   -1    0    0    0  501  0.00000000000E+00  0.00000000000E+00  0.15254416998E+04  0.15254416998E+04  0.25500000920E-02 0. -1.
        2   -1    0    0  501    0  0.00000000000E+00  0.00000000000E+00 -0.79462216589E+03  0.79462216590E+03  0.25500000920E-02 0.  1.
    10030    2    1    2    0    0  0.00000000000E+00  0.00000000000E+00  0.73081953395E+03  0.23200638657E+04  0.22019534850E+04 0.  0.
        3    1    3    3  502    0 -0.53762385213E+03  0.86445913286E+03  0.80721097496E+03  0.12991992022E+04  0.10100000352E+00 0. -1.
       -3    1    3    3    0  502  0.53762385213E+03 -0.86445913286E+03 -0.76391441006E+02  0.10208646635E+04  0.10100000352E+00 0.  1.
</event>
<event>
 5   0  0.1788413E-05  0.2204664E+04  0.7818609E-02  0.8516489E-01
       -1   -1    0    0    0  501  0.00000000000E+00  0.00000000000E+00  0.14848676670E+04  0.14848676670E+04  0.50400001928E-02 0.  1.
        1   -1    0    0  501    0  0.00000000000E+00  0.00000000000E+00 -0.81834626396E+03  0.81834626398E+03  0.50400001928E-02 0. -1.
    10030    2    1    2    0    0  0.00000000000E+00  0.00000000000E+00  0.66652140306E+03  0.23032139310E+04  0.22046640631E+04 0.  0.
        1    1    3    3  502    0  0.26694379921E+02  0.24180381575E+03  0.14564738416E+04  0.14766508479E+04  0.50400001928E-02 0.  1.
       -1    1    3    3    0  502 -0.26694379921E+02 -0.24180381575E+03 -0.78995243854E+03  0.82656308314E+03  0.50400001928E-02 0. -1.
</event>
<event>
 5   0  0.4143281E-05  0.2208049E+04  0.7818609E-02  0.8515085E-01
        2   -1    0    0  501    0  0.00000000000E+00  0.00000000000E+00  0.21213811735E+04  0.21213811735E+04  0.25500000920E-02 0. -1.
       -2   -1    0    0    0  501  0.00000000000E+00  0.00000000000E+00 -0.57456441690E+03  0.57456441691E+03  0.25500000920E-02 0.  1.
    10030    2    1    2    0    0  0.00000000000E+00  0.00000000000E+00  0.15468167566E+04  0.26959455904E+04  0.22080490366E+04 0.  0.
        2    1    3    3  502    0  0.33149991013E+03 -0.15968335019E+03 -0.49749546500E+03  0.61878324189E+03  0.25500000920E-02 0.  1.
       -2    1    3    3    0  502 -0.33149991013E+03  0.15968335019E+03  0.20443122216E+04  0.20771623485E+04  0.25500000920E-02 0. -1.
</event>
<event>
 5   0  0.1815681E-05  0.2136071E+04  0.7818609E-02  0.8545518E-01
        1   -1    0    0  501    0  0.00000000000E+00  0.00000000000E+00  0.18473138458E+04  0.18473138459E+04  0.50400001928E-02 0. -1.
       -1   -1    0    0    0  501  0.00000000000E+00  0.00000000000E+00 -0.61749124357E+03  0.61749124359E+03  0.50400001928E-02 0.  1.
    10030    2    1    2    0    0  0.00000000000E+00  0.00000000000E+00  0.12298226023E+04  0.24648050894E+04  0.21360712759E+04 0.  0.
        2    1    3    3  502    0 -0.19853613865E+03 -0.84803442625E+03 -0.98380731375E+02  0.87650314019E+03  0.25500000920E-02 0.  1.
       -2    1    3    3    0  502  0.19853613865E+03  0.84803442625E+03  0.13282033337E+04  0.15883019493E+04  0.25500000920E-02 0. -1.
</event>
<event>
 5   0  0.4029532E-05  0.2201111E+04  0.7818609E-02  0.8517966E-01
        2   -1    0    0  501    0  0.00000000000E+00  0.00000000000E+00  0.14763788120E+04  0.14763788120E+04  0.25500000920E-02 0.  1.
       -2   -1    0    0    0  501  0.00000000000E+00  0.00000000000E+00 -0.82040107229E+03  0.82040107229E+03  0.25500000920E-02 0. -1.
    10030    2    1    2    0    0  0.00000000000E+00  0.00000000000E+00  0.65597773967E+03  0.22967798842E+04  0.22011113197E+04 0.  0.
        3    1    3    3  502    0 -0.68887168941E+03 -0.14981682522E+03  0.12098444472E+04  0.14002545776E+04  0.10100000352E+00 0.  1.
       -3    1    3    3    0  502  0.68887168941E+03  0.14981682522E+03 -0.55386670749E+03  0.89652530665E+03  0.10100000352E+00 0. -1.
</event>
<event>
 5   0  0.4027923E-05  0.2139673E+04  0.7818609E-02  0.8543966E-01
       -2   -1    0    0    0  501  0.00000000000E+00  0.00000000000E+00  0.15738001479E+04  0.15738001479E+04  0.25500000920E-02 0.  1.
        2   -1    0    0  501    0  0.00000000000E+00  0.00000000000E+00 -0.72725231946E+03  0.72725231946E+03  0.25500000920E-02 0. -1.
    10030    2    1    2    0    0  0.00000000000E+00  0.00000000000E+00  0.84654782844E+03  0.23010524674E+04  0.21396726927E+04 0.  0.
        5    1    3    3  502    0  0.18716356443E+03 -0.55277372182E+03  0.13875261469E+04  0.15052707018E+04  0.46999998093E+01 0.  1.
       -5    1    3    3    0  502 -0.18716356443E+03  0.55277372182E+03 -0.54097831844E+03  0.79578176557E+03  0.46999998093E+01 0. -1.
</event>
<event>
 5   0  0.1815681E-05  0.2211900E+04  0.7818609E-02  0.8513491E-01
        1   -1    0    0  501    0  0.00000000000E+00  0.00000000000E+00  0.47056038872E+03  0.47056038875E+03  0.50400001928E-02 0.  1.
       -1   -1    0    0    0  501  0.00000000000E+00  0.00000000000E+00 -0.25992960074E+04  0.25992960074E+04  0.50400001928E-02 0. -1.
    10030    2    1    2    0    0  0.00000000000E+00  0.00000000000E+00 -0.21287356187E+04  0.30698563961E+04  0.22119003049E+04 0.  0.
        2    1    3    3  502    0  0.62553109406E+03 -0.29075689060E+03  0.13540533679E+03  0.70296751298E+03  0.25500000920E-02 0.  1.
       -2    1    3    3    0  502 -0.62553109406E+03  0.29075689060E+03 -0.22641409554E+04  0.23668888832E+04  0.25500000920E-02 0. -1.
</event>
<event>
 5   0  0.4029532E-05  0.2195580E+04  0.7818609E-02  0.8520270E-01
        2   -1    0    0  501    0  0.00000000000E+00  0.00000000000E+00  0.16263757299E+04  0.16263757299E+04  0.25500000920E-02 0. -1.
       -2   -1    0    0    0  501  0.00000000000E+00  0.00000000000E+00 -0.74099914613E+03  0.74099914613E+03  0.25500000920E-02 0.  1.
    10030    2    1    2    0    0  0.00000000000E+00  0.00000000000E+00  0.88537658375E+03  0.23673748760E+04  0.21955801303E+04 0.  0.
        3    1    3    3  502    0 -0.57510261713E+03 -0.66263463152E+03 -0.26872132076E+03  0.91762673977E+03  0.10100000352E+00 0.  1.
       -3    1    3    3    0  502  0.57510261713E+03  0.66263463152E+03  0.11540979045E+04  0.14497481362E+04  0.10100000352E+00 0. -1.
</event>
<event>
 5   0  0.3963414E-05  0.2203135E+04  0.7818609E-02  0.8517125E-01
        2   -1    0    0  501    0  0.00000000000E+00  0.00000000000E+00  0.17493457924E+04  0.17493457924E+04  0.25500000920E-02 0.  1.
       -2   -1    0    0    0  501  0.00000000000E+00  0.00000000000E+00 -0.69365955477E+03  0.69365955478E+03  0.25500000920E-02 0. -1.
    10030    2    1    2    0    0  0.00000000000E+00  0.00000000000E+00  0.10556862377E+04  0.24430053472E+04  0.22031345157E+04 0.  0.
        1    1    3    3  502    0 -0.62791568087E+03  0.90232410952E+03  0.60612326353E+03  0.12553295629E+04  0.50400001928E-02 0. -1.
       -1    1    3    3    0  502  0.62791568087E+03 -0.90232410952E+03  0.44956297415E+03  0.11876757843E+04  0.50400001928E-02 0.  1.
</event>
<event>
 5   0  0.1786228E-05  0.2224582E+04  0.7818609E-02  0.8508266E-01
        1   -1    0    0  501    0  0.00000000000E+00  0.00000000000E+00  0.94486726595E+03  0.94486726596E+03  0.50400001928E-02 0.  1.
       -1   -1    0    0    0  501  0.00000000000E+00  0.00000000000E+00 -0.13093812554E+04  0.13093812554E+04  0.50400001928E-02 0. -1.
    10030    2    1    2    0    0  0.00000000000E+00  0.00000000000E+00 -0.36451398946E+03  0.22542485214E+04  0.22245821962E+04 0.  0.
        5    1    3    3  502    0 -0.11193995970E+03 -0.88668514738E+03 -0.85322625211E+03  0.12356205860E+04  0.46999998093E+01 0. -1.
       -5    1    3    3    0  502  0.11193995970E+03  0.88668514738E+03  0.48871226265E+03  0.10186279354E+04  0.46999998093E+01 0.  1.
</event>
<event>
 5   0  0.4029532E-05  0.2186754E+04  0.7818609E-02  0.8523962E-01
       -2   -1    0    0    0  501  0.00000000000E+00  0.00000000000E+00  0.94196467838E+03  0.94196467838E+03  0.25500000920E-02 0.  1.
        2   -1    0    0  501    0  0.00000000000E+00  0.00000000000E+00 -0.12691269692E+04  0.12691269692E+04  0.25500000920E-02 0. -1.
    10030    2    1    2    0    0  0.00000000000E+00  0.00000000000E+00 -0.32716229086E+03  0.22110916476E+04  0.21867535548E+04 0.  0.
        3    1    3    3  502    0  0.70825064666E+03  0.49475665670E+03 -0.84116609356E+03  0.12058041031E+04  0.10100000352E+00 0. -1.
       -3    1    3    3    0  502 -0.70825064666E+03 -0.49475665670E+03  0.51400380269E+03  0.10052875445E+04  0.10100000352E+00 0.  1.
</event>
<event>
 5   0  0.1866935E-05  0.2178256E+04  0.7818609E-02  0.8527533E-01
        1   -1    0    0  501    0  0.00000000000E+00  0.00000000000E+00  0.14410337553E+04  0.14410337553E+04  0.50400001928E-02 0.  1.
       -1   -1    0    0    0  501  0.00000000000E+00  0.00000000000E+00 -0.82315865893E+03  0.82315865895E+03  0.50400001928E-02 0. -1.
    10030    2    1    2    0    0  0.00000000000E+00  0.00000000000E+00  0.61787509641E+03  0.22641924143E+04  0.21782556448E+04 0.  0.
        4    1    3    3  502    0  0.57200652305E+03 -0.45099907509E+03  0.11505768352E+04  0.13617710141E+04  0.12699999809E+01 0.  1.
       -4    1    3    3    0  502 -0.57200652305E+03  0.45099907509E+03 -0.53270173881E+03  0.90242140022E+03  0.12699999809E+01 0. -1.
</event>
<event>
 5   0  0.1788413E-05  0.2203465E+04  0.7818609E-02  0.8516987E-01
       -1   -1    0    0    0  501  0.00000000000E+00  0.00000000000E+00  0.70077355913E+03  0.70077355915E+03  0.50400001928E-02 0.  1.
        1   -1    0    0  501    0  0.00000000000E+00  0.00000000000E+00 -0.17321063275E+04  0.17321063275E+04  0.50400001928E-02 0. -1.
    10030    2    1    2    0    0  0.00000000000E+00  0.00000000000E+00 -0.10313327684E+04  0.24328798867E+04  0.22034648316E+04 0.  0.
        1    1    3    3  502    0  0.42669089206E+02 -0.98716777370E+03  0.22405579995E+02  0.98834350033E+03  0.50400001928E-02 0.  1.
       -1    1    3    3    0  502 -0.42669089206E+02  0.98716777370E+03 -0.10537383484E+04  0.14445363864E+04  0.50400001928E-02 0. -1.
</event>
<event>
 5   0  0.1884407E-05  0.2176752E+04  0.7818609E-02  0.8528167E-01
        1   -1    0    0  501    0  0.00000000000E+00  0.00000000000E+00  0.11278625020E+04  0.11278625020E+04  0.50400001928E-02 0.  1.
       -1   -1    0    0    0  501  0.00000000000E+00  0.00000000000E+00 -0.10502720702E+04  0.10502720702E+04  0.50400001928E-02 0. -1.
    10030    2    1    2    0    0  0.00000000000E+00  0.00000000000E+00  0.77590431793E+02  0.21781345721E+04  0.21767521538E+04 0.  0.
        3    1    3    3  502    0  0.71601063826E+03 -0.12689367563E+02  0.85890722062E+03  0.11182816631E+04  0.10100000352E+00 0.  1.
       -3    1    3    3    0  502 -0.71601063826E+03  0.12689367563E+02 -0.78131678882E+03  0.10598529091E+04  0.10100000352E+00 0. -1.
</event>
<event>
 5   0  0.4132460E-05  0.2201279E+04  0.7818609E-02  0.8517896E-01
       -2   -1    0    0    0  501  0.00000000000E+00  0.00000000000E+00  0.56772417779E+03  0.56772417779E+03  0.25500000920E-02 0. -1.
        2   -1    0    0  501    0  0.00000000000E+00  0.00000000000E+00 -0.21337956447E+04  0.21337956447E+04  0.25500000920E-02 0.  1.
    10030    2    1    2    0    0  0.00000000000E+00  0.00000000000E+00 -0.15660714669E+04  0.27015198225E+04  0.22012790627E+04 0.  0.
        4    1    3    3  502    0 -0.71215153201E+03  0.27457364639E+03  0.19017840419E+03  0.78658752225E+03  0.12699999809E+01 0. -1.
       -4    1    3    3    0  502  0.71215153201E+03 -0.27457364639E+03 -0.17562498711E+04  0.19149323002E+04  0.12699999809E+01 0.  1.
</event>
<event>
 5   0  0.4132460E-05  0.2212837E+04  0.7818609E-02  0.8513104E-01
       -2   -1    0    0    0  501  0.00000000000E+00  0.00000000000E+00  0.72698694284E+03  0.72698694284E+03  0.25500000920E-02 0.  1.
        2   -1    0    0  501    0  0.00000000000E+00  0.00000000000E+00 -0.16838838004E+04  0.16838838004E+04  0.25500000920E-02 0. -1.
    10030    2    1    2    0    0  0.00000000000E+00  0.00000000000E+00 -0.95689685761E+03  0.24108707433E+04  0.22128366738E+04 0.  0.
        4    1    3    3  502    0 -0.54960821119E+02 -0.34306996391E+03 -0.16229051312E+04  0.16596808036E+04  0.12699999809E+01 0. -1.
       -4    1    3    3    0  502  0.54960821119E+02  0.34306996391E+03  0.66600827364E+03  0.75118993966E+03  0.12699999809E+01 0.  1.
</event>
<event>
 5   0  0.1433375E-05  0.2199916E+04  0.7818609E-02  0.8518463E-01
        4   -1    0    0  501    0  0.00000000000E+00  0.00000000000E+00  0.68916440466E+03  0.68916557484E+03  0.12699999809E+01 0. -1.
       -4   -1    0    0    0  501  0.00000000000E+00  0.00000000000E+00 -0.17556127480E+04  0.17556132073E+04  0.12699999809E+01 0.  1.
    10030    2    1    2    0    0  0.00000000000E+00  0.00000000000E+00 -0.10664483433E+04  0.24447787822E+04  0.21999161859E+04 0.  0.
        5    1    3    3  502    0 -0.30158674158E+03  0.18240264312E+03 -0.16911491889E+04  0.17274932579E+04  0.46999998093E+01 0.  1.
       -5    1    3    3    0  502  0.30158674158E+03 -0.18240264312E+03  0.62470084557E+03  0.71728552430E+03  0.46999998093E+01 0. -1.
</event>
<event>
 5   0  0.1884407E-05  0.2225741E+04  0.7818609E-02  0.8507790E-01
        1   -1    0    0  501    0  0.00000000000E+00  0.00000000000E+00  0.13178197335E+04  0.13178197335E+04  0.50400001928E-02 0. -1.
       -1   -1    0    0    0  501  0.00000000000E+00  0.00000000000E+00 -0.93979565658E+03  0.93979565660E+03  0.50400001928E-02 0.  1.
    10030    2    1    2    0    0  0.00000000000E+00  0.00000000000E+00  0.37802407688E+03  0.22576153901E+04  0.22257414600E+04 0.  0.
        3    1    3    3  502    0 -0.42234027890E+03  0.80559254162E+03 -0.46136491126E+03  0.10199059985E+04  0.10100000352E+00 0.  1.
       -3    1    3    3    0  502  0.42234027890E+03 -0.80559254162E+03  0.83938898813E+03  0.12377093915E+04  0.10100000352E+00 0. -1.
</event>
<event>
 5   0  0.1786228E-05  0.2208878E+04  0.7818609E-02  0.8514742E-01
       -1   -1    0    0    0  501  0.00000000000E+00  0.00000000000E+00  0.11018134526E+04  0.11018134526E+04  0.50400001928E-02 0.  1.
        1   -1    0    0  501    0  0.00000000000E+00  0.00000000000E+00 -0.11070709956E+04  0.11070709956E+04  0.50400001928E-02 0. -1.
    10030    2    1    2    0    0  0.00000000000E+00  0.00000000000E+00 -0.52575429777E+01  0.22088844482E+04  0.22088781912E+04 0.  0.
        5    1    3    3  502    0 -0.58072071568E+03  0.73410833885E+02 -0.93918784330E+03  0.11066714034E+04  0.46999998093E+01 0. -1.
       -5    1    3    3    0  502  0.58072071568E+03 -0.73410833885E+02  0.93393030033E+03  0.11022130448E+04  0.46999998093E+01 0.  1.
</event>
<event>
 5   0  0.4143281E-05  0.2197256E+04  0.7818609E-02  0.8519571E-01
        2   -1    0    0  501    0  0.00000000000E+00  0.00000000000E+00  0.22661609737E+04  0.22661609737E+04  0.25500000920E-02 0. -1.
       -2   -1    0    0    0  501  0.00000000000E+00  0.00000000000E+00 -0.53261135653E+03  0.53261135653E+03  0.25500000920E-02 0.  1.
    10030    2    1    2    0    0  0.00000000000E+00  0.00000000000E+00  0.17335496171E+04  0.27987723302E+04  0.21972556249E+04 0.  0.
        2    1    3    3  502    0  0.99456928897E+03  0.82854878788E+02  0.14518030377E+04  0.17617505674E+04  0.25500000920E-02 0. -1.
       -2    1    3    3    0  502 -0.99456928897E+03 -0.82854878788E+02  0.28174657946E+03  0.10370217628E+04  0.25500000920E-02 0.  1.
</event>
<event>
 5   0  0.4029532E-05  0.2191234E+04  0.7818609E-02  0.8522085E-01
        2   -1    0    0  501    0  0.00000000000E+00  0.00000000000E+00  0.14190534863E+04  0.14190534863E+04  0.25500000920E-02 0.  1.
       -2   -1    0    0    0  501  0.00000000000E+00  0.00000000000E+00 -0.84589971735E+03  0.84589971735E+03  0.25500000920E-02 0. -1.
    10030    2    1    2    0    0  0.00000000000E+00  0.00000000000E+00  0.57315376891E+03  0.22649532036E+04  0.21912343032E+04 0.  0.
        3    1    3    3  502    0 -0.25859747592E+03 -0.55214599079E+03 -0.65434402985E+03  0.89437350659E+03  0.10100000352E+00 0. -1.
       -3    1    3    3    0  502  0.25859747592E+03  0.55214599079E+03  0.12274977988E+04  0.13705796970E+04  0.10100000352E+00 0.  1.
</event>
<event>
 5   0  0.3963414E-05  0.2193566E+04  0.7818609E-02  0.8521111E-01
        2   -1    0    0  501    0  0.00000000000E+00  0.00000000000E+00  0.94049501641E+03  0.94049501642E+03  0.25500000920E-02 0.  1.
       -2   -1    0    0    0  501  0.00000000000E+00  0.00000000000E+00 -0.12790425818E+04  0.12790425818E+04  0.25500000920E-02 0. -1.
    10030    2    1    2    0    0  0.00000000000E+00  0.00000000000E+00 -0.33854756538E+03  0.22195375982E+04  0.21935662050E+04 0.  0.
        1    1    3    3  502    0  0.33372997142E+03  0.17956221892E+03 -0.12106899080E+04  0.12686167024E+04  0.50400001928E-02 0. -1.
       -1    1    3    3    0  502 -0.33372997142E+03 -0.17956221892E+03  0.87214234261E+03  0.95092089581E+03  0.50400001928E-02 0.  1.
</event>
<event>
 5   0  0.4143281E-05  0.2248650E+04  0.7818609E-02  0.8498448E-01
       -2   -1    0    0    0  501  0.00000000000E+00  0.00000000000E+00  0.97821013483E+03  0.97821013483E+03  0.25500000920E-02 0. -1.
        2   -1    0    0  501    0  0.00000000000E+00  0.00000000000E+00 -0.12922646982E+04  0.12922646982E+04  0.25500000920E-02 0.  1.
    10030    2    1    2    0    0  0.00000000000E+00  0.00000000000E+00 -0.31405456335E+03  0.22704748330E+04  0.22486497501E+04 0.  0.
        2    1    3    3  502    0  0.84868864662E+02  0.47019161646E+03 -0.11846596295E+04  0.12773806473E+04  0.25500000920E-02 0.  1.
       -2    1    3    3    0  502 -0.84868864662E+02 -0.47019161646E+03  0.87060506617E+03  0.99309418568E+03  0.25500000920E-02 0. -1.
</event>
<event>
 5   0  0.4029532E-05  0.2199029E+04  0.7818609E-02  0.8518832E-01
       -2   -1    0    0    0  501  0.00000000000E+00  0.00000000000E+00  0.74233076250E+03  0.74233076251E+03  0.25500000920E-02 0.  1.
        2   -1    0    0  501    0  0.00000000000E+00  0.00000000000E+00 -0.16285629940E+04  0.16285629940E+04  0.25500000920E-02 0. -1.
    10030    2    1    2    0    0  0.00000000000E+00  0.00000000000E+00 -0.88623223149E+03  0.23708937565E+04  0.21990292487E+04 0.  0.
        3    1    3    3  502    0 -0.64437814215E+03  0.11189132301E+03 -0.13960423802E+04  0.15416475589E+04  0.10100000352E+00 0. -1.
       -3    1    3    3    0  502  0.64437814215E+03 -0.11189132301E+03  0.50981014876E+03  0.82924619759E+03  0.10100000352E+00 0.  1.
</event>
<event>
 5   0  0.1884407E-05  0.2203589E+04  0.7818609E-02  0.8516936E-01
        1   -1    0    0  501    0  0.00000000000E+00  0.00000000000E+00  0.18799059454E+04  0.18799059454E+04  0.50400001928E-02 0.  1.
       -1   -1    0    0    0  501  0.00000000000E+00  0.00000000000E+00 -0.64575115306E+03  0.64575115308E+03  0.50400001928E-02 0. -1.
    10030    2    1    2    0    0  0.00000000000E+00  0.00000000000E+00  0.12341547924E+04  0.25256570985E+04  0.22035892829E+04 0.  0.
        3    1    3    3  502    0 -0.68029090367E+03  0.86485235749E+03  0.55238191131E+03  0.12312152939E+04  0.10100000352E+00 0.  1.
       -3    1    3    3    0  502  0.68029090367E+03 -0.86485235749E+03  0.68177288107E+03  0.12944418046E+04  0.10100000352E+00 0. -1.
</event>
<event>
 5   0  0.4027923E-05  0.2216646E+04  0.7818609E-02  0.8511532E-01
        2   -1    0    0  501    0  0.00000000000E+00  0.00000000000E+00  0.12904415574E+04  0.12904415574E+04  0.25500000920E-02 0.  1.
       -2   -1    0    0    0  501  0.00000000000E+00  0.00000000000E+00 -0.95190620811E+03  0.95190620811E+03  0.25500000920E-02 0. -1.
    10030    2    1    2    0    0  0.00000000000E+00  0.00000000000E+00  0.33853534929E+03  0.22423477655E+04  0.22166455104E+04 0.  0.
        5    1    3    3  502    0 -0.78765137289E+02 -0.11036830203E+04  0.23354245387E+03  0.11308776786E+04  0.46999998093E+01 0.  1.
       -5    1    3    3    0  502  0.78765137289E+02  0.11036830203E+04  0.10499289541E+03  0.11114700870E+04  0.46999998093E+01 0. -1.
</event>
<event>
 5   0  0.1786228E-05  0.2208612E+04  0.7818609E-02  0.8514852E-01
        1   -1    0    0  501    0  0.00000000000E+00  0.00000000000E+00  0.12465084017E+04  0.12465084017E+04  0.50400001928E-02 0.  1.
       -1   -1    0    0    0  501  0.00000000000E+00  0.00000000000E+00 -0.97832575959E+03  0.97832575960E+03  0.50400001928E-02 0. -1.
    10030    2    1    2    0    0  0.00000000000E+00  0.00000000000E+00  0.26818264215E+03  0.22248341613E+04  0.22086115811E+04 0.  0.
        5    1    3    3  502    0  0.27662415032E+02  0.79509249504E+03  0.90557033973E+03  0.12054115542E+04  0.46999998093E+01 0.  1.
       -5    1    3    3    0  502 -0.27662415032E+02 -0.79509249504E+03 -0.63738769759E+03  0.10194226071E+04  0.46999998093E+01 0. -1.
</event>
<event>
 5   0  0.1884407E-05  0.2290734E+04  0.7818609E-02  0.8481584E-01
        1   -1    0    0  501    0  0.00000000000E+00  0.00000000000E+00  0.87772796859E+03  0.87772796860E+03  0.50400001928E-02 0. -1.
       -1   -1    0    0    0  501  0.00000000000E+00  0.00000000000E+00 -0.14946148275E+04  0.14946148275E+04  0.50400001928E-02 0.  1.
    10030    2    1    2    0    0  0.00000000000E+00  0.00000000000E+00 -0.61688685890E+03  0.23723427961E+04  0.22907337134E+04 0.  0.
        3    1    3    3  502    0  0.42750222372E+03 -0.10353174735E+04 -0.60704080312E+02  0.11217510499E+04  0.10100000352E+00 0.  1.
       -3    1    3    3    0  502 -0.42750222372E+03  0.10353174735E+04 -0.55618277858E+03  0.12505917462E+04  0.10100000352E+00 0. -1.
</event>
<event>
 5   0  0.4029532E-05  0.2197672E+04  0.7818609E-02  0.8519398E-01
       -2   -1    0    0    0  501  0.00000000000E+00  0.00000000000E+00  0.65105109131E+03  0.65105109132E+03  0.25500000920E-02 0.  1.
        2   -1    0    0  501    0  0.00000000000E+00  0.00000000000E+00 -0.18546021037E+04  0.18546021037E+04  0.25500000920E-02 0. -1.
    10030    2    1    2    0    0  0.00000000000E+00  0.00000000000E+00 -0.12035510124E+04  0.25056531950E+04  0.21976721535E+04 0.  0.
        3    1    3    3  502    0  0.28236337975E+03  0.80168936853E+02  0.60552665891E+03  0.67291803476E+03  0.10100000352E+00 0.  1.
       -3    1    3    3    0  502 -0.28236337975E+03 -0.80168936853E+02 -0.18090776713E+04  0.18327351602E+04  0.10100000352E+00 0. -1.
</event>
<event>
 5   0  0.1788413E-05  0.2211162E+04  0.7818609E-02  0.8513797E-01
       -1   -1    0    0    0  501  0.00000000000E+00  0.00000000000E+00  0.10326809315E+04  0.10326809315E+04  0.50400001928E-02 0.  1.
        1   -1    0    0  501    0  0.00000000000E+00  0.00000000000E+00 -0.11836274699E+04  0.11836274699E+04  0.50400001928E-02 0. -1.
    10030    2    1    2    0    0  0.00000000000E+00  0.00000000000E+00 -0.15094653835E+03  0.22163084014E+04  0.22111621543E+04 0.  0.
        1    1    3    3  502    0  0.96301447671E+03 -0.94062442471E+02 -0.61156842312E+03  0.11446661354E+04  0.50400001928E-02 0. -1.
       -1    1    3    3    0  502 -0.96301447671E+03  0.94062442471E+02  0.46062188477E+03  0.10716422660E+04  0.50400001928E-02 0.  1.
</event>
<event>
 5   0  0.1884407E-05  0.2193229E+04  0.7818609E-02  0.8521252E-01
        1   -1    0    0  501    0  0.00000000000E+00  0.00000000000E+00  0.92863870583E+03  0.92863870584E+03  0.50400001928E-02 0. -1.
       -1   -1    0    0    0  501  0.00000000000E+00  0.00000000000E+00 -0.12949739156E+04  0.12949739157E+04  0.50400001928E-02 0.  1.
    10030    2    1    2    0    0  0.00000000000E+00  0.00000000000E+00 -0.36633520982E+03  0.22236126215E+04  0.21932285801E+04 0.  0.
        3    1    3    3  502    0  0.11763390975E+03 -0.28170792437E+03 -0.12510234284E+04  0.12877331711E+04  0.10100000352E+00 0.  1.
       -3    1    3    3    0  502 -0.11763390975E+03  0.28170792437E+03  0.88468821857E+03  0.93587945039E+03  0.10100000352E+00 0. -1.
</event>
<event>
 5   0  0.1815681E-05  0.2223858E+04  0.7818609E-02  0.8508563E-01
        1   -1    0    0  501    0  0.00000000000E+00  0.00000000000E+00  0.94820314365E+03  0.94820314367E+03  0.50400001928E-02 0.  1.
       -1   -1    0    0    0  501  0.00000000000E+00  0.00000000000E+00 -0.13039250299E+04  0.13039250299E+04  0.50400001928E-02 0. -1.
    10030    2    1    2    0    0  0.00000000000E+00  0.00000000000E+00 -0.35572188626E+03  0.22521281736E+04  0.22238577405E+04 0.  0.
        2    1    3    3  502    0 -0.10051056917E+04  0.40573141087E+03  0.73345579197E+02  0.10863862128E+04  0.25500000920E-02 0.  1.
       -2    1    3    3    0  502  0.10051056917E+04 -0.40573141087E+03 -0.42906746546E+03  0.11657419608E+04  0.25500000920E-02 0. -1.
</event>
<event>
 5   0  0.1786228E-05  0.2216079E+04  0.7818609E-02  0.8511765E-01
       -1   -1    0    0    0  501  0.00000000000E+00  0.00000000000E+00  0.90846264135E+03  0.90846264137E+03  0.50400001928E-02 0. -1.
        1   -1    0    0  501    0  0.00000000000E+00  0.00000000000E+00 -0.13514605083E+04  0.13514605083E+04  0.50400001928E-02 0.  1.
    10030    2    1    2    0    0  0.00000000000E+00  0.00000000000E+00 -0.44299786691E+03  0.22599231496E+04  0.22160788642E+04 0.  0.
        5    1    3    3  502    0 -0.35033189494E+03  0.71576466309E+03 -0.10065859416E+04  0.12838570159E+04  0.46999998093E+01 0.  1.
       -5    1    3    3    0  502  0.35033189494E+03 -0.71576466309E+03  0.56358807465E+03  0.97606613374E+03  0.46999998093E+01 0. -1.
</event>
<event>
 5   0  0.4132460E-05  0.2208821E+04  0.7818609E-02  0.8514765E-01
       -2   -1    0    0    0  501  0.00000000000E+00  0.00000000000E+00  0.82187454643E+03  0.82187454644E+03  0.25500000920E-02 0. -1.
        2   -1    0    0  501    0  0.00000000000E+00  0.00000000000E+00 -0.14840742580E+04  0.14840742580E+04  0.25500000920E-02 0.  1.
    10030    2    1    2    0    0  0.00000000000E+00  0.00000000000E+00 -0.66219971158E+03  0.23059488045E+04  0.22088212763E+04 0.  0.
        4    1    3    3  502    0 -0.78395527078E+03  0.77028978770E+03 -0.21774817670E+03  0.11204231812E+04  0.12699999809E+01 0. -1.
       -4    1    3    3    0  502  0.78395527078E+03 -0.77028978770E+03 -0.44445153489E+03  0.11855256233E+04  0.12699999809E+01 0.  1.
</event>
<event>
 5   0  0.3963414E-05  0.2198256E+04  0.7818609E-02  0.8519154E-01
       -2   -1    0    0    0  501  0.00000000000E+00  0.00000000000E+00  0.68445939257E+03  0.68445939257E+03  0.25500000920E-02 0.  1.
        2   -1    0    0  501    0  0.00000000000E+00  0.00000000000E+00 -0.17650164731E+04  0.17650164731E+04  0.25500000920E-02 0. -1.
    10030    2    1    2    0    0  0.00000000000E+00  0.00000000000E+00 -0.10805570806E+04  0.24494758657E+04  0.21982557659E+04 0.  0.
        1    1    3    3  502    0 -0.95308247161E+03 -0.14875823782E+03  0.46797587435E+02  0.96575629702E+03  0.50400001928E-02 0.  1.
       -1    1    3    3    0  502  0.95308247161E+03  0.14875823782E+03 -0.11273546680E+04  0.14837195687E+04  0.50400001928E-02 0. -1.
</event>
<event>
 5   0  0.1866935E-05  0.2317729E+04  0.7818609E-02  0.8470963E-01
       -1   -1    0    0    0  501  0.00000000000E+00  0.00000000000E+00  0.12853613982E+04  0.12853613982E+04  0.50400001928E-02 0. -1.
        1   -1    0    0  501    0  0.00000000000E+00  0.00000000000E+00 -0.10448167136E+04  0.10448167136E+04  0.50400001928E-02 0.  1.
    10030    2    1    2    0    0  0.00000000000E+00  0.00000000000E+00  0.24054468456E+03  0.23301781118E+04  0.23177291230E+04 0.  0.
        4    1    3    3  502    0 -0.26642310586E+03  0.59989267812E+03  0.10804481390E+04  0.12642081674E+04  0.12699999809E+01 0. -1.
       -4    1    3    3    0  502  0.26642310586E+03 -0.59989267812E+03 -0.83990345446E+03  0.10659699444E+04  0.12699999809E+01 0.  1.
</event>
<event>
 5   0  0.4143281E-05  0.2200231E+04  0.7818609E-02  0.8518332E-01
        2   -1    0    0  501    0  0.00000000000E+00  0.00000000000E+00  0.15263620109E+04  0.15263620109E+04  0.25500000920E-02 0. -1.
       -2   -1    0    0    0  501  0.00000000000E+00  0.00000000000E+00 -0.79290077884E+03  0.79290077885E+03  0.25500000920E-02 0.  1.
    10030    2    1    2    0    0  0.00000000000E+00  0.00000000000E+00  0.73346123208E+03  0.23192627898E+04  0.22002305582E+04 0.  0.
        2    1    3    3  502    0  0.84234327095E+03 -0.37777318642E+03  0.99743026665E+03  0.13590886297E+04  0.25500000920E-02 0. -1.
       -2    1    3    3    0  502 -0.84234327095E+03  0.37777318642E+03 -0.26396903457E+03  0.96017416009E+03  0.25500000920E-02 0.  1.
</event>
<event>
 5   0  0.1786228E-05  0.2204653E+04  0.7818609E-02  0.8516494E-01
        1   -1    0    0  501    0  0.00000000000E+00  0.00000000000E+00  0.20231711655E+04  0.20231711655E+04  0.50400001928E-02 0.  1.
       -1   -1    0    0    0  501  0.00000000000E+00  0.00000000000E+00 -0.60060362291E+03  0.60060362293E+03  0.50400001928E-02 0. -1.
    10030    2    1    2    0    0  0.00000000000E+00  0.00000000000E+00  0.14225675426E+04  0.26237747884E+04  0.22046531988E+04 0.  0.
        5    1    3    3  502    0  0.71760777883E+03 -0.33451712963E+03 -0.20149021795E+03  0.81699634772E+03  0.46999998093E+01 0. -1.
       -5    1    3    3    0  502 -0.71760777883E+03  0.33451712963E+03  0.16240577605E+04  0.18067784407E+04  0.46999998093E+01 0.  1.
</event>
<event>
 5   0  0.4143281E-05  0.2199827E+04  0.7818609E-02  0.8518500E-01
       -2   -1    0    0    0  501  0.00000000000E+00  0.00000000000E+00  0.76626969903E+03  0.76626969904E+03  0.25500000920E-02 0.  1.
        2   -1    0    0  501    0  0.00000000000E+00  0.00000000000E+00 -0.15788303738E+04  0.15788303738E+04  0.25500000920E-02 0. -1.
    10030    2    1    2    0    0  0.00000000000E+00  0.00000000000E+00 -0.81256067478E+03  0.23451000728E+04  0.21998271526E+04 0.  0.
        2    1    3    3  502    0 -0.44210341515E+03 -0.98398133581E+03 -0.63525578406E+03  0.12518884176E+04  0.25500000920E-02 0. -1.
       -2    1    3    3    0  502  0.44210341515E+03  0.98398133581E+03 -0.17730489072E+03  0.10932116553E+04  0.25500000920E-02 0.  1.
</event>
<event>
 5   0  0.1866935E-05  0.2109241E+04  0.7818609E-02  0.8557183E-01
       -1   -1    0    0    0  501  0.00000000000E+00  0.00000000000E+00  0.15260000922E+04  0.15260000922E+04  0.50400001928E-02 0. -1.
        1   -1    0    0  501    0  0.00000000000E+00  0.00000000000E+00 -0.72884960099E+03  0.72884960101E+03  0.50400001928E-02 0.  1.
    10030    2    1    2    0    0  0.00000000000E+00  0.00000000000E+00  0.79715049122E+03  0.22548496932E+04  0.21092411511E+04 0.  0.
        4    1    3    3  502    0 -0.47208057967E+03  0.12602709243E+03 -0.60054522048E+03  0.77420867760E+03  0.12699999809E+01 0.  1.
       -4    1    3    3    0  502  0.47208057967E+03 -0.12602709243E+03  0.13976957117E+04  0.14806410156E+04  0.12699999809E+01 0. -1.
</event>
<event>
 5   0  0.1815681E-05  0.2146638E+04  0.7818609E-02  0.8540973E-01
       -1   -1    0    0    0  501  0.00000000000E+00  0.00000000000E+00  0.14125067308E+04  0.14125067308E+04  0.50400001928E-02 0.  1.
        1   -1    0    0  501    0  0.00000000000E+00  0.00000000000E+00 -0.81558120633E+03  0.81558120634E+03  0.50400001928E-02 0. -1.
    10030    2    1    2    0    0  0.00000000000E+00  0.00000000000E+00  0.59692552444E+03  0.22280879371E+04  0.21466382494E+04 0.  0.
        2    1    3    3  502    0 -0.35353163469E+03  0.79254124659E+03  0.95401857585E+03  0.12896734809E+04  0.25500000920E-02 0.  1.
       -2    1    3    3    0  502  0.35353163469E+03 -0.79254124659E+03 -0.35709305141E+03  0.93841445622E+03  0.25500000920E-02 0. -1.
</event>
<event>
 5   0  0.1815681E-05  0.2242204E+04  0.7818609E-02  0.8501065E-01
        1   -1    0    0  501    0  0.00000000000E+00  0.00000000000E+00  0.71997089342E+03  0.71997089344E+03  0.50400001928E-02 0.  1.
       -1   -1    0    0    0  501  0.00000000000E+00  0.00000000000E+00 -0.17457222014E+04  0.17457222014E+04  0.50400001928E-02 0. -1.
    10030    2    1    2    0    0  0.00000000000E+00  0.00000000000E+00 -0.10257513080E+04  0.24656930948E+04  0.22422035349E+04 0.  0.
        2    1    3    3  502    0  0.25207687268E+03 -0.78170031705E+03 -0.13520004997E+04  0.15819303040E+04  0.25500000920E-02 0. -1.
       -2    1    3    3    0  502 -0.25207687268E+03  0.78170031705E+03  0.32624919173E+03  0.88376279087E+03  0.25500000920E-02 0.  1.
</event>
<event>
 5   0  0.4143281E-05  0.2267247E+04  0.7818609E-02  0.8490948E-01
        2   -1    0    0  501    0  0.00000000000E+00  0.00000000000E+00  0.15845615218E+04  0.15845615218E+04  0.25500000920E-02 0.  1.
       -2   -1    0    0    0  501  0.00000000000E+00  0.00000000000E+00 -0.81101456080E+03  0.81101456080E+03  0.25500000920E-02 0. -1.
    10030    2    1    2    0    0  0.00000000000E+00  0.00000000000E+00  0.77354696097E+03  0.23955760826E+04  0.22672472001E+04 0.  0.
        2    1    3    3  502    0 -0.75378534202E+03  0.23165522676E+03  0.12472685923E+04  0.14756474604E+04  0.25500000920E-02 0.  1.
       -2    1    3    3    0  502  0.75378534202E+03 -0.23165522676E+03 -0.47372163134E+03  0.91992862220E+03  0.25500000920E-02 0. -1.
</event>
<event>
 5   0  0.1786228E-05  0.2200253E+04  0.7818609E-02  0.8518323E-01
        1   -1    0    0  501    0  0.00000000000E+00  0.00000000000E+00  0.15084329553E+04  0.15084329553E+04  0.50400001928E-02 0.  1.
       -1   -1    0    0    0  501  0.00000000000E+00  0.00000000000E+00 -0.80234183149E+03  0.80234183151E+03  0.50400001928E-02 0. -1.
    10030    2    1    2    0    0  0.00000000000E+00  0.00000000000E+00  0.70609112384E+03  0.23107747868E+04  0.22002534946E+04 0.  0.
        5    1    3    3  502    0 -0.91351282741E+03  0.13779773287E+03 -0.27425362517E+03  0.96370692741E+03  0.46999998093E+01 0. -1.
       -5    1    3    3    0  502  0.91351282741E+03 -0.13779773287E+03  0.98034474901E+03  0.13470678594E+04  0.46999998093E+01 0.  1.
</event>
<event>
 5   0  0.4027923E-05  0.2205993E+04  0.7818609E-02  0.8515938E-01
       -2   -1    0    0    0  501  0.00000000000E+00  0.00000000000E+00  0.71782492563E+03  0.71782492564E+03  0.25500000920E-02 0.  1.
        2   -1    0    0  501    0  0.00000000000E+00  0.00000000000E+00 -0.16948447815E+04  0.16948447815E+04  0.25500000920E-02 0. -1.
    10030    2    1    2    0    0  0.00000000000E+00  0.00000000000E+00 -0.97701985584E+03  0.24126697071E+04  0.22059934988E+04 0.  0.
        5    1    3    3  502    0  0.31358232643E+03 -0.40231158556E+03  0.58106555810E+03  0.77320615630E+03  0.46999998093E+01 0.  1.
       -5    1    3    3    0  502 -0.31358232643E+03  0.40231158556E+03 -0.15580854139E+04  0.16394635508E+04  0.46999998093E+01 0. -1.
</event>
<event>
 5   0  0.4027923E-05  0.2178973E+04  0.7818609E-02  0.8527231E-01
        2   -1    0    0  501    0  0.00000000000E+00  0.00000000000E+00  0.90342385302E+03  0.90342385302E+03  0.25500000920E-02 0. -1.
       -2   -1    0    0    0  501  0.00000000000E+00  0.00000000000E+00 -0.13138691866E+04  0.13138691866E+04  0.25500000920E-02 0.  1.
    10030    2    1    2    0    0  0.00000000000E+00  0.00000000000E+00 -0.41044533362E+03  0.22172930397E+04  0.21789729351E+04 0.  0.
        5    1    3    3  502    0  0.74468048240E+03  0.29284371489E+03 -0.95758459736E+03  0.12479169898E+04  0.46999998093E+01 0.  1.
       -5    1    3    3    0  502 -0.74468048240E+03 -0.29284371489E+03  0.54713926374E+03  0.96937604991E+03  0.46999998093E+01 0. -1.
</event>
<event>
 5   0  0.4132460E-05  0.2199457E+04  0.7818609E-02  0.8518654E-01
       -2   -1    0    0    0  501  0.00000000000E+00  0.00000000000E+00  0.71742303321E+03  0.71742303322E+03  0.25500000920E-02 0.  1.
        2   -1    0    0  501    0  0.00000000000E+00  0.00000000000E+00 -0.16857600484E+04  0.16857600484E+04  0.25500000920E-02 0. -1.
    10030    2    1    2    0    0  0.00000000000E+00  0.00000000000E+00 -0.96833701516E+03  0.24031830816E+04  0.21994572850E+04 0.  0.
        4    1    3    3  502    0 -0.25586136352E+03  0.10650885889E+04 -0.37754519528E+03  0.11586288132E+04  0.12699999809E+01 0.  1.
       -4    1    3    3    0  502  0.25586136352E+03 -0.10650885889E+04 -0.59079181988E+03  0.12445542683E+04  0.12699999809E+01 0. -1.
</event>
<event>
 5   0  0.1866935E-05  0.2231342E+04  0.7818609E-02  0.8505495E-01
        1   -1    0    0  501    0  0.00000000000E+00  0.00000000000E+00  0.12589268913E+04  0.12589268913E+04  0.50400001928E-02 0. -1.
       -1   -1    0    0    0  501  0.00000000000E+00  0.00000000000E+00 -0.98871624854E+03  0.98871624855E+03  0.50400001928E-02 0.  1.
    10030    2    1    2    0    0  0.00000000000E+00  0.00000000000E+00  0.27021064274E+03  0.22476431398E+04  0.22313417248E+04 0.  0.
        4    1    3    3  502    0 -0.61798441471E+03  0.82847107967E+03  0.55823460283E+03  0.11746899810E+04  0.12699999809E+01 0. -1.
       -4    1    3    3    0  502  0.61798441471E+03 -0.82847107967E+03 -0.28802396009E+03  0.10729531589E+04  0.12699999809E+01 0.  1.
</event>
<event>
 5   0  0.1815681E-05  0.2216407E+04  0.7818609E-02  0.8511630E-01
       -1   -1    0    0    0  501  0.00000000000E+00  0.00000000000E+00  0.63489546916E+03  0.63489546918E+03  0.50400001928E-02 0. -1.
        1   -1    0    0  501    0  0.00000000000E+00  0.00000000000E+00 -0.19343570586E+04  0.19343570587E+04  0.50400001928E-02 0.  1.
    10030    2    1    2    0    0  0.00000000000E+00  0.00000000000E+00 -0.12994615895E+04  0.25692525278E+04  0.22164065803E+04 0.  0.
        2    1    3    3  502    0  0.76174942542E+03  0.70328921012E+03 -0.19595778483E+03  0.10551195921E+04  0.25500000920E-02 0.  1.
       -2    1    3    3    0  502 -0.76174942542E+03 -0.70328921012E+03 -0.11035038047E+04  0.15141329357E+04  0.25500000920E-02 0. -1.
</event>
<event>
 5   0  0.4143281E-05  0.2198483E+04  0.7818609E-02  0.8519060E-01
       -2   -1    0    0    0  501  0.00000000000E+00  0.00000000000E+00  0.10990257571E+04  0.10990257571E+04  0.25500000920E-02 0.  1.
        2   -1    0    0  501    0  0.00000000000E+00  0.00000000000E+00 -0.10994567873E+04  0.10994567873E+04  0.25500000920E-02 0. -1.
    10030    2    1    2    0    0  0.00000000000E+00  0.00000000000E+00 -0.43103016551E+00  0.21984825444E+04  0.21984825021E+04 0.  0.
        2    1    3    3  502    0  0.71340517509E+03  0.39496314349E+01 -0.83649824924E+03  0.10994052321E+04  0.25500000920E-02 0. -1.
       -2    1    3    3    0  502 -0.71340517509E+03 -0.39496314349E+01  0.83606721907E+03  0.10990773122E+04  0.25500000920E-02 0.  1.
</event>
<event>
 5   0  0.1815681E-05  0.2196832E+04  0.7818609E-02  0.8519748E-01
       -1   -1    0    0    0  501  0.00000000000E+00  0.00000000000E+00  0.64440061143E+03  0.64440061145E+03  0.50400001928E-02 0. -1.
        1   -1    0    0  501    0  0.00000000000E+00  0.00000000000E+00 -0.18723105264E+04  0.18723105264E+04  0.50400001928E-02 0.  1.
    10030    2    1    2    0    0  0.00000000000E+00  0.00000000000E+00 -0.12279099149E+04  0.25167111378E+04  0.21968323086E+04 0.  0.
        2    1    3    3  502    0  0.87703633316E+03 -0.14296142879E+03  0.12572835620E+03  0.89746215484E+03  0.25500000920E-02 0. -1.
       -2    1    3    3    0  502 -0.87703633316E+03  0.14296142879E+03 -0.13536382711E+04  0.16192489830E+04  0.25500000920E-02 0.  1.
</event>
<event>
 5   0  0.4029532E-05  0.2214975E+04  0.7818609E-02  0.8512221E-01
        2   -1    0    0  501    0  0.00000000000E+00  0.00000000000E+00  0.14936516115E+04  0.14936516115E+04  0.25500000920E-02 0.  1.
       -2   -1    0    0    0  501  0.00000000000E+00  0.00000000000E+00 -0.82116087417E+03  0.82116087417E+03  0.25500000920E-02 0. -1.
    10030    2    1    2    0    0  0.00000000000E+00  0.00000000000E+00  0.67249073733E+03  0.23148124857E+04  0.22149747294E+04 0.  0.
        3    1    3    3  502    0  0.84424583550E+03 -0.71217869673E+03  0.42101063651E+03  0.11820319340E+04  0.10100000352E+00 0.  1.
       -3    1    3    3    0  502 -0.84424583550E+03  0.71217869673E+03  0.25148010081E+03  0.11327805516E+04  0.10100000352E+00 0. -1.
</event>
<event>
 5   0  0.4027923E-05  0.2104105E+04  0.7818609E-02  0.8559437E-01
       -2   -1    0    0    0  501  0.00000000000E+00  0.00000000000E+00  0.59170800804E+03  0.59170800804E+03  0.25500000920E-02 0. -1.
        2   -1    0    0  501    0  0.00000000000E+00  0.00000000000E+00 -0.18705412516E+04  0.18705412516E+04  0.25500000920E-02 0.  1.
    10030    2    1    2    0    0  0.00000000000E+00  0.00000000000E+00 -0.12788332435E+04  0.24622492596E+04  0.21041047863E+04 0.  0.
        5    1    3    3  502    0  0.72105496296E+03 -0.45383518339E+03  0.82809648502E+02  0.85601761732E+03  0.46999998093E+01 0. -1.
       -5    1    3    3    0  502 -0.72105496296E+03  0.45383518339E+03 -0.13616428920E+04  0.16062316423E+04  0.46999998093E+01 0.  1.
</event>
<event>
 5   0  0.1786228E-05  0.2198118E+04  0.7818609E-02  0.8519212E-01
        1   -1    0    0  501    0  0.00000000000E+00  0.00000000000E+00  0.15944251395E+04  0.15944251395E+04  0.50400001928E-02 0. -1.
       -1   -1    0    0    0  501  0.00000000000E+00  0.00000000000E+00 -0.75759627954E+03  0.75759627956E+03  0.50400001928E-02 0.  1.
    10030    2    1    2    0    0  0.00000000000E+00  0.00000000000E+00  0.83682885992E+03  0.23520214190E+04  0.21981178801E+04 0.  0.
        5    1    3    3  502    0 -0.10550233875E+04 -0.24718225102E+03  0.22188347031E+03  0.11060866954E+04  0.46999998093E+01 0.  1.
       -5    1    3    3    0  502  0.10550233875E+04  0.24718225102E+03  0.61494538961E+03  0.12459347236E+04  0.46999998093E+01 0. -1.
</event>
<event>
 5   0  0.1884407E-05  0.2218044E+04  0.7818609E-02  0.8510955E-01
        1   -1    0    0  501    0  0.00000000000E+00  0.00000000000E+00  0.78451683836E+03  0.78451683838E+03  0.50400001928E-02 0.  1.
       -1   -1    0    0    0  501  0.00000000000E+00  0.00000000000E+00 -0.15677549746E+04  0.15677549746E+04  0.50400001928E-02 0. -1.
    10030    2    1    2    0    0  0.00000000000E+00  0.00000000000E+00 -0.78323813624E+03  0.23522718130E+04  0.22180443422E+04 0.  0.
        3    1    3    3  502    0 -0.91441339771E+03  0.55419545191E+03 -0.70378880639E+03  0.12800793550E+04  0.10100000352E+00 0. -1.
       -3    1    3    3    0  502  0.91441339771E+03 -0.55419545191E+03 -0.79449329849E+02  0.10721924580E+04  0.10100000352E+00 0.  1.
</event>
<event>
 5   0  0.4029532E-05  0.2180324E+04  0.7818609E-02  0.8526662E-01
        2   -1    0    0  501    0  0.00000000000E+00  0.00000000000E+00  0.15742864859E+04  0.15742864859E+04  0.25500000920E-02 0. -1.
       -2   -1    0    0    0  501  0.00000000000E+00  0.00000000000E+00 -0.75491576269E+03  0.75491576269E+03  0.25500000920E-02 0.  1.
    10030    2    1    2    0    0  0.00000000000E+00  0.00000000000E+00  0.81937072326E+03  0.23292022486E+04  0.21803244559E+04 0.  0.
        3    1    3    3  502    0  0.81745337261E+03 -0.20776710349E+03 -0.32816955857E+03  0.90503726722E+03  0.10100000352E+00 0.  1.
       -3    1    3    3    0  502 -0.81745337261E+03  0.20776710349E+03  0.11475402818E+04  0.14241649814E+04  0.10100000352E+00 0. -1.
</event>
<event>
 5   0  0.3963414E-05  0.2180656E+04  0.7818609E-02  0.8526523E-01
       -2   -1    0    0    0  501  0.00000000000E+00  0.00000000000E+00  0.10556519282E+04  0.10556519282E+04  0.25500000920E-02 0. -1.
        2   -1    0    0  501    0  0.00000000000E+00  0.00000000000E+00 -0.11261432096E+04  0.11261432096E+04  0.25500000920E-02 0.  1.
    10030    2    1    2    0    0  0.00000000000E+00  0.00000000000E+00 -0.70491281357E+02  0.21817951379E+04  0.21806560946E+04 0.  0.
        1    1    3    3  502    0  0.78771814261E+03 -0.25759901898E+03 -0.74410574407E+03  0.11138000203E+04  0.50400001928E-02 0.  1.
       -1    1    3    3    0  502 -0.78771814261E+03  0.25759901898E+03  0.67361446271E+03  0.10679951176E+04  0.50400001928E-02 0. -1.
</event>
<event>
 5   0  0.3963414E-05  0.2206720E+04  0.7818609E-02  0.8515636E-01
       -2   -1    0    0    0  501  0.00000000000E+00  0.00000000000E+00  0.97746484376E+03  0.97746484376E+03  0.25500000920E-02 0.  1.
        2   -1    0    0  501    0  0.00000000000E+00  0.00000000000E+00 -0.12454697338E+04  0.12454697338E+04  0.25500000920E-02 0. -1.
    10030    2    1    2    0    0  0.00000000000E+00  0.00000000000E+00 -0.26800489001E+03  0.22229345775E+04  0.22067196276E+04 0.  0.
        1    1    3    3  502    0 -0.10446990522E+04 -0.35487749488E+03 -0.12565100382E+03  0.11104604093E+04  0.50400001928E-02 0. -1.
       -1    1    3    3    0  502  0.10446990522E+04  0.35487749488E+03 -0.14235388619E+03  0.11124741682E+04  0.50400001928E-02 0.  1.
</event>
<event>
 5   0  0.4143281E-05  0.2145389E+04  0.7818609E-02  0.8541509E-01
       -2   -1    0    0    0  501  0.00000000000E+00  0.00000000000E+00  0.11543176298E+04  0.11543176298E+04  0.25500000920E-02 0. -1.
        2   -1    0    0  501    0  0.00000000000E+00  0.00000000000E+00 -0.99684274710E+03  0.99684274711E+03  0.25500000920E-02 0.  1.
    10030    2    1    2    0    0  0.00000000000E+00  0.00000000000E+00  0.15747488274E+03  0.21511603770E+04  0.21453886894E+04 0.  0.
        2    1    3    3  502    0 -0.36571901473E+03 -0.11351360675E+03  0.10834498195E+04  0.11491297786E+04  0.25500000920E-02 0. -1.
       -2    1    3    3    0  502  0.36571901473E+03  0.11351360675E+03 -0.92597493674E+03  0.10020305984E+04  0.25500000920E-02 0.  1.
</event>
<event>
 5   0  0.1788413E-05  0.2200606E+04  0.7818609E-02  0.8518176E-01
       -1   -1    0    0    0  501  0.00000000000E+00  0.00000000000E+00  0.17746471297E+04  0.17746471297E+04  0.50400001928E-02 0.  1.
        1   -1    0    0  501    0  0.00000000000E+00  0.00000000000E+00 -0.68220108122E+03  0.68220108124E+03  0.50400001928E-02 0. -1.
    10030    2    1    2    0    0  0.00000000000E+00  0.00000000000E+00  0.10924460484E+04  0.24568482109E+04  0.22006055445E+04 0.  0.
        1    1    3    3  502    0 -0.84866214793E+03 -0.53840479634E+03  0.10462083143E+04  0.14507442927E+04  0.50400001928E-02 0.  1.
       -1    1    3    3    0  502  0.84866214793E+03  0.53840479634E+03  0.46237734162E+02  0.10061039182E+04  0.50400001928E-02 0. -1.
</event>
<event>
 5   0  0.3963414E-05  0.2242537E+04  0.7818609E-02  0.8500929E-01
        2   -1    0    0  501    0  0.00000000000E+00  0.00000000000E+00  0.14921609979E+04  0.14921609979E+04  0.25500000920E-02 0.  1.
       -2   -1    0    0    0  501  0.00000000000E+00  0.00000000000E+00 -0.84256563430E+03  0.84256563430E+03  0.25500000920E-02 0. -1.
    10030    2    1    2    0    0  0.00000000000E+00  0.00000000000E+00  0.64959536359E+03  0.23347266322E+04  0.22425374714E+04 0.  0.
        1    1    3    3  502    0 -0.75654740215E+03  0.77171696965E+03  0.13625236450E+02  0.10807852238E+04  0.50400001928E-02 0. -1.
       -1    1    3    3    0  502  0.75654740215E+03 -0.77171696965E+03  0.63597012714E+03  0.12539414084E+04  0.50400001928E-02 0.  1.
</event>
<event>
 5   0  0.4132460E-05  0.2197875E+04  0.7818609E-02  0.8519313E-01
       -2   -1    0    0    0  501  0.00000000000E+00  0.00000000000E+00  0.73657952315E+03  0.73657952315E+03  0.25500000920E-02 0.  1.
        2   -1    0    0  501    0  0.00000000000E+00  0.00000000000E+00 -0.16395570081E+04  0.16395570081E+04  0.25500000920E-02 0. -1.
    10030    2    1    2    0    0  0.00000000000E+00  0.00000000000E+00 -0.90297748492E+03  0.23761365312E+04  0.21978754461E+04 0.  0.
        4    1    3    3  502    0 -0.60701773979E+03  0.42717335895E+03 -0.13275949271E+04  0.15210054301E+04  0.12699999809E+01 0. -1.
       -4    1    3    3    0  502  0.60701773979E+03 -0.42717335895E+03  0.42461744218E+03  0.85513110113E+03  0.12699999809E+01 0.  1.
</event>
<event>
 5   0  0.4029532E-05  0.2185153E+04  0.7818609E-02  0.8524633E-01
       -2   -1    0    0    0  501  0.00000000000E+00  0.00000000000E+00  0.94809111447E+03  0.94809111447E+03  0.25500000920E-02 0. -1.
        2   -1    0    0  501    0  0.00000000000E+00  0.00000000000E+00 -0.12590811332E+04  0.12590811332E+04  0.25500000920E-02 0.  1.
    10030    2    1    2    0    0  0.00000000000E+00  0.00000000000E+00 -0.31099001870E+03  0.22071722476E+04  0.21851532072E+04 0.  0.
        3    1    3    3  502    0 -0.63887819858E+03  0.11048454837E+03 -0.10437604860E+04  0.12287425077E+04  0.10100000352E+00 0.  1.
       -3    1    3    3    0  502  0.63887819858E+03 -0.11048454837E+03  0.73277046726E+03  0.97842973991E+03  0.10100000352E+00 0. -1.
</event>
<event>
 5   0  0.1786228E-05  0.2153313E+04  0.7818609E-02  0.8538115E-01
        1   -1    0    0  501    0  0.00000000000E+00  0.00000000000E+00  0.11042583010E+04  0.11042583010E+04  0.50400001928E-02 0. -1.
       -1   -1    0    0    0  501  0.00000000000E+00  0.00000000000E+00 -0.10497446678E+04  0.10497446678E+04  0.50400001928E-02 0.  1.
    10030    2    1    2    0    0  0.00000000000E+00  0.00000000000E+00  0.54513633216E+02  0.21540029688E+04  0.21533130412E+04 0.  0.
        5    1    3    3  502    0 -0.49953277544E+03  0.21393717526E+03  0.95699802952E+03  0.11005314294E+04  0.46999998093E+01 0. -1.
       -5    1    3    3    0  502  0.49953277544E+03 -0.21393717526E+03 -0.90248439630E+03  0.10534715394E+04  0.46999998093E+01 0.  1.
</event>
<event>
 5   0  0.1815681E-05  0.2270673E+04  0.7818609E-02  0.8489575E-01
       -1   -1    0    0    0  501  0.00000000000E+00  0.00000000000E+00  0.89390729333E+03  0.89390729335E+03  0.50400001928E-02 0.  1.
        1   -1    0    0  501    0  0.00000000000E+00  0.00000000000E+00 -0.14419716264E+04  0.14419716264E+04  0.50400001928E-02 0. -1.
    10030    2    1    2    0    0  0.00000000000E+00  0.00000000000E+00 -0.54806433310E+03  0.23358789198E+04  0.22706729872E+04 0.  0.
        2    1    3    3  502    0  0.12568265166E+03  0.63295005963E+03 -0.12349696574E+04  0.13934030148E+04  0.25500000920E-02 0. -1.
       -2    1    3    3    0  502 -0.12568265166E+03 -0.63295005963E+03  0.68690532431E+03  0.94247590499E+03  0.25500000920E-02 0.  1.
</event>
<event>
 5   0  0.3963414E-05  0.2200683E+04  0.7818609E-02  0.8518144E-01
       -2   -1    0    0    0  501  0.00000000000E+00  0.00000000000E+00  0.70706963217E+03  0.70706963218E+03  0.25500000920E-02 0.  1.
        2   -1    0    0  501    0  0.00000000000E+00  0.00000000000E+00 -0.17123504504E+04  0.17123504504E+04  0.25500000920E-02 0. -1.
    10030    2    1    2    0    0  0.00000000000E+00  0.00000000000E+00 -0.10052808182E+04  0.24194200825E+04  0.22006826242E+04 0.  0.
        1    1    3    3  502    0 -0.40196748147E+03  0.88622310477E+03 -0.10672863935E+04  0.14443231956E+04  0.50400001928E-02 0. -1.
       -1    1    3    3    0  502  0.40196748147E+03 -0.88622310477E+03  0.62005575265E+02  0.97509688697E+03  0.50400001928E-02 0.  1.
</event>
<event>
 5   0  0.4132460E-05  0.2224103E+04  0.7818609E-02  0.8508463E-01
       -2   -1    0    0    0  501  0.00000000000E+00  0.00000000000E+00  0.90034211558E+03  0.90034211558E+03  0.25500000920E-02 0.  1.
        2   -1    0    0  501    0  0.00000000000E+00  0.00000000000E+00 -0.13735425077E+04  0.13735425077E+04  0.25500000920E-02 0. -1.
    10030    2    1    2    0    0  0.00000000000E+00  0.00000000000E+00 -0.47320039214E+03  0.22738846233E+04  0.22241026660E+04 0.  0.
        4    1    3    3  502    0  0.73181356962E+03  0.78791364622E+03 -0.52631101497E+03  0.11972317704E+04  0.12699999809E+01 0.  1.
       -4    1    3    3    0  502 -0.73181356962E+03 -0.78791364622E+03  0.53110622833E+02  0.10766528529E+04  0.12699999809E+01 0. -1.
</event>
<event>
 5   0  0.4029532E-05  0.2198064E+04  0.7818609E-02  0.8519234E-01
       -2   -1    0    0    0  501  0.00000000000E+00  0.00000000000E+00  0.11119071560E+04  0.11119071560E+04  0.25500000920E-02 0.  1.
        2   -1    0    0  501    0  0.00000000000E+00  0.00000000000E+00 -0.10863058166E+04  0.10863058166E+04  0.25500000920E-02 0. -1.
    10030    2    1    2    0    0  0.00000000000E+00  0.00000000000E+00  0.25601339393E+02  0.21982129726E+04  0.21980638854E+04 0.  0.
        3    1    3    3  502    0  0.21993230989E+02  0.64548415281E+03 -0.87649398164E+03  0.10887493760E+04  0.10100000352E+00 0. -1.
       -3    1    3    3    0  502 -0.21993230989E+02 -0.64548415281E+03  0.90209532103E+03  0.11094635966E+04  0.10100000352E+00 0.  1.
</event>
<event>
 5   0  0.1788413E-05  0.2203282E+04  0.7818609E-02  0.8517063E-01
        1   -1    0    0  501    0  0.00000000000E+00  0.00000000000E+00  0.16949176655E+04  0.16949176655E+04  0.50400001928E-02 0. -1.
       -1   -1    0    0    0  501  0.00000000000E+00  0.00000000000E+00 -0.71603090197E+03  0.71603090199E+03  0.50400001928E-02 0.  1.
    10030    2    1    2    0    0  0.00000000000E+00  0.00000000000E+00  0.97888676354E+03  0.24109485675E+04  0.22032824829E+04 0.  0.
        1    1    3    3  502    0 -0.89544145488E+03  0.36437647177E+03  0.10674615792E+04  0.14401596562E+04  0.50400001928E-02 0. -1.
       -1    1    3    3    0  502  0.89544145488E+03 -0.36437647177E+03 -0.88574815652E+02  0.97078891129E+03  0.50400001928E-02 0.  1.
</event>
<event>
 5   0  0.4143281E-05  0.2121899E+04  0.7818609E-02  0.8551657E-01
       -2   -1    0    0    0  501  0.00000000000E+00  0.00000000000E+00  0.11503072812E+04  0.11503072813E+04  0.25500000920E-02 0.  1.
        2   -1    0    0  501    0  0.00000000000E+00  0.00000000000E+00 -0.97853356313E+03  0.97853356313E+03  0.25500000920E-02 0. -1.
    10030    2    1    2    0    0  0.00000000000E+00  0.00000000000E+00  0.17177371812E+03  0.21288408444E+04  0.21218994157E+04 0.  0.
        2    1    3    3  502    0 -0.10066488401E+04 -0.20093633987E+03  0.35490014741E+03  0.10861267949E+04  0.25500000920E-02 0.  1.
       -2    1    3    3    0  502  0.10066488401E+04  0.20093633987E+03 -0.18312642929E+03  0.10427140495E+04  0.25500000920E-02 0. -1.
</event>
<event>
 5   0  0.1788413E-05  0.2198190E+04  0.7818609E-02  0.8519182E-01
        1   -1    0    0  501    0  0.00000000000E+00  0.00000000000E+00  0.18233417927E+04  0.18233417927E+04  0.50400001928E-02 0.  1.
       -1   -1    0    0    0  501  0.00000000000E+00  0.00000000000E+00 -0.66252503889E+03  0.66252503890E+03  0.50400001928E-02 0. -1.
    10030    2    1    2    0    0  0.00000000000E+00  0.00000000000E+00  0.11608167538E+04  0.24858668316E+04  0.21981897936E+04 0.  0.
        1    1    3    3  502    0 -0.14303787018E+03  0.10730680314E+04  0.36561820952E+03  0.11426335841E+04  0.50400001928E-02 0. -1.
       -1    1    3    3    0  502  0.14303787018E+03 -0.10730680314E+04  0.79519854429E+03  0.13432332475E+04  0.50400001928E-02 0.  1.
</event>
<event>
 5   0  0.1815681E-05  0.2113015E+04  0.7818609E-02  0.8555532E-01
       -1   -1    0    0    0  501  0.00000000000E+00  0.00000000000E+00  0.10534109036E+04  0.10534109036E+04  0.50400001928E-02 0. -1.
        1   -1    0    0  501    0  0.00000000000E+00  0.00000000000E+00 -0.10596133665E+04  0.10596133665E+04  0.50400001928E-02 0.  1.
    10030    2    1    2    0    0  0.00000000000E+00  0.00000000000E+00 -0.62024628934E+01  0.21130242702E+04  0.21130151669E+04 0.  0.
        2    1    3    3  502    0 -0.70928839430E+03  0.77046907719E+03 -0.14272865251E+03  0.10569219902E+04  0.25500000920E-02 0.  1.
       -2    1    3    3    0  502  0.70928839430E+03 -0.77046907719E+03  0.13652618962E+03  0.10561022799E+04  0.25500000920E-02 0. -1.
</event>
<event>
 5   0  0.4027923E-05  0.2228075E+04  0.7818609E-02  0.8506833E-01
        2   -1    0    0  501    0  0.00000000000E+00  0.00000000000E+00  0.96284995642E+03  0.96284995642E+03  0.25500000920E-02 0. -1.
       -2   -1    0    0    0  501  0.00000000000E+00  0.00000000000E+00 -0.12889640885E+04  0.12889640885E+04  0.25500000920E-02 0.  1.
    10030    2    1    2    0    0  0.00000000000E+00  0.00000000000E+00 -0.32611413208E+03  0.22518140449E+04  0.22280745198E+04 0.  0.
        5    1    3    3  502    0 -0.78643791901E+03 -0.58916196510E+03  0.36737831063E+03  0.10490878584E+04  0.46999998093E+01 0. -1.
       -5    1    3    3    0  502  0.78643791901E+03  0.58916196510E+03 -0.69349244271E+03  0.12027261865E+04  0.46999998093E+01 0.  1.
</event>
<event>
 5   0  0.1788413E-05  0.2194371E+04  0.7818609E-02  0.8520775E-01
        1   -1    0    0  501    0  0.00000000000E+00  0.00000000000E+00  0.14440404460E+04  0.14440404460E+04  0.50400001928E-02 0.  1.
       -1   -1    0    0    0  501  0.00000000000E+00  0.00000000000E+00 -0.83364406056E+03  0.83364406057E+03  0.50400001928E-02 0. -1.
    10030    2    1    2    0    0  0.00000000000E+00  0.00000000000E+00  0.61039638541E+03  0.22776845066E+04  0.21943707444E+04 0.  0.
        1    1    3    3  502    0  0.53338057120E+03 -0.28167853155E+03  0.12564983045E+04  0.13937810510E+04  0.50400001928E-02 0.  1.
       -1    1    3    3    0  502 -0.53338057120E+03  0.28167853155E+03 -0.64610191909E+03  0.88390345556E+03  0.50400001928E-02 0. -1.
</event>
<event>
 5   0  0.4132460E-05  0.2191346E+04  0.7818609E-02  0.8522039E-01
        2   -1    0    0  501    0  0.00000000000E+00  0.00000000000E+00  0.17249215695E+04  0.17249215695E+04  0.25500000920E-02 0. -1.
       -2   -1    0    0    0  501  0.00000000000E+00  0.00000000000E+00 -0.69597303833E+03  0.69597303833E+03  0.25500000920E-02 0.  1.
    10030    2    1    2    0    0  0.00000000000E+00  0.00000000000E+00  0.10289485311E+04  0.24208946078E+04  0.21913456191E+04 0.  0.
        4    1    3    3  502    0  0.10660181188E+04 -0.10412777586E+03  0.25951789545E+03  0.11020836512E+04  0.12699999809E+01 0.  1.
       -4    1    3    3    0  502 -0.10660181188E+04  0.10412777586E+03  0.76943063569E+03  0.13188109566E+04  0.12699999809E+01 0. -1.
</event>
<event>
 5   0  0.1786228E-05  0.2148958E+04  0.7818609E-02  0.8539979E-01
       -1   -1    0    0    0  501  0.00000000000E+00  0.00000000000E+00  0.64870700908E+03  0.64870700910E+03  0.50400001928E-02 0. -1.
        1   -1    0    0  501    0  0.00000000000E+00  0.00000000000E+00 -0.17797011654E+04  0.17797011654E+04  0.50400001928E-02 0.  1.
    10030    2    1    2    0    0  0.00000000000E+00  0.00000000000E+00 -0.11309941564E+04  0.24284081745E+04  0.21489575334E+04 0.  0.
        5    1    3    3  502    0  0.19019761509E+03  0.48791404101E+03 -0.16257175852E+04  0.17079856560E+04  0.46999998093E+01 0.  1.
       -5    1    3    3    0  502 -0.19019761509E+03 -0.48791404101E+03  0.49472342885E+03  0.72042251856E+03  0.46999998093E+01 0. -1.
</event>
<event>
 5   0  0.4029532E-05  0.2165479E+04  0.7818609E-02  0.8532936E-01
        2   -1    0    0  501    0  0.00000000000E+00  0.00000000000E+00  0.14956069956E+04  0.14956069956E+04  0.25500000920E-02 0.  1.
       -2   -1    0    0    0  501  0.00000000000E+00  0.00000000000E+00 -0.78384518798E+03  0.78384518799E+03  0.25500000920E-02 0. -1.
    10030    2    1    2    0    0  0.00000000000E+00  0.00000000000E+00  0.71176180759E+03  0.22794521836E+04  0.21654785583E+04 0.  0.
        3    1    3    3  502    0  0.98929645910E+03  0.97901784417E+02  0.80744913544E+03  0.12807288393E+04  0.10100000352E+00 0.  1.
       -3    1    3    3    0  502 -0.98929645910E+03 -0.97901784417E+02 -0.95687327850E+02  0.99872334422E+03  0.10100000352E+00 0. -1.
</event>
<event>
 5   0  0.4029532E-05  0.2109942E+04  0.7818609E-02  0.8556876E-01
        2   -1    0    0  501    0  0.00000000000E+00  0.00000000000E+00  0.11907871547E+04  0.11907871547E+04  0.25500000920E-02 0. -1.
       -2   -1    0    0    0  501  0.00000000000E+00  0.00000000000E+00 -0.93464570471E+03  0.93464570471E+03  0.25500000920E-02 0.  1.
    10030    2    1    2    0    0  0.00000000000E+00  0.00000000000E+00  0.25614145004E+03  0.21254328595E+04  0.21099422735E+04 0.  0.
        3    1    3    3  502    0 -0.47510434321E+03  0.76790066976E+03  0.67757402504E+03  0.11289385037E+04  0.10100000352E+00 0. -1.
       -3    1    3    3    0  502  0.47510434321E+03 -0.76790066976E+03 -0.42143257500E+03  0.99649435575E+03  0.10100000352E+00 0.  1.
</event>
<event>
 5   0  0.1884407E-05  0.2207495E+04  0.7818609E-02  0.8515315E-01
       -1   -1    0    0    0  501  0.00000000000E+00  0.00000000000E+00  0.12139315736E+04  0.12139315736E+04  0.50400001928E-02 0.  1.
        1   -1    0    0  501    0  0.00000000000E+00  0.00000000000E+00 -0.10035644739E+04  0.10035644739E+04  0.50400001928E-02 0. -1.
    10030    2    1    2    0    0  0.00000000000E+00  0.00000000000E+00  0.21036709977E+03  0.22174960475E+04  0.22074950519E+04 0.  0.
        3    1    3    3  502    0  0.55177303144E+03  0.90641258590E+03  0.41023902358E+03  0.11376877079E+04  0.10100000352E+00 0.  1.
       -3    1    3    3    0  502 -0.55177303144E+03 -0.90641258590E+03 -0.19987192381E+03  0.10798083396E+04  0.10100000352E+00 0. -1.
</event>
<event>
 5   0  0.4143281E-05  0.2213154E+04  0.7818609E-02  0.8512973E-01
       -2   -1    0    0    0  501  0.00000000000E+00  0.00000000000E+00  0.58119034772E+03  0.58119034773E+03  0.25500000920E-02 0.  1.
        2   -1    0    0  501    0  0.00000000000E+00  0.00000000000E+00 -0.21069050404E+04  0.21069050404E+04  0.25500000920E-02 0. -1.
    10030    2    1    2    0    0  0.00000000000E+00  0.00000000000E+00 -0.15257146927E+04  0.26880953882E+04  0.22131541953E+04 0.  0.
        2    1    3    3  502    0 -0.22832471657E+02 -0.44059415562E+03 -0.19954621517E+04  0.20436520571E+04  0.25500000920E-02 0. -1.
       -2    1    3    3    0  502  0.22832471657E+02  0.44059415562E+03  0.46974745897E+03  0.64444333105E+03  0.25500000920E-02 0.  1.
</event>
<event>
 5   0  0.4132460E-05  0.2199378E+04  0.7818609E-02  0.8518687E-01
       -2   -1    0    0    0  501  0.00000000000E+00  0.00000000000E+00  0.66817020217E+03  0.66817020217E+03  0.25500000920E-02 0.  1.
        2   -1    0    0  501    0  0.00000000000E+00  0.00000000000E+00 -0.18098913996E+04  0.18098913996E+04  0.25500000920E-02 0. -1.
    10030    2    1    2    0    0  0.00000000000E+00  0.00000000000E+00 -0.11417211974E+04  0.24780616018E+04  0.21993776414E+04 0.  0.
        4    1    3    3  502    0  0.97088193022E+03  0.22307278229E+03 -0.46073908400E+02  0.99724500829E+03  0.12699999809E+01 0.  1.
       -4    1    3    3    0  502 -0.97088193022E+03 -0.22307278229E+03 -0.10956472890E+04  0.14808165935E+04  0.12699999809E+01 0. -1.
</event>
<event>
 5   0  0.4132460E-05  0.2221945E+04  0.7818609E-02  0.8509349E-01
       -2   -1    0    0    0  501  0.00000000000E+00  0.00000000000E+00  0.10367317908E+04  0.10367317908E+04  0.25500000920E-02 0.  1.
        2   -1    0    0  501    0  0.00000000000E+00  0.00000000000E+00 -0.11905298578E+04  0.11905298578E+04  0.25500000920E-02 0. -1.
    10030    2    1    2    0    0  0.00000000000E+00  0.00000000000E+00 -0.15379806701E+03  0.22272616485E+04  0.22219452301E+04 0.  0.
        4    1    3    3  502    0  0.13039861899E+03  0.53134733774E+03  0.89232955741E+03  0.10467031313E+04  0.12699999809E+01 0.  1.
       -4    1    3    3    0  502 -0.13039861899E+03 -0.53134733774E+03 -0.10461276244E+04  0.11805585172E+04  0.12699999809E+01 0. -1.
</event>
<event>
 5   0  0.1866935E-05  0.2194949E+04  0.7818609E-02  0.8520533E-01
        1   -1    0    0  501    0  0.00000000000E+00  0.00000000000E+00  0.13837184047E+04  0.13837184047E+04  0.50400001928E-02 0. -1.
       -1   -1    0    0    0  501  0.00000000000E+00  0.00000000000E+00 -0.87044470236E+03  0.87044470237E+03  0.50400001928E-02 0.  1.
    10030    2    1    2    0    0  0.00000000000E+00  0.00000000000E+00  0.51327370232E+03  0.22541631071E+04  0.21949490700E+04 0.  0.
        4    1    3    3  502    0  0.51804471970E+03  0.22625369589E+03  0.12226987703E+04  0.13470541795E+04  0.12699999809E+01 0. -1.
       -4    1    3    3    0  502 -0.51804471970E+03 -0.22625369589E+03 -0.70942506801E+03  0.90710892760E+03  0.12699999809E+01 0.  1.
</event>
<event>
 5   0  0.1884407E-05  0.2208513E+04  0.7818609E-02  0.8514893E-01
       -1   -1    0    0    0  501  0.00000000000E+00  0.00000000000E+00  0.89279371144E+03  0.89279371146E+03  0.50400001928E-02 0.  1.
        1   -1    0    0  501    0  0.00000000000E+00  0.00000000000E+00 -0.13658051549E+04  0.13658051549E+04  0.50400001928E-02 0. -1.
    10030    2    1    2    0    0  0.00000000000E+00  0.00000000000E+00 -0.47301144347E+03  0.22585988664E+04  0.22085128511E+04 0.  0.
        3    1    3    3  502    0  0.97569451652E+03 -0.37954234655E+03 -0.59568300320E+03  0.12045208312E+04  0.10100000352E+00 0. -1.
       -3    1    3    3    0  502 -0.97569451652E+03  0.37954234655E+03  0.12267155973E+03  0.10540780351E+04  0.10100000352E+00 0.  1.
</event>
<event>
 5   0  0.1788413E-05  0.2203272E+04  0.7818609E-02  0.8517067E-01
        1   -1    0    0  501    0  0.00000000000E+00  0.00000000000E+00  0.14973109340E+04  0.14973109340E+04  0.50400001928E-02 0. -1.
       -1   -1    0    0    0  501  0.00000000000E+00  0.00000000000E+00 -0.81052108133E+03  0.81052108135E+03  0.50400001928E-02 0.  1.
    10030    2    1    2    0    0  0.00000000000E+00  0.00000000000E+00  0.68678985267E+03  0.23078320154E+04  0.22032721823E+04 0.  0.
        1    1    3    3  502    0  0.61347530691E+03  0.38386602525E+03 -0.52662293899E+03  0.89500659071E+03  0.50400001928E-02 0.  1.
       -1    1    3    3    0  502 -0.61347530691E+03 -0.38386602525E+03  0.12134127917E+04  0.14128254246E+04  0.50400001928E-02 0. -1.
</event>
<event>
 5   0  0.1866935E-05  0.2239926E+04  0.7818609E-02  0.8501991E-01
        1   -1    0    0  501    0  0.00000000000E+00  0.00000000000E+00  0.11882708998E+04  0.11882708998E+04  0.50400001928E-02 0. -1.
       -1   -1    0    0    0  501  0.00000000000E+00  0.00000000000E+00 -0.10555821661E+04  0.10555821661E+04  0.50400001928E-02 0.  1.
    10030    2    1    2    0    0  0.00000000000E+00  0.00000000000E+00  0.13268873366E+03  0.22438530659E+04  0.22399264009E+04 0.  0.
        4    1    3    3  502    0  0.68262065431E+03 -0.56792694306E+03 -0.61735041754E+03  0.10814967042E+04  0.12699999809E+01 0.  1.
       -4    1    3    3    0  502 -0.68262065431E+03  0.56792694306E+03  0.75003915120E+03  0.11623563617E+04  0.12699999809E+01 0. -1.
</event>
<event>
 5   0  0.1788413E-05  0.2195979E+04  0.7818609E-02  0.8520104E-01
       -1   -1    0    0    0  501  0.00000000000E+00  0.00000000000E+00  0.44619096348E+03  0.44619096351E+03  0.50400001928E-02 0. -1.
        1   -1    0    0  501    0  0.00000000000E+00  0.00000000000E+00 -0.27019385686E+04  0.27019385686E+04  0.50400001928E-02 0.  1.
    10030    2    1    2    0    0  0.00000000000E+00  0.00000000000E+00 -0.22557476052E+04  0.31481295322E+04  0.21959786641E+04 0.  0.
        1    1    3    3  502    0  0.53900168976E+03  0.95247712319E+03 -0.10008973453E+04  0.14830815849E+04  0.50400001928E-02 0. -1.
       -1    1    3    3    0  502 -0.53900168976E+03 -0.95247712319E+03 -0.12548502599E+04  0.16650479472E+04  0.50400001928E-02 0.  1.
</event>
<event>
 5   0  0.4143281E-05  0.2197176E+04  0.7818609E-02  0.8519604E-01
        2   -1    0    0  501    0  0.00000000000E+00  0.00000000000E+00  0.17501742857E+04  0.17501742857E+04  0.25500000920E-02 0. -1.
       -2   -1    0    0    0  501  0.00000000000E+00  0.00000000000E+00 -0.68958596800E+03  0.68958596801E+03  0.25500000920E-02 0.  1.
    10030    2    1    2    0    0  0.00000000000E+00  0.00000000000E+00  0.10605883177E+04  0.24397602537E+04  0.21971760321E+04 0.  0.
        2    1    3    3  502    0  0.53462177235E+03  0.79387857713E+03 -0.68535621009E+02  0.95956279943E+03  0.25500000920E-02 0.  1.
       -2    1    3    3    0  502 -0.53462177235E+03 -0.79387857713E+03  0.11291239387E+04  0.14801974543E+04  0.25500000920E-02 0. -1.
</event>
<event>
 5   0  0.1866935E-05  0.2198404E+04  0.7818609E-02  0.8519093E-01
       -1   -1    0    0    0  501  0.00000000000E+00  0.00000000000E+00  0.14505330780E+04  0.14505330780E+04  0.50400001928E-02 0. -1.
        1   -1    0    0  501    0  0.00000000000E+00  0.00000000000E+00 -0.83296609344E+03  0.83296609345E+03  0.50400001928E-02 0.  1.
    10030    2    1    2    0    0  0.00000000000E+00  0.00000000000E+00  0.61756698456E+03  0.22834991715E+04  0.21984038495E+04 0.  0.
        4    1    3    3  502    0 -0.51797830661E+02  0.42320547986E+03 -0.74357531515E+03  0.85714161937E+03  0.12699999809E+01 0.  1.
       -4    1    3    3    0  502  0.51797830661E+02 -0.42320547986E+03  0.13611422997E+04  0.14263575521E+04  0.12699999809E+01 0. -1.
</event>
<event>
 5   0  0.4132460E-05  0.2192303E+04  0.7818609E-02  0.8521639E-01
        2   -1    0    0  501    0  0.00000000000E+00  0.00000000000E+00  0.10380704312E+04  0.10380704312E+04  0.25500000920E-02 0. -1.
       -2   -1    0    0    0  501  0.00000000000E+00  0.00000000000E+00 -0.11574823636E+04  0.11574823636E+04  0.25500000920E-02 0.  1.
    10030    2    1    2    0    0  0.00000000000E+00  0.00000000000E+00 -0.11941193247E+03  0.21955527948E+04  0.21923030961E+04 0.  0.
        4    1    3    3  502    0  0.12784478941E+03  0.10582085835E+04 -0.31581322739E+03  0.11117055833E+04  0.12699999809E+01 0.  1.
       -4    1    3    3    0  502 -0.12784478941E+03 -0.10582085835E+04  0.19640129491E+03  0.10838472115E+04  0.12699999809E+01 0. -1.
</event>
<event>
 5   0  0.1788413E-05  0.2204566E+04  0.7818609E-02  0.8516530E-01
       -1   -1    0    0    0  501  0.00000000000E+00  0.00000000000E+00  0.88285684776E+03  0.88285684777E+03  0.50400001928E-02 0. -1.
        1   -1    0    0  501    0  0.00000000000E+00  0.00000000000E+00 -0.13762458102E+04  0.13762458102E+04  0.50400001928E-02 0.  1.
    10030    2    1    2    0    0  0.00000000000E+00  0.00000000000E+00 -0.49338896243E+03  0.22591026580E+04  0.22045662047E+04 0.  0.
        1    1    3    3  502    0 -0.93548796719E+03 -0.50151781649E+03 -0.55131958669E+03  0.11960815790E+04  0.50400001928E-02 0. -1.
       -1    1    3    3    0  502  0.93548796719E+03  0.50151781649E+03  0.57930624256E+02  0.10630210789E+04  0.50400001928E-02 0.  1.
</event>
<event>
 5   0  0.1884407E-05  0.2202374E+04  0.7818609E-02  0.8517441E-01
        1   -1    0    0  501    0  0.00000000000E+00  0.00000000000E+00  0.12869277648E+04  0.12869277648E+04  0.50400001928E-02 0. -1.
       -1   -1    0    0    0  501  0.00000000000E+00  0.00000000000E+00 -0.94225418512E+03  0.94225418513E+03  0.50400001928E-02 0.  1.
    10030    2    1    2    0    0  0.00000000000E+00  0.00000000000E+00  0.34467357968E+03  0.22291819499E+04  0.22023742392E+04 0.  0.
        3    1    3    3  502    0  0.48114100207E+03 -0.46188754916E+03 -0.71455727289E+03  0.97746042293E+03  0.10100000352E+00 0.  1.
       -3    1    3    3    0  502 -0.48114100207E+03  0.46188754916E+03  0.10592308526E+04  0.12517215270E+04  0.10100000352E+00 0. -1.
</event>
<event>
 5   0  0.4143281E-05  0.2201578E+04  0.7818609E-02  0.8517772E-01
       -2   -1    0    0    0  501  0.00000000000E+00  0.00000000000E+00  0.10037236916E+04  0.10037236916E+04  0.25500000920E-02 0. -1.
        2   -1    0    0  501    0  0.00000000000E+00  0.00000000000E+00 -0.12072408177E+04  0.12072408177E+04  0.25500000920E-02 0.  1.
    10030    2    1    2    0    0  0.00000000000E+00  0.00000000000E+00 -0.20351712603E+03  0.22109645093E+04  0.22015778071E+04 0.  0.
        2    1    3    3  502    0 -0.38980818818E+03  0.17193199181E+03  0.91756910384E+03  0.10116541374E+04  0.25500000920E-02 0. -1.
       -2    1    3    3    0  502  0.38980818818E+03 -0.17193199181E+03 -0.11210862299E+04  0.11993103719E+04  0.25500000920E-02 0.  1.
</event>
<event>
 5   0  0.3963414E-05  0.2192715E+04  0.7818609E-02  0.8521466E-01
        2   -1    0    0  501    0  0.00000000000E+00  0.00000000000E+00  0.17896069533E+04  0.17896069533E+04  0.25500000920E-02 0. -1.
       -2   -1    0    0    0  501  0.00000000000E+00  0.00000000000E+00 -0.67165593024E+03  0.67165593024E+03  0.25500000920E-02 0.  1.
    10030    2    1    2    0    0  0.00000000000E+00  0.00000000000E+00  0.11179510231E+04  0.24612628836E+04  0.21927153240E+04 0.  0.
        1    1    3    3  502    0 -0.57196714741E+03  0.49197733084E+03 -0.33394563380E+03  0.82505017916E+03  0.50400001928E-02 0.  1.
       -1    1    3    3    0  502  0.57196714741E+03 -0.49197733084E+03  0.14518966569E+04  0.16362127044E+04  0.50400001928E-02 0. -1.
</event>
<event>
 5   0  0.4027923E-05  0.2204591E+04  0.7818609E-02  0.8516520E-01
        2   -1    0    0  501    0  0.00000000000E+00  0.00000000000E+00  0.12420303257E+04  0.12420303257E+04  0.25500000920E-02 0.  1.
       -2   -1    0    0    0  501  0.00000000000E+00  0.00000000000E+00 -0.97828141959E+03  0.97828141960E+03  0.25500000920E-02 0. -1.
    10030    2    1    2    0    0  0.00000000000E+00  0.00000000000E+00  0.26374890612E+03  0.22203117453E+04  0.22045908375E+04 0.  0.
        5    1    3    3  502    0  0.18482330116E+02  0.21484655434E+03  0.12205697555E+04  0.12394810432E+04  0.46999998093E+01 0.  1.
       -5    1    3    3    0  502 -0.18482330116E+02 -0.21484655434E+03 -0.95682084936E+03  0.98083070212E+03  0.46999998093E+01 0. -1.
</event>
<event>
 5   0  0.1866935E-05  0.2215506E+04  0.7818609E-02  0.8512002E-01
       -1   -1    0    0    0  501  0.00000000000E+00  0.00000000000E+00  0.13870203100E+04  0.13870203100E+04  0.50400001928E-02 0.  1.
        1   -1    0    0  501    0  0.00000000000E+00  0.00000000000E+00 -0.88471392459E+03  0.88471392460E+03  0.50400001928E-02 0. -1.
    10030    2    1    2    0    0  0.00000000000E+00  0.00000000000E+00  0.50230638540E+03  0.22717342346E+04  0.22155055242E+04 0.  0.
        4    1    3    3  502    0 -0.91315680411E+03 -0.57955627581E+03  0.55458882985E+01  0.10815605371E+04  0.12699999809E+01 0.  1.
       -4    1    3    3    0  502  0.91315680411E+03  0.57955627581E+03  0.49676049710E+03  0.11901736975E+04  0.12699999809E+01 0. -1.
</event>
<event>
 5   0  0.1788413E-05  0.2184893E+04  0.7818609E-02  0.8524742E-01
        1   -1    0    0  501    0  0.00000000000E+00  0.00000000000E+00  0.10310227087E+04  0.10310227087E+04  0.50400001928E-02 0.  1.
       -1   -1    0    0    0  501  0.00000000000E+00  0.00000000000E+00 -0.11575299302E+04  0.11575299302E+04  0.50400001928E-02 0. -1.
    10030    2    1    2    0    0  0.00000000000E+00  0.00000000000E+00 -0.12650722151E+03  0.21885526389E+04  0.21848932643E+04 0.  0.
        1    1    3    3  502    0  0.34862677277E+03 -0.83021453567E+03  0.55636373596E+03  0.10584599230E+04  0.50400001928E-02 0.  1.
       -1    1    3    3    0  502 -0.34862677277E+03  0.83021453567E+03 -0.68287095747E+03  0.11300927159E+04  0.50400001928E-02 0. -1.
</event>
<event>
 5   0  0.1884407E-05  0.2196077E+04  0.7818609E-02  0.8520063E-01
        1   -1    0    0  501    0  0.00000000000E+00  0.00000000000E+00  0.11288254243E+04  0.11288254243E+04  0.50400001928E-02 0.  1.
       -1   -1    0    0    0  501  0.00000000000E+00  0.00000000000E+00 -0.10680909686E+04  0.10680909686E+04  0.50400001928E-02 0. -1.
    10030    2    1    2    0    0  0.00000000000E+00  0.00000000000E+00  0.60734455676E+02  0.21969163929E+04  0.21960767207E+04 0.  0.
        3    1    3    3  502    0 -0.11186746687E+03  0.10196680585E+04  0.42224516506E+03  0.11092917872E+04  0.10100000352E+00 0.  1.
       -3    1    3    3    0  502  0.11186746687E+03 -0.10196680585E+04 -0.36151070938E+03  0.10876246056E+04  0.10100000352E+00 0. -1.
</event>
<event>
 5   0  0.4029532E-05  0.2192787E+04  0.7818609E-02  0.8521436E-01
        2   -1    0    0  501    0  0.00000000000E+00  0.00000000000E+00  0.22708207956E+04  0.22708207956E+04  0.25500000920E-02 0.  1.
       -2   -1    0    0    0  501  0.00000000000E+00  0.00000000000E+00 -0.52935890679E+03  0.52935890680E+03  0.25500000920E-02 0. -1.
    10030    2    1    2    0    0  0.00000000000E+00  0.00000000000E+00  0.17414618888E+04  0.28001797024E+04  0.21927874625E+04 0.  0.
        3    1    3    3  502    0 -0.62913927102E+03  0.46196860080E+03  0.18539743466E+04  0.20115795034E+04  0.10100000352E+00 0.  1.
       -3    1    3    3    0  502  0.62913927102E+03 -0.46196860080E+03 -0.11251245781E+03  0.78860019898E+03  0.10100000352E+00 0. -1.
</event>
<event>
 5   0  0.4143281E-05  0.2196764E+04  0.7818609E-02  0.8519776E-01
        2   -1    0    0  501    0  0.00000000000E+00  0.00000000000E+00  0.83238796201E+03  0.83238796202E+03  0.25500000920E-02 0. -1.
       -2   -1    0    0    0  501  0.00000000000E+00  0.00000000000E+00 -0.14493756993E+04  0.14493756993E+04  0.25500000920E-02 0.  1.
    10030    2    1    2    0    0  0.00000000000E+00  0.00000000000E+00 -0.61698773728E+03  0.22817636613E+04  0.21967638786E+04 0.  0.
        2    1    3    3  502    0 -0.25191256486E+03 -0.34010165728E+03 -0.13612768191E+04  0.14255538068E+04  0.25500000920E-02 0.  1.
       -2    1    3    3    0  502  0.25191256486E+03  0.34010165728E+03  0.74428908187E+03  0.85620985455E+03  0.25500000920E-02 0. -1.
</event>
<event>
 5   0  0.1815681E-05  0.2190437E+04  0.7818609E-02  0.8522419E-01
       -1   -1    0    0    0  501  0.00000000000E+00  0.00000000000E+00  0.17965452341E+04  0.17965452341E+04  0.50400001928E-02 0.  1.
        1   -1    0    0  501    0  0.00000000000E+00  0.00000000000E+00 -0.66767223079E+03  0.66767223081E+03  0.50400001928E-02 0. -1.
    10030    2    1    2    0    0  0.00000000000E+00  0.00000000000E+00  0.11288730033E+04  0.24642174649E+04  0.21904368187E+04 0.  0.
        2    1    3    3  502    0 -0.80150109253E+03  0.60870891984E+03  0.78507878969E+02  0.10095018759E+04  0.25500000920E-02 0. -1.
       -2    1    3    3    0  502  0.80150109253E+03 -0.60870891984E+03  0.10503651243E+04  0.14547155890E+04  0.25500000920E-02 0.  1.
</event>
<event>
 5   0  0.1815681E-05  0.2197271E+04  0.7818609E-02  0.8519565E-01
        1   -1    0    0  501    0  0.00000000000E+00  0.00000000000E+00  0.83987045530E+03  0.83987045532E+03  0.50400001928E-02 0.  1.
       -1   -1    0    0    0  501  0.00000000000E+00  0.00000000000E+00 -0.14371260783E+04  0.14371260784E+04  0.50400001928E-02 0. -1.
    10030    2    1    2    0    0  0.00000000000E+00  0.00000000000E+00 -0.59725562304E+03  0.22769965337E+04  0.21972707924E+04 0.  0.
        2    1    3    3  502    0  0.46747068721E+03  0.62061245240E+03 -0.11035417264E+04  0.13496269860E+04  0.25500000920E-02 0. -1.
       -2    1    3    3    0  502 -0.46747068721E+03 -0.62061245240E+03  0.50628610335E+03  0.92736954766E+03  0.25500000920E-02 0.  1.
</event>
<event>
 5   0  0.3963414E-05  0.2198179E+04  0.7818609E-02  0.8519186E-01
        2   -1    0    0  501    0  0.00000000000E+00  0.00000000000E+00  0.20636032081E+04  0.20636032081E+04  0.25500000920E-02 0. -1.
       -2   -1    0    0    0  501  0.00000000000E+00  0.00000000000E+00 -0.58538271119E+03  0.58538271119E+03  0.25500000920E-02 0.  1.
    10030    2    1    2    0    0  0.00000000000E+00  0.00000000000E+00  0.14782204969E+04  0.26489859193E+04  0.21981789197E+04 0.  0.
        1    1    3    3  502    0  0.59884097056E+03 -0.77827793632E+03  0.13339749037E+04  0.16564468292E+04  0.50400001928E-02 0. -1.
       -1    1    3    3    0  502 -0.59884097056E+03  0.77827793632E+03  0.14424559320E+03  0.99253909009E+03  0.50400001928E-02 0.  1.
</event>
<event>
 5   0  0.1884407E-05  0.2188563E+04  0.7818609E-02  0.8523204E-01
        1   -1    0    0  501    0  0.00000000000E+00  0.00000000000E+00  0.15464377702E+04  0.15464377702E+04  0.50400001928E-02 0. -1.
       -1   -1    0    0    0  501  0.00000000000E+00  0.00000000000E+00 -0.77432912181E+03  0.77432912183E+03  0.50400001928E-02 0.  1.
    10030    2    1    2    0    0  0.00000000000E+00  0.00000000000E+00  0.77210864843E+03  0.23207668921E+04  0.21885628166E+04 0.  0.
        3    1    3    3  502    0 -0.51497555162E+03  0.11953968251E+03 -0.62992509718E+03  0.82237168770E+03  0.10100000352E+00 0.  1.
       -3    1    3    3    0  502  0.51497555162E+03 -0.11953968251E+03  0.14020337456E+04  0.14983952044E+04  0.10100000352E+00 0. -1.
</event>
<event>
 5   0  0.3963414E-05  0.2203277E+04  0.7818609E-02  0.8517066E-01
       -2   -1    0    0    0  501  0.00000000000E+00  0.00000000000E+00  0.99100206851E+03  0.99100206851E+03  0.25500000920E-02 0. -1.
        2   -1    0    0  501    0  0.00000000000E+00  0.00000000000E+00 -0.12246260667E+04  0.12246260667E+04  0.25500000920E-02 0.  1.
    10030    2    1    2    0    0  0.00000000000E+00  0.00000000000E+00 -0.23362399822E+03  0.22156281352E+04  0.22032766193E+04 0.  0.
        1    1    3    3  502    0  0.25601826558E+03  0.58027662918E+03 -0.10226060469E+04  0.12033243311E+04  0.50400001928E-02 0.  1.
       -1    1    3    3    0  502 -0.25601826558E+03 -0.58027662918E+03  0.78898204867E+03  0.10123038041E+04  0.50400001928E-02 0. -1.
</event>
<event>
 5   0  0.1815681E-05  0.2191523E+04  0.7818609E-02  0.8521965E-01
       -1   -1    0    0    0  501  0.00000000000E+00  0.00000000000E+00  0.10428605670E+04  0.10428605670E+04  0.50400001928E-02 0.  1.
        1   -1    0    0  501    0  0.00000000000E+00  0.00000000000E+00 -0.11513455467E+04  0.11513455467E+04  0.50400001928E-02 0. -1.
    10030    2    1    2    0    0  0.00000000000E+00  0.00000000000E+00 -0.10848497963E+03  0.21942061137E+04  0.21915226393E+04 0.  0.
        2    1    3    3  502    0  0.47195698365E+03  0.60696124848E+03  0.72744874643E+03  0.10584550204E+04  0.25500000920E-02 0.  1.
       -2    1    3    3    0  502 -0.47195698365E+03 -0.60696124848E+03 -0.83593372605E+03  0.11357510933E+04  0.25500000920E-02 0. -1.
</event>
<event>
 5   0  0.1866935E-05  0.2187179E+04  0.7818609E-02  0.8523784E-01
       -1   -1    0    0    0  501  0.00000000000E+00  0.00000000000E+00  0.38463751602E+03  0.38463751606E+03  0.50400001928E-02 0. -1.
        1   -1    0    0  501    0  0.00000000000E+00  0.00000000000E+00 -0.31092590811E+04  0.31092590811E+04  0.50400001928E-02 0.  1.
    10030    2    1    2    0    0  0.00000000000E+00  0.00000000000E+00 -0.27246215651E+04  0.34938965972E+04  0.21871787213E+04 0.  0.
        4    1    3    3  502    0 -0.88724854606E+03 -0.45987869269E+03 -0.20717590314E+04  0.23001924901E+04  0.12699999809E+01 0.  1.
       -4    1    3    3    0  502  0.88724854606E+03  0.45987869269E+03 -0.65286253376E+03  0.11937041071E+04  0.12699999809E+01 0. -1.
</event>
<event>
 5   0  0.4132460E-05  0.2181504E+04  0.7818609E-02  0.8526166E-01
       -2   -1    0    0    0  501  0.00000000000E+00  0.00000000000E+00  0.62564356483E+03  0.62564356484E+03  0.25500000920E-02 0. -1.
        2   -1    0    0  501    0  0.00000000000E+00  0.00000000000E+00 -0.19016260219E+04  0.19016260219E+04  0.25500000920E-02 0.  1.
    10030    2    1    2    0    0  0.00000000000E+00  0.00000000000E+00 -0.12759824571E+04  0.25272695868E+04  0.21815041447E+04 0.  0.
        4    1    3    3  502    0 -0.92121979046E+03 -0.24536668479E+03 -0.12519821286E+04  0.15736300632E+04  0.12699999809E+01 0.  1.
       -4    1    3    3    0  502  0.92121979046E+03  0.24536668479E+03 -0.24000328470E+02  0.95363952362E+03  0.12699999809E+01 0. -1.
</event>
<event>
 5   0  0.4143281E-05  0.2208073E+04  0.7818609E-02  0.8515076E-01
       -2   -1    0    0    0  501  0.00000000000E+00  0.00000000000E+00  0.93534722937E+03  0.93534722938E+03  0.25500000920E-02 0. -1.
        2   -1    0    0  501    0  0.00000000000E+00  0.00000000000E+00 -0.13031483919E+04  0.13031483919E+04  0.25500000920E-02 0.  1.
    10030    2    1    2    0    0  0.00000000000E+00  0.00000000000E+00 -0.36780116248E+03  0.22384956212E+04  0.22080726780E+04 0.  0.
        2    1    3    3  502    0  0.36125210073E+03  0.67233928701E+03 -0.99260896806E+03  0.12521244989E+04  0.25500000920E-02 0.  1.
       -2    1    3    3    0  502 -0.36125210073E+03 -0.67233928701E+03  0.62480780558E+03  0.98637112238E+03  0.25500000920E-02 0. -1.
</event>
<event>
 5   0  0.1786228E-05  0.2194559E+04  0.7818609E-02  0.8520696E-01
       -1   -1    0    0    0  501  0.00000000000E+00  0.00000000000E+00  0.15175141304E+04  0.15175141305E+04  0.50400001928E-02 0.  1.
        1   -1    0    0  501    0  0.00000000000E+00  0.00000000000E+00 -0.79341722475E+03  0.79341722476E+03  0.50400001928E-02 0. -1.
    10030    2    1    2    0    0  0.00000000000E+00  0.00000000000E+00  0.72409690570E+03  0.23109313552E+04  0.21945585888E+04 0.  0.
        5    1    3    3  502    0 -0.20332035265E+03 -0.84333342208E+03  0.10695776615E+04  0.13771597187E+04  0.46999998093E+01 0.  1.
       -5    1    3    3    0  502  0.20332035265E+03  0.84333342208E+03 -0.34548075585E+03  0.93377163657E+03  0.46999998093E+01 0. -1.
</event>
<event>
 5   0  0.4027923E-05  0.2190725E+04  0.7818609E-02  0.8522298E-01
       -2   -1    0    0    0  501  0.00000000000E+00  0.00000000000E+00  0.54812647402E+03  0.54812647403E+03  0.25500000920E-02 0.  1.
        2   -1    0    0  501    0  0.00000000000E+00  0.00000000000E+00 -0.21889460420E+04  0.21889460420E+04  0.25500000920E-02 0. -1.
    10030    2    1    2    0    0  0.00000000000E+00  0.00000000000E+00 -0.16408195680E+04  0.27370725160E+04  0.21907252460E+04 0.  0.
        5    1    3    3  502    0 -0.15439409200E+03  0.92778427106E+03 -0.11899493120E+03  0.94805225221E+03  0.46999998093E+01 0.  1.
       -5    1    3    3    0  502  0.15439409200E+03 -0.92778427106E+03 -0.15218246368E+04  0.17890202638E+04  0.46999998093E+01 0. -1.
</event>
<event>
 5   0  0.4143281E-05  0.2208190E+04  0.7818609E-02  0.8515027E-01
        2   -1    0    0  501    0  0.00000000000E+00  0.00000000000E+00  0.16908603547E+04  0.16908603547E+04  0.25500000920E-02 0. -1.
       -2   -1    0    0    0  501  0.00000000000E+00  0.00000000000E+00 -0.72095006596E+03  0.72095006596E+03  0.25500000920E-02 0.  1.
    10030    2    1    2    0    0  0.00000000000E+00  0.00000000000E+00  0.96991028871E+03  0.24118104206E+04  0.22081901043E+04 0.  0.
        2    1    3    3  502    0 -0.83723811413E+03  0.30331380605E+03 -0.22796610445E+03  0.91920371490E+03  0.25500000920E-02 0.  1.
       -2    1    3    3    0  502  0.83723811413E+03 -0.30331380605E+03  0.11978763932E+04  0.14926067057E+04  0.25500000920E-02 0. -1.
</event>
<event>
 5   0  0.4027923E-05  0.2203644E+04  0.7818609E-02  0.8516913E-01
       -2   -1    0    0    0  501  0.00000000000E+00  0.00000000000E+00  0.64946253717E+03  0.64946253717E+03  0.25500000920E-02 0. -1.
        2   -1    0    0  501    0  0.00000000000E+00  0.00000000000E+00 -0.18692558818E+04  0.18692558818E+04  0.25500000920E-02 0.  1.
    10030    2    1    2    0    0  0.00000000000E+00  0.00000000000E+00 -0.12197933447E+04  0.25187184190E+04  0.22036439528E+04 0.  0.
        5    1    3    3  502    0  0.30692650868E+03 -0.29507817305E+03 -0.17714210894E+04  0.18218753458E+04  0.46999998093E+01 0.  1.
       -5    1    3    3    0  502 -0.30692650868E+03  0.29507817305E+03  0.55162774468E+03  0.69684307318E+03  0.46999998093E+01 0. -1.
</event>
<event>
 5   0  0.1884407E-05  0.2220166E+04  0.7818609E-02  0.8510081E-01
        1   -1    0    0  501    0  0.00000000000E+00  0.00000000000E+00  0.15530175346E+04  0.15530175346E+04  0.50400001928E-02 0. -1.
       -1   -1    0    0    0  501  0.00000000000E+00  0.00000000000E+00 -0.79347725571E+03  0.79347725573E+03  0.50400001928E-02 0.  1.
    10030    2    1    2    0    0  0.00000000000E+00  0.00000000000E+00  0.75954027887E+03  0.23464947903E+04  0.22201658419E+04 0.  0.
        3    1    3    3  502    0  0.96663535519E+03  0.77091178646E+02 -0.19130560467E+03  0.98839506489E+03  0.10100000352E+00 0.  1.
       -3    1    3    3    0  502 -0.96663535519E+03 -0.77091178646E+02  0.95084588354E+03  0.13580997254E+04  0.10100000352E+00 0. -1.
</event>
<event>
 5   0  0.3963414E-05  0.2238600E+04  0.7818609E-02  0.8502532E-01
        2   -1    0    0  501    0  0.00000000000E+00  0.00000000000E+00  0.11695061737E+04  0.11695061737E+04  0.25500000920E-02 0.  1.
       -2   -1    0    0    0  501  0.00000000000E+00  0.00000000000E+00 -0.10712490835E+04  0.10712490835E+04  0.25500000920E-02 0. -1.
    10030    2    1    2    0    0  0.00000000000E+00  0.00000000000E+00  0.98257090201E+02  0.22407552573E+04  0.22385999346E+04 0.  0.
        1    1    3    3  502    0  0.10464305941E+04 -0.22890522947E+03  0.37412225979E+03  0.11346285990E+04  0.50400001928E-02 0. -1.
       -1    1    3    3    0  502 -0.10464305941E+04  0.22890522947E+03 -0.27586516959E+03  0.11061266583E+04  0.50400001928E-02 0.  1.
</event>
<event>
 5   0  0.1884407E-05  0.2141236E+04  0.7818609E-02  0.8543293E-01
       -1   -1    0    0    0  501  0.00000000000E+00  0.00000000000E+00  0.82325075015E+03  0.82325075017E+03  0.50400001928E-02 0. -1.
        1   -1    0    0  501    0  0.00000000000E+00  0.00000000000E+00 -0.13923127254E+04  0.13923127254E+04  0.50400001928E-02 0.  1.
    10030    2    1    2    0    0  0.00000000000E+00  0.00000000000E+00 -0.56906197522E+03  0.22155634755E+04  0.21412356205E+04 0.  0.
        3    1    3    3  502    0 -0.10349992789E+04 -0.15428053433E+03 -0.51865170805E+03  0.11679150633E+04  0.10100000352E+00 0.  1.
       -3    1    3    3    0  502  0.10349992789E+04  0.15428053433E+03 -0.50410267171E+02  0.10476484123E+04  0.10100000352E+00 0. -1.
</event>
<event>
 5   0  0.4143281E-05  0.2438266E+04  0.7818609E-02  0.8425315E-01
        2   -1    0    0  501    0  0.00000000000E+00  0.00000000000E+00  0.16415346347E+04  0.16415346347E+04  0.25500000920E-02 0.  1.
       -2   -1    0    0    0  501  0.00000000000E+00  0.00000000000E+00 -0.90542415642E+03  0.90542415642E+03  0.25500000920E-02 0. -1.
    10030    2    1    2    0    0  0.00000000000E+00  0.00000000000E+00  0.73611047827E+03  0.25469587911E+04  0.24382658689E+04 0.  0.
        2    1    3    3  502    0 -0.21470615812E+03  0.99043077885E+03 -0.33982130377E+03  0.10688921276E+04  0.25500000920E-02 0. -1.
       -2    1    3    3    0  502  0.21470615812E+03 -0.99043077885E+03  0.10759317820E+04  0.14780666635E+04  0.25500000920E-02 0.  1.
</event>
<event>
 5   0  0.4029532E-05  0.2220398E+04  0.7818609E-02  0.8509986E-01
        2   -1    0    0  501    0  0.00000000000E+00  0.00000000000E+00  0.14177740612E+04  0.14177740612E+04  0.25500000920E-02 0. -1.
       -2   -1    0    0    0  501  0.00000000000E+00  0.00000000000E+00 -0.86935003148E+03  0.86935003149E+03  0.25500000920E-02 0.  1.
    10030    2    1    2    0    0  0.00000000000E+00  0.00000000000E+00  0.54842402967E+03  0.22871240926E+04  0.22203980947E+04 0.  0.
        3    1    3    3  502    0 -0.10755946365E+04 -0.27481865454E+03  0.26327213030E+03  0.11409387975E+04  0.10100000352E+00 0. -1.
       -3    1    3    3    0  502  0.10755946365E+04  0.27481865454E+03  0.28515189936E+03  0.11461852951E+04  0.10100000352E+00 0.  1.
</event>
<event>
 5   0  0.3963414E-05  0.2202189E+04  0.7818609E-02  0.8517518E-01
        2   -1    0    0  501    0  0.00000000000E+00  0.00000000000E+00  0.18754383006E+04  0.18754383006E+04  0.25500000920E-02 0.  1.
       -2   -1    0    0    0  501  0.00000000000E+00  0.00000000000E+00 -0.64646712221E+03  0.64646712222E+03  0.25500000920E-02 0. -1.
    10030    2    1    2    0    0  0.00000000000E+00  0.00000000000E+00  0.12289711784E+04  0.25219054228E+04  0.22021890937E+04 0.  0.
        1    1    3    3  502    0  0.20369556099E+03  0.86231750764E+03 -0.13412120311E+03  0.89614276915E+03  0.50400001928E-02 0. -1.
       -1    1    3    3    0  502 -0.20369556099E+03 -0.86231750764E+03  0.13630923815E+04  0.16257626536E+04  0.50400001928E-02 0.  1.
</event>
<event>
 5   0  0.4027923E-05  0.2204895E+04  0.7818609E-02  0.8516393E-01
       -2   -1    0    0    0  501  0.00000000000E+00  0.00000000000E+00  0.72245613402E+03  0.72245613402E+03  0.25500000920E-02 0.  1.
        2   -1    0    0  501    0  0.00000000000E+00  0.00000000000E+00 -0.16823036703E+04  0.16823036703E+04  0.25500000920E-02 0. -1.
    10030    2    1    2    0    0  0.00000000000E+00  0.00000000000E+00 -0.95984753630E+03  0.24047598043E+04  0.22048951049E+04 0.  0.
        5    1    3    3  502    0 -0.77238454903E+03 -0.63764933534E+03  0.22476970058E+02  0.10018492255E+04  0.46999998093E+01 0.  1.
       -5    1    3    3    0  502  0.77238454903E+03  0.63764933534E+03 -0.98232450636E+03  0.14029105788E+04  0.46999998093E+01 0. -1.
</event>
<event>
 5   0  0.1866935E-05  0.2252786E+04  0.7818609E-02  0.8496773E-01
        1   -1    0    0  501    0  0.00000000000E+00  0.00000000000E+00  0.81802882642E+03  0.81802882644E+03  0.50400001928E-02 0. -1.
       -1   -1    0    0    0  501  0.00000000000E+00  0.00000000000E+00 -0.15509988231E+04  0.15509988231E+04  0.50400001928E-02 0.  1.
    10030    2    1    2    0    0  0.00000000000E+00  0.00000000000E+00 -0.73296999669E+03  0.23690276496E+04  0.22527864942E+04 0.  0.
        4    1    3    3  502    0  0.71533755150E+03  0.67918983381E+03  0.20540833735E+03  0.10075717547E+04  0.12699999809E+01 0. -1.
       -4    1    3    3    0  502 -0.71533755150E+03 -0.67918983381E+03 -0.93837833403E+03  0.13614558948E+04  0.12699999809E+01 0.  1.
</event>
<event>
 5   0  0.1786228E-05  0.2195288E+04  0.7818609E-02  0.8520392E-01
       -1   -1    0    0    0  501  0.00000000000E+00  0.00000000000E+00  0.75210436549E+03  0.75210436551E+03  0.50400001928E-02 0. -1.
        1   -1    0    0  501    0  0.00000000000E+00  0.00000000000E+00 -0.16019353580E+04  0.16019353580E+04  0.50400001928E-02 0.  1.
    10030    2    1    2    0    0  0.00000000000E+00  0.00000000000E+00 -0.84983099246E+03  0.23540397235E+04  0.21952882052E+04 0.  0.
        5    1    3    3  502    0 -0.13396120976E+03  0.50217084601E+03  0.61178560635E+03  0.80276078781E+03  0.46999998093E+01 0. -1.
       -5    1    3    3    0  502  0.13396120976E+03 -0.50217084601E+03 -0.14616165988E+04  0.15512789357E+04  0.46999998093E+01 0.  1.
</event>
<event>
 5   0  0.4132460E-05  0.2153585E+04  0.7818609E-02  0.8537999E-01
       -2   -1    0    0    0  501  0.00000000000E+00  0.00000000000E+00  0.11530013228E+04  0.11530013228E+04  0.25500000920E-02 0. -1.
        2   -1    0    0  501    0  0.00000000000E+00  0.00000000000E+00 -0.10056208197E+04  0.10056208197E+04  0.25500000920E-02 0.  1.
    10030    2    1    2    0    0  0.00000000000E+00  0.00000000000E+00  0.14738050313E+03  0.21586221424E+04  0.21535850439E+04 0.  0.
        4    1    3    3  502    0 -0.76759624533E+03 -0.62291280875E+03  0.50160347575E+03  0.11085269609E+04  0.12699999809E+01 0. -1.
       -4    1    3    3    0  502  0.76759624533E+03  0.62291280875E+03 -0.35422297263E+03  0.10500951816E+04  0.12699999809E+01 0.  1.
</event>
<event>
 5   0  0.1866935E-05  0.2230381E+04  0.7818609E-02  0.8505888E-01
        1   -1    0    0  501    0  0.00000000000E+00  0.00000000000E+00  0.20827591892E+04  0.20827591892E+04  0.50400001928E-02 0.  1.
       -1   -1    0    0    0  501  0.00000000000E+00  0.00000000000E+00 -0.59711648481E+03  0.59711648483E+03  0.50400001928E-02 0. -1.
    10030    2    1    2    0    0  0.00000000000E+00  0.00000000000E+00  0.14856427044E+04  0.26798756740E+04  0.22303809951E+04 0.  0.
        4    1    3    3  502    0 -0.12404867765E+03 -0.68647105295E+02  0.20718858252E+04  0.20767313223E+04  0.12699999809E+01 0.  1.
       -4    1    3    3    0  502  0.12404867765E+03  0.68647105295E+02 -0.58624312078E+03  0.60314435176E+03  0.12699999809E+01 0. -1.
</event>
<event>
 5   0  0.1788413E-05  0.2206801E+04  0.7818609E-02  0.8515603E-01
       -1   -1    0    0    0  501  0.00000000000E+00  0.00000000000E+00  0.77320529801E+03  0.77320529802E+03  0.50400001928E-02 0. -1.
        1   -1    0    0  501    0  0.00000000000E+00  0.00000000000E+00 -0.15746042252E+04  0.15746042252E+04  0.50400001928E-02 0.  1.
    10030    2    1    2    0    0  0.00000000000E+00  0.00000000000E+00 -0.80139892716E+03  0.23478095232E+04  0.22068006971E+04 0.  0.
        1    1    3    3  502    0  0.27924192150E+03 -0.86664656724E+03  0.26237411572E+03  0.94757189693E+03  0.50400001928E-02 0. -1.
       -1    1    3    3    0  502 -0.27924192150E+03  0.86664656724E+03 -0.10637730429E+04  0.14002376263E+04  0.50400001928E-02 0.  1.
</event>
<event>
 5   0  0.3963414E-05  0.2127783E+04  0.7818609E-02  0.8549103E-01
       -2   -1    0    0    0  501  0.00000000000E+00  0.00000000000E+00  0.10761506151E+04  0.10761506151E+04  0.25500000920E-02 0.  1.
        2   -1    0    0  501    0  0.00000000000E+00  0.00000000000E+00 -0.10517718740E+04  0.10517718740E+04  0.25500000920E-02 0. -1.
    10030    2    1    2    0    0  0.00000000000E+00  0.00000000000E+00  0.24378741146E+02  0.21279224891E+04  0.21277828358E+04 0.  0.
        1    1    3    3  502    0  0.72888389763E+02 -0.32278647462E+02  0.10731597129E+04  0.10761163496E+04  0.50400001928E-02 0.  1.
       -1    1    3    3    0  502 -0.72888389763E+02  0.32278647462E+02 -0.10487809717E+04  0.10518061395E+04  0.50400001928E-02 0. -1.
</event>
<event>
 5   0  0.1786228E-05  0.2183826E+04  0.7818609E-02  0.8525190E-01
        1   -1    0    0  501    0  0.00000000000E+00  0.00000000000E+00  0.13286612899E+04  0.13286612899E+04  0.50400001928E-02 0.  1.
       -1   -1    0    0    0  501  0.00000000000E+00  0.00000000000E+00 -0.89735013372E+03  0.89735013373E+03  0.50400001928E-02 0. -1.
    10030    2    1    2    0    0  0.00000000000E+00  0.00000000000E+00  0.43131115622E+03  0.22260114237E+04  0.21838263541E+04 0.  0.
        5    1    3    3  502    0 -0.19934055435E+03 -0.95493510826E+03 -0.28434471016E+03  0.10161258395E+04  0.46999998093E+01 0. -1.
       -5    1    3    3    0  502  0.19934055435E+03  0.95493510826E+03  0.71565586638E+03  0.12098855841E+04  0.46999998093E+01 0.  1.
</event>
<event>
 5   0  0.4132460E-05  0.2196687E+04  0.7818609E-02  0.8519808E-01
       -2   -1    0    0    0  501  0.00000000000E+00  0.00000000000E+00  0.10470146581E+04  0.10470146581E+04  0.25500000920E-02 0.  1.
        2   -1    0    0  501    0  0.00000000000E+00  0.00000000000E+00 -0.11521885864E+04  0.11521885864E+04  0.25500000920E-02 0. -1.
    10030    2    1    2    0    0  0.00000000000E+00  0.00000000000E+00 -0.10517392831E+03  0.21992032446E+04  0.21966869044E+04 0.  0.
        4    1    3    3  502    0 -0.46784697285E+03  0.38048013773E+02 -0.10467140190E+04  0.11471444075E+04  0.12699999809E+01 0. -1.
       -4    1    3    3    0  502  0.46784697285E+03 -0.38048013773E+02  0.94154009066E+03  0.10520588370E+04  0.12699999809E+01 0.  1.
</event>
<event>
 5   0  0.3963414E-05  0.2206718E+04  0.7818609E-02  0.8515637E-01
        2   -1    0    0  501    0  0.00000000000E+00  0.00000000000E+00  0.12424773497E+04  0.12424773497E+04  0.25500000920E-02 0. -1.
       -2   -1    0    0    0  501  0.00000000000E+00  0.00000000000E+00 -0.97981789215E+03  0.97981789215E+03  0.25500000920E-02 0.  1.
    10030    2    1    2    0    0  0.00000000000E+00  0.00000000000E+00  0.26265945753E+03  0.22222952418E+04  0.22067184123E+04 0.  0.
        1    1    3    3  502    0 -0.11579798221E+03  0.58728481321E+03 -0.80208337817E+03  0.10008248449E+04  0.50400001928E-02 0.  1.
       -1    1    3    3    0  502  0.11579798221E+03 -0.58728481321E+03  0.10647428357E+04  0.12214703970E+04  0.50400001928E-02 0. -1.
</event>
<event>
 5   0  0.4029532E-05  0.2197065E+04  0.7818609E-02  0.8519651E-01
       -2   -1    0    0    0  501  0.00000000000E+00  0.00000000000E+00  0.83008070226E+03  0.83008070226E+03  0.25500000920E-02 0.  1.
        2   -1    0    0  501    0  0.00000000000E+00  0.00000000000E+00 -0.14538023260E+04  0.14538023260E+04  0.25500000920E-02 0. -1.
    10030    2    1    2    0    0  0.00000000000E+00  0.00000000000E+00 -0.62372162378E+03  0.22838830283E+04  0.21970646379E+04 0.  0.
        3    1    3    3  502    0 -0.37245140111E+03 -0.10334665922E+04 -0.31181345615E+03  0.11419285814E+04  0.10100000352E+00 0.  1.
       -3    1    3    3    0  502  0.37245140111E+03  0.10334665922E+04 -0.31190816763E+03  0.11419544469E+04  0.10100000352E+00 0. -1.
</event>
<event>
 5   0  0.4143281E-05  0.2157202E+04  0.7818609E-02  0.8536456E-01
        2   -1    0    0  501    0  0.00000000000E+00  0.00000000000E+00  0.17261001174E+04  0.17261001174E+04  0.25500000920E-02 0. -1.
       -2   -1    0    0    0  501  0.00000000000E+00  0.00000000000E+00 -0.67399341368E+03  0.67399341369E+03  0.25500000920E-02 0.  1.
    10030    2    1    2    0    0  0.00000000000E+00  0.00000000000E+00  0.10521067037E+04  0.24000935311E+04  0.21572019938E+04 0.  0.
        2    1    3    3  502    0  0.69947429254E+03  0.19716046306E+03  0.14128162099E+04  0.15887687614E+04  0.25500000920E-02 0. -1.
       -2    1    3    3    0  502 -0.69947429254E+03 -0.19716046306E+03 -0.36070950619E+03  0.81132476973E+03  0.25500000920E-02 0.  1.
</event>
<event>
 5   0  0.3963414E-05  0.2204089E+04  0.7818609E-02  0.8516728E-01
       -2   -1    0    0    0  501  0.00000000000E+00  0.00000000000E+00  0.79635945728E+03  0.79635945729E+03  0.25500000920E-02 0.  1.
        2   -1    0    0  501    0  0.00000000000E+00  0.00000000000E+00 -0.15250679580E+04  0.15250679580E+04  0.25500000920E-02 0. -1.
    10030    2    1    2    0    0  0.00000000000E+00  0.00000000000E+00 -0.72870850075E+03  0.23214274153E+04  0.22040891918E+04 0.  0.
        1    1    3    3  502    0 -0.66145962660E+02  0.70182447336E+03 -0.12565453835E+04  0.14407772835E+04  0.50400001928E-02 0. -1.
       -1    1    3    3    0  502  0.66145962660E+02 -0.70182447336E+03  0.52783688279E+03  0.88065013180E+03  0.50400001928E-02 0.  1.
</event>
<event>
 5   0  0.4027923E-05  0.2195315E+04  0.7818609E-02  0.8520381E-01
        2   -1    0    0  501    0  0.00000000000E+00  0.00000000000E+00  0.84121330590E+03  0.84121330591E+03  0.25500000920E-02 0.  1.
       -2   -1    0    0    0  501  0.00000000000E+00  0.00000000000E+00 -0.14322788487E+04  0.14322788487E+04  0.25500000920E-02 0. -1.
    10030    2    1    2    0    0  0.00000000000E+00  0.00000000000E+00 -0.59106554283E+03  0.22734921546E+04  0.21953150346E+04 0.  0.
        5    1    3    3  502    0 -0.97806994816E+03 -0.27373234648E+03 -0.72662527402E+03  0.12488220849E+04  0.46999998093E+01 0. -1.
       -5    1    3    3    0  502  0.97806994816E+03  0.27373234648E+03  0.13555973120E+03  0.10246700697E+04  0.46999998093E+01 0.  1.
</event>
<event>
 5   0  0.4143281E-05  0.2162325E+04  0.7818609E-02  0.8534275E-01
        2   -1    0    0  501    0  0.00000000000E+00  0.00000000000E+00  0.97351059294E+03  0.97351059294E+03  0.25500000920E-02 0. -1.
       -2   -1    0    0    0  501  0.00000000000E+00  0.00000000000E+00 -0.12007190229E+04  0.12007190230E+04  0.25500000920E-02 0.  1.
    10030    2    1    2    0    0  0.00000000000E+00  0.00000000000E+00 -0.22720843001E+03  0.21742296159E+04  0.21623253113E+04 0.  0.
        2    1    3    3  502    0  0.14558057544E+03  0.30351654376E+03  0.91947443256E+03  0.97915740737E+03  0.25500000920E-02 0. -1.
       -2    1    3    3    0  502 -0.14558057544E+03 -0.30351654376E+03 -0.11466828626E+04  0.11950722085E+04  0.25500000920E-02 0.  1.
</event>
<event>
 5   0  0.1884407E-05  0.2204104E+04  0.7818609E-02  0.8516722E-01
        1   -1    0    0  501    0  0.00000000000E+00  0.00000000000E+00  0.21681638754E+04  0.21681638754E+04  0.50400001928E-02 0.  1.
       -1   -1    0    0    0  501  0.00000000000E+00  0.00000000000E+00 -0.56015976289E+03  0.56015976292E+03  0.50400001928E-02 0. -1.
    10030    2    1    2    0    0  0.00000000000E+00  0.00000000000E+00  0.16080041125E+04  0.27283236383E+04  0.22041035932E+04 0.  0.
        3    1    3    3  502    0 -0.30307872556E+03  0.21754227048E+02  0.21152859609E+04  0.21369989862E+04  0.10100000352E+00 0.  1.
       -3    1    3    3    0  502  0.30307872556E+03 -0.21754227048E+02 -0.50728184842E+03  0.59132465213E+03  0.10100000352E+00 0. -1.
</event>
<event>
 5   0  0.1788413E-05  0.2212179E+04  0.7818609E-02  0.8513376E-01
       -1   -1    0    0    0  501  0.00000000000E+00  0.00000000000E+00  0.99687869863E+03  0.99687869864E+03  0.50400001928E-02 0.  1.
        1   -1    0    0  501    0  0.00000000000E+00  0.00000000000E+00 -0.12272642225E+04  0.12272642225E+04  0.50400001928E-02 0. -1.
    10030    2    1    2    0    0  0.00000000000E+00  0.00000000000E+00 -0.23038552385E+03  0.22241429211E+04  0.22121786194E+04 0.  0.
        1    1    3    3  502    0 -0.49215118769E+03  0.37518556238E+02  0.88001585448E+03  0.10089838144E+04  0.50400001928E-02 0.  1.
       -1    1    3    3    0  502  0.49215118769E+03 -0.37518556238E+02 -0.11104013783E+04  0.12151591067E+04  0.50400001928E-02 0. -1.
</event>
<event>
 5   0  0.4143281E-05  0.2203943E+04  0.7818609E-02  0.8516789E-01
        2   -1    0    0  501    0  0.00000000000E+00  0.00000000000E+00  0.18186911565E+04  0.18186911565E+04  0.25500000920E-02 0.  1.
       -2   -1    0    0    0  501  0.00000000000E+00  0.00000000000E+00 -0.66770038823E+03  0.66770038824E+03  0.25500000920E-02 0. -1.
    10030    2    1    2    0    0  0.00000000000E+00  0.00000000000E+00  0.11509907683E+04  0.24863915448E+04  0.22039426411E+04 0.  0.
        2    1    3    3  502    0 -0.10512815405E+04  0.18971600021E+03  0.88063140313E+03  0.13844481595E+04  0.25500000920E-02 0.  1.
       -2    1    3    3    0  502  0.10512815405E+04 -0.18971600021E+03  0.27035936516E+03  0.11019433853E+04  0.25500000920E-02 0. -1.
</event>
<event>
 5   0  0.4027923E-05  0.2172787E+04  0.7818609E-02  0.8529841E-01
        2   -1    0    0  501    0  0.00000000000E+00  0.00000000000E+00  0.20597532601E+04  0.20597532601E+04  0.25500000920E-02 0. -1.
       -2   -1    0    0    0  501  0.00000000000E+00  0.00000000000E+00 -0.57300619034E+03  0.57300619035E+03  0.25500000920E-02 0.  1.
    10030    2    1    2    0    0  0.00000000000E+00  0.00000000000E+00  0.14867470697E+04  0.26327594504E+04  0.21727874895E+04 0.  0.
        5    1    3    3  502    0 -0.57137459356E+03 -0.70996630804E+03  0.14599240828E+04  0.17210233881E+04  0.46999998093E+01 0. -1.
       -5    1    3    3    0  502  0.57137459356E+03  0.70996630804E+03  0.26822986890E+02  0.91173606232E+03  0.46999998093E+01 0.  1.
</event>
<event>
 5   0  0.4027923E-05  0.2192209E+04  0.7818609E-02  0.8521678E-01
        2   -1    0    0  501    0  0.00000000000E+00  0.00000000000E+00  0.21043147022E+04  0.21043147022E+04  0.25500000920E-02 0. -1.
       -2   -1    0    0    0  501  0.00000000000E+00  0.00000000000E+00 -0.57094342305E+03  0.57094342306E+03  0.25500000920E-02 0.  1.
    10030    2    1    2    0    0  0.00000000000E+00  0.00000000000E+00  0.15333712792E+04  0.26752581253E+04  0.21922086025E+04 0.  0.
        5    1    3    3  502    0 -0.46948736510E+03 -0.81210365675E+03  0.74745103539E+02  0.94103116622E+03  0.46999998093E+01 0.  1.
       -5    1    3    3    0  502  0.46948736510E+03  0.81210365675E+03  0.14586261756E+04  0.17342269590E+04  0.46999998093E+01 0. -1.
</event>
<event>
 5   0  0.1866935E-05  0.2193580E+04  0.7818609E-02  0.8521105E-01
        1   -1    0    0  501    0  0.00000000000E+00  0.00000000000E+00  0.10838423599E+04  0.10838423599E+04  0.50400001928E-02 0.  1.
       -1   -1    0    0    0  501  0.00000000000E+00  0.00000000000E+00 -0.11098928165E+04  0.11098928165E+04  0.50400001928E-02 0. -1.
    10030    2    1    2    0    0  0.00000000000E+00  0.00000000000E+00 -0.26050456667E+02  0.21937351764E+04  0.21935804973E+04 0.  0.
        4    1    3    3  502    0  0.72618813046E+03  0.74164484316E+03 -0.36739603800E+03  0.11010757176E+04  0.12699999809E+01 0. -1.
       -4    1    3    3    0  502 -0.72618813046E+03 -0.74164484316E+03  0.34134558133E+03  0.10926594588E+04  0.12699999809E+01 0.  1.
</event>
<event>
 5   0  0.1786228E-05  0.2170085E+04  0.7818609E-02  0.8530984E-01
        1   -1    0    0  501    0  0.00000000000E+00  0.00000000000E+00  0.10673141899E+04  0.10673141900E+04  0.50400001928E-02 0. -1.
       -1   -1    0    0    0  501  0.00000000000E+00  0.00000000000E+00 -0.11030652497E+04  0.11030652497E+04  0.50400001928E-02 0.  1.
    10030    2    1    2    0    0  0.00000000000E+00  0.00000000000E+00 -0.35751059793E+02  0.21703794397E+04  0.21700849693E+04 0.  0.
        5    1    3    3  502    0 -0.10146813246E+04  0.34190691553E+03 -0.19344585217E+03  0.10880817603E+04  0.46999998093E+01 0.  1.
       -5    1    3    3    0  502  0.10146813246E+04 -0.34190691553E+03  0.15769479238E+03  0.10822976794E+04  0.46999998093E+01 0. -1.
</event>
<event>
 5   0  0.3963414E-05  0.2205752E+04  0.7818609E-02  0.8516038E-01
        2   -1    0    0  501    0  0.00000000000E+00  0.00000000000E+00  0.10459107212E+04  0.10459107212E+04  0.25500000920E-02 0.  1.
       -2   -1    0    0    0  501  0.00000000000E+00  0.00000000000E+00 -0.11629433922E+04  0.11629433922E+04  0.25500000920E-02 0. -1.
    10030    2    1    2    0    0  0.00000000000E+00  0.00000000000E+00 -0.11703267107E+03  0.22088541134E+04  0.22057515382E+04 0.  0.
        1    1    3    3  502    0 -0.70837144646E+01 -0.67811848047E+03 -0.92947534689E+03  0.11505734540E+04  0.50400001928E-02 0. -1.
       -1    1    3    3    0  502  0.70837144646E+01  0.67811848047E+03  0.81244267582E+03  0.10582806594E+04  0.50400001928E-02 0.  1.
</event>
<event>
 5   0  0.4132460E-05  0.2205294E+04  0.7818609E-02  0.8516228E-01
       -2   -1    0    0    0  501  0.00000000000E+00  0.00000000000E+00  0.15914187799E+04  0.15914187799E+04  0.25500000920E-02 0. -1.
        2   -1    0    0  501    0  0.00000000000E+00  0.00000000000E+00 -0.76399130543E+03  0.76399130543E+03  0.25500000920E-02 0.  1.
    10030    2    1    2    0    0  0.00000000000E+00  0.00000000000E+00  0.82742747444E+03  0.23554100853E+04  0.22052937320E+04 0.  0.
        4    1    3    3  502    0 -0.73430921207E+03 -0.62201899425E+03  0.98860070994E+03  0.13796559806E+04  0.12699999809E+01 0. -1.
       -4    1    3    3    0  502  0.73430921207E+03  0.62201899425E+03 -0.16117323550E+03  0.97575410472E+03  0.12699999809E+01 0.  1.
</event>
<event>
 5   0  0.4143281E-05  0.2202135E+04  0.7818609E-02  0.8517540E-01
        2   -1    0    0  501    0  0.00000000000E+00  0.00000000000E+00  0.21455281754E+04  0.21455281754E+04  0.25500000920E-02 0. -1.
       -2   -1    0    0    0  501  0.00000000000E+00  0.00000000000E+00 -0.56505885804E+03  0.56505885805E+03  0.25500000920E-02 0.  1.
    10030    2    1    2    0    0  0.00000000000E+00  0.00000000000E+00  0.15804693174E+04  0.27105870335E+04  0.22021350555E+04 0.  0.
        2    1    3    3  502    0 -0.78428404214E+03  0.73126776157E+03  0.48252262236E+03  0.11758750269E+04  0.25500000920E-02 0. -1.
       -2    1    3    3    0  502  0.78428404214E+03 -0.73126776157E+03  0.10979466950E+04  0.15347120065E+04  0.25500000920E-02 0.  1.
</event>
<event>
 5   0  0.4143281E-05  0.2172271E+04  0.7818609E-02  0.8530059E-01
       -2   -1    0    0    0  501  0.00000000000E+00  0.00000000000E+00  0.10208683987E+04  0.10208683987E+04  0.25500000920E-02 0.  1.
        2   -1    0    0  501    0  0.00000000000E+00  0.00000000000E+00 -0.11555757716E+04  0.11555757716E+04  0.25500000920E-02 0. -1.
    10030    2    1    2    0    0  0.00000000000E+00  0.00000000000E+00 -0.13470737296E+03  0.21764441703E+04  0.21722714264E+04 0.  0.
        2    1    3    3  502    0  0.16073479491E+03  0.10582450767E+04  0.11731659386E+03  0.10767922269E+04  0.25500000920E-02 0.  1.
       -2    1    3    3    0  502 -0.16073479491E+03 -0.10582450767E+04 -0.25202396682E+03  0.10996519434E+04  0.25500000920E-02 0. -1.
</event>
<event>
 5   0  0.1433375E-05  0.2206548E+04  0.7818609E-02  0.8515708E-01
        4   -1    0    0  501    0  0.00000000000E+00  0.00000000000E+00  0.76253204629E+03  0.76253310388E+03  0.12699999809E+01 0. -1.
       -4   -1    0    0    0  501  0.00000000000E+00  0.00000000000E+00 -0.15962754137E+04  0.15962759189E+04  0.12699999809E+01 0.  1.
    10030    2    1    2    0    0  0.00000000000E+00  0.00000000000E+00 -0.83374336742E+03  0.23588090228E+04  0.22065475303E+04 0.  0.
        5    1    3    3  502    0  0.65792967216E+03 -0.19193955375E+03  0.50735583233E+03  0.85272755110E+03  0.46999998093E+01 0. -1.
       -5    1    3    3    0  502 -0.65792967216E+03  0.19193955375E+03 -0.13410991997E+04  0.15060814717E+04  0.46999998093E+01 0.  1.
</event>
<event>
 5   0  0.1884407E-05  0.2194370E+04  0.7818609E-02  0.8520775E-01
        1   -1    0    0  501    0  0.00000000000E+00  0.00000000000E+00  0.10678409589E+04  0.10678409589E+04  0.50400001928E-02 0.  1.
       -1   -1    0    0    0  501  0.00000000000E+00  0.00000000000E+00 -0.11273351258E+04  0.11273351258E+04  0.50400001928E-02 0. -1.
    10030    2    1    2    0    0  0.00000000000E+00  0.00000000000E+00 -0.59494166830E+02  0.21951760847E+04  0.21943697243E+04 0.  0.
        3    1    3    3  502    0 -0.49992702161E+02 -0.99002938260E+03  0.44069922495E+03  0.10848378984E+04  0.10100000352E+00 0.  1.
       -3    1    3    3    0  502  0.49992702161E+02  0.99002938260E+03 -0.50019339178E+03  0.11103381863E+04  0.10100000352E+00 0. -1.
</event>
<event>
 5   0  0.4027923E-05  0.2204115E+04  0.7818609E-02  0.8516717E-01
        2   -1    0    0  501    0  0.00000000000E+00  0.00000000000E+00  0.11831216071E+04  0.11831216071E+04  0.25500000920E-02 0.  1.
       -2   -1    0    0    0  501  0.00000000000E+00  0.00000000000E+00 -0.10265478662E+04  0.10265478662E+04  0.25500000920E-02 0. -1.
    10030    2    1    2    0    0  0.00000000000E+00  0.00000000000E+00  0.15657374085E+03  0.22096694733E+04  0.22041152068E+04 0.  0.
        5    1    3    3  502    0  0.91705959644E+03  0.17178259678E+03 -0.50970736924E+03  0.10631703797E+04  0.46999998093E+01 0. -1.
       -5    1    3    3    0  502 -0.91705959644E+03 -0.17178259678E+03  0.66628111008E+03  0.11464990936E+04  0.46999998093E+01 0.  1.
</event>
<event>
 5   0  0.3963414E-05  0.2193056E+04  0.7818609E-02  0.8521324E-01
        2   -1    0    0  501    0  0.00000000000E+00  0.00000000000E+00  0.70163216167E+03  0.70163216167E+03  0.25500000920E-02 0.  1.
       -2   -1    0    0    0  501  0.00000000000E+00  0.00000000000E+00 -0.17136802171E+04  0.17136802171E+04  0.25500000920E-02 0. -1.
    10030    2    1    2    0    0  0.00000000000E+00  0.00000000000E+00 -0.10120480554E+04  0.24153123788E+04  0.21930555443E+04 0.  0.
        1    1    3    3  502    0 -0.24883744738E+03 -0.51190991402E+03  0.52619097172E+03  0.77514435690E+03  0.50400001928E-02 0.  1.
       -1    1    3    3    0  502  0.24883744738E+03  0.51190991402E+03 -0.15382390271E+04  0.16401680219E+04  0.50400001928E-02 0. -1.
</event>
<event>
 5   0  0.1866935E-05  0.2206835E+04  0.7818609E-02  0.8515589E-01
        1   -1    0    0  501    0  0.00000000000E+00  0.00000000000E+00  0.10104175164E+04  0.10104175164E+04  0.50400001928E-02 0. -1.
       -1   -1    0    0    0  501  0.00000000000E+00  0.00000000000E+00 -0.12049775806E+04  0.12049775806E+04  0.50400001928E-02 0.  1.
    10030    2    1    2    0    0  0.00000000000E+00  0.00000000000E+00 -0.19456006425E+03  0.22153950971E+04  0.22068352493E+04 0.  0.
        4    1    3    3  502    0  0.81002308739E+03  0.47961223877E+03  0.48059461129E+03  0.10569475365E+04  0.12699999809E+01 0. -1.
       -4    1    3    3    0  502 -0.81002308739E+03 -0.47961223877E+03 -0.67515467554E+03  0.11584475605E+04  0.12699999809E+01 0.  1.
</event>
<event>
 5   0  0.1884407E-05  0.2201668E+04  0.7818609E-02  0.8517734E-01
        1   -1    0    0  501    0  0.00000000000E+00  0.00000000000E+00  0.12802693099E+04  0.12802693099E+04  0.50400001928E-02 0.  1.
       -1   -1    0    0    0  501  0.00000000000E+00  0.00000000000E+00 -0.94654763848E+03  0.94654763850E+03  0.50400001928E-02 0. -1.
    10030    2    1    2    0    0  0.00000000000E+00  0.00000000000E+00  0.33372167142E+03  0.22268169484E+04  0.22016683601E+04 0.  0.
        3    1    3    3  502    0  0.50887742064E+03  0.94809397924E+03  0.40188865914E+03  0.11486308925E+04  0.10100000352E+00 0. -1.
       -3    1    3    3    0  502 -0.50887742064E+03 -0.94809397924E+03 -0.68166987719E+02  0.10781860559E+04  0.10100000352E+00 0.  1.
</event>
<event>
 5   0  0.4027923E-05  0.2190841E+04  0.7818609E-02  0.8522250E-01
       -2   -1    0    0    0  501  0.00000000000E+00  0.00000000000E+00  0.13457059419E+04  0.13457059419E+04  0.25500000920E-02 0.  1.
        2   -1    0    0  501    0  0.00000000000E+00  0.00000000000E+00 -0.89168539791E+03  0.89168539791E+03  0.25500000920E-02 0. -1.
    10030    2    1    2    0    0  0.00000000000E+00  0.00000000000E+00  0.45402054399E+03  0.22373913398E+04  0.21908412432E+04 0.  0.
        5    1    3    3  502    0  0.36519540688E+03  0.83249215969E+03 -0.39713274952E+03  0.99204203131E+03  0.46999998093E+01 0. -1.
       -5    1    3    3    0  502 -0.36519540688E+03 -0.83249215969E+03  0.85115329350E+03  0.12453493085E+04  0.46999998093E+01 0.  1.
</event>
<event>
 5   0  0.4027923E-05  0.2199900E+04  0.7818609E-02  0.8518470E-01
        2   -1    0    0  501    0  0.00000000000E+00  0.00000000000E+00  0.15036419310E+04  0.15036419310E+04  0.25500000920E-02 0. -1.
       -2   -1    0    0    0  501  0.00000000000E+00  0.00000000000E+00 -0.80463948881E+03  0.80463948881E+03  0.25500000920E-02 0.  1.
    10030    2    1    2    0    0  0.00000000000E+00  0.00000000000E+00  0.69900244217E+03  0.23082814198E+04  0.21998997020E+04 0.  0.
        5    1    3    3  502    0  0.45218525807E+02 -0.10069740141E+04  0.81144818883E+03  0.12940292243E+04  0.46999998093E+01 0. -1.
       -5    1    3    3    0  502 -0.45218525807E+02  0.10069740141E+04 -0.11244574666E+03  0.10142521955E+04  0.46999998093E+01 0.  1.
</event>
<event>
 5   0  0.4143281E-05  0.2191449E+04  0.7818609E-02  0.8521996E-01
        2   -1    0    0  501    0  0.00000000000E+00  0.00000000000E+00  0.17770802092E+04  0.17770802092E+04  0.25500000920E-02 0. -1.
       -2   -1    0    0    0  501  0.00000000000E+00  0.00000000000E+00 -0.67560945006E+03  0.67560945007E+03  0.25500000920E-02 0.  1.
    10030    2    1    2    0    0  0.00000000000E+00  0.00000000000E+00  0.11014707592E+04  0.24526896593E+04  0.21914490027E+04 0.  0.
        2    1    3    3  502    0  0.82792469998E+03 -0.58146192033E+03  0.10216749876E+04  0.14378376313E+04  0.25500000920E-02 0.  1.
       -2    1    3    3    0  502 -0.82792469998E+03  0.58146192033E+03  0.79795771599E+02  0.10148520280E+04  0.25500000920E-02 0. -1.
</event>
<event>
 5   0  0.4132460E-05  0.2213120E+04  0.7818609E-02  0.8512987E-01
        2   -1    0    0  501    0  0.00000000000E+00  0.00000000000E+00  0.89171737725E+03  0.89171737725E+03  0.25500000920E-02 0.  1.
       -2   -1    0    0    0  501  0.00000000000E+00  0.00000000000E+00 -0.13731654047E+04  0.13731654047E+04  0.25500000920E-02 0. -1.
    10030    2    1    2    0    0  0.00000000000E+00  0.00000000000E+00 -0.48144802749E+03  0.22648827820E+04  0.22131203792E+04 0.  0.
        4    1    3    3  502    0  0.10965970642E+04 -0.56774054044E+02 -0.38076544669E+03  0.11622101155E+04  0.12699999809E+01 0.  1.
       -4    1    3    3    0  502 -0.10965970642E+04  0.56774054044E+02 -0.10068258080E+03  0.11026726664E+04  0.12699999809E+01 0. -1.
</event>
<event>
 5   0  0.1788413E-05  0.2185367E+04  0.7818609E-02  0.8524543E-01
        1   -1    0    0  501    0  0.00000000000E+00  0.00000000000E+00  0.10628230093E+04  0.10628230093E+04  0.50400001928E-02 0. -1.
       -1   -1    0    0    0  501  0.00000000000E+00  0.00000000000E+00 -0.11233829388E+04  0.11233829388E+04  0.50400001928E-02 0.  1.
    10030    2    1    2    0    0  0.00000000000E+00  0.00000000000E+00 -0.60559929444E+02  0.21862059481E+04  0.21853670040E+04 0.  0.
        1    1    3    3  502    0  0.26019972563E+03 -0.30968396173E+03 -0.10457308098E+04  0.11212319029E+04  0.50400001928E-02 0.  1.
       -1    1    3    3    0  502 -0.26019972563E+03  0.30968396173E+03  0.98517088039E+03  0.10649740452E+04  0.50400001928E-02 0. -1.
</event>
<event>
 5   0  0.1788413E-05  0.2140733E+04  0.7818609E-02  0.8543510E-01
       -1   -1    0    0    0  501  0.00000000000E+00  0.00000000000E+00  0.11158090299E+04  0.11158090299E+04  0.50400001928E-02 0. -1.
        1   -1    0    0  501    0  0.00000000000E+00  0.00000000000E+00 -0.10267743196E+04  0.10267743196E+04  0.50400001928E-02 0.  1.
    10030    2    1    2    0    0  0.00000000000E+00  0.00000000000E+00  0.89034710219E+02  0.21425833495E+04  0.21407326386E+04 0.  0.
        1    1    3    3  502    0 -0.10204303979E+03 -0.80729867126E+03  0.74048901735E+03  0.11002126665E+04  0.50400001928E-02 0. -1.
       -1    1    3    3    0  502  0.10204303979E+03  0.80729867126E+03 -0.65145430714E+03  0.10423706831E+04  0.50400001928E-02 0.  1.
</event>
<event>
 5   0  0.1884407E-05  0.2211343E+04  0.7818609E-02  0.8513722E-01
        1   -1    0    0  501    0  0.00000000000E+00  0.00000000000E+00  0.78048079402E+03  0.78048079403E+03  0.50400001928E-02 0. -1.
       -1   -1    0    0    0  501  0.00000000000E+00  0.00000000000E+00 -0.15663544282E+04  0.15663544282E+04  0.50400001928E-02 0.  1.
    10030    2    1    2    0    0  0.00000000000E+00  0.00000000000E+00 -0.78587363417E+03  0.23468352222E+04  0.22113430741E+04 0.  0.
        3    1    3    3  502    0 -0.91487891727E+03 -0.59414931888E+03 -0.58423873061E+03  0.12374779800E+04  0.10100000352E+00 0. -1.
       -3    1    3    3    0  502  0.91487891727E+03  0.59414931888E+03 -0.20163490357E+03  0.11093572422E+04  0.10100000352E+00 0.  1.
</event>
<event>
 5   0  0.3963414E-05  0.2410124E+04  0.7818609E-02  0.8435723E-01
       -2   -1    0    0    0  501  0.00000000000E+00  0.00000000000E+00  0.15485841507E+04  0.15485841508E+04  0.25500000920E-02 0.  1.
        2   -1    0    0  501    0  0.00000000000E+00  0.00000000000E+00 -0.93774297331E+03  0.93774297332E+03  0.25500000920E-02 0. -1.
    10030    2    1    2    0    0  0.00000000000E+00  0.00000000000E+00  0.61084117743E+03  0.24863271241E+04  0.24101235702E+04 0.  0.
        1    1    3    3  502    0  0.21820604919E+03  0.84220615786E+03  0.11656000847E+04  0.14544925746E+04  0.50400001928E-02 0.  1.
       -1    1    3    3    0  502 -0.21820604919E+03 -0.84220615786E+03 -0.55475890723E+03  0.10318345494E+04  0.50400001928E-02 0. -1.
</event>
<event>
 5   0  0.1433375E-05  0.2207684E+04  0.7818609E-02  0.8515237E-01
        3   -1    0    0  501    0  0.00000000000E+00  0.00000000000E+00  0.10391739988E+04  0.10391740037E+04  0.10100000352E+00 0. -1.
       -3   -1    0    0    0  501  0.00000000000E+00  0.00000000000E+00 -0.11725343985E+04  0.11725344028E+04  0.10100000352E+00 0.  1.
    10030    2    1    2    0    0  0.00000000000E+00  0.00000000000E+00 -0.13336039969E+03  0.22117084066E+04  0.22076840986E+04 0.  0.
        5    1    3    3  502    0 -0.40800033023E+03 -0.18944028656E+03 -0.10765322010E+04  0.11667457142E+04  0.46999998093E+01 0.  1.
       -5    1    3    3    0  502  0.40800033023E+03  0.18944028656E+03  0.94317180135E+03  0.10449626924E+04  0.46999998093E+01 0. -1.
</event>
<event>
 5   0  0.4132460E-05  0.2432735E+04  0.7818609E-02  0.8427349E-01
       -2   -1    0    0    0  501  0.00000000000E+00  0.00000000000E+00  0.14796385780E+04  0.14796385780E+04  0.25500000920E-02 0.  1.
        2   -1    0    0  501    0  0.00000000000E+00  0.00000000000E+00 -0.99994031955E+03  0.99994031955E+03  0.25500000920E-02 0. -1.
    10030    2    1    2    0    0  0.00000000000E+00  0.00000000000E+00  0.47969825843E+03  0.24795788975E+04  0.24327353103E+04 0.  0.
        4    1    3    3  502    0  0.11163508825E+04  0.31109008101E+03  0.61646691077E+03  0.13126497615E+04  0.12699999809E+01 0.  1.
       -4    1    3    3    0  502 -0.11163508825E+04 -0.31109008101E+03 -0.13676865234E+03  0.11669291360E+04  0.12699999809E+01 0. -1.
</event>
<event>
 5   0  0.1866935E-05  0.2203830E+04  0.7818609E-02  0.8516836E-01
       -1   -1    0    0    0  501  0.00000000000E+00  0.00000000000E+00  0.12877247380E+04  0.12877247380E+04  0.50400001928E-02 0. -1.
        1   -1    0    0  501    0  0.00000000000E+00  0.00000000000E+00 -0.94291589709E+03  0.94291589710E+03  0.50400001928E-02 0.  1.
    10030    2    1    2    0    0  0.00000000000E+00  0.00000000000E+00  0.34480884095E+03  0.22306406351E+04  0.22038295094E+04 0.  0.
        4    1    3    3  502    0  0.68021768135E+03  0.50760948874E+03 -0.53889031747E+03  0.10053695212E+04  0.12699999809E+01 0.  1.
       -4    1    3    3    0  502 -0.68021768135E+03 -0.50760948874E+03  0.88369915841E+03  0.12252711139E+04  0.12699999809E+01 0. -1.
</event>
<event>
 5   0  0.1786228E-05  0.2193979E+04  0.7818609E-02  0.8520938E-01
       -1   -1    0    0    0  501  0.00000000000E+00  0.00000000000E+00  0.54167645472E+03  0.54167645475E+03  0.50400001928E-02 0.  1.
        1   -1    0    0  501    0  0.00000000000E+00  0.00000000000E+00 -0.22215949333E+04  0.22215949333E+04  0.50400001928E-02 0. -1.
    10030    2    1    2    0    0  0.00000000000E+00  0.00000000000E+00 -0.16799184786E+04  0.27632713880E+04  0.21939787304E+04 0.  0.
        5    1    3    3  502    0 -0.18166993443E+03 -0.10015841503E+04 -0.13549444063E+04  0.16947186225E+04  0.46999998093E+01 0. -1.
       -5    1    3    3    0  502  0.18166993443E+03  0.10015841503E+04 -0.32497407228E+03  0.10685527656E+04  0.46999998093E+01 0.  1.
</event>
<event>
 5   0  0.3963414E-05  0.2254611E+04  0.7818609E-02  0.8496036E-01
        2   -1    0    0  501    0  0.00000000000E+00  0.00000000000E+00  0.17902630633E+04  0.17902630633E+04  0.25500000920E-02 0.  1.
       -2   -1    0    0    0  501  0.00000000000E+00  0.00000000000E+00 -0.70984938818E+03  0.70984938818E+03  0.25500000920E-02 0. -1.
    10030    2    1    2    0    0  0.00000000000E+00  0.00000000000E+00  0.10804136752E+04  0.25001124515E+04  0.22546105120E+04 0.  0.
        1    1    3    3  502    0  0.31445002124E+03 -0.51866776931E+03  0.15938975442E+04  0.17054044834E+04  0.50400001928E-02 0.  1.
       -1    1    3    3    0  502 -0.31445002124E+03  0.51866776931E+03 -0.51348386901E+03  0.79470796808E+03  0.50400001928E-02 0. -1.
</event>
<event>
 5   0  0.1884407E-05  0.2191449E+04  0.7818609E-02  0.8521996E-01
        1   -1    0    0  501    0  0.00000000000E+00  0.00000000000E+00  0.17679029789E+04  0.17679029789E+04  0.50400001928E-02 0. -1.
       -1   -1    0    0    0  501  0.00000000000E+00  0.00000000000E+00 -0.67911647793E+03  0.67911647795E+03  0.50400001928E-02 0.  1.
    10030    2    1    2    0    0  0.00000000000E+00  0.00000000000E+00  0.10887865010E+04  0.24470194568E+04  0.21914488763E+04 0.  0.
        3    1    3    3  502    0 -0.95537518954E+03 -0.15083140819E+03  0.11193397866E+04  0.14793287108E+04  0.10100000352E+00 0. -1.
       -3    1    3    3    0  502  0.95537518954E+03  0.15083140819E+03 -0.30553285689E+02  0.96769074603E+03  0.10100000352E+00 0.  1.
</event>
<event>
 5   0  0.4143281E-05  0.2221085E+04  0.7818609E-02  0.8509703E-01
       -2   -1    0    0    0  501  0.00000000000E+00  0.00000000000E+00  0.54273694991E+03  0.54273694991E+03  0.25500000920E-02 0.  1.
        2   -1    0    0  501    0  0.00000000000E+00  0.00000000000E+00 -0.22723801181E+04  0.22723801181E+04  0.25500000920E-02 0. -1.
    10030    2    1    2    0    0  0.00000000000E+00  0.00000000000E+00 -0.17296431682E+04  0.28151170680E+04  0.22210850090E+04 0.  0.
        2    1    3    3  502    0  0.16321350544E+03 -0.98108005551E+03 -0.23855707178E+03  0.10227737776E+04  0.25500000920E-02 0.  1.
       -2    1    3    3    0  502 -0.16321350544E+03  0.98108005551E+03 -0.14910860964E+04  0.17923432904E+04  0.25500000920E-02 0. -1.
</event>
<event>
 5   0  0.4143281E-05  0.2230464E+04  0.7818609E-02  0.8505854E-01
       -2   -1    0    0    0  501  0.00000000000E+00  0.00000000000E+00  0.12479224677E+04  0.12479224677E+04  0.25500000920E-02 0. -1.
        2   -1    0    0  501    0  0.00000000000E+00  0.00000000000E+00 -0.99665060487E+03  0.99665060487E+03  0.25500000920E-02 0.  1.
    10030    2    1    2    0    0  0.00000000000E+00  0.00000000000E+00  0.25127186284E+03  0.22445730726E+04  0.22304642407E+04 0.  0.
        2    1    3    3  502    0 -0.59219261100E+03  0.40651486512E+03 -0.73287018335E+03  0.10261798720E+04  0.25500000920E-02 0.  1.
       -2    1    3    3    0  502  0.59219261100E+03 -0.40651486512E+03  0.98414204619E+03  0.12183932006E+04  0.25500000920E-02 0. -1.
</event>
<event>
 5   0  0.4132460E-05  0.2234321E+04  0.7818609E-02  0.8504277E-01
       -2   -1    0    0    0  501  0.00000000000E+00  0.00000000000E+00  0.12607343767E+04  0.12607343767E+04  0.25500000920E-02 0.  1.
        2   -1    0    0  501    0  0.00000000000E+00  0.00000000000E+00 -0.98993670205E+03  0.98993670205E+03  0.25500000920E-02 0. -1.
    10030    2    1    2    0    0  0.00000000000E+00  0.00000000000E+00  0.27079767463E+03  0.22506710787E+04  0.22343206851E+04 0.  0.
        4    1    3    3  502    0  0.73547493918E+03 -0.20612457972E+03 -0.68581846661E+03  0.10265277934E+04  0.12699999809E+01 0. -1.
       -4    1    3    3    0  502 -0.73547493918E+03  0.20612457972E+03  0.95661614124E+03  0.12241432854E+04  0.12699999809E+01 0.  1.
</event>
<event>
 5   0  0.4029532E-05  0.2196238E+04  0.7818609E-02  0.8519995E-01
        2   -1    0    0  501    0  0.00000000000E+00  0.00000000000E+00  0.21188155920E+04  0.21188155920E+04  0.25500000920E-02 0. -1.
       -2   -1    0    0    0  501  0.00000000000E+00  0.00000000000E+00 -0.56912260685E+03  0.56912260686E+03  0.25500000920E-02 0.  1.
    10030    2    1    2    0    0  0.00000000000E+00  0.00000000000E+00  0.15496929852E+04  0.26879381989E+04  0.21962384690E+04 0.  0.
        3    1    3    3  502    0  0.19876103053E+03  0.17635018321E+03  0.20788763950E+04  0.20957892094E+04  0.10100000352E+00 0. -1.
       -3    1    3    3    0  502 -0.19876103053E+03 -0.17635018321E+03 -0.52918340980E+03  0.59214898951E+03  0.10100000352E+00 0.  1.
</event>
<event>
 5   0  0.3963414E-05  0.2202369E+04  0.7818609E-02  0.8517443E-01
        2   -1    0    0  501    0  0.00000000000E+00  0.00000000000E+00  0.19343139535E+04  0.19343139535E+04  0.25500000920E-02 0. -1.
       -2   -1    0    0    0  501  0.00000000000E+00  0.00000000000E+00 -0.62689262725E+03  0.62689262726E+03  0.25500000920E-02 0.  1.
    10030    2    1    2    0    0  0.00000000000E+00  0.00000000000E+00  0.13074213262E+04  0.25612065807E+04  0.22023688667E+04 0.  0.
        1    1    3    3  502    0  0.72933583060E+03 -0.76297436339E+02  0.16090547463E+04  0.17682786062E+04  0.50400001928E-02 0. -1.
       -1    1    3    3    0  502 -0.72933583060E+03  0.76297436339E+02 -0.30163342010E+03  0.79292797450E+03  0.50400001928E-02 0.  1.
</event>
<event>
 5   0  0.4027923E-05  0.2165953E+04  0.7818609E-02  0.8532734E-01
        2   -1    0    0  501    0  0.00000000000E+00  0.00000000000E+00  0.11990866838E+04  0.11990866838E+04  0.25500000920E-02 0. -1.
       -2   -1    0    0    0  501  0.00000000000E+00  0.00000000000E+00 -0.97810924360E+03  0.97810924360E+03  0.25500000920E-02 0.  1.
    10030    2    1    2    0    0  0.00000000000E+00  0.00000000000E+00  0.22097744020E+03  0.21771959274E+04  0.21659526951E+04 0.  0.
        5    1    3    3  502    0 -0.66447121532E+03 -0.68136403936E+03  0.62992711267E+03  0.11413190647E+04  0.46999998093E+01 0.  1.
       -5    1    3    3    0  502  0.66447121532E+03  0.68136403936E+03 -0.40894967248E+03  0.10358768627E+04  0.46999998093E+01 0. -1.
</event>
<event>
 5   0  0.1866935E-05  0.2181100E+04  0.7818609E-02  0.8526336E-01
       -1   -1    0    0    0  501  0.00000000000E+00  0.00000000000E+00  0.41526021167E+03  0.41526021170E+03  0.50400001928E-02 0.  1.
        1   -1    0    0  501    0  0.00000000000E+00  0.00000000000E+00 -0.28639866633E+04  0.28639866633E+04  0.50400001928E-02 0. -1.
    10030    2    1    2    0    0  0.00000000000E+00  0.00000000000E+00 -0.24487264517E+04  0.32792468750E+04  0.21811003719E+04 0.  0.
        4    1    3    3  502    0  0.62054740541E+03  0.88142511581E+03 -0.14728192866E+04  0.18251541253E+04  0.12699999809E+01 0. -1.
       -4    1    3    3    0  502 -0.62054740541E+03 -0.88142511581E+03 -0.97590716507E+03  0.14540927498E+04  0.12699999809E+01 0.  1.
</event>
<event>
 5   0  0.1786228E-05  0.2127236E+04  0.7818609E-02  0.8549340E-01
        1   -1    0    0  501    0  0.00000000000E+00  0.00000000000E+00  0.15347095336E+04  0.15347095336E+04  0.50400001928E-02 0.  1.
       -1   -1    0    0    0  501  0.00000000000E+00  0.00000000000E+00 -0.73713149234E+03  0.73713149236E+03  0.50400001928E-02 0. -1.
    10030    2    1    2    0    0  0.00000000000E+00  0.00000000000E+00  0.79757804126E+03  0.22718410260E+04  0.21272355101E+04 0.  0.
        5    1    3    3  502    0 -0.25671670293E+03  0.98328218541E+03  0.63584524416E+02  0.10182398556E+04  0.46999998093E+01 0. -1.
       -5    1    3    3    0  502  0.25671670293E+03 -0.98328218541E+03  0.73399351684E+03  0.12536011704E+04  0.46999998093E+01 0.  1.
</event>
<event>
 5   0  0.4132460E-05  0.2319059E+04  0.7818609E-02  0.8470444E-01
       -2   -1    0    0    0  501  0.00000000000E+00  0.00000000000E+00  0.93861633485E+03  0.93861633485E+03  0.25500000920E-02 0.  1.
        2   -1    0    0  501    0  0.00000000000E+00  0.00000000000E+00 -0.14324369917E+04  0.14324369917E+04  0.25500000920E-02 0. -1.
    10030    2    1    2    0    0  0.00000000000E+00  0.00000000000E+00 -0.49382065687E+03  0.23710533266E+04  0.23190590843E+04 0.  0.
        4    1    3    3  502    0  0.29944416561E+03 -0.40503278432E+03 -0.13147347261E+04  0.14079230723E+04  0.12699999809E+01 0. -1.
       -4    1    3    3    0  502 -0.29944416561E+03  0.40503278432E+03  0.82091406922E+03  0.96313025424E+03  0.12699999809E+01 0.  1.
</event>
<event>
 5   0  0.4143281E-05  0.2194048E+04  0.7818609E-02  0.8520910E-01
        2   -1    0    0  501    0  0.00000000000E+00  0.00000000000E+00  0.14647724398E+04  0.14647724398E+04  0.25500000920E-02 0.  1.
       -2   -1    0    0    0  501  0.00000000000E+00  0.00000000000E+00 -0.82160278136E+03  0.82160278136E+03  0.25500000920E-02 0. -1.
    10030    2    1    2    0    0  0.00000000000E+00  0.00000000000E+00  0.64316965846E+03  0.22863752212E+04  0.21940475023E+04 0.  0.
        2    1    3    3  502    0 -0.10444832973E+03 -0.10618904056E+04  0.58714261400E+03  0.12178904451E+04  0.25500000920E-02 0.  1.
       -2    1    3    3    0  502  0.10444832973E+03  0.10618904056E+04  0.56027044456E+02  0.10684847761E+04  0.25500000920E-02 0. -1.
</event>
<event>
 5   0  0.1786228E-05  0.2202382E+04  0.7818609E-02  0.8517437E-01
       -1   -1    0    0    0  501  0.00000000000E+00  0.00000000000E+00  0.87105421091E+03  0.87105421092E+03  0.50400001928E-02 0. -1.
        1   -1    0    0  501    0  0.00000000000E+00  0.00000000000E+00 -0.13921310226E+04  0.13921310226E+04  0.50400001928E-02 0.  1.
    10030    2    1    2    0    0  0.00000000000E+00  0.00000000000E+00 -0.52107681167E+03  0.22631852335E+04  0.22023819736E+04 0.  0.
        5    1    3    3  502    0  0.33347741340E+03  0.89836795475E+02  0.81394925872E+03  0.88420208145E+03  0.46999998093E+01 0. -1.
       -5    1    3    3    0  502 -0.33347741340E+03 -0.89836795475E+02 -0.13350260704E+04  0.13789831521E+04  0.46999998093E+01 0.  1.
</event>
<event>
 5   0  0.1815681E-05  0.2192767E+04  0.7818609E-02  0.8521445E-01
       -1   -1    0    0    0  501  0.00000000000E+00  0.00000000000E+00  0.13904759630E+04  0.13904759630E+04  0.50400001928E-02 0.  1.
        1   -1    0    0  501    0  0.00000000000E+00  0.00000000000E+00 -0.86449280177E+03  0.86449280178E+03  0.50400001928E-02 0. -1.
    10030    2    1    2    0    0  0.00000000000E+00  0.00000000000E+00  0.52598316127E+03  0.22549687648E+04  0.21927667100E+04 0.  0.
        2    1    3    3  502    0 -0.22859775160E+03 -0.83599838370E+03 -0.42755220285E+03  0.96641146296E+03  0.25500000920E-02 0. -1.
       -2    1    3    3    0  502  0.22859775160E+03  0.83599838370E+03  0.95353536411E+03  0.12885573019E+04  0.25500000920E-02 0.  1.
</event>
<event>
 5   0  0.4027923E-05  0.2193340E+04  0.7818609E-02  0.8521205E-01
        2   -1    0    0  501    0  0.00000000000E+00  0.00000000000E+00  0.24542561317E+04  0.24542561317E+04  0.25500000920E-02 0. -1.
       -2   -1    0    0    0  501  0.00000000000E+00  0.00000000000E+00 -0.49004067281E+03  0.49004067281E+03  0.25500000920E-02 0.  1.
    10030    2    1    2    0    0  0.00000000000E+00  0.00000000000E+00  0.19642154589E+04  0.29442968046E+04  0.21933402163E+04 0.  0.
        5    1    3    3  502    0  0.12216630526E+03 -0.13905068072E+03 -0.46890765661E+03  0.50413904667E+03  0.46999998093E+01 0.  1.
       -5    1    3    3    0  502 -0.12216630526E+03  0.13905068072E+03  0.24331231156E+04  0.24401577579E+04  0.46999998093E+01 0. -1.
</event>
<event>
 5   0  0.1815681E-05  0.2193603E+04  0.7818609E-02  0.8521095E-01
       -1   -1    0    0    0  501  0.00000000000E+00  0.00000000000E+00  0.19072264050E+04  0.19072264050E+04  0.50400001928E-02 0. -1.
        1   -1    0    0  501    0  0.00000000000E+00  0.00000000000E+00 -0.63074498179E+03  0.63074498181E+03  0.50400001928E-02 0.  1.
    10030    2    1    2    0    0  0.00000000000E+00  0.00000000000E+00  0.12764814232E+04  0.25379713868E+04  0.21936029578E+04 0.  0.
        2    1    3    3  502    0 -0.10562726241E+04 -0.24559596215E+03  0.44832462313E+03  0.11734667446E+04  0.25500000920E-02 0.  1.
       -2    1    3    3    0  502  0.10562726241E+04  0.24559596215E+03  0.82815680003E+03  0.13645046422E+04  0.25500000920E-02 0. -1.
</event>
<event>
 5   0  0.1884407E-05  0.2191045E+04  0.7818609E-02  0.8522165E-01
        1   -1    0    0  501    0  0.00000000000E+00  0.00000000000E+00  0.75700662972E+03  0.75700662974E+03  0.50400001928E-02 0. -1.
       -1   -1    0    0    0  501  0.00000000000E+00  0.00000000000E+00 -0.15854148360E+04  0.15854148360E+04  0.50400001928E-02 0.  1.
    10030    2    1    2    0    0  0.00000000000E+00  0.00000000000E+00 -0.82840820628E+03  0.23424214658E+04  0.21910449943E+04 0.  0.
        3    1    3    3  502    0 -0.54564983822E+03 -0.75425326842E+03  0.20322382246E+03  0.95285448579E+03  0.10100000352E+00 0. -1.
       -3    1    3    3    0  502  0.54564983822E+03  0.75425326842E+03 -0.10316320287E+04  0.13895669800E+04  0.10100000352E+00 0.  1.
</event>
<event>
 5   0  0.1788413E-05  0.2203853E+04  0.7818609E-02  0.8516826E-01
        1   -1    0    0  501    0  0.00000000000E+00  0.00000000000E+00  0.72317480033E+03  0.72317480035E+03  0.50400001928E-02 0.  1.
       -1   -1    0    0    0  501  0.00000000000E+00  0.00000000000E+00 -0.16790432342E+04  0.16790432342E+04  0.50400001928E-02 0. -1.
    10030    2    1    2    0    0  0.00000000000E+00  0.00000000000E+00 -0.95586843383E+03  0.24022180345E+04  0.22038527679E+04 0.  0.
        1    1    3    3  502    0  0.32293004854E+03  0.40230715964E+03 -0.15392839053E+04  0.16234314917E+04  0.50400001928E-02 0. -1.
       -1    1    3    3    0  502 -0.32293004854E+03 -0.40230715964E+03  0.58341547148E+03  0.77878654286E+03  0.50400001928E-02 0.  1.
</event>
<event>
 5   0  0.3963414E-05  0.2220140E+04  0.7818609E-02  0.8510092E-01
        2   -1    0    0  501    0  0.00000000000E+00  0.00000000000E+00  0.17017424984E+04  0.17017424985E+04  0.25500000920E-02 0.  1.
       -2   -1    0    0    0  501  0.00000000000E+00  0.00000000000E+00 -0.72411422196E+03  0.72411422197E+03  0.25500000920E-02 0. -1.
    10030    2    1    2    0    0  0.00000000000E+00  0.00000000000E+00  0.97762827649E+03  0.24258567204E+04  0.22201404868E+04 0.  0.
        1    1    3    3  502    0  0.33993776124E+03 -0.35156958669E+03  0.15776954499E+04  0.16517511279E+04  0.50400001928E-02 0.  1.
       -1    1    3    3    0  502 -0.33993776124E+03  0.35156958669E+03 -0.60006717340E+03  0.77410559255E+03  0.50400001928E-02 0. -1.
</event>
<event>
 5   0  0.4029532E-05  0.2195824E+04  0.7818609E-02  0.8520168E-01
       -2   -1    0    0    0  501  0.00000000000E+00  0.00000000000E+00  0.12916614141E+04  0.12916614141E+04  0.25500000920E-02 0. -1.
        2   -1    0    0  501    0  0.00000000000E+00  0.00000000000E+00 -0.93322544631E+03  0.93322544631E+03  0.25500000920E-02 0.  1.
    10030    2    1    2    0    0  0.00000000000E+00  0.00000000000E+00  0.35843596780E+03  0.22248868604E+04  0.21958244918E+04 0.  0.
        3    1    3    3  502    0  0.15261636378E+03  0.10363915210E+04  0.51221980792E+03  0.11660910260E+04  0.10100000352E+00 0. -1.
       -3    1    3    3    0  502 -0.15261636378E+03 -0.10363915210E+04 -0.15378384013E+03  0.10587958344E+04  0.10100000352E+00 0.  1.
</event>
<event>
 5   0  0.4027923E-05  0.2192742E+04  0.7818609E-02  0.8521455E-01
       -2   -1    0    0    0  501  0.00000000000E+00  0.00000000000E+00  0.15145640427E+04  0.15145640427E+04  0.25500000920E-02 0. -1.
        2   -1    0    0  501    0  0.00000000000E+00  0.00000000000E+00 -0.79364730950E+03  0.79364730950E+03  0.25500000920E-02 0.  1.
    10030    2    1    2    0    0  0.00000000000E+00  0.00000000000E+00  0.72091673325E+03  0.23082113523E+04  0.21927422809E+04 0.  0.
        5    1    3    3  502    0  0.30083662156E+03  0.10357150102E+04  0.15311024351E+03  0.10893452583E+04  0.46999998093E+01 0. -1.
       -5    1    3    3    0  502 -0.30083662156E+03 -0.10357150102E+04  0.56780648973E+03  0.12188660939E+04  0.46999998093E+01 0.  1.
</event>
<event>
 5   0  0.4132460E-05  0.2454805E+04  0.7818609E-02  0.8419266E-01
        2   -1    0    0  501    0  0.00000000000E+00  0.00000000000E+00  0.15730459006E+04  0.15730459006E+04  0.25500000920E-02 0. -1.
       -2   -1    0    0    0  501  0.00000000000E+00  0.00000000000E+00 -0.95770722810E+03  0.95770722810E+03  0.25500000920E-02 0.  1.
    10030    2    1    2    0    0  0.00000000000E+00  0.00000000000E+00  0.61533867247E+03  0.25307531287E+04  0.24548054335E+04 0.  0.
        4    1    3    3  502    0  0.23226500896E+03  0.47025964224E+03  0.14516972681E+04  0.15435406495E+04  0.12699999809E+01 0. -1.
       -4    1    3    3    0  502 -0.23226500896E+03 -0.47025964224E+03 -0.83635859567E+03  0.98721247914E+03  0.12699999809E+01 0.  1.
</event>
<event>
 5   0  0.3963414E-05  0.2202143E+04  0.7818609E-02  0.8517537E-01
       -2   -1    0    0    0  501  0.00000000000E+00  0.00000000000E+00  0.12554660798E+04  0.12554660798E+04  0.25500000920E-02 0.  1.
        2   -1    0    0  501    0  0.00000000000E+00  0.00000000000E+00 -0.96566412690E+03  0.96566412690E+03  0.25500000920E-02 0. -1.
    10030    2    1    2    0    0  0.00000000000E+00  0.00000000000E+00  0.28980195292E+03  0.22211302067E+04  0.22021430978E+04 0.  0.
        1    1    3    3  502    0  0.42813000933E+03  0.28496656635E+03  0.11268749179E+04  0.12386881486E+04  0.50400001928E-02 0.  1.
       -1    1    3    3    0  502 -0.42813000933E+03 -0.28496656635E+03 -0.83707296499E+03  0.98244205813E+03  0.50400001928E-02 0. -1.
</event>
<event>
 5   0  0.1815681E-05  0.2183546E+04  0.7818609E-02  0.8525308E-01
       -1   -1    0    0    0  501  0.00000000000E+00  0.00000000000E+00  0.72692865019E+03  0.72692865021E+03  0.50400001928E-02 0.  1.
        1   -1    0    0  501    0  0.00000000000E+00  0.00000000000E+00 -0.16397317488E+04  0.16397317488E+04  0.50400001928E-02 0. -1.
    10030    2    1    2    0    0  0.00000000000E+00  0.00000000000E+00 -0.91280309863E+03  0.23666603990E+04  0.21835457283E+04 0.  0.
        2    1    3    3  502    0  0.40786611496E+03  0.30687068055E+03 -0.15024503237E+04  0.15867833367E+04  0.25500000920E-02 0. -1.
       -2    1    3    3    0  502 -0.40786611496E+03 -0.30687068055E+03  0.58964722509E+03  0.77987706235E+03  0.25500000920E-02 0.  1.
</event>
<event>
 5   0  0.1884407E-05  0.2202010E+04  0.7818609E-02  0.8517592E-01
        1   -1    0    0  501    0  0.00000000000E+00  0.00000000000E+00  0.10337917156E+04  0.10337917156E+04  0.50400001928E-02 0. -1.
       -1   -1    0    0    0  501  0.00000000000E+00  0.00000000000E+00 -0.11725886010E+04  0.11725886010E+04  0.50400001928E-02 0.  1.
    10030    2    1    2    0    0  0.00000000000E+00  0.00000000000E+00 -0.13879688534E+03  0.22063803166E+04  0.22020103374E+04 0.  0.
        3    1    3    3  502    0  0.17391140366E+02  0.99726772289E+02 -0.11679155883E+04  0.11722946355E+04  0.10100000352E+00 0.  1.
       -3    1    3    3    0  502 -0.17391140366E+02 -0.99726772289E+02  0.10291187030E+04  0.10340856811E+04  0.10100000352E+00 0. -1.
</event>
<event>
 5   0  0.4029532E-05  0.2187599E+04  0.7818609E-02  0.8523607E-01
        2   -1    0    0  501    0  0.00000000000E+00  0.00000000000E+00  0.12877801139E+04  0.12877801139E+04  0.25500000920E-02 0.  1.
       -2   -1    0    0    0  501  0.00000000000E+00  0.00000000000E+00 -0.92903874244E+03  0.92903874244E+03  0.25500000920E-02 0. -1.
    10030    2    1    2    0    0  0.00000000000E+00  0.00000000000E+00  0.35874137141E+03  0.22168188563E+04  0.21875992480E+04 0.  0.
        3    1    3    3  502    0  0.10448532065E+04 -0.24203033887E+03  0.39694929578E+03  0.11436195441E+04  0.10100000352E+00 0.  1.
       -3    1    3    3    0  502 -0.10448532065E+04  0.24203033887E+03 -0.38207924365E+02  0.10731993122E+04  0.10100000352E+00 0. -1.
</event>
<event>
 5   0  0.4029532E-05  0.2167712E+04  0.7818609E-02  0.8531988E-01
       -2   -1    0    0    0  501  0.00000000000E+00  0.00000000000E+00  0.15107845091E+04  0.15107845091E+04  0.25500000920E-02 0.  1.
        2   -1    0    0  501    0  0.00000000000E+00  0.00000000000E+00 -0.77757233842E+03  0.77757233842E+03  0.25500000920E-02 0. -1.
    10030    2    1    2    0    0  0.00000000000E+00  0.00000000000E+00  0.73321217066E+03  0.22883568475E+04  0.21677123827E+04 0.  0.
        3    1    3    3  502    0  0.13651422815E+03  0.21856761614E+03 -0.74476186636E+03  0.78808513823E+03  0.10100000352E+00 0. -1.
       -3    1    3    3    0  502 -0.13651422815E+03 -0.21856761614E+03  0.14779740370E+04  0.15002717093E+04  0.10100000352E+00 0.  1.
</event>
<event>
 5   0  0.1815681E-05  0.2223477E+04  0.7818609E-02  0.8508720E-01
        1   -1    0    0  501    0  0.00000000000E+00  0.00000000000E+00  0.82340856960E+03  0.82340856962E+03  0.50400001928E-02 0.  1.
       -1   -1    0    0    0  501  0.00000000000E+00  0.00000000000E+00 -0.15010319821E+04  0.15010319821E+04  0.50400001928E-02 0. -1.
    10030    2    1    2    0    0  0.00000000000E+00  0.00000000000E+00 -0.67762341249E+03  0.23244405517E+04  0.22234770944E+04 0.  0.
        2    1    3    3  502    0 -0.19752272748E+03 -0.73574734969E+03  0.50766096735E+03  0.91545565061E+03  0.25500000920E-02 0.  1.
       -2    1    3    3    0  502  0.19752272748E+03  0.73574734969E+03 -0.11852843798E+04  0.14089849011E+04  0.25500000920E-02 0. -1.
</event>
<event>
 5   0  0.1788413E-05  0.2146175E+04  0.7818609E-02  0.8541171E-01
       -1   -1    0    0    0  501  0.00000000000E+00  0.00000000000E+00  0.74172123238E+03  0.74172123239E+03  0.50400001928E-02 0.  1.
        1   -1    0    0  501    0  0.00000000000E+00  0.00000000000E+00 -0.15524921912E+04  0.15524921912E+04  0.50400001928E-02 0. -1.
    10030    2    1    2    0    0  0.00000000000E+00  0.00000000000E+00 -0.81077095884E+03  0.22942134236E+04  0.21461746633E+04 0.  0.
        1    1    3    3  502    0  0.74400419053E+03  0.37237130889E+03  0.31908967682E+03  0.89107847527E+03  0.50400001928E-02 0.  1.
       -1    1    3    3    0  502 -0.74400419053E+03 -0.37237130889E+03 -0.11298606357E+04  0.14031349483E+04  0.50400001928E-02 0. -1.
</event>
<event>
 5   0  0.4027923E-05  0.2310198E+04  0.7818609E-02  0.8473911E-01
        2   -1    0    0  501    0  0.00000000000E+00  0.00000000000E+00  0.11137339854E+04  0.11137339854E+04  0.25500000920E-02 0. -1.
       -2   -1    0    0    0  501  0.00000000000E+00  0.00000000000E+00 -0.11980007035E+04  0.11980007035E+04  0.25500000920E-02 0.  1.
    10030    2    1    2    0    0  0.00000000000E+00  0.00000000000E+00 -0.84266718156E+02  0.23117346889E+04  0.23101983448E+04 0.  0.
        5    1    3    3  502    0 -0.46281458627E+03  0.10347096430E+04 -0.26456618508E+03  0.11639754048E+04  0.46999998093E+01 0. -1.
       -5    1    3    3    0  502  0.46281458627E+03 -0.10347096430E+04  0.18029946692E+03  0.11477592842E+04  0.46999998093E+01 0.  1.
</event>
<event>
 5   0  0.1866935E-05  0.2197355E+04  0.7818609E-02  0.8519530E-01
       -1   -1    0    0    0  501  0.00000000000E+00  0.00000000000E+00  0.64044216586E+03  0.64044216588E+03  0.50400001928E-02 0. -1.
        1   -1    0    0  501    0  0.00000000000E+00  0.00000000000E+00 -0.18847796190E+04  0.18847796190E+04  0.50400001928E-02 0.  1.
    10030    2    1    2    0    0  0.00000000000E+00  0.00000000000E+00 -0.12443374532E+04  0.25252217849E+04  0.21973550841E+04 0.  0.
        4    1    3    3  502    0 -0.56990654087E+03 -0.91211644731E+03 -0.36432322717E+03  0.11355540082E+04  0.12699999809E+01 0. -1.
       -4    1    3    3    0  502  0.56990654087E+03  0.91211644731E+03 -0.88001422601E+03  0.13896677767E+04  0.12699999809E+01 0.  1.
</event>
<event>
 5   0  0.1788413E-05  0.2193300E+04  0.7818609E-02  0.8521222E-01
       -1   -1    0    0    0  501  0.00000000000E+00  0.00000000000E+00  0.93699073223E+03  0.93699073224E+03  0.50400001928E-02 0.  1.
        1   -1    0    0  501    0  0.00000000000E+00  0.00000000000E+00 -0.12835146775E+04  0.12835146775E+04  0.50400001928E-02 0. -1.
    10030    2    1    2    0    0  0.00000000000E+00  0.00000000000E+00 -0.34652394526E+03  0.22205054097E+04  0.21933001231E+04 0.  0.
        1    1    3    3  502    0  0.82302008276E+03  0.25982057816E+03 -0.85824317673E+03  0.12171483640E+04  0.50400001928E-02 0. -1.
       -1    1    3    3    0  502 -0.82302008276E+03 -0.25982057816E+03  0.51171923146E+03  0.10033570458E+04  0.50400001928E-02 0.  1.
</event>
<event>
 5   0  0.4132460E-05  0.2198502E+04  0.7818609E-02  0.8519052E-01
       -2   -1    0    0    0  501  0.00000000000E+00  0.00000000000E+00  0.13385613416E+04  0.13385613416E+04  0.25500000920E-02 0.  1.
        2   -1    0    0  501    0  0.00000000000E+00  0.00000000000E+00 -0.90272459833E+03  0.90272459834E+03  0.25500000920E-02 0. -1.
    10030    2    1    2    0    0  0.00000000000E+00  0.00000000000E+00  0.43583674323E+03  0.22412859399E+04  0.21985015346E+04 0.  0.
        4    1    3    3  502    0 -0.10250486966E+04  0.38072141949E+03  0.33270171138E+03  0.11429635477E+04  0.12699999809E+01 0.  1.
       -4    1    3    3    0  502  0.10250486966E+04 -0.38072141949E+03  0.10313503185E+03  0.10983223922E+04  0.12699999809E+01 0. -1.
</event>
<event>
 5   0  0.1788413E-05  0.2180293E+04  0.7818609E-02  0.8526676E-01
        1   -1    0    0  501    0  0.00000000000E+00  0.00000000000E+00  0.84242855703E+03  0.84242855705E+03  0.50400001928E-02 0.  1.
       -1   -1    0    0    0  501  0.00000000000E+00  0.00000000000E+00 -0.14107064716E+04  0.14107064716E+04  0.50400001928E-02 0. -1.
    10030    2    1    2    0    0  0.00000000000E+00  0.00000000000E+00 -0.56827791454E+03  0.22531350286E+04  0.21802930237E+04 0.  0.
        1    1    3    3  502    0  0.22693497846E+03  0.50395966984E+03  0.68690541969E+03  0.88165406419E+03  0.50400001928E-02 0.  1.
       -1    1    3    3    0  502 -0.22693497846E+03 -0.50395966984E+03 -0.12551833342E+04  0.13714809644E+04  0.50400001928E-02 0. -1.
</event>
<event>
 5   0  0.1788413E-05  0.2219039E+04  0.7818609E-02  0.8510545E-01
        1   -1    0    0  501    0  0.00000000000E+00  0.00000000000E+00  0.54388460398E+03  0.54388460400E+03  0.50400001928E-02 0.  1.
       -1   -1    0    0    0  501  0.00000000000E+00  0.00000000000E+00 -0.22634090400E+04  0.22634090400E+04  0.50400001928E-02 0. -1.
    10030    2    1    2    0    0  0.00000000000E+00  0.00000000000E+00 -0.17195244360E+04  0.28072936440E+04  0.22190388274E+04 0.  0.
        1    1    3    3  502    0 -0.40220780267E+03 -0.10334589804E+04 -0.81548845724E+03  0.13765282433E+04  0.50400001928E-02 0. -1.
       -1    1    3    3    0  502  0.40220780267E+03  0.10334589804E+04 -0.90403597877E+03  0.14307654007E+04  0.50400001928E-02 0.  1.
</event>
<event>
 5   0  0.1788413E-05  0.2281414E+04  0.7818609E-02  0.8485285E-01
       -1   -1    0    0    0  501  0.00000000000E+00  0.00000000000E+00  0.95265542871E+03  0.95265542873E+03  0.50400001928E-02 0. -1.
        1   -1    0    0  501    0  0.00000000000E+00  0.00000000000E+00 -0.13658799306E+04  0.13658799306E+04  0.50400001928E-02 0.  1.
    10030    2    1    2    0    0  0.00000000000E+00  0.00000000000E+00 -0.41322450187E+03  0.23185353593E+04  0.22814144129E+04 0.  0.
        1    1    3    3  502    0 -0.80736771751E+03 -0.68822256328E+03 -0.63262259421E+03  0.12351940231E+04  0.50400001928E-02 0. -1.
       -1    1    3    3    0  502  0.80736771751E+03  0.68822256328E+03  0.21939809233E+03  0.10833413363E+04  0.50400001928E-02 0.  1.
</event>
<event>
 5   0  0.1786228E-05  0.2167192E+04  0.7818609E-02  0.8532209E-01
        1   -1    0    0  501    0  0.00000000000E+00  0.00000000000E+00  0.15928270802E+04  0.15928270802E+04  0.50400001928E-02 0. -1.
       -1   -1    0    0    0  501  0.00000000000E+00  0.00000000000E+00 -0.73716753782E+03  0.73716753784E+03  0.50400001928E-02 0.  1.
    10030    2    1    2    0    0  0.00000000000E+00  0.00000000000E+00  0.85565954234E+03  0.23299946180E+04  0.21671921160E+04 0.  0.
        5    1    3    3  502    0  0.43706050357E+03  0.68502330175E+03  0.11985347424E+04  0.14480284619E+04  0.46999998093E+01 0. -1.
       -5    1    3    3    0  502 -0.43706050357E+03 -0.68502330175E+03 -0.34287520006E+03  0.88196615612E+03  0.46999998093E+01 0.  1.
</event>
<event>
 5   0  0.1786228E-05  0.2109924E+04  0.7818609E-02  0.8556884E-01
       -1   -1    0    0    0  501  0.00000000000E+00  0.00000000000E+00  0.15225126780E+04  0.15225126780E+04  0.50400001928E-02 0. -1.
        1   -1    0    0  501    0  0.00000000000E+00  0.00000000000E+00 -0.73099244961E+03  0.73099244962E+03  0.50400001928E-02 0.  1.
    10030    2    1    2    0    0  0.00000000000E+00  0.00000000000E+00  0.79152022836E+03  0.22535051276E+04  0.21099244271E+04 0.  0.
        5    1    3    3  502    0 -0.27787891194E+03 -0.37109525347E+03  0.14078720876E+04  0.14822463635E+04  0.46999998093E+01 0. -1.
       -5    1    3    3    0  502  0.27787891194E+03  0.37109525347E+03 -0.61635185927E+03  0.77125876414E+03  0.46999998093E+01 0.  1.
</event>
<event>
 5   0  0.1815681E-05  0.2192467E+04  0.7818609E-02  0.8521570E-01
       -1   -1    0    0    0  501  0.00000000000E+00  0.00000000000E+00  0.92425375695E+03  0.92425375697E+03  0.50400001928E-02 0.  1.
        1   -1    0    0  501    0  0.00000000000E+00  0.00000000000E+00 -0.13002143805E+04  0.13002143805E+04  0.50400001928E-02 0. -1.
    10030    2    1    2    0    0  0.00000000000E+00  0.00000000000E+00 -0.37596062357E+03  0.22244681375E+04  0.21924671273E+04 0.  0.
        2    1    3    3  502    0 -0.24195618847E+03  0.52465882519E+03  0.75723888489E+03  0.95248118553E+03  0.25500000920E-02 0.  1.
       -2    1    3    3    0  502  0.24195618847E+03 -0.52465882519E+03 -0.11331995085E+04  0.12719869520E+04  0.25500000920E-02 0. -1.
</event>
<event>
 5   0  0.1815681E-05  0.2206872E+04  0.7818609E-02  0.8515573E-01
        1   -1    0    0  501    0  0.00000000000E+00  0.00000000000E+00  0.21079284391E+04  0.21079284391E+04  0.50400001928E-02 0.  1.
       -1   -1    0    0    0  501  0.00000000000E+00  0.00000000000E+00 -0.57761501601E+03  0.57761501603E+03  0.50400001928E-02 0. -1.
    10030    2    1    2    0    0  0.00000000000E+00  0.00000000000E+00  0.15303134231E+04  0.26855434552E+04  0.22068721025E+04 0.  0.
        2    1    3    3  502    0 -0.40234309948E+03  0.94395923455E+02 -0.47988196728E+03  0.63330661025E+03  0.25500000920E-02 0. -1.
       -2    1    3    3    0  502  0.40234309948E+03 -0.94395923455E+02  0.20101953904E+04  0.20522368449E+04  0.25500000920E-02 0.  1.
</event>
<event>
 5   0  0.1815681E-05  0.2194230E+04  0.7818609E-02  0.8520833E-01
       -1   -1    0    0    0  501  0.00000000000E+00  0.00000000000E+00  0.87123184902E+03  0.87123184904E+03  0.50400001928E-02 0.  1.
        1   -1    0    0  501    0  0.00000000000E+00  0.00000000000E+00 -0.13815628995E+04  0.13815628995E+04  0.50400001928E-02 0. -1.
    10030    2    1    2    0    0  0.00000000000E+00  0.00000000000E+00 -0.51033105048E+03  0.22527947486E+04  0.21942302518E+04 0.  0.
        2    1    3    3  502    0  0.35959861577E+03  0.83122359957E+03  0.38056862437E+03  0.98238297767E+03  0.25500000920E-02 0.  1.
       -2    1    3    3    0  502 -0.35959861577E+03 -0.83122359957E+03 -0.89089967485E+03  0.12704117709E+04  0.25500000920E-02 0. -1.
</event>
<event>
 5   0  0.4027923E-05  0.2207106E+04  0.7818609E-02  0.8515476E-01
       -2   -1    0    0    0  501  0.00000000000E+00  0.00000000000E+00  0.53045698602E+03  0.53045698602E+03  0.25500000920E-02 0. -1.
        2   -1    0    0  501    0  0.00000000000E+00  0.00000000000E+00 -0.22958112713E+04  0.22958112713E+04  0.25500000920E-02 0.  1.
    10030    2    1    2    0    0  0.00000000000E+00  0.00000000000E+00 -0.17653542853E+04  0.28262682573E+04  0.22071059127E+04 0.  0.
        5    1    3    3  502    0 -0.40979403297E+01  0.10897706014E+04 -0.66018033608E+03  0.12741573384E+04  0.46999998093E+01 0. -1.
       -5    1    3    3    0  502  0.40979403297E+01 -0.10897706014E+04 -0.11051739492E+04  0.15521109189E+04  0.46999998093E+01 0.  1.
</event>
<event>
 5   0  0.1788413E-05  0.2201434E+04  0.7818609E-02  0.8517831E-01
       -1   -1    0    0    0  501  0.00000000000E+00  0.00000000000E+00  0.55160327189E+03  0.55160327192E+03  0.50400001928E-02 0.  1.
        1   -1    0    0  501    0  0.00000000000E+00  0.00000000000E+00 -0.21964662331E+04  0.21964662331E+04  0.50400001928E-02 0. -1.
    10030    2    1    2    0    0  0.00000000000E+00  0.00000000000E+00 -0.16448629612E+04  0.27480695050E+04  0.22014340424E+04 0.  0.
        1    1    3    3  502    0  0.19455256350E+03  0.52011236183E+03 -0.20087914870E+04  0.20841331068E+04  0.50400001928E-02 0. -1.
       -1    1    3    3    0  502 -0.19455256350E+03 -0.52011236183E+03  0.36392852579E+03  0.66393639816E+03  0.50400001928E-02 0.  1.
</event>
<event>
 5   0  0.1433375E-05  0.2213117E+04  0.7818609E-02  0.8512988E-01
       -3   -1    0    0    0  501  0.00000000000E+00  0.00000000000E+00  0.12653334774E+04  0.12653334814E+04  0.10100000352E+00 0.  1.
        3   -1    0    0  501    0  0.00000000000E+00  0.00000000000E+00 -0.96770682191E+03  0.96770682718E+03  0.10100000352E+00 0. -1.
    10030    2    1    2    0    0  0.00000000000E+00  0.00000000000E+00  0.29762665550E+03  0.22330403086E+04  0.22131171216E+04 0.  0.
        4    1    3    3  502    0  0.31241515715E+02  0.74820085250E+03 -0.67319212670E+03  0.10069606747E+04  0.12699999809E+01 0. -1.
       -4    1    3    3    0  502 -0.31241515715E+02 -0.74820085250E+03  0.97081878220E+03  0.12260796339E+04  0.12699999809E+01 0.  1.
</event>
<event>
 5   0  0.4029532E-05  0.2217699E+04  0.7818609E-02  0.8511097E-01
       -2   -1    0    0    0  501  0.00000000000E+00  0.00000000000E+00  0.51750840746E+03  0.51750840746E+03  0.25500000920E-02 0.  1.
        2   -1    0    0  501    0  0.00000000000E+00  0.00000000000E+00 -0.23758981453E+04  0.23758981453E+04  0.25500000920E-02 0. -1.
    10030    2    1    2    0    0  0.00000000000E+00  0.00000000000E+00 -0.18583897379E+04  0.28934065528E+04  0.22176990467E+04 0.  0.
        3    1    3    3  502    0  0.64541772905E+03 -0.92335142260E+01  0.24712346447E+03  0.69117242396E+03  0.10100000352E+00 0.  1.
       -3    1    3    3    0  502 -0.64541772905E+03  0.92335142260E+01 -0.21055132023E+04  0.22022341288E+04  0.10100000352E+00 0. -1.
</event>
<event>
 5   0  0.1866935E-05  0.2191083E+04  0.7818609E-02  0.8522149E-01
        1   -1    0    0  501    0  0.00000000000E+00  0.00000000000E+00  0.13421228950E+04  0.13421228950E+04  0.50400001928E-02 0. -1.
       -1   -1    0    0    0  501  0.00000000000E+00  0.00000000000E+00 -0.89426337830E+03  0.89426337832E+03  0.50400001928E-02 0.  1.
    10030    2    1    2    0    0  0.00000000000E+00  0.00000000000E+00  0.44785951666E+03  0.22363862733E+04  0.21910831606E+04 0.  0.
        4    1    3    3  502    0  0.39994324563E+03 -0.72012174042E+03 -0.51327813349E+03  0.97055962000E+03  0.12699999809E+01 0.  1.
       -4    1    3    3    0  502 -0.39994324563E+03  0.72012174042E+03  0.96113765015E+03  0.12658266533E+04  0.12699999809E+01 0. -1.
</event>
<event>
 5   0  0.4132460E-05  0.2175666E+04  0.7818609E-02  0.8528625E-01
        2   -1    0    0  501    0  0.00000000000E+00  0.00000000000E+00  0.19259902448E+04  0.19259902448E+04  0.25500000920E-02 0.  1.
       -2   -1    0    0    0  501  0.00000000000E+00  0.00000000000E+00 -0.61442721569E+03  0.61442721570E+03  0.25500000920E-02 0. -1.
    10030    2    1    2    0    0  0.00000000000E+00  0.00000000000E+00  0.13115630291E+04  0.25404174605E+04  0.21756661725E+04 0.  0.
        4    1    3    3  502    0  0.10621216379E+04  0.22499172784E+03  0.73545223919E+03  0.13113410160E+04  0.12699999809E+01 0.  1.
       -4    1    3    3    0  502 -0.10621216379E+04 -0.22499172784E+03  0.57611078987E+03  0.12290764445E+04  0.12699999809E+01 0. -1.
</event>
<event>
 5   0  0.3963414E-05  0.2201627E+04  0.7818609E-02  0.8517751E-01
       -2   -1    0    0    0  501  0.00000000000E+00  0.00000000000E+00  0.83826705614E+03  0.83826705615E+03  0.25500000920E-02 0.  1.
        2   -1    0    0  501    0  0.00000000000E+00  0.00000000000E+00 -0.14455900774E+04  0.14455900774E+04  0.25500000920E-02 0. -1.
    10030    2    1    2    0    0  0.00000000000E+00  0.00000000000E+00 -0.60732302128E+03  0.22838571336E+04  0.22016271606E+04 0.  0.
        1    1    3    3  502    0 -0.57016337679E+03  0.31791122657E+03 -0.12231282933E+04  0.13864330659E+04  0.50400001928E-02 0. -1.
       -1    1    3    3    0  502  0.57016337679E+03 -0.31791122657E+03  0.61580527203E+03  0.89742406771E+03  0.50400001928E-02 0.  1.
</event>
<event>
 5   0  0.1884407E-05  0.2205792E+04  0.7818609E-02  0.8516021E-01
       -1   -1    0    0    0  501  0.00000000000E+00  0.00000000000E+00  0.11779026294E+04  0.11779026295E+04  0.50400001928E-02 0. -1.
        1   -1    0    0  501    0  0.00000000000E+00  0.00000000000E+00 -0.10326656455E+04  0.10326656455E+04  0.50400001928E-02 0.  1.
    10030    2    1    2    0    0  0.00000000000E+00  0.00000000000E+00  0.14523698396E+03  0.22105682750E+04  0.22057919931E+04 0.  0.
        3    1    3    3  502    0  0.47555923258E+02 -0.60021613549E+03 -0.85342706826E+03  0.10444418348E+04  0.10100000352E+00 0.  1.
       -3    1    3    3    0  502 -0.47555923258E+02  0.60021613549E+03  0.99866405222E+03  0.11661264402E+04  0.10100000352E+00 0. -1.
</event>
<event>
 5   0  0.4029532E-05  0.2200509E+04  0.7818609E-02  0.8518216E-01
       -2   -1    0    0    0  501  0.00000000000E+00  0.00000000000E+00  0.94507754575E+03  0.94507754575E+03  0.25500000920E-02 0. -1.
        2   -1    0    0  501    0  0.00000000000E+00  0.00000000000E+00 -0.12809111171E+04  0.12809111171E+04  0.25500000920E-02 0.  1.
    10030    2    1    2    0    0  0.00000000000E+00  0.00000000000E+00 -0.33583357136E+03  0.22259886629E+04  0.22005093364E+04 0.  0.
        3    1    3    3  502    0  0.10612310327E+04 -0.23470287851E+03 -0.34096353701E+03  0.11391017908E+04  0.10100000352E+00 0.  1.
       -3    1    3    3    0  502 -0.10612310327E+04  0.23470287851E+03  0.51299656515E+01  0.10868868721E+04  0.10100000352E+00 0. -1.
</event>
<event>
 5   0  0.1866935E-05  0.2171771E+04  0.7818609E-02  0.8530270E-01
        1   -1    0    0  501    0  0.00000000000E+00  0.00000000000E+00  0.22443359818E+04  0.22443359818E+04  0.50400001928E-02 0.  1.
       -1   -1    0    0    0  501  0.00000000000E+00  0.00000000000E+00 -0.52538785215E+03  0.52538785218E+03  0.50400001928E-02 0. -1.
    10030    2    1    2    0    0  0.00000000000E+00  0.00000000000E+00  0.17189481296E+04  0.27697238340E+04  0.21717705782E+04 0.  0.
        4    1    3    3  502    0 -0.28310913838E+03  0.78677301757E+03 -0.24084431303E+02  0.83650716562E+03  0.12699999809E+01 0. -1.
       -4    1    3    3    0  502  0.28310913838E+03 -0.78677301757E+03  0.17430325609E+04  0.19332166684E+04  0.12699999809E+01 0.  1.
</event>
<event>
 5   0  0.4143281E-05  0.2187816E+04  0.7818609E-02  0.8523517E-01
        2   -1    0    0  501    0  0.00000000000E+00  0.00000000000E+00  0.14434041992E+04  0.14434041992E+04  0.25500000920E-02 0.  1.
       -2   -1    0    0    0  501  0.00000000000E+00  0.00000000000E+00 -0.82903610823E+03  0.82903610823E+03  0.25500000920E-02 0. -1.
    10030    2    1    2    0    0  0.00000000000E+00  0.00000000000E+00  0.61436809094E+03  0.22724403074E+04  0.21878155314E+04 0.  0.
        2    1    3    3  502    0 -0.87363572382E+03 -0.49569992445E+03  0.75715721911E+03  0.12578731444E+04  0.25500000920E-02 0.  1.
       -2    1    3    3    0  502  0.87363572382E+03  0.49569992445E+03 -0.14278912817E+03  0.10145671630E+04  0.25500000920E-02 0. -1.
</event>
<event>
 5   0  0.1866935E-05  0.2196754E+04  0.7818609E-02  0.8519780E-01
        1   -1    0    0  501    0  0.00000000000E+00  0.00000000000E+00  0.12694956707E+04  0.12694956707E+04  0.50400001928E-02 0.  1.
       -1   -1    0    0    0  501  0.00000000000E+00  0.00000000000E+00 -0.95032389486E+03  0.95032389488E+03  0.50400001928E-02 0. -1.
    10030    2    1    2    0    0  0.00000000000E+00  0.00000000000E+00  0.31917177586E+03  0.22198195656E+04  0.21967540330E+04 0.  0.
        4    1    3    3  502    0 -0.46762074002E+03 -0.59335551418E+03  0.96525945449E+03  0.12257517490E+04  0.12699999809E+01 0.  1.
       -4    1    3    3    0  502  0.46762074002E+03  0.59335551418E+03 -0.64608767863E+03  0.99406781664E+03  0.12699999809E+01 0. -1.
</event>
<event>
 5   0  0.1866935E-05  0.2260953E+04  0.7818609E-02  0.8493478E-01
       -1   -1    0    0    0  501  0.00000000000E+00  0.00000000000E+00  0.14955479023E+04  0.14955479023E+04  0.50400001928E-02 0. -1.
        1   -1    0    0  501    0  0.00000000000E+00  0.00000000000E+00 -0.85452089395E+03  0.85452089396E+03  0.50400001928E-02 0.  1.
    10030    2    1    2    0    0  0.00000000000E+00  0.00000000000E+00  0.64102700834E+03  0.23500687963E+04  0.22609528349E+04 0.  0.
        4    1    3    3  502    0 -0.95516661437E+03  0.49457123840E+02  0.94691624930E+03  0.13458979398E+04  0.12699999809E+01 0. -1.
       -4    1    3    3    0  502  0.95516661437E+03 -0.49457123840E+02 -0.30588924096E+03  0.10041708564E+04  0.12699999809E+01 0.  1.
</event>
<event>
 5   0  0.1815681E-05  0.2211114E+04  0.7818609E-02  0.8513816E-01
        1   -1    0    0  501    0  0.00000000000E+00  0.00000000000E+00  0.24510124531E+04  0.24510124531E+04  0.50400001928E-02 0. -1.
       -1   -1    0    0    0  501  0.00000000000E+00  0.00000000000E+00 -0.49867421491E+03  0.49867421493E+03  0.50400001928E-02 0.  1.
    10030    2    1    2    0    0  0.00000000000E+00  0.00000000000E+00  0.19523382382E+04  0.29496866681E+04  0.22111143895E+04 0.  0.
        2    1    3    3  502    0 -0.10404224524E+04 -0.36315169880E+01  0.47744159729E+03  0.11447456251E+04  0.25500000920E-02 0.  1.
       -2    1    3    3    0  502  0.10404224524E+04  0.36315169880E+01  0.14748966409E+04  0.18049410430E+04  0.25500000920E-02 0. -1.
</event>
<event>
 5   0  0.4143281E-05  0.2176406E+04  0.7818609E-02  0.8528313E-01
       -2   -1    0    0    0  501  0.00000000000E+00  0.00000000000E+00  0.25108822011E+04  0.25108822011E+04  0.25500000920E-02 0. -1.
        2   -1    0    0  501    0  0.00000000000E+00  0.00000000000E+00 -0.47162148707E+03  0.47162148707E+03  0.25500000920E-02 0.  1.
    10030    2    1    2    0    0  0.00000000000E+00  0.00000000000E+00  0.20392607140E+04  0.29825036882E+04  0.21764062098E+04 0.  0.
        2    1    3    3  502    0  0.95986985315E+01 -0.56616699752E+03 -0.25382719676E+03  0.62053642110E+03  0.25500000920E-02 0.  1.
       -2    1    3    3    0  502 -0.95986985315E+01  0.56616699752E+03  0.22930879108E+04  0.23619672671E+04  0.25500000920E-02 0. -1.
</event>
<event>
 5   0  0.3963414E-05  0.2217412E+04  0.7818609E-02  0.8511216E-01
        2   -1    0    0  501    0  0.00000000000E+00  0.00000000000E+00  0.11472156774E+04  0.11472156774E+04  0.25500000920E-02 0. -1.
       -2   -1    0    0    0  501  0.00000000000E+00  0.00000000000E+00 -0.10714885684E+04  0.10714885684E+04  0.25500000920E-02 0.  1.
    10030    2    1    2    0    0  0.00000000000E+00  0.00000000000E+00  0.75727108992E+02  0.22187042459E+04  0.22174115395E+04 0.  0.
        1    1    3    3  502    0  0.13407515955E+03 -0.42276213388E+02 -0.10625343989E+04  0.10717941853E+04  0.50400001928E-02 0.  1.
       -1    1    3    3    0  502 -0.13407515955E+03  0.42276213388E+02  0.11382615079E+04  0.11469100606E+04  0.50400001928E-02 0. -1.
</event>
<event>
 5   0  0.4027923E-05  0.2197876E+04  0.7818609E-02  0.8519313E-01
       -2   -1    0    0    0  501  0.00000000000E+00  0.00000000000E+00  0.78587125285E+03  0.78587125286E+03  0.25500000920E-02 0.  1.
        2   -1    0    0  501    0  0.00000000000E+00  0.00000000000E+00 -0.15367213553E+04  0.15367213553E+04  0.25500000920E-02 0. -1.
    10030    2    1    2    0    0  0.00000000000E+00  0.00000000000E+00 -0.75085010245E+03  0.23225926082E+04  0.21978763721E+04 0.  0.
        5    1    3    3  502    0 -0.25955960804E+03  0.41923330255E+03 -0.14132505544E+04  0.14968055891E+04  0.46999998093E+01 0. -1.
       -5    1    3    3    0  502  0.25955960804E+03 -0.41923330255E+03  0.66240045195E+03  0.82578701905E+03  0.46999998093E+01 0.  1.
</event>
<event>
 5   0  0.3963414E-05  0.2194637E+04  0.7818609E-02  0.8520663E-01
        2   -1    0    0  501    0  0.00000000000E+00  0.00000000000E+00  0.17919909514E+04  0.17919909514E+04  0.25500000920E-02 0.  1.
       -2   -1    0    0    0  501  0.00000000000E+00  0.00000000000E+00 -0.67193880199E+03  0.67193880200E+03  0.25500000920E-02 0. -1.
    10030    2    1    2    0    0  0.00000000000E+00  0.00000000000E+00  0.11200521494E+04  0.24639297534E+04  0.21946373305E+04 0.  0.
        1    1    3    3  502    0  0.56292864678E+03 -0.72111073915E+03  0.12403693063E+04  0.15412350163E+04  0.50400001928E-02 0.  1.
       -1    1    3    3    0  502 -0.56292864678E+03  0.72111073915E+03 -0.12031715694E+03  0.92269473704E+03  0.50400001928E-02 0. -1.
</event>
<event>
 5   0  0.1788413E-05  0.2204052E+04  0.7818609E-02  0.8516744E-01
        1   -1    0    0  501    0  0.00000000000E+00  0.00000000000E+00  0.90014003990E+03  0.90014003992E+03  0.50400001928E-02 0. -1.
       -1   -1    0    0    0  501  0.00000000000E+00  0.00000000000E+00 -0.13491910163E+04  0.13491910163E+04  0.50400001928E-02 0.  1.
    10030    2    1    2    0    0  0.00000000000E+00  0.00000000000E+00 -0.44905097640E+03  0.22493310562E+04  0.22040515922E+04 0.  0.
        1    1    3    3  502    0  0.33899434351E+03  0.30359127198E+03  0.79977511794E+03  0.92017664861E+03  0.50400001928E-02 0. -1.
       -1    1    3    3    0  502 -0.33899434351E+03 -0.30359127198E+03 -0.12488260943E+04  0.13291544076E+04  0.50400001928E-02 0.  1.
</event>
<event>
 5   0  0.4027923E-05  0.2200551E+04  0.7818609E-02  0.8518199E-01
        2   -1    0    0  501    0  0.00000000000E+00  0.00000000000E+00  0.22598482305E+04  0.22598482305E+04  0.25500000920E-02 0.  1.
       -2   -1    0    0    0  501  0.00000000000E+00  0.00000000000E+00 -0.53570219830E+03  0.53570219831E+03  0.25500000920E-02 0. -1.
    10030    2    1    2    0    0  0.00000000000E+00  0.00000000000E+00  0.17241460322E+04  0.27955504288E+04  0.22005505356E+04 0.  0.
        5    1    3    3  502    0  0.82925306444E+03 -0.59342806032E+03  0.33710025183E+03  0.10740000826E+04  0.46999998093E+01 0. -1.
       -5    1    3    3    0  502 -0.82925306444E+03  0.59342806032E+03  0.13870457803E+04  0.17215503462E+04  0.46999998093E+01 0.  1.
</event>
<event>
 5   0  0.1433375E-05  0.2363277E+04  0.7818609E-02  0.8453381E-01
        3   -1    0    0  501    0  0.00000000000E+00  0.00000000000E+00  0.94280199243E+03  0.94280199784E+03  0.10100000352E+00 0. -1.
       -3   -1    0    0    0  501  0.00000000000E+00  0.00000000000E+00 -0.14809788354E+04  0.14809788389E+04  0.10100000352E+00 0.  1.
    10030    2    1    2    0    0  0.00000000000E+00  0.00000000000E+00 -0.53817684300E+03  0.24237808367E+04  0.23632772224E+04 0.  0.
        3    1    3    3  502    0  0.40735365579E+03 -0.42086775226E+03 -0.13216190658E+04  0.14455945597E+04  0.10100000352E+00 0.  1.
       -3    1    3    3    0  502 -0.40735365579E+03  0.42086775226E+03  0.78344222282E+03  0.97818627699E+03  0.10100000352E+00 0. -1.
</event>
<event>
 5   0  0.4132460E-05  0.2202787E+04  0.7818609E-02  0.8517269E-01
       -2   -1    0    0    0  501  0.00000000000E+00  0.00000000000E+00  0.64686568649E+03  0.64686568650E+03  0.25500000920E-02 0.  1.
        2   -1    0    0  501    0  0.00000000000E+00  0.00000000000E+00 -0.18753013781E+04  0.18753013781E+04  0.25500000920E-02 0. -1.
    10030    2    1    2    0    0  0.00000000000E+00  0.00000000000E+00 -0.12284356916E+04  0.25221670646E+04  0.22027874281E+04 0.  0.
        4    1    3    3  502    0 -0.95834286972E+03  0.48499492757E+03 -0.33510026714E+03  0.11251377416E+04  0.12699999809E+01 0.  1.
       -4    1    3    3    0  502  0.95834286972E+03 -0.48499492757E+03 -0.89333542446E+03  0.13970293230E+04  0.12699999809E+01 0. -1.
</event>
<event>
 5   0  0.4132460E-05  0.2193585E+04  0.7818609E-02  0.8521103E-01
        2   -1    0    0  501    0  0.00000000000E+00  0.00000000000E+00  0.10764068820E+04  0.10764068820E+04  0.25500000920E-02 0.  1.
       -2   -1    0    0    0  501  0.00000000000E+00  0.00000000000E+00 -0.11175642989E+04  0.11175642989E+04  0.25500000920E-02 0. -1.
    10030    2    1    2    0    0  0.00000000000E+00  0.00000000000E+00 -0.41157416928E+02  0.21939711810E+04  0.21935851043E+04 0.  0.
        4    1    3    3  502    0 -0.95204156733E+03 -0.14513839807E+03 -0.54555582837E+03  0.11068338065E+04  0.12699999809E+01 0. -1.
       -4    1    3    3    0  502  0.95204156733E+03  0.14513839807E+03  0.50439841144E+03  0.10871373744E+04  0.12699999809E+01 0.  1.
</event>
<event>
 5   0  0.1815681E-05  0.2121466E+04  0.7818609E-02  0.8551846E-01
        1   -1    0    0  501    0  0.00000000000E+00  0.00000000000E+00  0.78357867762E+03  0.78357867764E+03  0.50400001928E-02 0. -1.
       -1   -1    0    0    0  501  0.00000000000E+00  0.00000000000E+00 -0.14359181448E+04  0.14359181448E+04  0.50400001928E-02 0.  1.
    10030    2    1    2    0    0  0.00000000000E+00  0.00000000000E+00 -0.65233946714E+03  0.22194968224E+04  0.21214663241E+04 0.  0.
        2    1    3    3  502    0  0.22309877024E+03  0.72008792124E+03  0.45453985199E+03  0.88028753976E+03  0.25500000920E-02 0. -1.
       -2    1    3    3    0  502 -0.22309877024E+03 -0.72008792124E+03 -0.11068793191E+04  0.13392092827E+04  0.25500000920E-02 0.  1.
</event>
<event>
 5   0  0.1788413E-05  0.2200698E+04  0.7818609E-02  0.8518138E-01
       -1   -1    0    0    0  501  0.00000000000E+00  0.00000000000E+00  0.92676899552E+03  0.92676899554E+03  0.50400001928E-02 0.  1.
        1   -1    0    0  501    0  0.00000000000E+00  0.00000000000E+00 -0.13064402327E+04  0.13064402327E+04  0.50400001928E-02 0. -1.
    10030    2    1    2    0    0  0.00000000000E+00  0.00000000000E+00 -0.37967123714E+03  0.22332092282E+04  0.22006983457E+04 0.  0.
        1    1    3    3  502    0  0.27060524903E+03  0.45859556161E+03  0.78731816502E+03  0.95047723956E+03  0.50400001928E-02 0.  1.
       -1    1    3    3    0  502 -0.27060524903E+03 -0.45859556161E+03 -0.11669894022E+04  0.12827319887E+04  0.50400001928E-02 0. -1.
</event>
<event>
 5   0  0.1786228E-05  0.2194346E+04  0.7818609E-02  0.8520785E-01
        1   -1    0    0  501    0  0.00000000000E+00  0.00000000000E+00  0.16312304366E+04  0.16312304366E+04  0.50400001928E-02 0. -1.
       -1   -1    0    0    0  501  0.00000000000E+00  0.00000000000E+00 -0.73796353440E+03  0.73796353442E+03  0.50400001928E-02 0.  1.
    10030    2    1    2    0    0  0.00000000000E+00  0.00000000000E+00  0.89326690218E+03  0.23691939710E+04  0.21943459877E+04 0.  0.
        5    1    3    3  502    0 -0.33537904999E+03 -0.28599533197E+03  0.15314277547E+04  0.15936014229E+04  0.46999998093E+01 0. -1.
       -5    1    3    3    0  502  0.33537904999E+03  0.28599533197E+03 -0.63816085251E+03  0.77559254816E+03  0.46999998093E+01 0.  1.
</event>
<event>
 5   0  0.4132460E-05  0.2188130E+04  0.7818609E-02  0.8523385E-01
        2   -1    0    0  501    0  0.00000000000E+00  0.00000000000E+00  0.21324184798E+04  0.21324184798E+04  0.25500000920E-02 0.  1.
       -2   -1    0    0    0  501  0.00000000000E+00  0.00000000000E+00 -0.56132449405E+03  0.56132449406E+03  0.25500000920E-02 0. -1.
    10030    2    1    2    0    0  0.00000000000E+00  0.00000000000E+00  0.15710939857E+04  0.26937429738E+04  0.21881304571E+04 0.  0.
        4    1    3    3  502    0 -0.76669015335E+03 -0.86305695180E+01  0.17463254625E+04  0.19072342572E+04  0.12699999809E+01 0.  1.
       -4    1    3    3    0  502  0.76669015335E+03  0.86305695180E+01 -0.17523147678E+03  0.78650871663E+03  0.12699999809E+01 0. -1.
</event>
<event>
 5   0  0.4027923E-05  0.2156346E+04  0.7818609E-02  0.8536821E-01
        2   -1    0    0  501    0  0.00000000000E+00  0.00000000000E+00  0.87966674742E+03  0.87966674743E+03  0.25500000920E-02 0. -1.
       -2   -1    0    0    0  501  0.00000000000E+00  0.00000000000E+00 -0.13214739934E+04  0.13214739934E+04  0.25500000920E-02 0.  1.
    10030    2    1    2    0    0  0.00000000000E+00  0.00000000000E+00 -0.44180724597E+03  0.22011407408E+04  0.21563457326E+04 0.  0.
        5    1    3    3  502    0 -0.65010546068E+03  0.34931251815E+03  0.58141290914E+03  0.93953148231E+03  0.46999998093E+01 0. -1.
       -5    1    3    3    0  502  0.65010546068E+03 -0.34931251815E+03 -0.10232201551E+04  0.12616092585E+04  0.46999998093E+01 0.  1.
</event>
<event>
 5   0  0.3963414E-05  0.2196924E+04  0.7818609E-02  0.8519709E-01
        2   -1    0    0  501    0  0.00000000000E+00  0.00000000000E+00  0.76083923210E+03  0.76083923210E+03  0.25500000920E-02 0.  1.
       -2   -1    0    0    0  501  0.00000000000E+00  0.00000000000E+00 -0.15859053919E+04  0.15859053919E+04  0.25500000920E-02 0. -1.
    10030    2    1    2    0    0  0.00000000000E+00  0.00000000000E+00 -0.82506615980E+03  0.23467446240E+04  0.21969242505E+04 0.  0.
        1    1    3    3  502    0  0.63168172940E+03  0.88275244222E+03 -0.23269082877E+03  0.11101435508E+04  0.50400001928E-02 0. -1.
       -1    1    3    3    0  502 -0.63168172940E+03 -0.88275244222E+03 -0.59237533103E+03  0.12366010732E+04  0.50400001928E-02 0.  1.
</event>
<event>
 5   0  0.3963414E-05  0.2229079E+04  0.7818609E-02  0.8506421E-01
       -2   -1    0    0    0  501  0.00000000000E+00  0.00000000000E+00  0.12310722272E+04  0.12310722272E+04  0.25500000920E-02 0.  1.
        2   -1    0    0  501    0  0.00000000000E+00  0.00000000000E+00 -0.10090374877E+04  0.10090374877E+04  0.25500000920E-02 0. -1.
    10030    2    1    2    0    0  0.00000000000E+00  0.00000000000E+00  0.22203473953E+03  0.22401097149E+04  0.22290787579E+04 0.  0.
        1    1    3    3  502    0  0.45001434600E+03 -0.72887183124E+03 -0.60555469653E+03  0.10490298130E+04  0.50400001928E-02 0.  1.
       -1    1    3    3    0  502 -0.45001434600E+03  0.72887183124E+03  0.82758943605E+03  0.11910799019E+04  0.50400001928E-02 0. -1.
</event>
<event>
 5   0  0.1786228E-05  0.2194265E+04  0.7818609E-02  0.8520819E-01
        1   -1    0    0  501    0  0.00000000000E+00  0.00000000000E+00  0.11316044349E+04  0.11316044349E+04  0.50400001928E-02 0. -1.
       -1   -1    0    0    0  501  0.00000000000E+00  0.00000000000E+00 -0.10637105493E+04  0.10637105493E+04  0.50400001928E-02 0.  1.
    10030    2    1    2    0    0  0.00000000000E+00  0.00000000000E+00  0.67893885617E+02  0.21953149843E+04  0.21942648656E+04 0.  0.
        5    1    3    3  502    0  0.38407582555E+03  0.18523606291E+02 -0.99407588758E+03  0.10658641208E+04  0.46999998093E+01 0.  1.
       -5    1    3    3    0  502 -0.38407582555E+03 -0.18523606291E+02  0.10619697732E+04  0.11294508634E+04  0.46999998093E+01 0. -1.
</event>
<event>
 5   0  0.1786228E-05  0.2155938E+04  0.7818609E-02  0.8536995E-01
        1   -1    0    0  501    0  0.00000000000E+00  0.00000000000E+00  0.13102674742E+04  0.13102674742E+04  0.50400001928E-02 0. -1.
       -1   -1    0    0    0  501  0.00000000000E+00  0.00000000000E+00 -0.88685485063E+03  0.88685485064E+03  0.50400001928E-02 0.  1.
    10030    2    1    2    0    0  0.00000000000E+00  0.00000000000E+00  0.42341262358E+03  0.21971223249E+04  0.21559379074E+04 0.  0.
        5    1    3    3  502    0 -0.45930919300E+03 -0.18823690272E+03  0.11868534423E+04  0.12864840652E+04  0.46999998093E+01 0. -1.
       -5    1    3    3    0  502  0.45930919300E+03  0.18823690272E+03 -0.76344081875E+03  0.91063825971E+03  0.46999998093E+01 0.  1.
</event>
<event>
 5   0  0.4132460E-05  0.2184421E+04  0.7818609E-02  0.8524941E-01
       -2   -1    0    0    0  501  0.00000000000E+00  0.00000000000E+00  0.67659052512E+03  0.67659052512E+03  0.25500000920E-02 0.  1.
        2   -1    0    0  501    0  0.00000000000E+00  0.00000000000E+00 -0.17631393799E+04  0.17631393799E+04  0.25500000920E-02 0. -1.
    10030    2    1    2    0    0  0.00000000000E+00  0.00000000000E+00 -0.10865488547E+04  0.24397299050E+04  0.21844206544E+04 0.  0.
        4    1    3    3  502    0  0.93206302482E+02 -0.89534773719E+03 -0.12341032784E+04  0.15275298687E+04  0.12699999809E+01 0. -1.
       -4    1    3    3    0  502 -0.93206302482E+02  0.89534773719E+03  0.14755442361E+03  0.91220003625E+03  0.12699999809E+01 0.  1.
</event>
<event>
 5   0  0.1866935E-05  0.2212102E+04  0.7818609E-02  0.8513408E-01
        1   -1    0    0  501    0  0.00000000000E+00  0.00000000000E+00  0.20695951252E+04  0.20695951252E+04  0.50400001928E-02 0.  1.
       -1   -1    0    0    0  501  0.00000000000E+00  0.00000000000E+00 -0.59110516180E+03  0.59110516182E+03  0.50400001928E-02 0. -1.
    10030    2    1    2    0    0  0.00000000000E+00  0.00000000000E+00  0.14784899634E+04  0.26607002870E+04  0.22121015902E+04 0.  0.
        4    1    3    3  502    0  0.96046920929E+03  0.17830569822E+03  0.11535273928E+03  0.98366757157E+03  0.12699999809E+01 0. -1.
       -4    1    3    3    0  502 -0.96046920929E+03 -0.17830569822E+03  0.13631372241E+04  0.16770327154E+04  0.12699999809E+01 0.  1.
</event>
<event>
 5   0  0.4132460E-05  0.2192981E+04  0.7818609E-02  0.8521355E-01
       -2   -1    0    0    0  501  0.00000000000E+00  0.00000000000E+00  0.78161298795E+03  0.78161298796E+03  0.25500000920E-02 0. -1.
        2   -1    0    0  501    0  0.00000000000E+00  0.00000000000E+00 -0.15382179491E+04  0.15382179491E+04  0.25500000920E-02 0.  1.
    10030    2    1    2    0    0  0.00000000000E+00  0.00000000000E+00 -0.75660496111E+03  0.23198309370E+04  0.21929807362E+04 0.  0.
        4    1    3    3  502    0  0.24032500344E+03  0.10828283277E+02 -0.15099560800E+04  0.15290004367E+04  0.12699999809E+01 0.  1.
       -4    1    3    3    0  502 -0.24032500344E+03 -0.10828283277E+02  0.75335111889E+03  0.79083050032E+03  0.12699999809E+01 0. -1.
</event>
<event>
 5   0  0.1884407E-05  0.2192867E+04  0.7818609E-02  0.8521403E-01
       -1   -1    0    0    0  501  0.00000000000E+00  0.00000000000E+00  0.14089355354E+04  0.14089355355E+04  0.50400001928E-02 0. -1.
        1   -1    0    0  501    0  0.00000000000E+00  0.00000000000E+00 -0.85324456163E+03  0.85324456164E+03  0.50400001928E-02 0.  1.
    10030    2    1    2    0    0  0.00000000000E+00  0.00000000000E+00  0.55569097381E+03  0.22621800971E+04  0.21928671490E+04 0.  0.
        3    1    3    3  502    0  0.60053772392E+03 -0.85621173721E+01 -0.66845359952E+03  0.89863735323E+03  0.10100000352E+00 0.  1.
       -3    1    3    3    0  502 -0.60053772392E+03  0.85621173721E+01  0.12241445733E+04  0.13635427439E+04  0.10100000352E+00 0. -1.
</event>
<event>
 5   0  0.1866935E-05  0.2204981E+04  0.7818609E-02  0.8516358E-01
       -1   -1    0    0    0  501  0.00000000000E+00  0.00000000000E+00  0.10184660187E+04  0.10184660187E+04  0.50400001928E-02 0.  1.
        1   -1    0    0  501    0  0.00000000000E+00  0.00000000000E+00 -0.11934474303E+04  0.11934474303E+04  0.50400001928E-02 0. -1.
    10030    2    1    2    0    0  0.00000000000E+00  0.00000000000E+00 -0.17498141162E+03  0.22119134490E+04  0.22049813177E+04 0.  0.
        4    1    3    3  502    0 -0.10976767323E+03  0.25520469274E+03 -0.11577590080E+04  0.11906241686E+04  0.12699999809E+01 0. -1.
       -4    1    3    3    0  502  0.10976767323E+03 -0.25520469274E+03  0.98277759643E+03  0.10212892804E+04  0.12699999809E+01 0.  1.
</event>
<event>
 5   0  0.1815681E-05  0.2129402E+04  0.7818609E-02  0.8548401E-01
       -1   -1    0    0    0  501  0.00000000000E+00  0.00000000000E+00  0.62548872215E+03  0.62548872217E+03  0.50400001928E-02 0. -1.
        1   -1    0    0  501    0  0.00000000000E+00  0.00000000000E+00 -0.18123233441E+04  0.18123233441E+04  0.50400001928E-02 0.  1.
    10030    2    1    2    0    0  0.00000000000E+00  0.00000000000E+00 -0.11868346219E+04  0.24378120662E+04  0.21294016179E+04 0.  0.
        2    1    3    3  502    0  0.61386733846E+02  0.78839666410E+03  0.22275416707E+03  0.82155769731E+03  0.25500000920E-02 0. -1.
       -2    1    3    3    0  502 -0.61386733846E+02 -0.78839666410E+03 -0.14095887890E+04  0.16162543689E+04  0.25500000920E-02 0.  1.
</event>
<event>
 5   0  0.3963414E-05  0.2199834E+04  0.7818609E-02  0.8518497E-01
       -2   -1    0    0    0  501  0.00000000000E+00  0.00000000000E+00  0.97713926566E+03  0.97713926566E+03  0.25500000920E-02 0. -1.
        2   -1    0    0  501    0  0.00000000000E+00  0.00000000000E+00 -0.12381212496E+04  0.12381212496E+04  0.25500000920E-02 0.  1.
    10030    2    1    2    0    0  0.00000000000E+00  0.00000000000E+00 -0.26098198396E+03  0.22152605153E+04  0.21998335288E+04 0.  0.
        1    1    3    3  502    0  0.81874637105E+03 -0.54159680477E+03  0.36911744779E+03  0.10487709041E+04  0.50400001928E-02 0.  1.
       -1    1    3    3    0  502 -0.81874637105E+03  0.54159680477E+03 -0.63009943174E+03  0.11664896112E+04  0.50400001928E-02 0. -1.
</event>
<event>
 5   0  0.1788413E-05  0.2163830E+04  0.7818609E-02  0.8533635E-01
       -1   -1    0    0    0  501  0.00000000000E+00  0.00000000000E+00  0.10607741935E+04  0.10607741935E+04  0.50400001928E-02 0.  1.
        1   -1    0    0  501    0  0.00000000000E+00  0.00000000000E+00 -0.11034771673E+04  0.11034771673E+04  0.50400001928E-02 0. -1.
    10030    2    1    2    0    0  0.00000000000E+00  0.00000000000E+00 -0.42702973819E+02  0.21642513608E+04  0.21638300323E+04 0.  0.
        1    1    3    3  502    0  0.34661511999E+03  0.21989741550E+03 -0.10225674723E+04  0.11018807332E+04  0.50400001928E-02 0. -1.
       -1    1    3    3    0  502 -0.34661511999E+03 -0.21989741550E+03  0.97986449852E+03  0.10623706275E+04  0.50400001928E-02 0.  1.
</event>
<event>
 5   0  0.3963414E-05  0.2210645E+04  0.7818609E-02  0.8514011E-01
        2   -1    0    0  501    0  0.00000000000E+00  0.00000000000E+00  0.13371501140E+04  0.13371501140E+04  0.25500000920E-02 0.  1.
       -2   -1    0    0    0  501  0.00000000000E+00  0.00000000000E+00 -0.91368749834E+03  0.91368749835E+03  0.25500000920E-02 0. -1.
    10030    2    1    2    0    0  0.00000000000E+00  0.00000000000E+00  0.42346261563E+03  0.22508376123E+04  0.22106445599E+04 0.  0.
        1    1    3    3  502    0  0.48878008947E+02 -0.11081630968E+03  0.13303732982E+04  0.13358751539E+04  0.50400001928E-02 0.  1.
       -1    1    3    3    0  502 -0.48878008947E+02  0.11081630968E+03 -0.90691068253E+03  0.91496245845E+03  0.50400001928E-02 0. -1.
</event>
<event>
 5   0  0.4143281E-05  0.2188916E+04  0.7818609E-02  0.8523056E-01
        2   -1    0    0  501    0  0.00000000000E+00  0.00000000000E+00  0.99604737705E+03  0.99604737706E+03  0.25500000920E-02 0. -1.
       -2   -1    0    0    0  501  0.00000000000E+00  0.00000000000E+00 -0.12025914214E+04  0.12025914214E+04  0.25500000920E-02 0.  1.
    10030    2    1    2    0    0  0.00000000000E+00  0.00000000000E+00 -0.20654404431E+03  0.21986387984E+04  0.21889157416E+04 0.  0.
        2    1    3    3  502    0 -0.97372422439E+03  0.22603422604E+03 -0.55090582841E+03  0.11413709162E+04  0.25500000920E-02 0.  1.
       -2    1    3    3    0  502  0.97372422439E+03 -0.22603422604E+03  0.34436178410E+03  0.10572678823E+04  0.25500000920E-02 0. -1.
</event>
<event>
 5   0  0.4132460E-05  0.2199440E+04  0.7818609E-02  0.8518661E-01
       -2   -1    0    0    0  501  0.00000000000E+00  0.00000000000E+00  0.12158379928E+04  0.12158379928E+04  0.25500000920E-02 0. -1.
        2   -1    0    0  501    0  0.00000000000E+00  0.00000000000E+00 -0.99469139968E+03  0.99469139968E+03  0.25500000920E-02 0.  1.
    10030    2    1    2    0    0  0.00000000000E+00  0.00000000000E+00  0.22114659312E+03  0.22105293925E+04  0.21994395603E+04 0.  0.
        4    1    3    3  502    0 -0.41357234248E+03  0.47294553213E+03 -0.79656416887E+03  0.10145125169E+04  0.12699999809E+01 0.  1.
       -4    1    3    3    0  502  0.41357234248E+03 -0.47294553213E+03  0.10177107620E+04  0.11960168756E+04  0.12699999809E+01 0. -1.
</event>
<event>
 5   0  0.1866935E-05  0.2354422E+04  0.7818609E-02  0.8456767E-01
       -1   -1    0    0    0  501  0.00000000000E+00  0.00000000000E+00  0.11045462638E+04  0.11045462638E+04  0.50400001928E-02 0. -1.
        1   -1    0    0  501    0  0.00000000000E+00  0.00000000000E+00 -0.12546560691E+04  0.12546560691E+04  0.50400001928E-02 0.  1.
    10030    2    1    2    0    0  0.00000000000E+00  0.00000000000E+00 -0.15010980533E+03  0.23592023329E+04  0.23544219447E+04 0.  0.
        4    1    3    3  502    0 -0.60409388532E+03 -0.99776503906E+03 -0.23462510387E+03  0.11897541963E+04  0.12699999809E+01 0.  1.
       -4    1    3    3    0  502  0.60409388532E+03  0.99776503906E+03  0.84515298538E+02  0.11694481365E+04  0.12699999809E+01 0. -1.
</event>
<event>
 5   0  0.1788413E-05  0.2243906E+04  0.7818609E-02  0.8500373E-01
        1   -1    0    0  501    0  0.00000000000E+00  0.00000000000E+00  0.11078881549E+04  0.11078881549E+04  0.50400001928E-02 0. -1.
       -1   -1    0    0    0  501  0.00000000000E+00  0.00000000000E+00 -0.11361961655E+04  0.11361961655E+04  0.50400001928E-02 0.  1.
    10030    2    1    2    0    0  0.00000000000E+00  0.00000000000E+00 -0.28308010538E+02  0.22440843204E+04  0.22439057676E+04 0.  0.
        1    1    3    3  502    0  0.47496034141E+03  0.29098407555E+01 -0.10306907298E+04  0.11348652667E+04  0.50400001928E-02 0.  1.
       -1    1    3    3    0  502 -0.47496034141E+03 -0.29098407555E+01  0.10023827193E+04  0.11092190537E+04  0.50400001928E-02 0. -1.
</event>
<event>
 5   0  0.4132460E-05  0.2204632E+04  0.7818609E-02  0.8516503E-01
       -2   -1    0    0    0  501  0.00000000000E+00  0.00000000000E+00  0.63633620789E+03  0.63633620790E+03  0.25500000920E-02 0.  1.
        2   -1    0    0  501    0  0.00000000000E+00  0.00000000000E+00 -0.19095252644E+04  0.19095252644E+04  0.25500000920E-02 0. -1.
    10030    2    1    2    0    0  0.00000000000E+00  0.00000000000E+00 -0.12731890565E+04  0.25458614723E+04  0.22046315480E+04 0.  0.
        4    1    3    3  502    0 -0.43483386292E+02 -0.55139661152E+03 -0.17376803284E+04  0.18235853598E+04  0.12699999809E+01 0. -1.
       -4    1    3    3    0  502  0.43483386292E+02  0.55139661152E+03  0.46449127187E+03  0.72227611246E+03  0.12699999809E+01 0.  1.
</event>
<event>
 5   0  0.4027923E-05  0.2197899E+04  0.7818609E-02  0.8519303E-01
       -2   -1    0    0    0  501  0.00000000000E+00  0.00000000000E+00  0.10247911084E+04  0.10247911084E+04  0.25500000920E-02 0.  1.
        2   -1    0    0  501    0  0.00000000000E+00  0.00000000000E+00 -0.11784745765E+04  0.11784745765E+04  0.25500000920E-02 0. -1.
    10030    2    1    2    0    0  0.00000000000E+00  0.00000000000E+00 -0.15368346814E+03  0.22032656849E+04  0.21978992402E+04 0.  0.
        5    1    3    3  502    0 -0.10761830288E+03  0.63786935428E+02 -0.11713031226E+04  0.11779743491E+04  0.46999998093E+01 0. -1.
       -5    1    3    3    0  502  0.10761830288E+03 -0.63786935428E+02  0.10176196544E+04  0.10252913358E+04  0.46999998093E+01 0.  1.
</event>
<event>
 5   0  0.1815681E-05  0.2190957E+04  0.7818609E-02  0.8522201E-01
        1   -1    0    0  501    0  0.00000000000E+00  0.00000000000E+00  0.19688415666E+04  0.19688415666E+04  0.50400001928E-02 0.  1.
       -1   -1    0    0    0  501  0.00000000000E+00  0.00000000000E+00 -0.60953282238E+03  0.60953282240E+03  0.50400001928E-02 0. -1.
    10030    2    1    2    0    0  0.00000000000E+00  0.00000000000E+00  0.13593087443E+04  0.25783743890E+04  0.21909573770E+04 0.  0.
        2    1    3    3  502    0  0.86210395129E+02  0.36578307198E+03 -0.53130076518E+03  0.65077645245E+03  0.25500000920E-02 0. -1.
       -2    1    3    3    0  502 -0.86210395129E+02 -0.36578307198E+03  0.18906095094E+04  0.19275979366E+04  0.25500000920E-02 0.  1.
</event>
<event>
 5   0  0.1884407E-05  0.2205493E+04  0.7818609E-02  0.8516145E-01
       -1   -1    0    0    0  501  0.00000000000E+00  0.00000000000E+00  0.15293907013E+04  0.15293907013E+04  0.50400001928E-02 0.  1.
        1   -1    0    0  501    0  0.00000000000E+00  0.00000000000E+00 -0.79512051709E+03  0.79512051711E+03  0.50400001928E-02 0. -1.
    10030    2    1    2    0    0  0.00000000000E+00  0.00000000000E+00  0.73427018418E+03  0.23245112184E+04  0.22054930744E+04 0.  0.
        3    1    3    3  502    0  0.35884409031E+03 -0.87129582416E+03  0.97086852323E+03  0.13529638554E+04  0.10100000352E+00 0.  1.
       -3    1    3    3    0  502 -0.35884409031E+03  0.87129582416E+03 -0.23659833905E+03  0.97154736302E+03  0.10100000352E+00 0. -1.
</event>
<event>
 5   0  0.4143281E-05  0.2209694E+04  0.7818609E-02  0.8514404E-01
        2   -1    0    0  501    0  0.00000000000E+00  0.00000000000E+00  0.11453730521E+04  0.11453730521E+04  0.25500000920E-02 0.  1.
       -2   -1    0    0    0  501  0.00000000000E+00  0.00000000000E+00 -0.10657551366E+04  0.10657551366E+04  0.25500000920E-02 0. -1.
    10030    2    1    2    0    0  0.00000000000E+00  0.00000000000E+00  0.79617915503E+02  0.22111281887E+04  0.22096942898E+04 0.  0.
        2    1    3    3  502    0 -0.26956952694E+03 -0.38796729642E+03  0.10392067078E+04  0.11415502330E+04  0.25500000920E-02 0.  1.
       -2    1    3    3    0  502  0.26956952694E+03  0.38796729642E+03 -0.95958879230E+03  0.10695779557E+04  0.25500000920E-02 0. -1.
</event>
<event>
 5   0  0.4132460E-05  0.2208113E+04  0.7818609E-02  0.8515059E-01
       -2   -1    0    0    0  501  0.00000000000E+00  0.00000000000E+00  0.71212810825E+03  0.71212810825E+03  0.25500000920E-02 0. -1.
        2   -1    0    0  501    0  0.00000000000E+00  0.00000000000E+00 -0.17116875182E+04  0.17116875182E+04  0.25500000920E-02 0.  1.
    10030    2    1    2    0    0  0.00000000000E+00  0.00000000000E+00 -0.99955940997E+03  0.24238156265E+04  0.22081130354E+04 0.  0.
        4    1    3    3  502    0  0.68894642406E+03 -0.80151982363E+03 -0.85010847627E+03  0.13563801964E+04  0.12699999809E+01 0.  1.
       -4    1    3    3    0  502 -0.68894642406E+03  0.80151982363E+03 -0.14945093370E+03  0.10674354301E+04  0.12699999809E+01 0. -1.
</event>
<event>
 5   0  0.1788413E-05  0.2233017E+04  0.7818609E-02  0.8504810E-01
        1   -1    0    0  501    0  0.00000000000E+00  0.00000000000E+00  0.12444464735E+04  0.12444464735E+04  0.50400001928E-02 0. -1.
       -1   -1    0    0    0  501  0.00000000000E+00  0.00000000000E+00 -0.10017231264E+04  0.10017231264E+04  0.50400001928E-02 0.  1.
    10030    2    1    2    0    0  0.00000000000E+00  0.00000000000E+00  0.24272334711E+03  0.22461695998E+04  0.22330166251E+04 0.  0.
        1    1    3    3  502    0 -0.42635631475E+03  0.15292572311E+03 -0.90515155932E+03  0.10121587471E+04  0.50400001928E-02 0.  1.
       -1    1    3    3    0  502  0.42635631475E+03 -0.15292572311E+03  0.11478749064E+04  0.12340108528E+04  0.50400001928E-02 0. -1.
</event>
<event>
 5   0  0.1788413E-05  0.2173631E+04  0.7818609E-02  0.8529484E-01
        1   -1    0    0  501    0  0.00000000000E+00  0.00000000000E+00  0.20882789138E+04  0.20882789138E+04  0.50400001928E-02 0. -1.
       -1   -1    0    0    0  501  0.00000000000E+00  0.00000000000E+00 -0.56561805139E+03  0.56561805141E+03  0.50400001928E-02 0.  1.
    10030    2    1    2    0    0  0.00000000000E+00  0.00000000000E+00  0.15226608624E+04  0.26538969653E+04  0.21736312935E+04 0.  0.
        1    1    3    3  502    0 -0.32631519968E+03  0.53070754458E+03  0.18486186199E+04  0.19507749509E+04  0.50400001928E-02 0. -1.
       -1    1    3    3    0  502  0.32631519968E+03 -0.53070754458E+03 -0.32595775741E+03  0.70312201434E+03  0.50400001928E-02 0.  1.
</event>
<event>
 5   0  0.4029532E-05  0.2184924E+04  0.7818609E-02  0.8524729E-01
       -2   -1    0    0    0  501  0.00000000000E+00  0.00000000000E+00  0.15718580307E+04  0.15718580307E+04  0.25500000920E-02 0. -1.
        2   -1    0    0  501    0  0.00000000000E+00  0.00000000000E+00 -0.75927546521E+03  0.75927546521E+03  0.25500000920E-02 0.  1.
    10030    2    1    2    0    0  0.00000000000E+00  0.00000000000E+00  0.81258256554E+03  0.23311334960E+04  0.21849240147E+04 0.  0.
        3    1    3    3  502    0  0.94484533240E+03 -0.30219144010E+03 -0.81957056462E+02  0.99537396889E+03  0.10100000352E+00 0.  1.
       -3    1    3    3    0  502 -0.94484533240E+03  0.30219144010E+03  0.89453962200E+03  0.13357595271E+04  0.10100000352E+00 0. -1.
</event>
<event>
 5   0  0.1866935E-05  0.2205486E+04  0.7818609E-02  0.8516148E-01
        1   -1    0    0  501    0  0.00000000000E+00  0.00000000000E+00  0.99859891734E+03  0.99859891736E+03  0.50400001928E-02 0. -1.
       -1   -1    0    0    0  501  0.00000000000E+00  0.00000000000E+00 -0.12177477434E+04  0.12177477434E+04  0.50400001928E-02 0.  1.
    10030    2    1    2    0    0  0.00000000000E+00  0.00000000000E+00 -0.21914882608E+03  0.22163466608E+04  0.22054855050E+04 0.  0.
        4    1    3    3  502    0 -0.68812018014E+03 -0.21688477087E+03  0.72849389892E+03  0.10253064712E+04  0.12699999809E+01 0. -1.
       -4    1    3    3    0  502  0.68812018014E+03  0.21688477087E+03 -0.94764272500E+03  0.11910401896E+04  0.12699999809E+01 0.  1.
</event>
<event>
 5   0  0.1788413E-05  0.2174388E+04  0.7818609E-02  0.8529165E-01
        1   -1    0    0  501    0  0.00000000000E+00  0.00000000000E+00  0.18655325710E+04  0.18655325710E+04  0.50400001928E-02 0. -1.
       -1   -1    0    0    0  501  0.00000000000E+00  0.00000000000E+00 -0.63359407779E+03  0.63359407781E+03  0.50400001928E-02 0.  1.
    10030    2    1    2    0    0  0.00000000000E+00  0.00000000000E+00  0.12319384932E+04  0.24991266488E+04  0.21743876277E+04 0.  0.
        1    1    3    3  502    0  0.88875534268E+02 -0.10545417565E+04  0.90223106944E+03  0.13906754040E+04  0.50400001928E-02 0. -1.
       -1    1    3    3    0  502 -0.88875534268E+02  0.10545417565E+04  0.32970742374E+03  0.11084512447E+04  0.50400001928E-02 0.  1.
</event>
<event>
 5   0  0.1788413E-05  0.2196275E+04  0.7818609E-02  0.8519980E-01
        1   -1    0    0  501    0  0.00000000000E+00  0.00000000000E+00  0.10222960078E+04  0.10222960078E+04  0.50400001928E-02 0.  1.
       -1   -1    0    0    0  501  0.00000000000E+00  0.00000000000E+00 -0.11796058782E+04  0.11796058782E+04  0.50400001928E-02 0. -1.
    10030    2    1    2    0    0  0.00000000000E+00  0.00000000000E+00 -0.15730987046E+03  0.22019018860E+04  0.21962753744E+04 0.  0.
        1    1    3    3  502    0 -0.84178015270E+00  0.41404320010E+03 -0.10983514624E+04  0.11738008414E+04  0.50400001928E-02 0. -1.
       -1    1    3    3    0  502  0.84178015270E+00 -0.41404320010E+03  0.94104159199E+03  0.10281010447E+04  0.50400001928E-02 0.  1.
</event>
<event>
 5   0  0.1884407E-05  0.2170806E+04  0.7818609E-02  0.8530678E-01
       -1   -1    0    0    0  501  0.00000000000E+00  0.00000000000E+00  0.42822045956E+03  0.42822045959E+03  0.50400001928E-02 0.  1.
        1   -1    0    0  501    0  0.00000000000E+00  0.00000000000E+00 -0.27511534473E+04  0.27511534473E+04  0.50400001928E-02 0. -1.
    10030    2    1    2    0    0  0.00000000000E+00  0.00000000000E+00 -0.23229329878E+04  0.31793739069E+04  0.21708064802E+04 0.  0.
        3    1    3    3  502    0 -0.79024771594E+03  0.74140846171E+03 -0.10697417140E+04  0.15226704517E+04  0.10100000352E+00 0. -1.
       -3    1    3    3    0  502  0.79024771594E+03 -0.74140846171E+03 -0.12531912738E+04  0.16567034552E+04  0.10100000352E+00 0.  1.
</event>
<event>
 5   0  0.4027923E-05  0.2184309E+04  0.7818609E-02  0.8524988E-01
       -2   -1    0    0    0  501  0.00000000000E+00  0.00000000000E+00  0.92058857299E+03  0.92058857300E+03  0.25500000920E-02 0.  1.
        2   -1    0    0  501    0  0.00000000000E+00  0.00000000000E+00 -0.12956942430E+04  0.12956942430E+04  0.25500000920E-02 0. -1.
    10030    2    1    2    0    0  0.00000000000E+00  0.00000000000E+00 -0.37510567003E+03  0.22162828160E+04  0.21843088740E+04 0.  0.
        5    1    3    3  502    0 -0.59128205264E+03 -0.73665766729E+03  0.36865043827E+03  0.10140040533E+04  0.46999998093E+01 0.  1.
       -5    1    3    3    0  502  0.59128205264E+03  0.73665766729E+03 -0.74375610830E+03  0.12022787627E+04  0.46999998093E+01 0. -1.
</event>
<event>
 5   0  0.1866935E-05  0.2156962E+04  0.7818609E-02  0.8536558E-01
       -1   -1    0    0    0  501  0.00000000000E+00  0.00000000000E+00  0.11000212414E+04  0.11000212414E+04  0.50400001928E-02 0. -1.
        1   -1    0    0  501    0  0.00000000000E+00  0.00000000000E+00 -0.10573624880E+04  0.10573624880E+04  0.50400001928E-02 0.  1.
    10030    2    1    2    0    0  0.00000000000E+00  0.00000000000E+00  0.42658753425E+02  0.21573837295E+04  0.21569619345E+04 0.  0.
        4    1    3    3  502    0 -0.91540052100E+03 -0.23561787061E+03 -0.49804636205E+03  0.10684220545E+04  0.12699999809E+01 0.  1.
       -4    1    3    3    0  502  0.91540052100E+03  0.23561787061E+03  0.54070511547E+03  0.10889616750E+04  0.12699999809E+01 0. -1.
</event>
<event>
 5   0  0.1788413E-05  0.2203288E+04  0.7818609E-02  0.8517061E-01
        1   -1    0    0  501    0  0.00000000000E+00  0.00000000000E+00  0.14146545412E+04  0.14146545412E+04  0.50400001928E-02 0. -1.
       -1   -1    0    0    0  501  0.00000000000E+00  0.00000000000E+00 -0.85789119186E+03  0.85789119187E+03  0.50400001928E-02 0.  1.
    10030    2    1    2    0    0  0.00000000000E+00  0.00000000000E+00  0.55676334932E+03  0.22725457331E+04  0.22032881522E+04 0.  0.
        1    1    3    3  502    0  0.42573936329E+03  0.36836426448E+03  0.12550755943E+04  0.13755584264E+04  0.50400001928E-02 0. -1.
       -1    1    3    3    0  502 -0.42573936329E+03 -0.36836426448E+03 -0.69831224502E+03  0.89698730670E+03  0.50400001928E-02 0.  1.
</event>
<event>
 5   0  0.1788413E-05  0.2141206E+04  0.7818609E-02  0.8543306E-01
       -1   -1    0    0    0  501  0.00000000000E+00  0.00000000000E+00  0.12851798429E+04  0.12851798429E+04  0.50400001928E-02 0.  1.
        1   -1    0    0  501    0  0.00000000000E+00  0.00000000000E+00 -0.89185285948E+03  0.89185285949E+03  0.50400001928E-02 0. -1.
    10030    2    1    2    0    0  0.00000000000E+00  0.00000000000E+00  0.39332698345E+03  0.21770327024E+04  0.21412064990E+04 0.  0.
        1    1    3    3  502    0 -0.49525151094E+02  0.93742244583E+03 -0.32670924035E+03  0.99395800228E+03  0.50400001928E-02 0. -1.
       -1    1    3    3    0  502  0.49525151094E+02 -0.93742244583E+03  0.72003622379E+03  0.11830747002E+04  0.50400001928E-02 0.  1.
</event>
<event>
 5   0  0.4027923E-05  0.2200267E+04  0.7818609E-02  0.8518317E-01
       -2   -1    0    0    0  501  0.00000000000E+00  0.00000000000E+00  0.13590891467E+04  0.13590891467E+04  0.25500000920E-02 0. -1.
        2   -1    0    0  501    0  0.00000000000E+00  0.00000000000E+00 -0.89051800367E+03  0.89051800367E+03  0.25500000920E-02 0.  1.
    10030    2    1    2    0    0  0.00000000000E+00  0.00000000000E+00  0.46857114302E+03  0.22496071504E+04  0.22002666690E+04 0.  0.
        5    1    3    3  502    0  0.65997052809E+02 -0.67667567012E+03  0.11185652011E+04  0.13089903638E+04  0.46999998093E+01 0. -1.
       -5    1    3    3    0  502 -0.65997052809E+02  0.67667567012E+03 -0.64999405809E+03  0.94061678651E+03  0.46999998093E+01 0.  1.
</event>
<event>
 5   0  0.4132460E-05  0.2203838E+04  0.7818609E-02  0.8516832E-01
       -2   -1    0    0    0  501  0.00000000000E+00  0.00000000000E+00  0.13124480239E+04  0.13124480239E+04  0.25500000920E-02 0. -1.
        2   -1    0    0  501    0  0.00000000000E+00  0.00000000000E+00 -0.92516082085E+03  0.92516082085E+03  0.25500000920E-02 0.  1.
    10030    2    1    2    0    0  0.00000000000E+00  0.00000000000E+00  0.38728720305E+03  0.22376088447E+04  0.22038380078E+04 0.  0.
        4    1    3    3  502    0 -0.65250911292E+03  0.13460415042E+03  0.10847816964E+04  0.12730433463E+04  0.12699999809E+01 0. -1.
       -4    1    3    3    0  502  0.65250911292E+03 -0.13460415042E+03 -0.69749449333E+03  0.96456549849E+03  0.12699999809E+01 0.  1.
</event>
<event>
 5   0  0.1786228E-05  0.2209995E+04  0.7818609E-02  0.8514279E-01
        1   -1    0    0  501    0  0.00000000000E+00  0.00000000000E+00  0.13853959551E+04  0.13853959551E+04  0.50400001928E-02 0. -1.
       -1   -1    0    0    0  501  0.00000000000E+00  0.00000000000E+00 -0.88135051015E+03  0.88135051016E+03  0.50400001928E-02 0.  1.
    10030    2    1    2    0    0  0.00000000000E+00  0.00000000000E+00  0.50404544491E+03  0.22667464652E+04  0.22099949609E+04 0.  0.
        5    1    3    3  502    0  0.95114107713E+03  0.35843680196E+03  0.69657053718E+03  0.12322251794E+04  0.46999998093E+01 0. -1.
       -5    1    3    3    0  502 -0.95114107713E+03 -0.35843680196E+03 -0.19252509227E+03  0.10345212858E+04  0.46999998093E+01 0.  1.
</event>
<event>
 5   0  0.4132460E-05  0.2198547E+04  0.7818609E-02  0.8519033E-01
        2   -1    0    0  501    0  0.00000000000E+00  0.00000000000E+00  0.10149316803E+04  0.10149316803E+04  0.25500000920E-02 0.  1.
       -2   -1    0    0    0  501  0.00000000000E+00  0.00000000000E+00 -0.11906238745E+04  0.11906238745E+04  0.25500000920E-02 0. -1.
    10030    2    1    2    0    0  0.00000000000E+00  0.00000000000E+00 -0.17569219420E+03  0.22055555548E+04  0.21985466923E+04 0.  0.
        4    1    3    3  502    0  0.62668638123E+02  0.79808170249E+03  0.66790707306E+03  0.10425752890E+04  0.12699999809E+01 0.  1.
       -4    1    3    3    0  502 -0.62668638123E+02 -0.79808170249E+03 -0.84359926726E+03  0.11629802658E+04  0.12699999809E+01 0. -1.
</event>
<event>
 5   0  0.1884407E-05  0.2223662E+04  0.7818609E-02  0.8508644E-01
        1   -1    0    0  501    0  0.00000000000E+00  0.00000000000E+00  0.79241558558E+03  0.79241558560E+03  0.50400001928E-02 0. -1.
       -1   -1    0    0    0  501  0.00000000000E+00  0.00000000000E+00 -0.15599991488E+04  0.15599991488E+04  0.50400001928E-02 0.  1.
    10030    2    1    2    0    0  0.00000000000E+00  0.00000000000E+00 -0.76758356318E+03  0.23524147344E+04  0.22236615201E+04 0.  0.
        3    1    3    3  502    0 -0.78464484140E+03 -0.50006520890E+03  0.26008260868E+03  0.96611371682E+03  0.10100000352E+00 0. -1.
       -3    1    3    3    0  502  0.78464484140E+03  0.50006520890E+03 -0.10276661719E+04  0.13863010175E+04  0.10100000352E+00 0.  1.
</event>
<event>
 5   0  0.4143281E-05  0.2200208E+04  0.7818609E-02  0.8518342E-01
       -2   -1    0    0    0  501  0.00000000000E+00  0.00000000000E+00  0.61813904974E+03  0.61813904975E+03  0.25500000920E-02 0.  1.
        2   -1    0    0  501    0  0.00000000000E+00  0.00000000000E+00 -0.19578581117E+04  0.19578581117E+04  0.25500000920E-02 0. -1.
    10030    2    1    2    0    0  0.00000000000E+00  0.00000000000E+00 -0.13397190619E+04  0.25759971614E+04  0.22002077654E+04 0.  0.
        2    1    3    3  502    0 -0.29768215772E+03 -0.10590497860E+04 -0.67599215328E+03  0.12911880217E+04  0.25500000920E-02 0. -1.
       -2    1    3    3    0  502  0.29768215772E+03  0.10590497860E+04 -0.66372690867E+03  0.12848091397E+04  0.25500000920E-02 0.  1.
</event>
<event>
 5   0  0.3963414E-05  0.2197370E+04  0.7818609E-02  0.8519524E-01
        2   -1    0    0  501    0  0.00000000000E+00  0.00000000000E+00  0.12156532198E+04  0.12156532198E+04  0.25500000920E-02 0.  1.
       -2   -1    0    0    0  501  0.00000000000E+00  0.00000000000E+00 -0.99297090757E+03  0.99297090757E+03  0.25500000920E-02 0. -1.
    10030    2    1    2    0    0  0.00000000000E+00  0.00000000000E+00  0.22268231226E+03  0.22086241274E+04  0.21973695920E+04 0.  0.
        1    1    3    3  502    0 -0.95494570972E+03  0.29095087134E+03 -0.34984939765E+03  0.10578129887E+04  0.50400001928E-02 0. -1.
       -1    1    3    3    0  502  0.95494570972E+03 -0.29095087134E+03  0.57253170991E+03  0.11508111387E+04  0.50400001928E-02 0.  1.
</event>
<event>
 5   0  0.1866935E-05  0.2107696E+04  0.7818609E-02  0.8557861E-01
        1   -1    0    0  501    0  0.00000000000E+00  0.00000000000E+00  0.13563340319E+04  0.13563340319E+04  0.50400001928E-02 0.  1.
       -1   -1    0    0    0  501  0.00000000000E+00  0.00000000000E+00 -0.81882166678E+03  0.81882166680E+03  0.50400001928E-02 0. -1.
    10030    2    1    2    0    0  0.00000000000E+00  0.00000000000E+00  0.53751236511E+03  0.21751556987E+04  0.21076960813E+04 0.  0.
        4    1    3    3  502    0 -0.99400264026E+03 -0.29279891762E+03  0.46678748131E+03  0.11365142413E+04  0.12699999809E+01 0.  1.
       -4    1    3    3    0  502  0.99400264026E+03  0.29279891762E+03  0.70724883806E+02  0.10386414574E+04  0.12699999809E+01 0. -1.
</event>
<event>
 5   0  0.3963414E-05  0.2198082E+04  0.7818609E-02  0.8519227E-01
        2   -1    0    0  501    0  0.00000000000E+00  0.00000000000E+00  0.57828969073E+03  0.57828969074E+03  0.25500000920E-02 0.  1.
       -2   -1    0    0    0  501  0.00000000000E+00  0.00000000000E+00 -0.20887307912E+04  0.20887307912E+04  0.25500000920E-02 0. -1.
    10030    2    1    2    0    0  0.00000000000E+00  0.00000000000E+00 -0.15104411004E+04  0.26670204819E+04  0.21980823308E+04 0.  0.
        1    1    3    3  502    0  0.91851568625E+03 -0.14548279991E+03 -0.44556442985E+02  0.93103253842E+03  0.50400001928E-02 0.  1.
       -1    1    3    3    0  502 -0.91851568625E+03  0.14548279991E+03 -0.14658846574E+04  0.17359879435E+04  0.50400001928E-02 0. -1.
</event>
<event>
 5   0  0.1815681E-05  0.1995098E+04  0.7818609E-02  0.8608916E-01
        1   -1    0    0  501    0  0.00000000000E+00  0.00000000000E+00  0.13014017822E+04  0.13014017822E+04  0.50400001928E-02 0.  1.
       -1   -1    0    0    0  501  0.00000000000E+00  0.00000000000E+00 -0.76463973726E+03  0.76463973728E+03  0.50400001928E-02 0. -1.
    10030    2    1    2    0    0  0.00000000000E+00  0.00000000000E+00  0.53676204497E+03  0.20660415195E+04  0.19950975083E+04 0.  0.
        2    1    3    3  502    0  0.80754519382E+03  0.34488611288E+03  0.75852753878E+03  0.11603618824E+04  0.25500000920E-02 0.  1.
       -2    1    3    3    0  502 -0.80754519382E+03 -0.34488611288E+03 -0.22176549381E+03  0.90567963716E+03  0.25500000920E-02 0. -1.
</event>
<event>
 5   0  0.4132460E-05  0.2208383E+04  0.7818609E-02  0.8514947E-01
       -2   -1    0    0    0  501  0.00000000000E+00  0.00000000000E+00  0.89089450857E+03  0.89089450858E+03  0.25500000920E-02 0.  1.
        2   -1    0    0  501    0  0.00000000000E+00  0.00000000000E+00 -0.13685560146E+04  0.13685560146E+04  0.25500000920E-02 0. -1.
    10030    2    1    2    0    0  0.00000000000E+00  0.00000000000E+00 -0.47766150602E+03  0.22594505232E+04  0.22083831534E+04 0.  0.
        4    1    3    3  502    0  0.52345097527E+02 -0.41790170517E+03  0.80548582297E+03  0.90895042127E+03  0.12699999809E+01 0.  1.
       -4    1    3    3    0  502 -0.52345097527E+02  0.41790170517E+03 -0.12831473290E+04  0.13505001019E+04  0.12699999809E+01 0. -1.
</event>
<event>
 5   0  0.4029532E-05  0.2200708E+04  0.7818609E-02  0.8518133E-01
        2   -1    0    0  501    0  0.00000000000E+00  0.00000000000E+00  0.18925183830E+04  0.18925183830E+04  0.25500000920E-02 0.  1.
       -2   -1    0    0    0  501  0.00000000000E+00  0.00000000000E+00 -0.63977130449E+03  0.63977130449E+03  0.25500000920E-02 0. -1.
    10030    2    1    2    0    0  0.00000000000E+00  0.00000000000E+00  0.12527470785E+04  0.25322896875E+04  0.22007080267E+04 0.  0.
        3    1    3    3  502    0 -0.84247447749E+03 -0.44950164616E+02 -0.18645535809E+03  0.86403088676E+03  0.10100000352E+00 0. -1.
       -3    1    3    3    0  502  0.84247447749E+03  0.44950164616E+02  0.14392024366E+04  0.16682588007E+04  0.10100000352E+00 0.  1.
</event>
<event>
 5   0  0.1815681E-05  0.2192649E+04  0.7818609E-02  0.8521494E-01
        1   -1    0    0  501    0  0.00000000000E+00  0.00000000000E+00  0.14999887141E+04  0.14999887141E+04  0.50400001928E-02 0. -1.
       -1   -1    0    0    0  501  0.00000000000E+00  0.00000000000E+00 -0.80129087118E+03  0.80129087119E+03  0.50400001928E-02 0.  1.
    10030    2    1    2    0    0  0.00000000000E+00  0.00000000000E+00  0.69869784294E+03  0.23012795853E+04  0.21926488670E+04 0.  0.
        2    1    3    3  502    0  0.11385835525E+03  0.13154376245E+03  0.14854083657E+04  0.14955619343E+04  0.25500000920E-02 0. -1.
       -2    1    3    3    0  502 -0.11385835525E+03 -0.13154376245E+03 -0.78671052276E+03  0.80571765100E+03  0.25500000920E-02 0.  1.
</event>
<event>
 5   0  0.1866935E-05  0.2179603E+04  0.7818609E-02  0.8526966E-01
        1   -1    0    0  501    0  0.00000000000E+00  0.00000000000E+00  0.17470597777E+04  0.17470597777E+04  0.50400001928E-02 0.  1.
       -1   -1    0    0    0  501  0.00000000000E+00  0.00000000000E+00 -0.67980945994E+03  0.67980945996E+03  0.50400001928E-02 0. -1.
    10030    2    1    2    0    0  0.00000000000E+00  0.00000000000E+00  0.10672503178E+04  0.24268692376E+04  0.21796034171E+04 0.  0.
        4    1    3    3  502    0  0.99092528484E+03  0.28512035757E+03  0.14084619344E+03  0.10407044737E+04  0.12699999809E+01 0. -1.
       -4    1    3    3    0  502 -0.99092528484E+03 -0.28512035757E+03  0.92640412431E+03  0.13861647640E+04  0.12699999809E+01 0.  1.
</event>
<event>
 5   0  0.1884407E-05  0.2198006E+04  0.7818609E-02  0.8519259E-01
        1   -1    0    0  501    0  0.00000000000E+00  0.00000000000E+00  0.26001651876E+04  0.26001651876E+04  0.50400001928E-02 0. -1.
       -1   -1    0    0    0  501  0.00000000000E+00  0.00000000000E+00 -0.46451179671E+03  0.46451179674E+03  0.50400001928E-02 0.  1.
    10030    2    1    2    0    0  0.00000000000E+00  0.00000000000E+00  0.21356533909E+04  0.30646769844E+04  0.21980058263E+04 0.  0.
        3    1    3    3  502    0  0.35319169910E+03  0.24733376782E+03 -0.34164946508E+03  0.55012974489E+03  0.10100000352E+00 0.  1.
       -3    1    3    3    0  502 -0.35319169910E+03 -0.24733376782E+03  0.24773028560E+04  0.25145472395E+04  0.10100000352E+00 0. -1.
</event>
<event>
 5   0  0.1884407E-05  0.2204426E+04  0.7818609E-02  0.8516588E-01
        1   -1    0    0  501    0  0.00000000000E+00  0.00000000000E+00  0.79257339557E+03  0.79257339558E+03  0.50400001928E-02 0. -1.
       -1   -1    0    0    0  501  0.00000000000E+00  0.00000000000E+00 -0.15328221080E+04  0.15328221080E+04  0.50400001928E-02 0.  1.
    10030    2    1    2    0    0  0.00000000000E+00  0.00000000000E+00 -0.74024871239E+03  0.23253955035E+04  0.22044264768E+04 0.  0.
        3    1    3    3  502    0 -0.34812752150E+03  0.10423972541E+04 -0.45894215606E+03  0.11909713344E+04  0.10100000352E+00 0. -1.
       -3    1    3    3    0  502  0.34812752150E+03 -0.10423972541E+04 -0.28130655633E+03  0.11344241691E+04  0.10100000352E+00 0.  1.
</event>
<event>
 5   0  0.3963414E-05  0.2202238E+04  0.7818609E-02  0.8517497E-01
        2   -1    0    0  501    0  0.00000000000E+00  0.00000000000E+00  0.11256523842E+04  0.11256523842E+04  0.25500000920E-02 0. -1.
       -2   -1    0    0    0  501  0.00000000000E+00  0.00000000000E+00 -0.10771204158E+04  0.10771204158E+04  0.25500000920E-02 0.  1.
    10030    2    1    2    0    0  0.00000000000E+00  0.00000000000E+00  0.48531968458E+02  0.22027728000E+04  0.22022381016E+04 0.  0.
        1    1    3    3  502    0 -0.43370954210E+03 -0.62751764488E+03  0.81854996796E+03  0.11188862371E+04  0.50400001928E-02 0. -1.
       -1    1    3    3    0  502  0.43370954210E+03  0.62751764488E+03 -0.77001799950E+03  0.10838865629E+04  0.50400001928E-02 0.  1.
</event>
<event>
 5   0  0.4027923E-05  0.2189101E+04  0.7818609E-02  0.8522978E-01
        2   -1    0    0  501    0  0.00000000000E+00  0.00000000000E+00  0.93951455798E+03  0.93951455798E+03  0.25500000920E-02 0.  1.
       -2   -1    0    0    0  501  0.00000000000E+00  0.00000000000E+00 -0.12751699002E+04  0.12751699002E+04  0.25500000920E-02 0. -1.
    10030    2    1    2    0    0  0.00000000000E+00  0.00000000000E+00 -0.33565534224E+03  0.22146844582E+04  0.21891008978E+04 0.  0.
        5    1    3    3  502    0  0.83855574377E+03  0.63179540277E+03  0.14510494204E+03  0.10599144780E+04  0.46999998093E+01 0.  1.
       -5    1    3    3    0  502 -0.83855574377E+03 -0.63179540277E+03 -0.48076028428E+03  0.11547699803E+04  0.46999998093E+01 0. -1.
</event>
<event>
 5   0  0.4143281E-05  0.2194463E+04  0.7818609E-02  0.8520736E-01
        2   -1    0    0  501    0  0.00000000000E+00  0.00000000000E+00  0.13423216019E+04  0.13423216019E+04  0.25500000920E-02 0.  1.
       -2   -1    0    0    0  501  0.00000000000E+00  0.00000000000E+00 -0.89689152515E+03  0.89689152515E+03  0.25500000920E-02 0. -1.
    10030    2    1    2    0    0  0.00000000000E+00  0.00000000000E+00  0.44543007673E+03  0.22392131270E+04  0.21944629127E+04 0.  0.
        2    1    3    3  502    0 -0.46797184815E+03  0.18425983545E+03 -0.77234670739E+03  0.92166630298E+03  0.25500000920E-02 0. -1.
       -2    1    3    3    0  502  0.46797184815E+03 -0.18425983545E+03  0.12177767841E+04  0.13175468241E+04  0.25500000920E-02 0.  1.
</event>
<event>
 5   0  0.1788413E-05  0.2175009E+04  0.7818609E-02  0.8528902E-01
       -1   -1    0    0    0  501  0.00000000000E+00  0.00000000000E+00  0.70707290218E+03  0.70707290220E+03  0.50400001928E-02 0.  1.
        1   -1    0    0  501    0  0.00000000000E+00  0.00000000000E+00 -0.16726230760E+04  0.16726230760E+04  0.50400001928E-02 0. -1.
    10030    2    1    2    0    0  0.00000000000E+00  0.00000000000E+00 -0.96555017384E+03  0.23796959782E+04  0.21750093817E+04 0.  0.
        1    1    3    3  502    0  0.23367688177E+03  0.10610055489E+04 -0.42997607999E+03  0.11684250465E+04  0.50400001928E-02 0.  1.
       -1    1    3    3    0  502 -0.23367688177E+03 -0.10610055489E+04 -0.53557409386E+03  0.12112709317E+04  0.50400001928E-02 0. -1.
</event>
<event>
 5   0  0.4143281E-05  0.2191385E+04  0.7818609E-02  0.8522022E-01
       -2   -1    0    0    0  501  0.00000000000E+00  0.00000000000E+00  0.63014824034E+03  0.63014824035E+03  0.25500000920E-02 0.  1.
        2   -1    0    0  501    0  0.00000000000E+00  0.00000000000E+00 -0.19051744830E+04  0.19051744830E+04  0.25500000920E-02 0. -1.
    10030    2    1    2    0    0  0.00000000000E+00  0.00000000000E+00 -0.12750262426E+04  0.25353227233E+04  0.21913852678E+04 0.  0.
        2    1    3    3  502    0 -0.35082672337E+03  0.69943685601E+03 -0.15248649814E+04  0.17139149678E+04  0.25500000920E-02 0. -1.
       -2    1    3    3    0  502  0.35082672337E+03 -0.69943685601E+03  0.24983873879E+03  0.82140775549E+03  0.25500000920E-02 0.  1.
</event>
<event>
 5   0  0.1788413E-05  0.2218832E+04  0.7818609E-02  0.8510630E-01
       -1   -1    0    0    0  501  0.00000000000E+00  0.00000000000E+00  0.17848384313E+04  0.17848384313E+04  0.50400001928E-02 0. -1.
        1   -1    0    0  501    0  0.00000000000E+00  0.00000000000E+00 -0.68958841490E+03  0.68958841492E+03  0.50400001928E-02 0.  1.
    10030    2    1    2    0    0  0.00000000000E+00  0.00000000000E+00  0.10952500164E+04  0.24744268462E+04  0.22188320393E+04 0.  0.
        1    1    3    3  502    0  0.85421413888E+03  0.27324257738E+02 -0.24123185208E+03  0.88804347675E+03  0.50400001928E-02 0.  1.
       -1    1    3    3    0  502 -0.85421413888E+03 -0.27324257738E+02  0.13364818684E+04  0.15863833694E+04  0.50400001928E-02 0. -1.
</event>
<event>
 5   0  0.1786228E-05  0.2148502E+04  0.7818609E-02  0.8540174E-01
       -1   -1    0    0    0  501  0.00000000000E+00  0.00000000000E+00  0.11194050879E+04  0.11194050879E+04  0.50400001928E-02 0.  1.
        1   -1    0    0  501    0  0.00000000000E+00  0.00000000000E+00 -0.10309181027E+04  0.10309181027E+04  0.50400001928E-02 0. -1.
    10030    2    1    2    0    0  0.00000000000E+00  0.00000000000E+00  0.88486985263E+02  0.21503231906E+04  0.21485017751E+04 0.  0.
        5    1    3    3  502    0  0.10796027230E+03  0.73715360868E+03 -0.73032604312E+03  0.10432876317E+04  0.46999998093E+01 0. -1.
       -5    1    3    3    0  502 -0.10796027230E+03 -0.73715360868E+03  0.81881302839E+03  0.11070355589E+04  0.46999998093E+01 0.  1.
</event>
<event>
 5   0  0.4132460E-05  0.2147039E+04  0.7818609E-02  0.8540801E-01
       -2   -1    0    0    0  501  0.00000000000E+00  0.00000000000E+00  0.94185892678E+03  0.94185892679E+03  0.25500000920E-02 0. -1.
        2   -1    0    0  501    0  0.00000000000E+00  0.00000000000E+00 -0.12235840891E+04  0.12235840891E+04  0.25500000920E-02 0.  1.
    10030    2    1    2    0    0  0.00000000000E+00  0.00000000000E+00 -0.28172516231E+03  0.21654430159E+04  0.21470385157E+04 0.  0.
        4    1    3    3  502    0  0.63027741343E+03  0.37751728924E+03  0.64858139896E+03  0.98001447210E+03  0.12699999809E+01 0. -1.
       -4    1    3    3    0  502 -0.63027741343E+03 -0.37751728924E+03 -0.93030656127E+03  0.11854285438E+04  0.12699999809E+01 0.  1.
</event>
<event>
 5   0  0.1788413E-05  0.2199788E+04  0.7818609E-02  0.8518516E-01
        1   -1    0    0  501    0  0.00000000000E+00  0.00000000000E+00  0.14285355104E+04  0.14285355104E+04  0.50400001928E-02 0.  1.
       -1   -1    0    0    0  501  0.00000000000E+00  0.00000000000E+00 -0.84685808346E+03  0.84685808348E+03  0.50400001928E-02 0. -1.
    10030    2    1    2    0    0  0.00000000000E+00  0.00000000000E+00  0.58167742689E+03  0.22753935938E+04  0.21997880302E+04 0.  0.
        1    1    3    3  502    0 -0.82870008206E+02 -0.52296093548E+03 -0.70635530039E+03  0.88277595613E+03  0.50400001928E-02 0. -1.
       -1    1    3    3    0  502  0.82870008206E+02  0.52296093548E+03  0.12880327273E+04  0.13926176377E+04  0.50400001928E-02 0.  1.
</event>
<event>
 5   0  0.1433375E-05  0.2207286E+04  0.7818609E-02  0.8515402E-01
       -3   -1    0    0    0  501  0.00000000000E+00  0.00000000000E+00  0.40817730513E+03  0.40817731763E+03  0.10100000352E+00 0. -1.
        3   -1    0    0  501    0  0.00000000000E+00  0.00000000000E+00 -0.29840643317E+04  0.29840643334E+04  0.10100000352E+00 0.  1.
    10030    2    1    2    0    0  0.00000000000E+00  0.00000000000E+00 -0.25758870265E+04  0.33922416510E+04  0.22072855378E+04 0.  0.
        4    1    3    3  502    0  0.98207749727E+03 -0.33267776946E+03 -0.18688502944E+04  0.21372303911E+04  0.12699999809E+01 0.  1.
       -4    1    3    3    0  502 -0.98207749727E+03  0.33267776946E+03 -0.70703673211E+03  0.12550112599E+04  0.12699999809E+01 0. -1.
</event>
<event>
 5   0  0.1788413E-05  0.2189203E+04  0.7818609E-02  0.8522936E-01
        1   -1    0    0  501    0  0.00000000000E+00  0.00000000000E+00  0.74395764661E+03  0.74395764663E+03  0.50400001928E-02 0. -1.
       -1   -1    0    0    0  501  0.00000000000E+00  0.00000000000E+00 -0.16105113056E+04  0.16105113056E+04  0.50400001928E-02 0.  1.
    10030    2    1    2    0    0  0.00000000000E+00  0.00000000000E+00 -0.86655365895E+03  0.23544689522E+04  0.21892027780E+04 0.  0.
        1    1    3    3  502    0  0.55998944418E+03 -0.76955615934E+03  0.14823231852E+03  0.96321216783E+03  0.50400001928E-02 0. -1.
       -1    1    3    3    0  502 -0.55998944418E+03  0.76955615934E+03 -0.10147859775E+04  0.13912567844E+04  0.50400001928E-02 0.  1.
</event>
<event>
 5   0  0.1815681E-05  0.2191852E+04  0.7818609E-02  0.8521827E-01
       -1   -1    0    0    0  501  0.00000000000E+00  0.00000000000E+00  0.68213022547E+03  0.68213022549E+03  0.50400001928E-02 0.  1.
        1   -1    0    0  501    0  0.00000000000E+00  0.00000000000E+00 -0.17607398640E+04  0.17607398641E+04  0.50400001928E-02 0. -1.
    10030    2    1    2    0    0  0.00000000000E+00  0.00000000000E+00 -0.10786096386E+04  0.24428700895E+04  0.21918520757E+04 0.  0.
        2    1    3    3  502    0 -0.83585721559E+03  0.12852285534E+03 -0.13161830628E+04  0.15644530239E+04  0.25500000920E-02 0.  1.
       -2    1    3    3    0  502  0.83585721559E+03 -0.12852285534E+03  0.23757342427E+03  0.87841706559E+03  0.25500000920E-02 0. -1.
</event>
<event>
 5   0  0.1866935E-05  0.2201354E+04  0.7818609E-02  0.8517865E-01
        1   -1    0    0  501    0  0.00000000000E+00  0.00000000000E+00  0.11006562001E+04  0.11006562001E+04  0.50400001928E-02 0. -1.
       -1   -1    0    0    0  501  0.00000000000E+00  0.00000000000E+00 -0.11006981221E+04  0.11006981221E+04  0.50400001928E-02 0.  1.
    10030    2    1    2    0    0  0.00000000000E+00  0.00000000000E+00 -0.41922024456E-01  0.22013543222E+04  0.22013543218E+04 0.  0.
        4    1    3    3  502    0  0.90661149464E+02  0.10269009090E+02  0.10968672300E+04  0.11006562723E+04  0.12699999809E+01 0. -1.
       -4    1    3    3    0  502 -0.90661149464E+02 -0.10269009090E+02 -0.10969091520E+04  0.11006980500E+04  0.12699999809E+01 0.  1.
</event>
<event>
 5   0  0.1786228E-05  0.2133513E+04  0.7818609E-02  0.8546623E-01
        1   -1    0    0  501    0  0.00000000000E+00  0.00000000000E+00  0.25288908832E+04  0.25288908832E+04  0.50400001928E-02 0. -1.
       -1   -1    0    0    0  501  0.00000000000E+00  0.00000000000E+00 -0.44998734713E+03  0.44998734716E+03  0.50400001928E-02 0.  1.
    10030    2    1    2    0    0  0.00000000000E+00  0.00000000000E+00  0.20789035361E+04  0.29788782304E+04  0.21335125027E+04 0.  0.
        5    1    3    3  502    0 -0.24871335373E+03 -0.59454597990E+03 -0.14743040117E+03  0.66113619453E+03  0.46999998093E+01 0.  1.
       -5    1    3    3    0  502  0.24871335373E+03  0.59454597990E+03  0.22263339373E+04  0.23177420358E+04  0.46999998093E+01 0. -1.
</event>
<event>
 5   0  0.3963414E-05  0.2204110E+04  0.7818609E-02  0.8516720E-01
        2   -1    0    0  501    0  0.00000000000E+00  0.00000000000E+00  0.90152397763E+03  0.90152397763E+03  0.25500000920E-02 0.  1.
       -2   -1    0    0    0  501  0.00000000000E+00  0.00000000000E+00 -0.13471908513E+04  0.13471908513E+04  0.25500000920E-02 0. -1.
    10030    2    1    2    0    0  0.00000000000E+00  0.00000000000E+00 -0.44566687366E+03  0.22487148289E+04  0.22041096660E+04 0.  0.
        1    1    3    3  502    0 -0.44111250911E+03  0.28348192227E+03 -0.12117705363E+04  0.13203522555E+04  0.50400001928E-02 0. -1.
       -1    1    3    3    0  502  0.44111250911E+03 -0.28348192227E+03  0.76610366259E+03  0.92836257346E+03  0.50400001928E-02 0.  1.
</event>
<event>
 5   0  0.1815681E-05  0.2208243E+04  0.7818609E-02  0.8515005E-01
       -1   -1    0    0    0  501  0.00000000000E+00  0.00000000000E+00  0.10468998781E+04  0.10468998781E+04  0.50400001928E-02 0.  1.
        1   -1    0    0  501    0  0.00000000000E+00  0.00000000000E+00 -0.11644707714E+04  0.11644707714E+04  0.50400001928E-02 0. -1.
    10030    2    1    2    0    0  0.00000000000E+00  0.00000000000E+00 -0.11757089337E+03  0.22113706495E+04  0.22082430198E+04 0.  0.
        2    1    3    3  502    0  0.34521208828E+03  0.90649283945E+03 -0.58696365507E+03  0.11337667248E+04  0.25500000920E-02 0.  1.
       -2    1    3    3    0  502 -0.34521208828E+03 -0.90649283945E+03  0.46939276170E+03  0.10776039247E+04  0.25500000920E-02 0. -1.
</event>
<event>
 5   0  0.4029532E-05  0.2213649E+04  0.7818609E-02  0.8512769E-01
        2   -1    0    0  501    0  0.00000000000E+00  0.00000000000E+00  0.14455122983E+04  0.14455122983E+04  0.25500000920E-02 0. -1.
       -2   -1    0    0    0  501  0.00000000000E+00  0.00000000000E+00 -0.84749221622E+03  0.84749221622E+03  0.25500000920E-02 0.  1.
    10030    2    1    2    0    0  0.00000000000E+00  0.00000000000E+00  0.59802008212E+03  0.22930045146E+04  0.22136489526E+04 0.  0.
        3    1    3    3  502    0 -0.35013455642E+03 -0.63615282454E+03 -0.56626486186E+03  0.92083686272E+03  0.10100000352E+00 0.  1.
       -3    1    3    3    0  502  0.35013455642E+03  0.63615282454E+03  0.11642849440E+04  0.13721676518E+04  0.10100000352E+00 0. -1.
</event>
<event>
 5   0  0.1866935E-05  0.2188715E+04  0.7818609E-02  0.8523140E-01
       -1   -1    0    0    0  501  0.00000000000E+00  0.00000000000E+00  0.10857192480E+04  0.10857192480E+04  0.50400001928E-02 0. -1.
        1   -1    0    0  501    0  0.00000000000E+00  0.00000000000E+00 -0.11030643371E+04  0.11030643371E+04  0.50400001928E-02 0.  1.
    10030    2    1    2    0    0  0.00000000000E+00  0.00000000000E+00 -0.17345089150E+02  0.21887835851E+04  0.21887148582E+04 0.  0.
        4    1    3    3  502    0  0.81804232683E+03 -0.97394389895E+02  0.71172334967E+03  0.10886829911E+04  0.12699999809E+01 0. -1.
       -4    1    3    3    0  502 -0.81804232683E+03  0.97394389895E+02 -0.72906843882E+03  0.11001005941E+04  0.12699999809E+01 0.  1.
</event>
<event>
 5   0  0.3963414E-05  0.2163460E+04  0.7818609E-02  0.8533793E-01
        2   -1    0    0  501    0  0.00000000000E+00  0.00000000000E+00  0.21302770951E+04  0.21302770951E+04  0.25500000920E-02 0. -1.
       -2   -1    0    0    0  501  0.00000000000E+00  0.00000000000E+00 -0.54928989339E+03  0.54928989340E+03  0.25500000920E-02 0.  1.
    10030    2    1    2    0    0  0.00000000000E+00  0.00000000000E+00  0.15809872017E+04  0.26795669885E+04  0.21634598942E+04 0.  0.
        1    1    3    3  502    0  0.53838436406E+03 -0.85658311715E+03  0.31635566140E+03  0.10600345582E+04  0.50400001928E-02 0.  1.
       -1    1    3    3    0  502 -0.53838436406E+03  0.85658311715E+03  0.12646315403E+04  0.16195324303E+04  0.50400001928E-02 0. -1.
</event>
<event>
 5   0  0.1884407E-05  0.2204059E+04  0.7818609E-02  0.8516741E-01
       -1   -1    0    0    0  501  0.00000000000E+00  0.00000000000E+00  0.10624409162E+04  0.10624409162E+04  0.50400001928E-02 0. -1.
        1   -1    0    0  501    0  0.00000000000E+00  0.00000000000E+00 -0.11430933837E+04  0.11430933837E+04  0.50400001928E-02 0.  1.
    10030    2    1    2    0    0  0.00000000000E+00  0.00000000000E+00 -0.80652467496E+02  0.22055343000E+04  0.22040591480E+04 0.  0.
        3    1    3    3  502    0 -0.58856272551E+03 -0.65280582944E+03 -0.70553249087E+03  0.11270925599E+04  0.10100000352E+00 0.  1.
       -3    1    3    3    0  502  0.58856272551E+03  0.65280582944E+03  0.62488002337E+03  0.10784417400E+04  0.10100000352E+00 0. -1.
</event>
<event>
 5   0  0.4132460E-05  0.2164709E+04  0.7818609E-02  0.8533262E-01
       -2   -1    0    0    0  501  0.00000000000E+00  0.00000000000E+00  0.11028288179E+04  0.11028288179E+04  0.25500000920E-02 0.  1.
        2   -1    0    0  501    0  0.00000000000E+00  0.00000000000E+00 -0.10622600787E+04  0.10622600787E+04  0.25500000920E-02 0. -1.
    10030    2    1    2    0    0  0.00000000000E+00  0.00000000000E+00  0.40568739221E+02  0.21650888965E+04  0.21647087812E+04 0.  0.
        4    1    3    3  502    0  0.17035190751E+03  0.96652025437E+03 -0.43620374880E+03  0.10739909208E+04  0.12699999809E+01 0.  1.
       -4    1    3    3    0  502 -0.17035190751E+03 -0.96652025437E+03  0.47677248803E+03  0.10910979758E+04  0.12699999809E+01 0. -1.
</event>
<event>
 5   0  0.4132460E-05  0.2197507E+04  0.7818609E-02  0.8519466E-01
       -2   -1    0    0    0  501  0.00000000000E+00  0.00000000000E+00  0.56864450852E+03  0.56864450852E+03  0.25500000920E-02 0. -1.
        2   -1    0    0  501    0  0.00000000000E+00  0.00000000000E+00 -0.21230478173E+04  0.21230478173E+04  0.25500000920E-02 0.  1.
    10030    2    1    2    0    0  0.00000000000E+00  0.00000000000E+00 -0.15544033088E+04  0.26916923258E+04  0.21975072083E+04 0.  0.
        4    1    3    3  502    0 -0.45356966638E+02  0.90828366961E+02  0.56288617151E+03  0.57196984330E+03  0.12699999809E+01 0. -1.
       -4    1    3    3    0  502  0.45356966638E+02 -0.90828366961E+02 -0.21172894803E+04  0.21197224825E+04  0.12699999809E+01 0.  1.
</event>
<event>
 5   0  0.4027923E-05  0.2202074E+04  0.7818609E-02  0.8517565E-01
        2   -1    0    0  501    0  0.00000000000E+00  0.00000000000E+00  0.77251538650E+03  0.77251538651E+03  0.25500000920E-02 0.  1.
       -2   -1    0    0    0  501  0.00000000000E+00  0.00000000000E+00 -0.15692661340E+04  0.15692661341E+04  0.25500000920E-02 0. -1.
    10030    2    1    2    0    0  0.00000000000E+00  0.00000000000E+00 -0.79675074755E+03  0.23417815206E+04  0.22020737808E+04 0.  0.
        5    1    3    3  502    0  0.47168071203E+03  0.93282104204E+03 -0.30567789776E+02  0.10457505775E+04  0.46999998093E+01 0.  1.
       -5    1    3    3    0  502 -0.47168071203E+03 -0.93282104204E+03 -0.76618295777E+03  0.12960309431E+04  0.46999998093E+01 0. -1.
</event>
<event>
 5   0  0.4143281E-05  0.2200120E+04  0.7818609E-02  0.8518378E-01
        2   -1    0    0  501    0  0.00000000000E+00  0.00000000000E+00  0.24887840544E+04  0.24887840544E+04  0.25500000920E-02 0.  1.
       -2   -1    0    0    0  501  0.00000000000E+00  0.00000000000E+00 -0.48623441221E+03  0.48623441221E+03  0.25500000920E-02 0. -1.
    10030    2    1    2    0    0  0.00000000000E+00  0.00000000000E+00  0.20025496422E+04  0.29750184666E+04  0.22001204074E+04 0.  0.
        2    1    3    3  502    0  0.22540707137E+03  0.86693610853E+03  0.18647264463E+04  0.20687173039E+04  0.25500000920E-02 0.  1.
       -2    1    3    3    0  502 -0.22540707137E+03 -0.86693610853E+03  0.13782319588E+03  0.90630116265E+03  0.25500000920E-02 0. -1.
</event>
<event>
 5   0  0.4029532E-05  0.2190722E+04  0.7818609E-02  0.8522300E-01
       -2   -1    0    0    0  501  0.00000000000E+00  0.00000000000E+00  0.72946152621E+03  0.72946152622E+03  0.25500000920E-02 0.  1.
        2   -1    0    0  501    0  0.00000000000E+00  0.00000000000E+00 -0.16447968956E+04  0.16447968956E+04  0.25500000920E-02 0. -1.
    10030    2    1    2    0    0  0.00000000000E+00  0.00000000000E+00 -0.91533536936E+03  0.23742584218E+04  0.21907223044E+04 0.  0.
        3    1    3    3  502    0  0.70567251302E+03 -0.36641992281E+03  0.35882770229E+03  0.87235003617E+03  0.10100000352E+00 0.  1.
       -3    1    3    3    0  502 -0.70567251302E+03  0.36641992281E+03 -0.12741630717E+04  0.15019083856E+04  0.10100000352E+00 0. -1.
</event>
<event>
 5   0  0.4029532E-05  0.2108593E+04  0.7818609E-02  0.8557468E-01
       -2   -1    0    0    0  501  0.00000000000E+00  0.00000000000E+00  0.13525357689E+04  0.13525357689E+04  0.25500000920E-02 0.  1.
        2   -1    0    0  501    0  0.00000000000E+00  0.00000000000E+00 -0.82181991140E+03  0.82181991140E+03  0.25500000920E-02 0. -1.
    10030    2    1    2    0    0  0.00000000000E+00  0.00000000000E+00  0.53071585746E+03  0.21743556803E+04  0.21085927305E+04 0.  0.
        3    1    3    3  502    0  0.69764918782E+03  0.75927892611E+03  0.49203628624E+03  0.11425054022E+04  0.10100000352E+00 0.  1.
       -3    1    3    3    0  502 -0.69764918782E+03 -0.75927892611E+03  0.38679571224E+02  0.10318502781E+04  0.10100000352E+00 0. -1.
</event>
<event>
 5   0  0.4143281E-05  0.2183216E+04  0.7818609E-02  0.8525447E-01
       -2   -1    0    0    0  501  0.00000000000E+00  0.00000000000E+00  0.13712211748E+04  0.13712211748E+04  0.25500000920E-02 0.  1.
        2   -1    0    0  501    0  0.00000000000E+00  0.00000000000E+00 -0.86901205342E+03  0.86901205343E+03  0.25500000920E-02 0. -1.
    10030    2    1    2    0    0  0.00000000000E+00  0.00000000000E+00  0.50220912138E+03  0.22402332282E+04  0.21832157281E+04 0.  0.
        2    1    3    3  502    0 -0.87621395591E+03  0.47227019750E+03  0.71093484443E+03  0.12232000609E+04  0.25500000920E-02 0.  1.
       -2    1    3    3    0  502  0.87621395591E+03 -0.47227019750E+03 -0.20872572304E+03  0.10170331673E+04  0.25500000920E-02 0. -1.
</event>
<event>
 5   0  0.1433375E-05  0.2210304E+04  0.7818609E-02  0.8514152E-01
        3   -1    0    0  501    0  0.00000000000E+00  0.00000000000E+00  0.20972863655E+04  0.20972863679E+04  0.10100000352E+00 0.  1.
       -3   -1    0    0    0  501  0.00000000000E+00  0.00000000000E+00 -0.58235278082E+03  0.58235278958E+03  0.10100000352E+00 0. -1.
    10030    2    1    2    0    0  0.00000000000E+00  0.00000000000E+00  0.15149335846E+04  0.26796391575E+04  0.22103036552E+04 0.  0.
        3    1    3    3  502    0 -0.50311375163E+03 -0.98307619863E+03  0.80887761353E+03  0.13688846786E+04  0.10100000352E+00 0.  1.
       -3    1    3    3    0  502  0.50311375163E+03  0.98307619863E+03  0.70605597112E+03  0.13107544789E+04  0.10100000352E+00 0. -1.
</event>
<event>
 5   0  0.4027923E-05  0.2197185E+04  0.7818609E-02  0.8519601E-01
        2   -1    0    0  501    0  0.00000000000E+00  0.00000000000E+00  0.19118363710E+04  0.19118363710E+04  0.25500000920E-02 0.  1.
       -2   -1    0    0    0  501  0.00000000000E+00  0.00000000000E+00 -0.63128070064E+03  0.63128070065E+03  0.25500000920E-02 0. -1.
    10030    2    1    2    0    0  0.00000000000E+00  0.00000000000E+00  0.12805556703E+04  0.25431170716E+04  0.21971849297E+04 0.  0.
        5    1    3    3  502    0 -0.77244312385E+03  0.71150627701E+03  0.26706067861E+03  0.10836295759E+04  0.46999998093E+01 0. -1.
       -5    1    3    3    0  502  0.77244312385E+03 -0.71150627701E+03  0.10134949917E+04  0.14594874957E+04  0.46999998093E+01 0.  1.
</event>
<event>
 5   0  0.4029532E-05  0.2197132E+04  0.7818609E-02  0.8519623E-01
       -2   -1    0    0    0  501  0.00000000000E+00  0.00000000000E+00  0.72280558070E+03  0.72280558070E+03  0.25500000920E-02 0.  1.
        2   -1    0    0  501    0  0.00000000000E+00  0.00000000000E+00 -0.16696709915E+04  0.16696709915E+04  0.25500000920E-02 0. -1.
    10030    2    1    2    0    0  0.00000000000E+00  0.00000000000E+00 -0.94686541084E+03  0.23924765722E+04  0.21971322315E+04 0.  0.
        3    1    3    3  502    0 -0.35914104404E+03  0.31097286331E+03 -0.15520357875E+04  0.16231147548E+04  0.10100000352E+00 0. -1.
       -3    1    3    3    0  502  0.35914104404E+03 -0.31097286331E+03  0.60517037665E+03  0.76936181749E+03  0.10100000352E+00 0.  1.
</event>
<event>
 5   0  0.1866935E-05  0.2193544E+04  0.7818609E-02  0.8521120E-01
       -1   -1    0    0    0  501  0.00000000000E+00  0.00000000000E+00  0.10474356705E+04  0.10474356706E+04  0.50400001928E-02 0.  1.
        1   -1    0    0  501    0  0.00000000000E+00  0.00000000000E+00 -0.11484318019E+04  0.11484318019E+04  0.50400001928E-02 0. -1.
    10030    2    1    2    0    0  0.00000000000E+00  0.00000000000E+00 -0.10099613138E+03  0.21958674725E+04  0.21935436486E+04 0.  0.
        4    1    3    3  502    0  0.75688609462E+03  0.50132248733E+03  0.56554482801E+03  0.10695996269E+04  0.12699999809E+01 0.  1.
       -4    1    3    3    0  502 -0.75688609462E+03 -0.50132248733E+03 -0.66654095939E+03  0.11262678456E+04  0.12699999809E+01 0. -1.
</event>
<event>
 5   0  0.3963414E-05  0.2213267E+04  0.7818609E-02  0.8512926E-01
        2   -1    0    0  501    0  0.00000000000E+00  0.00000000000E+00  0.16368674409E+04  0.16368674409E+04  0.25500000920E-02 0. -1.
       -2   -1    0    0    0  501  0.00000000000E+00  0.00000000000E+00 -0.74815912391E+03  0.74815912391E+03  0.25500000920E-02 0.  1.
    10030    2    1    2    0    0  0.00000000000E+00  0.00000000000E+00  0.88870831696E+03  0.23850265648E+04  0.22132666450E+04 0.  0.
        1    1    3    3  502    0  0.10984887840E+04 -0.22310565591E+02  0.58675276377E+03  0.12455738339E+04  0.50400001928E-02 0.  1.
       -1    1    3    3    0  502 -0.10984887840E+04  0.22310565591E+02  0.30195555319E+03  0.11394527309E+04  0.50400001928E-02 0. -1.
</event>
<event>
 5   0  0.4143281E-05  0.2163447E+04  0.7818609E-02  0.8533798E-01
        2   -1    0    0  501    0  0.00000000000E+00  0.00000000000E+00  0.13208890888E+04  0.13208890888E+04  0.25500000920E-02 0. -1.
       -2   -1    0    0    0  501  0.00000000000E+00  0.00000000000E+00 -0.88586210835E+03  0.88586210835E+03  0.25500000920E-02 0.  1.
    10030    2    1    2    0    0  0.00000000000E+00  0.00000000000E+00  0.43502698040E+03  0.22067511971E+04  0.21634468730E+04 0.  0.
        2    1    3    3  502    0 -0.98166104532E+03  0.44973292800E+03  0.15135004741E+03  0.10903324957E+04  0.25500000920E-02 0.  1.
       -2    1    3    3    0  502  0.98166104532E+03 -0.44973292800E+03  0.28367693300E+03  0.11164187014E+04  0.25500000920E-02 0. -1.
</event>
<event>
 5   0  0.1815681E-05  0.2195777E+04  0.7818609E-02  0.8520188E-01
       -1   -1    0    0    0  501  0.00000000000E+00  0.00000000000E+00  0.11505143999E+04  0.11505143999E+04  0.50400001928E-02 0.  1.
        1   -1    0    0  501    0  0.00000000000E+00  0.00000000000E+00 -0.10476696582E+04  0.10476696582E+04  0.50400001928E-02 0. -1.
    10030    2    1    2    0    0  0.00000000000E+00  0.00000000000E+00  0.10284474171E+03  0.21981840581E+04  0.21957768813E+04 0.  0.
        2    1    3    3  502    0  0.80705803629E+03 -0.74430020162E+03  0.45622571710E+02  0.10988206783E+04  0.25500000920E-02 0.  1.
       -2    1    3    3    0  502 -0.80705803629E+03  0.74430020162E+03  0.57222169998E+02  0.10993633798E+04  0.25500000920E-02 0. -1.
</event>
<event>
 5   0  0.4027923E-05  0.2171517E+04  0.7818609E-02  0.8530378E-01
        2   -1    0    0  501    0  0.00000000000E+00  0.00000000000E+00  0.12539065056E+04  0.12539065056E+04  0.25500000920E-02 0.  1.
       -2   -1    0    0    0  501  0.00000000000E+00  0.00000000000E+00 -0.94015939301E+03  0.94015939301E+03  0.25500000920E-02 0. -1.
    10030    2    1    2    0    0  0.00000000000E+00  0.00000000000E+00  0.31374711255E+03  0.21940658986E+04  0.21715174226E+04 0.  0.
        5    1    3    3  502    0 -0.73200881291E+03 -0.60521560915E+03 -0.37463732338E+03  0.10210279378E+04  0.46999998093E+01 0. -1.
       -5    1    3    3    0  502  0.73200881291E+03  0.60521560915E+03  0.68838443593E+03  0.11730379607E+04  0.46999998093E+01 0.  1.
</event>
<event>
 5   0  0.1884407E-05  0.2205663E+04  0.7818609E-02  0.8516075E-01
       -1   -1    0    0    0  501  0.00000000000E+00  0.00000000000E+00  0.29255151590E+04  0.29255151590E+04  0.50400001928E-02 0.  1.
        1   -1    0    0  501    0  0.00000000000E+00  0.00000000000E+00 -0.41573435614E+03  0.41573435617E+03  0.50400001928E-02 0. -1.
    10030    2    1    2    0    0  0.00000000000E+00  0.00000000000E+00  0.25097808029E+04  0.33412495152E+04  0.22056628582E+04 0.  0.
        3    1    3    3  502    0  0.11581025793E+03 -0.87277322245E+03  0.24880606504E+03  0.91490413808E+03  0.10100000352E+00 0. -1.
       -3    1    3    3    0  502 -0.11581025793E+03  0.87277322245E+03  0.22609747378E+04  0.24263453771E+04  0.10100000352E+00 0.  1.
</event>
<event>
 5   0  0.1884407E-05  0.2214583E+04  0.7818609E-02  0.8512383E-01
        1   -1    0    0  501    0  0.00000000000E+00  0.00000000000E+00  0.16845515494E+04  0.16845515494E+04  0.50400001928E-02 0.  1.
       -1   -1    0    0    0  501  0.00000000000E+00  0.00000000000E+00 -0.72784625057E+03  0.72784625059E+03  0.50400001928E-02 0. -1.
    10030    2    1    2    0    0  0.00000000000E+00  0.00000000000E+00  0.95670529882E+03  0.24123978000E+04  0.22145830571E+04 0.  0.
        3    1    3    3  502    0  0.45361763260E+03 -0.92737289641E+03  0.42207964439E+02  0.10332332593E+04  0.10100000352E+00 0. -1.
       -3    1    3    3    0  502 -0.45361763260E+03  0.92737289641E+03  0.91449733438E+03  0.13791645407E+04  0.10100000352E+00 0.  1.
</event>
<event>
 5   0  0.1866935E-05  0.2214378E+04  0.7818609E-02  0.8512468E-01
       -1   -1    0    0    0  501  0.00000000000E+00  0.00000000000E+00  0.99197688396E+03  0.99197688397E+03  0.50400001928E-02 0. -1.
        1   -1    0    0  501    0  0.00000000000E+00  0.00000000000E+00 -0.12357820303E+04  0.12357820303E+04  0.50400001928E-02 0.  1.
    10030    2    1    2    0    0  0.00000000000E+00  0.00000000000E+00 -0.24380514637E+03  0.22277589143E+04  0.22143777525E+04 0.  0.
        4    1    3    3  502    0 -0.22369477220E+03 -0.10729796281E+04  0.35699623502E+02  0.10966315286E+04  0.12699999809E+01 0.  1.
       -4    1    3    3    0  502  0.22369477220E+03  0.10729796281E+04 -0.27950476987E+03  0.11311273857E+04  0.12699999809E+01 0. -1.
</event>
<event>
 5   0  0.4132460E-05  0.2195988E+04  0.7818609E-02  0.8520100E-01
       -2   -1    0    0    0  501  0.00000000000E+00  0.00000000000E+00  0.13149916103E+04  0.13149916104E+04  0.25500000920E-02 0.  1.
        2   -1    0    0  501    0  0.00000000000E+00  0.00000000000E+00 -0.91680462156E+03  0.91680462157E+03  0.25500000920E-02 0. -1.
    10030    2    1    2    0    0  0.00000000000E+00  0.00000000000E+00  0.39818698879E+03  0.22317962319E+04  0.21959876008E+04 0.  0.
        4    1    3    3  502    0 -0.51477857078E+03  0.79264924595E+03  0.76704326889E+03  0.12172291458E+04  0.12699999809E+01 0.  1.
       -4    1    3    3    0  502  0.51477857078E+03 -0.79264924595E+03 -0.36885628010E+03  0.10145670862E+04  0.12699999809E+01 0. -1.
</event>
<event>
 5   0  0.4143281E-05  0.2202266E+04  0.7818609E-02  0.8517485E-01
        2   -1    0    0  501    0  0.00000000000E+00  0.00000000000E+00  0.64883183767E+03  0.64883183767E+03  0.25500000920E-02 0. -1.
       -2   -1    0    0    0  501  0.00000000000E+00  0.00000000000E+00 -0.18687344421E+04  0.18687344421E+04  0.25500000920E-02 0.  1.
    10030    2    1    2    0    0  0.00000000000E+00  0.00000000000E+00 -0.12199026044E+04  0.25175662798E+04  0.22022664709E+04 0.  0.
        2    1    3    3  502    0  0.61019484648E+03 -0.13121619146E+03  0.42708714709E+03  0.75627962474E+03  0.25500000920E-02 0. -1.
       -2    1    3    3    0  502 -0.61019484648E+03  0.13121619146E+03 -0.16469897515E+04  0.17612866550E+04  0.25500000920E-02 0.  1.
</event>
<event>
 5   0  0.4132460E-05  0.2150942E+04  0.7818609E-02  0.8539129E-01
        2   -1    0    0  501    0  0.00000000000E+00  0.00000000000E+00  0.11271543803E+04  0.11271543803E+04  0.25500000920E-02 0.  1.
       -2   -1    0    0    0  501  0.00000000000E+00  0.00000000000E+00 -0.10261575502E+04  0.10261575502E+04  0.25500000920E-02 0. -1.
    10030    2    1    2    0    0  0.00000000000E+00  0.00000000000E+00  0.10099683007E+03  0.21533119305E+04  0.21509420983E+04 0.  0.
        4    1    3    3  502    0  0.49055320053E+02 -0.10674007395E+04 -0.71642570848E+02  0.10709271843E+04  0.12699999809E+01 0.  1.
       -4    1    3    3    0  502 -0.49055320053E+02  0.10674007395E+04  0.17263940092E+03  0.10823847462E+04  0.12699999809E+01 0. -1.
</event>
<event>
 5   0  0.3963414E-05  0.2182767E+04  0.7818609E-02  0.8525635E-01
        2   -1    0    0  501    0  0.00000000000E+00  0.00000000000E+00  0.72552265321E+03  0.72552265321E+03  0.25500000920E-02 0.  1.
       -2   -1    0    0    0  501  0.00000000000E+00  0.00000000000E+00 -0.16417375725E+04  0.16417375725E+04  0.25500000920E-02 0. -1.
    10030    2    1    2    0    0  0.00000000000E+00  0.00000000000E+00 -0.91621491927E+03  0.23672602257E+04  0.21827668675E+04 0.  0.
        1    1    3    3  502    0  0.14668704573E+03 -0.63771624954E+03  0.48917125088E+03  0.81699915362E+03  0.50400001928E-02 0.  1.
       -1    1    3    3    0  502 -0.14668704573E+03  0.63771624954E+03 -0.14053861702E+04  0.15502610721E+04  0.50400001928E-02 0. -1.
</event>
<event>
 5   0  0.4029532E-05  0.2184479E+04  0.7818609E-02  0.8524916E-01
       -2   -1    0    0    0  501  0.00000000000E+00  0.00000000000E+00  0.12138563981E+04  0.12138563981E+04  0.25500000920E-02 0. -1.
        2   -1    0    0  501    0  0.00000000000E+00  0.00000000000E+00 -0.98280787720E+03  0.98280787721E+03  0.25500000920E-02 0.  1.
    10030    2    1    2    0    0  0.00000000000E+00  0.00000000000E+00  0.23104852091E+03  0.21966642753E+04  0.21844794619E+04 0.  0.
        3    1    3    3  502    0 -0.10057451700E+04 -0.40321450762E+03 -0.22655219623E+02  0.10837982078E+04  0.10100000352E+00 0.  1.
       -3    1    3    3    0  502  0.10057451700E+04  0.40321450762E+03  0.25370374053E+03  0.11128660675E+04  0.10100000352E+00 0. -1.
</event>
<event>
 5   0  0.1788413E-05  0.2192040E+04  0.7818609E-02  0.8521748E-01
        1   -1    0    0  501    0  0.00000000000E+00  0.00000000000E+00  0.70760143684E+03  0.70760143686E+03  0.50400001928E-02 0.  1.
       -1   -1    0    0    0  501  0.00000000000E+00  0.00000000000E+00 -0.16976510310E+04  0.16976510310E+04  0.50400001928E-02 0. -1.
    10030    2    1    2    0    0  0.00000000000E+00  0.00000000000E+00 -0.99004959414E+03  0.24052524679E+04  0.21920404274E+04 0.  0.
        1    1    3    3  502    0 -0.58885678458E+03  0.50605064935E+03  0.35379485621E+03  0.85323523882E+03  0.50400001928E-02 0.  1.
       -1    1    3    3    0  502  0.58885678458E+03 -0.50605064935E+03 -0.13438444504E+04  0.15520172290E+04  0.50400001928E-02 0. -1.
</event>
<event>
 5   0  0.4143281E-05  0.2194683E+04  0.7818609E-02  0.8520644E-01
        2   -1    0    0  501    0  0.00000000000E+00  0.00000000000E+00  0.10291806444E+04  0.10291806444E+04  0.25500000920E-02 0.  1.
       -2   -1    0    0    0  501  0.00000000000E+00  0.00000000000E+00 -0.11700168158E+04  0.11700168158E+04  0.25500000920E-02 0. -1.
    10030    2    1    2    0    0  0.00000000000E+00  0.00000000000E+00 -0.14083617138E+03  0.21991974602E+04  0.21946832669E+04 0.  0.
        2    1    3    3  502    0 -0.10555243555E+04  0.18739075176E+03  0.16439636677E+03  0.10845612589E+04  0.25500000920E-02 0. -1.
       -2    1    3    3    0  502  0.10555243555E+04 -0.18739075176E+03 -0.30523253815E+03  0.11146362013E+04  0.25500000920E-02 0.  1.
</event>
<event>
 5   0  0.1815681E-05  0.2197849E+04  0.7818609E-02  0.8519324E-01
       -1   -1    0    0    0  501  0.00000000000E+00  0.00000000000E+00  0.81874866819E+03  0.81874866821E+03  0.50400001928E-02 0. -1.
        1   -1    0    0  501    0  0.00000000000E+00  0.00000000000E+00 -0.14749765838E+04  0.14749765838E+04  0.50400001928E-02 0.  1.
    10030    2    1    2    0    0  0.00000000000E+00  0.00000000000E+00 -0.65622791556E+03  0.22937252520E+04  0.21978490518E+04 0.  0.
        2    1    3    3  502    0 -0.93930114255E+03  0.54172774859E+03 -0.14177680920E+03  0.10935521266E+04  0.25500000920E-02 0. -1.
       -2    1    3    3    0  502  0.93930114255E+03 -0.54172774859E+03 -0.51445110637E+03  0.12001731254E+04  0.25500000920E-02 0.  1.
</event>
<event>
 5   0  0.4132460E-05  0.2200888E+04  0.7818609E-02  0.8518059E-01
       -2   -1    0    0    0  501  0.00000000000E+00  0.00000000000E+00  0.73904158157E+03  0.73904158157E+03  0.25500000920E-02 0.  1.
        2   -1    0    0  501    0  0.00000000000E+00  0.00000000000E+00 -0.16385777803E+04  0.16385777803E+04  0.25500000920E-02 0. -1.
    10030    2    1    2    0    0  0.00000000000E+00  0.00000000000E+00 -0.89953619875E+03  0.23776193619E+04  0.22008881065E+04 0.  0.
        4    1    3    3  502    0 -0.37098356998E+03  0.65876731336E+03  0.41404797271E+03  0.86199798083E+03  0.12699999809E+01 0.  1.
       -4    1    3    3    0  502  0.37098356998E+03 -0.65876731336E+03 -0.13135841715E+04  0.15156213811E+04  0.12699999809E+01 0. -1.
</event>
<event>
 5   0  0.4132460E-05  0.2194504E+04  0.7818609E-02  0.8520719E-01
        2   -1    0    0  501    0  0.00000000000E+00  0.00000000000E+00  0.24892132678E+04  0.24892132678E+04  0.25500000920E-02 0. -1.
       -2   -1    0    0    0  501  0.00000000000E+00  0.00000000000E+00 -0.48367162460E+03  0.48367162461E+03  0.25500000920E-02 0.  1.
    10030    2    1    2    0    0  0.00000000000E+00  0.00000000000E+00  0.20055416432E+04  0.29728848924E+04  0.21945038849E+04 0.  0.
        4    1    3    3  502    0  0.55643016697E+03 -0.80563404889E+03  0.16737206356E+04  0.19390727502E+04  0.12699999809E+01 0. -1.
       -4    1    3    3    0  502 -0.55643016697E+03  0.80563404889E+03  0.33182100755E+03  0.10338121422E+04  0.12699999809E+01 0.  1.
</event>
<event>
 5   0  0.1788413E-05  0.2213314E+04  0.7818609E-02  0.8512907E-01
        1   -1    0    0  501    0  0.00000000000E+00  0.00000000000E+00  0.12505161515E+04  0.12505161516E+04  0.50400001928E-02 0. -1.
       -1   -1    0    0    0  501  0.00000000000E+00  0.00000000000E+00 -0.97934747152E+03  0.97934747153E+03  0.50400001928E-02 0.  1.
    10030    2    1    2    0    0  0.00000000000E+00  0.00000000000E+00  0.27116868003E+03  0.22298636231E+04  0.22133141044E+04 0.  0.
        1    1    3    3  502    0  0.64223332126E+03 -0.54980799036E+03  0.85502283066E+03  0.12024211019E+04  0.50400001928E-02 0. -1.
       -1    1    3    3    0  502 -0.64223332126E+03  0.54980799036E+03 -0.58385415064E+03  0.10274425212E+04  0.50400001928E-02 0.  1.
</event>
<event>
 5   0  0.1884407E-05  0.2209483E+04  0.7818609E-02  0.8514492E-01
        1   -1    0    0  501    0  0.00000000000E+00  0.00000000000E+00  0.13614724345E+04  0.13614724345E+04  0.50400001928E-02 0.  1.
       -1   -1    0    0    0  501  0.00000000000E+00  0.00000000000E+00 -0.89642170448E+03  0.89642170449E+03  0.50400001928E-02 0. -1.
    10030    2    1    2    0    0  0.00000000000E+00  0.00000000000E+00  0.46505073004E+03  0.22578941390E+04  0.22094826909E+04 0.  0.
        3    1    3    3  502    0  0.88053224117E+03  0.15851682968E+03 -0.42973968428E+03  0.99254260336E+03  0.10100000352E+00 0. -1.
       -3    1    3    3    0  502 -0.88053224117E+03 -0.15851682968E+03  0.89479041432E+03  0.12653515357E+04  0.10100000352E+00 0.  1.
</event>
<event>
 5   0  0.4029532E-05  0.2187732E+04  0.7818609E-02  0.8523552E-01
        2   -1    0    0  501    0  0.00000000000E+00  0.00000000000E+00  0.13048257553E+04  0.13048257553E+04  0.25500000920E-02 0. -1.
       -2   -1    0    0    0  501  0.00000000000E+00  0.00000000000E+00 -0.91701320646E+03  0.91701320647E+03  0.25500000920E-02 0.  1.
    10030    2    1    2    0    0  0.00000000000E+00  0.00000000000E+00  0.38781254887E+03  0.22218389618E+04  0.21877316561E+04 0.  0.
        3    1    3    3  502    0 -0.89046085122E+02  0.58547449296E+02  0.12995410223E+04  0.13039033276E+04  0.10100000352E+00 0. -1.
       -3    1    3    3    0  502  0.89046085122E+02 -0.58547449296E+02 -0.91172847338E+03  0.91793563417E+03  0.10100000352E+00 0.  1.
</event>
<event>
 5   0  0.1786228E-05  0.2196764E+04  0.7818609E-02  0.8519776E-01
        1   -1    0    0  501    0  0.00000000000E+00  0.00000000000E+00  0.11517008294E+04  0.11517008294E+04  0.50400001928E-02 0.  1.
       -1   -1    0    0    0  501  0.00000000000E+00  0.00000000000E+00 -0.10475316507E+04  0.10475316507E+04  0.50400001928E-02 0. -1.
    10030    2    1    2    0    0  0.00000000000E+00  0.00000000000E+00  0.10416917871E+03  0.21992324801E+04  0.21967640483E+04 0.  0.
        5    1    3    3  502    0  0.56688971551E+03 -0.77467115989E+03 -0.48231446036E+03  0.10743038137E+04  0.46999998093E+01 0.  1.
       -5    1    3    3    0  502 -0.56688971551E+03  0.77467115989E+03  0.58648363907E+03  0.11249286664E+04  0.46999998093E+01 0. -1.
</event>
<event>
 5   0  0.1866935E-05  0.2203742E+04  0.7818609E-02  0.8516872E-01
       -1   -1    0    0    0  501  0.00000000000E+00  0.00000000000E+00  0.59448740877E+03  0.59448740879E+03  0.50400001928E-02 0.  1.
        1   -1    0    0  501    0  0.00000000000E+00  0.00000000000E+00 -0.20422970978E+04  0.20422970978E+04  0.50400001928E-02 0. -1.
    10030    2    1    2    0    0  0.00000000000E+00  0.00000000000E+00 -0.14478096890E+04  0.26367845066E+04  0.22037421897E+04 0.  0.
        4    1    3    3  502    0 -0.35382227773E+03  0.39721100827E+03  0.43067514790E+03  0.68443369673E+03  0.12699999809E+01 0.  1.
       -4    1    3    3    0  502  0.35382227773E+03 -0.39721100827E+03 -0.18784848369E+04  0.19523508099E+04  0.12699999809E+01 0. -1.
</event>
<event>
 5   0  0.4132460E-05  0.2169876E+04  0.7818609E-02  0.8531072E-01
       -2   -1    0    0    0  501  0.00000000000E+00  0.00000000000E+00  0.46666633633E+03  0.46666633634E+03  0.25500000920E-02 0. -1.
        2   -1    0    0  501    0  0.00000000000E+00  0.00000000000E+00 -0.25223377143E+04  0.25223377143E+04  0.25500000920E-02 0.  1.
    10030    2    1    2    0    0  0.00000000000E+00  0.00000000000E+00 -0.20556713779E+04  0.29890040506E+04  0.21698756648E+04 0.  0.
        4    1    3    3  502    0 -0.45058230242E+03  0.23525297575E+03  0.29249666813E+03  0.58645058412E+03  0.12699999809E+01 0. -1.
       -4    1    3    3    0  502  0.45058230242E+03 -0.23525297575E+03 -0.23481680461E+04  0.24025534665E+04  0.12699999809E+01 0.  1.
</event>
<event>
 5   0  0.3963414E-05  0.2197688E+04  0.7818609E-02  0.8519391E-01
        2   -1    0    0  501    0  0.00000000000E+00  0.00000000000E+00  0.13478856423E+04  0.13478856423E+04  0.25500000920E-02 0. -1.
       -2   -1    0    0    0  501  0.00000000000E+00  0.00000000000E+00 -0.89581684252E+03  0.89581684252E+03  0.25500000920E-02 0.  1.
    10030    2    1    2    0    0  0.00000000000E+00  0.00000000000E+00  0.45206879982E+03  0.22437024849E+04  0.21976884767E+04 0.  0.
        1    1    3    3  502    0  0.34566242228E+03 -0.62536968992E+01  0.12909152562E+04  0.13364070554E+04  0.50400001928E-02 0. -1.
       -1    1    3    3    0  502 -0.34566242228E+03  0.62536968992E+01 -0.83884645640E+03  0.90729542948E+03  0.50400001928E-02 0.  1.
</event>
<event>
 5   0  0.1815681E-05  0.2200813E+04  0.7818609E-02  0.8518090E-01
        1   -1    0    0  501    0  0.00000000000E+00  0.00000000000E+00  0.12406365908E+04  0.12406365908E+04  0.50400001928E-02 0.  1.
       -1   -1    0    0    0  501  0.00000000000E+00  0.00000000000E+00 -0.97602688313E+03  0.97602688315E+03  0.50400001928E-02 0. -1.
    10030    2    1    2    0    0  0.00000000000E+00  0.00000000000E+00  0.26460970762E+03  0.22166634739E+04  0.22008131813E+04 0.  0.
        2    1    3    3  502    0 -0.42431684473E+03 -0.22279381423E+03 -0.86539104787E+03  0.98923381165E+03  0.25500000920E-02 0. -1.
       -2    1    3    3    0  502  0.42431684473E+03  0.22279381423E+03  0.11300007555E+04  0.12274296623E+04  0.25500000920E-02 0.  1.
</event>
<event>
 5   0  0.4143281E-05  0.2193757E+04  0.7818609E-02  0.8521031E-01
       -2   -1    0    0    0  501  0.00000000000E+00  0.00000000000E+00  0.15787656687E+04  0.15787656687E+04  0.25500000920E-02 0. -1.
        2   -1    0    0  501    0  0.00000000000E+00  0.00000000000E+00 -0.76207808214E+03  0.76207808214E+03  0.25500000920E-02 0.  1.
    10030    2    1    2    0    0  0.00000000000E+00  0.00000000000E+00  0.81668758656E+03  0.23408437508E+04  0.21937572454E+04 0.  0.
        2    1    3    3  502    0 -0.39204685330E+02 -0.98646254513E+03  0.91840752518E+03  0.13483759649E+04  0.25500000920E-02 0.  1.
       -2    1    3    3    0  502  0.39204685330E+02  0.98646254513E+03 -0.10171993862E+03  0.99246778599E+03  0.25500000920E-02 0. -1.
</event>
<event>
 5   0  0.3963414E-05  0.2117148E+04  0.7818609E-02  0.8553727E-01
       -2   -1    0    0    0  501  0.00000000000E+00  0.00000000000E+00  0.37241135249E+03  0.37241135250E+03  0.25500000920E-02 0. -1.
        2   -1    0    0  501    0  0.00000000000E+00  0.00000000000E+00 -0.30089825856E+04  0.30089825856E+04  0.25500000920E-02 0.  1.
    10030    2    1    2    0    0  0.00000000000E+00  0.00000000000E+00 -0.26365712331E+04  0.33813939381E+04  0.21171483409E+04 0.  0.
        1    1    3    3  502    0 -0.31468086589E+03 -0.98800705815E+03 -0.16585836173E+04  0.19560372210E+04  0.50400001928E-02 0.  1.
       -1    1    3    3    0  502  0.31468086589E+03  0.98800705815E+03 -0.97798761581E+03  0.14253567171E+04  0.50400001928E-02 0. -1.
</event>
<event>
 5   0  0.4029532E-05  0.2204498E+04  0.7818609E-02  0.8516558E-01
       -2   -1    0    0    0  501  0.00000000000E+00  0.00000000000E+00  0.58757779437E+03  0.58757779438E+03  0.25500000920E-02 0.  1.
        2   -1    0    0  501    0  0.00000000000E+00  0.00000000000E+00 -0.20677306013E+04  0.20677306013E+04  0.25500000920E-02 0. -1.
    10030    2    1    2    0    0  0.00000000000E+00  0.00000000000E+00 -0.14801528070E+04  0.26553083957E+04  0.22044977533E+04 0.  0.
        3    1    3    3  502    0  0.26415448501E+03 -0.38434721544E+03 -0.19430368690E+04  0.19982223747E+04  0.10100000352E+00 0. -1.
       -3    1    3    3    0  502 -0.26415448501E+03  0.38434721544E+03  0.46288406206E+03  0.65708602106E+03  0.10100000352E+00 0.  1.
</event>
<event>
 5   0  0.4143281E-05  0.2203582E+04  0.7818609E-02  0.8516939E-01
        2   -1    0    0  501    0  0.00000000000E+00  0.00000000000E+00  0.14396938452E+04  0.14396938452E+04  0.25500000920E-02 0. -1.
       -2   -1    0    0    0  501  0.00000000000E+00  0.00000000000E+00 -0.84319541982E+03  0.84319541983E+03  0.25500000920E-02 0.  1.
    10030    2    1    2    0    0  0.00000000000E+00  0.00000000000E+00  0.59649842541E+03  0.22828892651E+04  0.22035818626E+04 0.  0.
        2    1    3    3  502    0 -0.20572801760E+03  0.10373476128E+04 -0.21952504845E+02  0.10577788046E+04  0.25500000920E-02 0.  1.
       -2    1    3    3    0  502  0.20572801760E+03 -0.10373476128E+04  0.61845093026E+03  0.12251104604E+04  0.25500000920E-02 0. -1.
</event>
<event>
 5   0  0.1786228E-05  0.2205156E+04  0.7818609E-02  0.8516285E-01
        1   -1    0    0  501    0  0.00000000000E+00  0.00000000000E+00  0.10398529353E+04  0.10398529353E+04  0.50400001928E-02 0.  1.
       -1   -1    0    0    0  501  0.00000000000E+00  0.00000000000E+00 -0.11690865474E+04  0.11690865474E+04  0.50400001928E-02 0. -1.
    10030    2    1    2    0    0  0.00000000000E+00  0.00000000000E+00 -0.12923361214E+03  0.22089394827E+04  0.22051558475E+04 0.  0.
        5    1    3    3  502    0  0.47445615353E+03 -0.99513052238E+03 -0.48384382340E+02  0.11035200663E+04  0.46999998093E+01 0. -1.
       -5    1    3    3    0  502 -0.47445615353E+03  0.99513052238E+03 -0.80849229801E+02  0.11054194164E+04  0.46999998093E+01 0.  1.
</event>
<event>
 5   0  0.4132460E-05  0.2158243E+04  0.7818609E-02  0.8536012E-01
       -2   -1    0    0    0  501  0.00000000000E+00  0.00000000000E+00  0.48849765184E+03  0.48849765185E+03  0.25500000920E-02 0. -1.
        2   -1    0    0  501    0  0.00000000000E+00  0.00000000000E+00 -0.23838454931E+04  0.23838454931E+04  0.25500000920E-02 0.  1.
    10030    2    1    2    0    0  0.00000000000E+00  0.00000000000E+00 -0.18953478412E+04  0.28723431449E+04  0.21582427349E+04 0.  0.
        4    1    3    3  502    0  0.33152601816E+03  0.10234275025E+04 -0.83484021909E+03  0.13617169889E+04  0.12699999809E+01 0. -1.
       -4    1    3    3    0  502 -0.33152601816E+03 -0.10234275025E+04 -0.10605076222E+04  0.15106261560E+04  0.12699999809E+01 0.  1.
</event>
<event>
 5   0  0.1884407E-05  0.2203490E+04  0.7818609E-02  0.8516977E-01
       -1   -1    0    0    0  501  0.00000000000E+00  0.00000000000E+00  0.59093854906E+03  0.59093854908E+03  0.50400001928E-02 0. -1.
        1   -1    0    0  501    0  0.00000000000E+00  0.00000000000E+00 -0.20540919467E+04  0.20540919467E+04  0.50400001928E-02 0.  1.
    10030    2    1    2    0    0  0.00000000000E+00  0.00000000000E+00 -0.14631533977E+04  0.26450304958E+04  0.22034900632E+04 0.  0.
        3    1    3    3  502    0 -0.18817935264E+03  0.41279828215E+03  0.47361444356E+03  0.65583880783E+03  0.10100000352E+00 0. -1.
       -3    1    3    3    0  502  0.18817935264E+03 -0.41279828215E+03 -0.19367678412E+04  0.19891916880E+04  0.10100000352E+00 0.  1.
</event>
<event>
 5   0  0.1788413E-05  0.2220790E+04  0.7818609E-02  0.8509824E-01
       -1   -1    0    0    0  501  0.00000000000E+00  0.00000000000E+00  0.71436079122E+03  0.71436079124E+03  0.50400001928E-02 0.  1.
        1   -1    0    0  501    0  0.00000000000E+00  0.00000000000E+00 -0.17259867679E+04  0.17259867679E+04  0.50400001928E-02 0. -1.
    10030    2    1    2    0    0  0.00000000000E+00  0.00000000000E+00 -0.10116259767E+04  0.24403475592E+04  0.22207901956E+04 0.  0.
        1    1    3    3  502    0  0.16620659820E+02  0.81166466935E+03  0.32664596580E+03  0.87508477806E+03  0.50400001928E-02 0.  1.
       -1    1    3    3    0  502 -0.16620659820E+02 -0.81166466935E+03 -0.13382719425E+04  0.15652627811E+04  0.50400001928E-02 0. -1.
</event>
<event>
 5   0  0.4029532E-05  0.2174811E+04  0.7818609E-02  0.8528986E-01
       -2   -1    0    0    0  501  0.00000000000E+00  0.00000000000E+00  0.12538111618E+04  0.12538111618E+04  0.25500000920E-02 0. -1.
        2   -1    0    0  501    0  0.00000000000E+00  0.00000000000E+00 -0.94308526477E+03  0.94308526478E+03  0.25500000920E-02 0.  1.
    10030    2    1    2    0    0  0.00000000000E+00  0.00000000000E+00  0.31072589704E+03  0.21968964266E+04  0.21748111012E+04 0.  0.
        3    1    3    3  502    0 -0.25474313018E+03 -0.70328277978E+03  0.95264992114E+03  0.12112153455E+04  0.10100000352E+00 0. -1.
       -3    1    3    3    0  502  0.25474313018E+03  0.70328277978E+03 -0.64192402410E+03  0.98568108110E+03  0.10100000352E+00 0.  1.
</event>
<event>
 5   0  0.1433375E-05  0.2191599E+04  0.7818609E-02  0.8521933E-01
       -3   -1    0    0    0  501  0.00000000000E+00  0.00000000000E+00  0.32003727710E+04  0.32003727726E+04  0.10100000352E+00 0. -1.
        3   -1    0    0  501    0  0.00000000000E+00  0.00000000000E+00 -0.37519879533E+03  0.37519880892E+03  0.10100000352E+00 0.  1.
    10030    2    1    2    0    0  0.00000000000E+00  0.00000000000E+00  0.28251739757E+04  0.35755715815E+04  0.21915985357E+04 0.  0.
        4    1    3    3  502    0  0.33599548966E+03 -0.10340791281E+04  0.16348640455E+04  0.19634140349E+04  0.12699999809E+01 0. -1.
       -4    1    3    3    0  502 -0.33599548966E+03  0.10340791281E+04  0.11903099302E+04  0.16121575466E+04  0.12699999809E+01 0.  1.
</event>
<event>
 5   0  0.1884407E-05  0.2194592E+04  0.7818609E-02  0.8520682E-01
       -1   -1    0    0    0  501  0.00000000000E+00  0.00000000000E+00  0.68344732984E+03  0.68344732986E+03  0.50400001928E-02 0.  1.
        1   -1    0    0  501    0  0.00000000000E+00  0.00000000000E+00 -0.17617426562E+04  0.17617426562E+04  0.50400001928E-02 0. -1.
    10030    2    1    2    0    0  0.00000000000E+00  0.00000000000E+00 -0.10782953263E+04  0.24451899860E+04  0.21945918201E+04 0.  0.
        3    1    3    3  502    0 -0.10507468520E+04 -0.23029551319E+03 -0.78057812711E+03  0.13290625241E+04  0.10100000352E+00 0.  1.
       -3    1    3    3    0  502  0.10507468520E+04  0.23029551319E+03 -0.29771719922E+03  0.11161274619E+04  0.10100000352E+00 0. -1.
</event>
<event>
 5   0  0.1866935E-05  0.2192526E+04  0.7818609E-02  0.8521545E-01
       -1   -1    0    0    0  501  0.00000000000E+00  0.00000000000E+00  0.64510174119E+03  0.64510174121E+03  0.50400001928E-02 0.  1.
        1   -1    0    0  501    0  0.00000000000E+00  0.00000000000E+00 -0.18629501100E+04  0.18629501100E+04  0.50400001928E-02 0. -1.
    10030    2    1    2    0    0  0.00000000000E+00  0.00000000000E+00 -0.12178483688E+04  0.25080518513E+04  0.21925258126E+04 0.  0.
        4    1    3    3  502    0 -0.70180901078E+03  0.49192288426E+03  0.17301725265E+03  0.87433437212E+03  0.12699999809E+01 0.  1.
       -4    1    3    3    0  502  0.70180901078E+03 -0.49192288426E+03 -0.13908656215E+04  0.16337174791E+04  0.12699999809E+01 0. -1.
</event>
<event>
 5   0  0.1786228E-05  0.2189045E+04  0.7818609E-02  0.8523002E-01
       -1   -1    0    0    0  501  0.00000000000E+00  0.00000000000E+00  0.73345794232E+03  0.73345794233E+03  0.50400001928E-02 0. -1.
        1   -1    0    0  501    0  0.00000000000E+00  0.00000000000E+00 -0.16333303572E+04  0.16333303572E+04  0.50400001928E-02 0.  1.
    10030    2    1    2    0    0  0.00000000000E+00  0.00000000000E+00 -0.89987241491E+03  0.23667882996E+04  0.21890446528E+04 0.  0.
        5    1    3    3  502    0 -0.21937846248E+03 -0.98117974757E+02  0.70456895744E+03  0.74444177244E+03  0.46999998093E+01 0. -1.
       -5    1    3    3    0  502  0.21937846248E+03  0.98117974757E+02 -0.16044413724E+04  0.16223465271E+04  0.46999998093E+01 0.  1.
</event>
<event>
 5   0  0.1866935E-05  0.2220349E+04  0.7818609E-02  0.8510006E-01
       -1   -1    0    0    0  501  0.00000000000E+00  0.00000000000E+00  0.16874719635E+04  0.16874719635E+04  0.50400001928E-02 0.  1.
        1   -1    0    0  501    0  0.00000000000E+00  0.00000000000E+00 -0.73037534748E+03  0.73037534750E+03  0.50400001928E-02 0. -1.
    10030    2    1    2    0    0  0.00000000000E+00  0.00000000000E+00  0.95709661604E+03  0.24178473110E+04  0.22203494515E+04 0.  0.
        4    1    3    3  502    0 -0.79107798407E+03  0.14439132571E+03 -0.35493035077E+03  0.87899396962E+03  0.12699999809E+01 0. -1.
       -4    1    3    3    0  502  0.79107798407E+03 -0.14439132571E+03  0.13120269668E+04  0.15388533414E+04  0.12699999809E+01 0.  1.
</event>
<event>
 5   0  0.4029532E-05  0.2213751E+04  0.7818609E-02  0.8512727E-01
        2   -1    0    0  501    0  0.00000000000E+00  0.00000000000E+00  0.14457343395E+04  0.14457343395E+04  0.25500000920E-02 0.  1.
       -2   -1    0    0    0  501  0.00000000000E+00  0.00000000000E+00 -0.84743992701E+03  0.84743992701E+03  0.25500000920E-02 0. -1.
    10030    2    1    2    0    0  0.00000000000E+00  0.00000000000E+00  0.59829441249E+03  0.22931742665E+04  0.22137506663E+04 0.  0.
        3    1    3    3  502    0 -0.79817803712E+03  0.76581861743E+03  0.25762597346E+03  0.11357541486E+04  0.10100000352E+00 0. -1.
       -3    1    3    3    0  502  0.79817803712E+03 -0.76581861743E+03  0.34066843903E+03  0.11574201179E+04  0.10100000352E+00 0.  1.
</event>
<event>
 5   0  0.1788413E-05  0.2202268E+04  0.7818609E-02  0.8517485E-01
        1   -1    0    0  501    0  0.00000000000E+00  0.00000000000E+00  0.22553587079E+04  0.22553587079E+04  0.50400001928E-02 0.  1.
       -1   -1    0    0    0  501  0.00000000000E+00  0.00000000000E+00 -0.53760693824E+03  0.53760693827E+03  0.50400001928E-02 0. -1.
    10030    2    1    2    0    0  0.00000000000E+00  0.00000000000E+00  0.17177517697E+04  0.27929656462E+04  0.22022683666E+04 0.  0.
        1    1    3    3  502    0  0.54620183304E+03  0.44579744366E+03  0.19315734977E+04  0.20562217731E+04  0.50400001928E-02 0.  1.
       -1    1    3    3    0  502 -0.54620183304E+03 -0.44579744366E+03 -0.21382172798E+03  0.73674387311E+03  0.50400001928E-02 0. -1.
</event>
<event>
 5   0  0.4029532E-05  0.2204299E+04  0.7818609E-02  0.8516641E-01
       -2   -1    0    0    0  501  0.00000000000E+00  0.00000000000E+00  0.12031762708E+04  0.12031762708E+04  0.25500000920E-02 0. -1.
        2   -1    0    0  501    0  0.00000000000E+00  0.00000000000E+00 -0.10096059116E+04  0.10096059116E+04  0.25500000920E-02 0.  1.
    10030    2    1    2    0    0  0.00000000000E+00  0.00000000000E+00  0.19357035921E+03  0.22127821824E+04  0.22042993224E+04 0.  0.
        3    1    3    3  502    0  0.25272743860E+02  0.60911244993E+03  0.10185110242E+04  0.11870220743E+04  0.10100000352E+00 0. -1.
       -3    1    3    3    0  502 -0.25272743860E+02 -0.60911244993E+03 -0.82494066504E+03  0.10257601081E+04  0.10100000352E+00 0.  1.
</event>
<event>
 5   0  0.4132460E-05  0.2205946E+04  0.7818609E-02  0.8515957E-01
        2   -1    0    0  501    0  0.00000000000E+00  0.00000000000E+00  0.12872938632E+04  0.12872938632E+04  0.25500000920E-02 0.  1.
       -2   -1    0    0    0  501  0.00000000000E+00  0.00000000000E+00 -0.94504393153E+03  0.94504393153E+03  0.25500000920E-02 0. -1.
    10030    2    1    2    0    0  0.00000000000E+00  0.00000000000E+00  0.34224993162E+03  0.22323377947E+04  0.22059458320E+04 0.  0.
        4    1    3    3  502    0  0.84188799840E+03 -0.52902062103E+03 -0.31198523467E+03  0.10421010598E+04  0.12699999809E+01 0. -1.
       -4    1    3    3    0  502 -0.84188799840E+03  0.52902062103E+03  0.65423516629E+03  0.11902367349E+04  0.12699999809E+01 0.  1.
</event>
<event>
 5   0  0.1866935E-05  0.2196350E+04  0.7818609E-02  0.8519949E-01
        1   -1    0    0  501    0  0.00000000000E+00  0.00000000000E+00  0.18080418297E+04  0.18080418297E+04  0.50400001928E-02 0.  1.
       -1   -1    0    0    0  501  0.00000000000E+00  0.00000000000E+00 -0.66701339175E+03  0.66701339177E+03  0.50400001928E-02 0. -1.
    10030    2    1    2    0    0  0.00000000000E+00  0.00000000000E+00  0.11410284379E+04  0.24750552215E+04  0.21963498021E+04 0.  0.
        4    1    3    3  502    0  0.45149096498E+03 -0.47530077778E+03 -0.42232525854E+03  0.77981738741E+03  0.12699999809E+01 0. -1.
       -4    1    3    3    0  502 -0.45149096498E+03  0.47530077778E+03  0.15633536965E+04  0.16952378340E+04  0.12699999809E+01 0.  1.
</event>
<event>
 5   0  0.1788413E-05  0.2196725E+04  0.7818609E-02  0.8519792E-01
        1   -1    0    0  501    0  0.00000000000E+00  0.00000000000E+00  0.15315457493E+04  0.15315457494E+04  0.50400001928E-02 0. -1.
       -1   -1    0    0    0  501  0.00000000000E+00  0.00000000000E+00 -0.78770127229E+03  0.78770127231E+03  0.50400001928E-02 0.  1.
    10030    2    1    2    0    0  0.00000000000E+00  0.00000000000E+00  0.74384447705E+03  0.23192470217E+04  0.21967253223E+04 0.  0.
        1    1    3    3  502    0  0.83999967004E+03 -0.30464866014E+03 -0.30244453072E+03  0.94333607266E+03  0.50400001928E-02 0.  1.
       -1    1    3    3    0  502 -0.83999967004E+03  0.30464866014E+03  0.10462890078E+04  0.13759109490E+04  0.50400001928E-02 0. -1.
</event>
<event>
 5   0  0.4143281E-05  0.2243809E+04  0.7818609E-02  0.8500412E-01
        2   -1    0    0  501    0  0.00000000000E+00  0.00000000000E+00  0.12316897896E+04  0.12316897896E+04  0.25500000920E-02 0. -1.
       -2   -1    0    0    0  501  0.00000000000E+00  0.00000000000E+00 -0.10219050058E+04  0.10219050058E+04  0.25500000920E-02 0.  1.
    10030    2    1    2    0    0  0.00000000000E+00  0.00000000000E+00  0.20978478377E+03  0.22535947954E+04  0.22438092268E+04 0.  0.
        2    1    3    3  502    0 -0.44480991572E+03 -0.40658513999E+03 -0.84554460393E+03  0.10383222113E+04  0.25500000920E-02 0.  1.
       -2    1    3    3    0  502  0.44480991572E+03  0.40658513999E+03  0.10553293877E+04  0.12152725841E+04  0.25500000920E-02 0. -1.
</event>
<event>
 5   0  0.4029532E-05  0.2214028E+04  0.7818609E-02  0.8512612E-01
       -2   -1    0    0    0  501  0.00000000000E+00  0.00000000000E+00  0.11059666810E+04  0.11059666810E+04  0.25500000920E-02 0.  1.
        2   -1    0    0  501    0  0.00000000000E+00  0.00000000000E+00 -0.11080621594E+04  0.11080621595E+04  0.25500000920E-02 0. -1.
    10030    2    1    2    0    0  0.00000000000E+00  0.00000000000E+00 -0.20954784855E+01  0.22140288404E+04  0.22140278488E+04 0.  0.
        3    1    3    3  502    0 -0.27535309572E+03 -0.85430152537E+03  0.64689498284E+03  0.11064011716E+04  0.10100000352E+00 0.  1.
       -3    1    3    3    0  502  0.27535309572E+03  0.85430152537E+03 -0.64899046133E+03  0.11076276688E+04  0.10100000352E+00 0. -1.
</event>
<event>
 5   0  0.1866935E-05  0.2205305E+04  0.7818609E-02  0.8516223E-01
       -1   -1    0    0    0  501  0.00000000000E+00  0.00000000000E+00  0.84720959992E+03  0.84720959994E+03  0.50400001928E-02 0.  1.
        1   -1    0    0  501    0  0.00000000000E+00  0.00000000000E+00 -0.14351142952E+04  0.14351142952E+04  0.50400001928E-02 0. -1.
    10030    2    1    2    0    0  0.00000000000E+00  0.00000000000E+00 -0.58790469524E+03  0.22823238951E+04  0.22053050654E+04 0.  0.
        4    1    3    3  502    0 -0.42322534477E+03 -0.10103761725E+04 -0.16361229559E+03  0.11075876031E+04  0.12699999809E+01 0. -1.
       -4    1    3    3    0  502  0.42322534477E+03  0.10103761725E+04 -0.42429239964E+03  0.11747362920E+04  0.12699999809E+01 0.  1.
</event>
<event>
 5   0  0.1815681E-05  0.2202640E+04  0.7818609E-02  0.8517330E-01
       -1   -1    0    0    0  501  0.00000000000E+00  0.00000000000E+00  0.10320838701E+04  0.10320838701E+04  0.50400001928E-02 0. -1.
        1   -1    0    0  501    0  0.00000000000E+00  0.00000000000E+00 -0.11752012436E+04  0.11752012436E+04  0.50400001928E-02 0.  1.
    10030    2    1    2    0    0  0.00000000000E+00  0.00000000000E+00 -0.14311737354E+03  0.22072851137E+04  0.22026404588E+04 0.  0.
        2    1    3    3  502    0  0.53444197563E+02  0.91918604555E+03  0.53398945829E+03  0.10643796363E+04  0.25500000920E-02 0. -1.
       -2    1    3    3    0  502 -0.53444197563E+02 -0.91918604555E+03 -0.67710683183E+03  0.11429054774E+04  0.25500000920E-02 0.  1.
</event>
<event>
 5   0  0.1788413E-05  0.2208338E+04  0.7818609E-02  0.8514966E-01
       -1   -1    0    0    0  501  0.00000000000E+00  0.00000000000E+00  0.48543592274E+03  0.48543592277E+03  0.50400001928E-02 0. -1.
        1   -1    0    0  501    0  0.00000000000E+00  0.00000000000E+00 -0.25115353131E+04  0.25115353131E+04  0.50400001928E-02 0.  1.
    10030    2    1    2    0    0  0.00000000000E+00  0.00000000000E+00 -0.20260993903E+04  0.29969712359E+04  0.22083382551E+04 0.  0.
        1    1    3    3  502    0  0.88775870961E+03  0.64143180129E+03 -0.82286364699E+03  0.13699105313E+04  0.50400001928E-02 0. -1.
       -1    1    3    3    0  502 -0.88775870961E+03 -0.64143180129E+03 -0.12032357433E+04  0.16270607046E+04  0.50400001928E-02 0.  1.
</event>
<event>
 5   0  0.4143281E-05  0.2180898E+04  0.7818609E-02  0.8526421E-01
        2   -1    0    0  501    0  0.00000000000E+00  0.00000000000E+00  0.10955672456E+04  0.10955672456E+04  0.25500000920E-02 0. -1.
       -2   -1    0    0    0  501  0.00000000000E+00  0.00000000000E+00 -0.10853543977E+04  0.10853543977E+04  0.25500000920E-02 0.  1.
    10030    2    1    2    0    0  0.00000000000E+00  0.00000000000E+00  0.10212847915E+02  0.21809216433E+04  0.21808977307E+04 0.  0.
        2    1    3    3  502    0 -0.63981432482E+03  0.58201083850E+03  0.66917676053E+03  0.10935705387E+04  0.25500000920E-02 0. -1.
       -2    1    3    3    0  502  0.63981432482E+03 -0.58201083850E+03 -0.65896391261E+03  0.10873511045E+04  0.25500000920E-02 0.  1.
</event>
<event>
 5   0  0.1786228E-05  0.2212267E+04  0.7818609E-02  0.8513340E-01
       -1   -1    0    0    0  501  0.00000000000E+00  0.00000000000E+00  0.10366661210E+04  0.10366661210E+04  0.50400001928E-02 0. -1.
        1   -1    0    0  501    0  0.00000000000E+00  0.00000000000E+00 -0.11802560343E+04  0.11802560343E+04  0.50400001928E-02 0.  1.
    10030    2    1    2    0    0  0.00000000000E+00  0.00000000000E+00 -0.14358991326E+03  0.22169221553E+04  0.22122671130E+04 0.  0.
        5    1    3    3  502    0  0.70403758692E+03 -0.39344828679E+03  0.68679121870E+03  0.10593274972E+04  0.46999998093E+01 0. -1.
       -5    1    3    3    0  502 -0.70403758692E+03  0.39344828679E+03 -0.83038113196E+03  0.11575946581E+04  0.46999998093E+01 0.  1.
</event>
<event>
 5   0  0.1884407E-05  0.2195816E+04  0.7818609E-02  0.8520172E-01
        1   -1    0    0  501    0  0.00000000000E+00  0.00000000000E+00  0.99209509604E+03  0.99209509605E+03  0.50400001928E-02 0.  1.
       -1   -1    0    0    0  501  0.00000000000E+00  0.00000000000E+00 -0.12150060735E+04  0.12150060735E+04  0.50400001928E-02 0. -1.
    10030    2    1    2    0    0  0.00000000000E+00  0.00000000000E+00 -0.22291097742E+03  0.22071011695E+04  0.21958156272E+04 0.  0.
        3    1    3    3  502    0 -0.52441259450E+03 -0.62068755795E+03 -0.85358614430E+03  0.11785036826E+04  0.10100000352E+00 0. -1.
       -3    1    3    3    0  502  0.52441259450E+03  0.62068755795E+03  0.63067516688E+03  0.10285974870E+04  0.10100000352E+00 0.  1.
</event>
<event>
 5   0  0.4029532E-05  0.2199208E+04  0.7818609E-02  0.8518758E-01
       -2   -1    0    0    0  501  0.00000000000E+00  0.00000000000E+00  0.70227778377E+03  0.70227778377E+03  0.25500000920E-02 0. -1.
        2   -1    0    0  501    0  0.00000000000E+00  0.00000000000E+00 -0.17217243064E+04  0.17217243064E+04  0.25500000920E-02 0.  1.
    10030    2    1    2    0    0  0.00000000000E+00  0.00000000000E+00 -0.10194465226E+04  0.24240020901E+04  0.21992077938E+04 0.  0.
        3    1    3    3  502    0  0.11667384495E+03 -0.81563315861E+03 -0.13123442956E+04  0.15495540636E+04  0.10100000352E+00 0.  1.
       -3    1    3    3    0  502 -0.11667384495E+03  0.81563315861E+03  0.29289777301E+03  0.87444802656E+03  0.10100000352E+00 0. -1.
</event>
<event>
 5   0  0.4029532E-05  0.2234433E+04  0.7818609E-02  0.8504231E-01
        2   -1    0    0  501    0  0.00000000000E+00  0.00000000000E+00  0.11574443644E+04  0.11574443644E+04  0.25500000920E-02 0.  1.
       -2   -1    0    0    0  501  0.00000000000E+00  0.00000000000E+00 -0.10783869389E+04  0.10783869389E+04  0.25500000920E-02 0. -1.
    10030    2    1    2    0    0  0.00000000000E+00  0.00000000000E+00  0.79057425506E+02  0.22358313033E+04  0.22344331586E+04 0.  0.
        3    1    3    3  502    0  0.76659469482E+03  0.22859598014E+03  0.81992012774E+03  0.11455097443E+04  0.10100000352E+00 0.  1.
       -3    1    3    3    0  502 -0.76659469482E+03 -0.22859598014E+03 -0.74086270223E+03  0.10903215590E+04  0.10100000352E+00 0. -1.
</event>
<event>
 5   0  0.1788413E-05  0.2186133E+04  0.7818609E-02  0.8524222E-01
        1   -1    0    0  501    0  0.00000000000E+00  0.00000000000E+00  0.14244509692E+04  0.14244509692E+04  0.50400001928E-02 0. -1.
       -1   -1    0    0    0  501  0.00000000000E+00  0.00000000000E+00 -0.83877551285E+03  0.83877551286E+03  0.50400001928E-02 0.  1.
    10030    2    1    2    0    0  0.00000000000E+00  0.00000000000E+00  0.58567545637E+03  0.22632264821E+04  0.21861332002E+04 0.  0.
        1    1    3    3  502    0 -0.30035566044E+03 -0.61775569141E+03  0.11730921659E+04  0.13594045927E+04  0.50400001928E-02 0. -1.
       -1    1    3    3    0  502  0.30035566044E+03  0.61775569141E+03 -0.58741670953E+03  0.90382188936E+03  0.50400001928E-02 0.  1.
</event>
<event>
 5   0  0.3963414E-05  0.2215222E+04  0.7818609E-02  0.8512119E-01
        2   -1    0    0  501    0  0.00000000000E+00  0.00000000000E+00  0.85107482408E+03  0.85107482409E+03  0.25500000920E-02 0. -1.
       -2   -1    0    0    0  501  0.00000000000E+00  0.00000000000E+00 -0.14414736731E+04  0.14414736731E+04  0.25500000920E-02 0.  1.
    10030    2    1    2    0    0  0.00000000000E+00  0.00000000000E+00 -0.59039884906E+03  0.22925484972E+04  0.22152218424E+04 0.  0.
        1    1    3    3  502    0 -0.58758753795E+03 -0.51526044295E+03 -0.11074857017E+04  0.13554619206E+04  0.50400001928E-02 0.  1.
       -1    1    3    3    0  502  0.58758753795E+03  0.51526044295E+03  0.51708685264E+03  0.93708657659E+03  0.50400001928E-02 0. -1.
</event>
<event>
 5   0  0.1815681E-05  0.2204544E+04  0.7818609E-02  0.8516539E-01
        1   -1    0    0  501    0  0.00000000000E+00  0.00000000000E+00  0.18404339503E+04  0.18404339503E+04  0.50400001928E-02 0. -1.
       -1   -1    0    0    0  501  0.00000000000E+00  0.00000000000E+00 -0.66017247838E+03  0.66017247840E+03  0.50400001928E-02 0.  1.
    10030    2    1    2    0    0  0.00000000000E+00  0.00000000000E+00  0.11802614719E+04  0.25006064287E+04  0.22045442543E+04 0.  0.
        2    1    3    3  502    0 -0.79714098127E+03 -0.58109765761E+03  0.11480103810E+04  0.15136168824E+04  0.25500000920E-02 0.  1.
       -2    1    3    3    0  502  0.79714098127E+03  0.58109765761E+03  0.32251090899E+02  0.98698954633E+03  0.25500000920E-02 0. -1.
</event>
<event>
 5   0  0.1788413E-05  0.2196209E+04  0.7818609E-02  0.8520008E-01
        1   -1    0    0  501    0  0.00000000000E+00  0.00000000000E+00  0.19663197358E+04  0.19663197358E+04  0.50400001928E-02 0.  1.
       -1   -1    0    0    0  501  0.00000000000E+00  0.00000000000E+00 -0.61324357598E+03  0.61324357600E+03  0.50400001928E-02 0. -1.
    10030    2    1    2    0    0  0.00000000000E+00  0.00000000000E+00  0.13530761598E+04  0.25795633118E+04  0.21962085022E+04 0.  0.
        1    1    3    3  502    0  0.79210960555E+03  0.56361960280E+03  0.12762831381E+04  0.16043700734E+04  0.50400001928E-02 0.  1.
       -1    1    3    3    0  502 -0.79210960555E+03 -0.56361960280E+03  0.76793021661E+02  0.97519323832E+03  0.50400001928E-02 0. -1.
</event>
<event>
 5   0  0.1433375E-05  0.2208436E+04  0.7818609E-02  0.8514925E-01
       -4   -1    0    0    0  501  0.00000000000E+00  0.00000000000E+00  0.12016154692E+04  0.12016161403E+04  0.12699999809E+01 0.  1.
        4   -1    0    0  501    0  0.00000000000E+00  0.00000000000E+00 -0.10147133780E+04  0.10147141727E+04  0.12699999809E+01 0. -1.
    10030    2    1    2    0    0  0.00000000000E+00  0.00000000000E+00  0.18690209122E+03  0.22163303131E+04  0.22084355696E+04 0.  0.
        2    1    3    3  502    0  0.94045574775E+02 -0.18505370412E+03 -0.99495694158E+03  0.10163802237E+04  0.25500000920E-02 0. -1.
       -2    1    3    3    0  502 -0.94045574775E+02  0.18505370412E+03  0.11818590328E+04  0.11999500894E+04  0.25500000920E-02 0.  1.
</event>
<event>
 5   0  0.3963414E-05  0.2203518E+04  0.7818609E-02  0.8516965E-01
        2   -1    0    0  501    0  0.00000000000E+00  0.00000000000E+00  0.99088689971E+03  0.99088689972E+03  0.25500000920E-02 0.  1.
       -2   -1    0    0    0  501  0.00000000000E+00  0.00000000000E+00 -0.12250370494E+04  0.12250370494E+04  0.25500000920E-02 0. -1.
    10030    2    1    2    0    0  0.00000000000E+00  0.00000000000E+00 -0.23415014965E+03  0.22159239491E+04  0.22035182449E+04 0.  0.
        1    1    3    3  502    0 -0.22665540798E+03 -0.80308341178E+03  0.60638990525E+03  0.10315155634E+04  0.50400001928E-02 0.  1.
       -1    1    3    3    0  502  0.22665540798E+03  0.80308341178E+03 -0.84054005490E+03  0.11844083857E+04  0.50400001928E-02 0. -1.
</event>
<event>
 5   0  0.1815681E-05  0.2217263E+04  0.7818609E-02  0.8511277E-01
        1   -1    0    0  501    0  0.00000000000E+00  0.00000000000E+00  0.14856455373E+04  0.14856455373E+04  0.50400001928E-02 0. -1.
       -1   -1    0    0    0  501  0.00000000000E+00  0.00000000000E+00 -0.82729250551E+03  0.82729250553E+03  0.50400001928E-02 0.  1.
    10030    2    1    2    0    0  0.00000000000E+00  0.00000000000E+00  0.65835303181E+03  0.23129380429E+04  0.22172626537E+04 0.  0.
        2    1    3    3  502    0 -0.76148293636E+03  0.74855828668E+03  0.18206367926E+02  0.10679547007E+04  0.25500000920E-02 0. -1.
       -2    1    3    3    0  502  0.76148293636E+03 -0.74855828668E+03  0.64014666388E+03  0.12449833421E+04  0.25500000920E-02 0.  1.
</event>
<event>
 5   0  0.1815681E-05  0.2207972E+04  0.7818609E-02  0.8515117E-01
        1   -1    0    0  501    0  0.00000000000E+00  0.00000000000E+00  0.97173922853E+03  0.97173922854E+03  0.50400001928E-02 0.  1.
       -1   -1    0    0    0  501  0.00000000000E+00  0.00000000000E+00 -0.12542301570E+04  0.12542301570E+04  0.50400001928E-02 0. -1.
    10030    2    1    2    0    0  0.00000000000E+00  0.00000000000E+00 -0.28249092844E+03  0.22259693855E+04  0.22079715987E+04 0.  0.
        2    1    3    3  502    0  0.65818175449E+03  0.86175309128E+03 -0.35021028088E+03  0.11395037749E+04  0.25500000920E-02 0. -1.
       -2    1    3    3    0  502 -0.65818175449E+03 -0.86175309128E+03  0.67719352442E+02  0.10864656106E+04  0.25500000920E-02 0.  1.
</event>
<event>
 5   0  0.4143281E-05  0.2234233E+04  0.7818609E-02  0.8504313E-01
       -2   -1    0    0    0  501  0.00000000000E+00  0.00000000000E+00  0.69932175085E+03  0.69932175086E+03  0.25500000920E-02 0.  1.
        2   -1    0    0  501    0  0.00000000000E+00  0.00000000000E+00 -0.17845143969E+04  0.17845143969E+04  0.25500000920E-02 0. -1.
    10030    2    1    2    0    0  0.00000000000E+00  0.00000000000E+00 -0.10851926461E+04  0.24838361478E+04  0.22342334099E+04 0.  0.
        2    1    3    3  502    0 -0.21012073504E+03 -0.41861185568E+03  0.58488634947E+03  0.74931879118E+03  0.25500000920E-02 0.  1.
       -2    1    3    3    0  502  0.21012073504E+03  0.41861185568E+03 -0.16700789955E+04  0.17345173566E+04  0.25500000920E-02 0. -1.
</event>
<event>
 5   0  0.1884407E-05  0.2120879E+04  0.7818609E-02  0.8552101E-01
        1   -1    0    0  501    0  0.00000000000E+00  0.00000000000E+00  0.25601783553E+04  0.25601783553E+04  0.50400001928E-02 0. -1.
       -1   -1    0    0    0  501  0.00000000000E+00  0.00000000000E+00 -0.43923987956E+03  0.43923987959E+03  0.50400001928E-02 0.  1.
    10030    2    1    2    0    0  0.00000000000E+00  0.00000000000E+00  0.21209384758E+04  0.29994182349E+04  0.21208794709E+04 0.  0.
        3    1    3    3  502    0  0.22624214425E+03  0.39191352507E+03 -0.29583182901E+03  0.54064609517E+03  0.10100000352E+00 0.  1.
       -3    1    3    3    0  502 -0.22624214425E+03 -0.39191352507E+03  0.24167703048E+04  0.24587721397E+04  0.10100000352E+00 0. -1.
</event>
<event>
 5   0  0.4027923E-05  0.2194147E+04  0.7818609E-02  0.8520868E-01
        2   -1    0    0  501    0  0.00000000000E+00  0.00000000000E+00  0.14277247629E+04  0.14277247629E+04  0.25500000920E-02 0.  1.
       -2   -1    0    0    0  501  0.00000000000E+00  0.00000000000E+00 -0.84299885167E+03  0.84299885168E+03  0.25500000920E-02 0. -1.
    10030    2    1    2    0    0  0.00000000000E+00  0.00000000000E+00  0.58472591125E+03  0.22707236146E+04  0.21941470649E+04 0.  0.
        5    1    3    3  502    0  0.91498091887E+03  0.44314274635E+03 -0.13431564955E+03  0.10254893267E+04  0.46999998093E+01 0. -1.
       -5    1    3    3    0  502 -0.91498091887E+03 -0.44314274635E+03  0.71904156080E+03  0.12452342879E+04  0.46999998093E+01 0.  1.
</event>
<event>
 5   0  0.1884407E-05  0.2219160E+04  0.7818609E-02  0.8510495E-01
       -1   -1    0    0    0  501  0.00000000000E+00  0.00000000000E+00  0.66014671123E+03  0.66014671125E+03  0.50400001928E-02 0.  1.
        1   -1    0    0  501    0  0.00000000000E+00  0.00000000000E+00 -0.18649917784E+04  0.18649917784E+04  0.50400001928E-02 0. -1.
    10030    2    1    2    0    0  0.00000000000E+00  0.00000000000E+00 -0.12048450672E+04  0.25251384897E+04  0.22191603719E+04 0.  0.
        3    1    3    3  502    0 -0.79212220884E+02 -0.21999842358E+03  0.63179418857E+03  0.67367483939E+03  0.10100000352E+00 0.  1.
       -3    1    3    3    0  502  0.79212220884E+02  0.21999842358E+03 -0.18366392558E+04  0.18514636503E+04  0.10100000352E+00 0. -1.
</event>
<event>
 5   0  0.4143281E-05  0.2212258E+04  0.7818609E-02  0.8513343E-01
        2   -1    0    0  501    0  0.00000000000E+00  0.00000000000E+00  0.10890981440E+04  0.10890981440E+04  0.25500000920E-02 0. -1.
       -2   -1    0    0    0  501  0.00000000000E+00  0.00000000000E+00 -0.11234260818E+04  0.11234260818E+04  0.25500000920E-02 0.  1.
    10030    2    1    2    0    0  0.00000000000E+00  0.00000000000E+00 -0.34327937802E+02  0.22125242259E+04  0.22122579060E+04 0.  0.
        2    1    3    3  502    0 -0.34560046973E+03  0.42681976557E+03 -0.97743915976E+03  0.11211610536E+04  0.25500000920E-02 0.  1.
       -2    1    3    3    0  502  0.34560046973E+03 -0.42681976557E+03  0.94311122196E+03  0.10913631723E+04  0.25500000920E-02 0. -1.
</event>
<event>
 5   0  0.4143281E-05  0.2197297E+04  0.7818609E-02  0.8519554E-01
        2   -1    0    0  501    0  0.00000000000E+00  0.00000000000E+00  0.81780314332E+03  0.81780314332E+03  0.25500000920E-02 0.  1.
       -2   -1    0    0    0  501  0.00000000000E+00  0.00000000000E+00 -0.14759397062E+04  0.14759397062E+04  0.25500000920E-02 0. -1.
    10030    2    1    2    0    0  0.00000000000E+00  0.00000000000E+00 -0.65813656285E+03  0.22937428495E+04  0.21972966400E+04 0.  0.
        2    1    3    3  502    0  0.10609950763E+04  0.36919818381E+02 -0.62424187925E+03  0.12315646750E+04  0.25500000920E-02 0. -1.
       -2    1    3    3    0  502 -0.10609950763E+04 -0.36919818381E+02 -0.33894683602E+02  0.10621781745E+04  0.25500000920E-02 0.  1.
</event>
<event>
 5   0  0.1788413E-05  0.2194682E+04  0.7818609E-02  0.8520645E-01
       -1   -1    0    0    0  501  0.00000000000E+00  0.00000000000E+00  0.12627429378E+04  0.12627429378E+04  0.50400001928E-02 0.  1.
        1   -1    0    0  501    0  0.00000000000E+00  0.00000000000E+00 -0.95360472301E+03  0.95360472302E+03  0.50400001928E-02 0. -1.
    10030    2    1    2    0    0  0.00000000000E+00  0.00000000000E+00  0.30913821475E+03  0.22163476608E+04  0.21946823273E+04 0.  0.
        1    1    3    3  502    0  0.11156619673E+03  0.34638081286E+03  0.12000331602E+04  0.12539961202E+04  0.50400001928E-02 0.  1.
       -1    1    3    3    0  502 -0.11156619673E+03 -0.34638081286E+03 -0.89089494549E+03  0.96235154060E+03  0.50400001928E-02 0. -1.
</event>
<event>
 5   0  0.4029532E-05  0.2192140E+04  0.7818609E-02  0.8521707E-01
       -2   -1    0    0    0  501  0.00000000000E+00  0.00000000000E+00  0.67484058103E+03  0.67484058104E+03  0.25500000920E-02 0. -1.
        2   -1    0    0  501    0  0.00000000000E+00  0.00000000000E+00 -0.17802267684E+04  0.17802267684E+04  0.25500000920E-02 0.  1.
    10030    2    1    2    0    0  0.00000000000E+00  0.00000000000E+00 -0.11053861874E+04  0.24550673494E+04  0.21921398375E+04 0.  0.
        3    1    3    3  502    0  0.51712899826E+03  0.54238589878E+03  0.34309479930E+03  0.82420805356E+03  0.10100000352E+00 0. -1.
       -3    1    3    3    0  502 -0.51712899826E+03 -0.54238589878E+03 -0.14484809867E+04  0.16308592959E+04  0.10100000352E+00 0.  1.
</event>
<event>
 5   0  0.4143281E-05  0.2189426E+04  0.7818609E-02  0.8522842E-01
       -2   -1    0    0    0  501  0.00000000000E+00  0.00000000000E+00  0.41861193223E+03  0.41861193224E+03  0.25500000920E-02 0.  1.
        2   -1    0    0  501    0  0.00000000000E+00  0.00000000000E+00 -0.28627864269E+04  0.28627864269E+04  0.25500000920E-02 0. -1.
    10030    2    1    2    0    0  0.00000000000E+00  0.00000000000E+00 -0.24441744947E+04  0.32813983592E+04  0.21894260049E+04 0.  0.
        2    1    3    3  502    0  0.48741460966E+03 -0.53838786818E+03 -0.24497460042E+04  0.25551301304E+04  0.25500000920E-02 0. -1.
       -2    1    3    3    0  502 -0.48741460966E+03  0.53838786818E+03  0.55715095382E+01  0.72626822871E+03  0.25500000920E-02 0.  1.
</event>
<event>
 5   0  0.1884407E-05  0.2178371E+04  0.7818609E-02  0.8527485E-01
       -1   -1    0    0    0  501  0.00000000000E+00  0.00000000000E+00  0.58888128551E+03  0.58888128553E+03  0.50400001928E-02 0. -1.
        1   -1    0    0  501    0  0.00000000000E+00  0.00000000000E+00 -0.20145403666E+04  0.20145403666E+04  0.50400001928E-02 0.  1.
    10030    2    1    2    0    0  0.00000000000E+00  0.00000000000E+00 -0.14256590810E+04  0.26034216521E+04  0.21783710619E+04 0.  0.
        3    1    3    3  502    0 -0.82870542494E+03  0.42971030983E+03 -0.42151951392E+02  0.93444123888E+03  0.10100000352E+00 0. -1.
       -3    1    3    3    0  502  0.82870542494E+03 -0.42971030983E+03 -0.13835071297E+04  0.16689804132E+04  0.10100000352E+00 0.  1.
</event>
<event>
 5   0  0.1884407E-05  0.2023426E+04  0.7818609E-02  0.8595746E-01
       -1   -1    0    0    0  501  0.00000000000E+00  0.00000000000E+00  0.94051165230E+03  0.94051165231E+03  0.50400001928E-02 0.  1.
        1   -1    0    0  501    0  0.00000000000E+00  0.00000000000E+00 -0.10883048694E+04  0.10883048694E+04  0.50400001928E-02 0. -1.
    10030    2    1    2    0    0  0.00000000000E+00  0.00000000000E+00 -0.14779321711E+03  0.20288165217E+04  0.20234262141E+04 0.  0.
        3    1    3    3  502    0  0.61705364780E+03 -0.77597854905E+03 -0.27609066931E+03  0.10291374936E+04  0.10100000352E+00 0.  1.
       -3    1    3    3    0  502 -0.61705364780E+03  0.77597854905E+03  0.12829745219E+03  0.99967902814E+03  0.10100000352E+00 0. -1.
</event>
<event>
 5   0  0.1866935E-05  0.2199785E+04  0.7818609E-02  0.8518518E-01
       -1   -1    0    0    0  501  0.00000000000E+00  0.00000000000E+00  0.10694811612E+04  0.10694811612E+04  0.50400001928E-02 0.  1.
        1   -1    0    0  501    0  0.00000000000E+00  0.00000000000E+00 -0.11311683728E+04  0.11311683729E+04  0.50400001928E-02 0. -1.
    10030    2    1    2    0    0  0.00000000000E+00  0.00000000000E+00 -0.61687211633E+02  0.22006495341E+04  0.21997847758E+04 0.  0.
        4    1    3    3  502    0 -0.10950734469E+04 -0.28630866123E+02 -0.12965526140E+03  0.11030945927E+04  0.12699999809E+01 0.  1.
       -4    1    3    3    0  502  0.10950734469E+04  0.28630866123E+02  0.67968049767E+02  0.10975549414E+04  0.12699999809E+01 0. -1.
</event>
<event>
 5   0  0.4029532E-05  0.2155394E+04  0.7818609E-02  0.8537227E-01
       -2   -1    0    0    0  501  0.00000000000E+00  0.00000000000E+00  0.75655629174E+03  0.75655629174E+03  0.25500000920E-02 0.  1.
        2   -1    0    0  501    0  0.00000000000E+00  0.00000000000E+00 -0.15351551878E+04  0.15351551878E+04  0.25500000920E-02 0. -1.
    10030    2    1    2    0    0  0.00000000000E+00  0.00000000000E+00 -0.77859889603E+03  0.22917114795E+04  0.21553944568E+04 0.  0.
        3    1    3    3  502    0 -0.24515595037E+03 -0.96920355043E+03 -0.81721324862E+03  0.12912375715E+04  0.10100000352E+00 0. -1.
       -3    1    3    3    0  502  0.24515595037E+03  0.96920355043E+03  0.38614352583E+02  0.10004739080E+04  0.10100000352E+00 0.  1.
</event>
<event>
 5   0  0.4143281E-05  0.2201222E+04  0.7818609E-02  0.8517920E-01
        2   -1    0    0  501    0  0.00000000000E+00  0.00000000000E+00  0.70664783176E+03  0.70664783177E+03  0.25500000920E-02 0. -1.
       -2   -1    0    0    0  501  0.00000000000E+00  0.00000000000E+00 -0.17142120589E+04  0.17142120589E+04  0.25500000920E-02 0.  1.
    10030    2    1    2    0    0  0.00000000000E+00  0.00000000000E+00 -0.10075642271E+04  0.24208598906E+04  0.22012216922E+04 0.  0.
        2    1    3    3  502    0 -0.57636512327E+03  0.63279890444E+03 -0.12647099878E+04  0.15271288623E+04  0.25500000920E-02 0.  1.
       -2    1    3    3    0  502  0.57636512327E+03 -0.63279890444E+03  0.25714576070E+03  0.89373102835E+03  0.25500000920E-02 0. -1.
</event>
<event>
 5   0  0.4132460E-05  0.2213109E+04  0.7818609E-02  0.8512992E-01
        2   -1    0    0  501    0  0.00000000000E+00  0.00000000000E+00  0.11999116928E+04  0.11999116928E+04  0.25500000920E-02 0.  1.
       -2   -1    0    0    0  501  0.00000000000E+00  0.00000000000E+00 -0.10204606872E+04  0.10204606872E+04  0.25500000920E-02 0. -1.
    10030    2    1    2    0    0  0.00000000000E+00  0.00000000000E+00  0.17945100561E+03  0.22203723801E+04  0.22131088637E+04 0.  0.
        4    1    3    3  502    0 -0.85432278953E+03 -0.59531563872E+03  0.46537787919E+03  0.11405465014E+04  0.12699999809E+01 0.  1.
       -4    1    3    3    0  502  0.85432278953E+03  0.59531563872E+03 -0.28592687358E+03  0.10798258787E+04  0.12699999809E+01 0. -1.
</event>
<event>
 5   0  0.1815681E-05  0.2192699E+04  0.7818609E-02  0.8521473E-01
       -1   -1    0    0    0  501  0.00000000000E+00  0.00000000000E+00  0.68714389841E+03  0.68714389842E+03  0.50400001928E-02 0. -1.
        1   -1    0    0  501    0  0.00000000000E+00  0.00000000000E+00 -0.17492445773E+04  0.17492445774E+04  0.50400001928E-02 0.  1.
    10030    2    1    2    0    0  0.00000000000E+00  0.00000000000E+00 -0.10621006789E+04  0.24363884758E+04  0.21926994670E+04 0.  0.
        2    1    3    3  502    0  0.19140016865E+03  0.22461228925E+03 -0.17042853120E+04  0.17296453768E+04  0.25500000920E-02 0.  1.
       -2    1    3    3    0  502 -0.19140016865E+03 -0.22461228925E+03  0.64218463301E+03  0.70674309895E+03  0.25500000920E-02 0. -1.
</event>
<event>
 5   0  0.1433375E-05  0.2194227E+04  0.7818609E-02  0.8520835E-01
       -3   -1    0    0    0  501  0.00000000000E+00  0.00000000000E+00  0.14981041250E+04  0.14981041284E+04  0.10100000352E+00 0. -1.
        3   -1    0    0  501    0  0.00000000000E+00  0.00000000000E+00 -0.80345425179E+03  0.80345425814E+03  0.10100000352E+00 0.  1.
    10030    2    1    2    0    0  0.00000000000E+00  0.00000000000E+00  0.69464987323E+03  0.23015583866E+04  0.21942270986E+04 0.  0.
        1    1    3    3  502    0 -0.80594477856E+03 -0.40582111505E+03 -0.30723551017E+03  0.95322160186E+03  0.50400001928E-02 0.  1.
       -1    1    3    3    0  502  0.80594477856E+03  0.40582111505E+03  0.10018853834E+04  0.13483367847E+04  0.50400001928E-02 0. -1.
</event>
<event>
 5   0  0.3963414E-05  0.2200140E+04  0.7818609E-02  0.8518370E-01
        2   -1    0    0  501    0  0.00000000000E+00  0.00000000000E+00  0.26455361252E+04  0.26455361252E+04  0.25500000920E-02 0. -1.
       -2   -1    0    0    0  501  0.00000000000E+00  0.00000000000E+00 -0.45743239890E+03  0.45743239890E+03  0.25500000920E-02 0.  1.
    10030    2    1    2    0    0  0.00000000000E+00  0.00000000000E+00  0.21881037263E+04  0.31029685241E+04  0.22001399375E+04 0.  0.
        1    1    3    3  502    0 -0.70439636480E+03  0.71930046347E+03  0.17193742196E+04  0.19924394853E+04  0.50400001928E-02 0. -1.
       -1    1    3    3    0  502  0.70439636480E+03 -0.71930046347E+03  0.46872950664E+03  0.11105290388E+04  0.50400001928E-02 0.  1.
</event>
<event>
 5   0  0.4143281E-05  0.2202729E+04  0.7818609E-02  0.8517293E-01
        2   -1    0    0  501    0  0.00000000000E+00  0.00000000000E+00  0.84040814799E+03  0.84040814799E+03  0.25500000920E-02 0.  1.
       -2   -1    0    0    0  501  0.00000000000E+00  0.00000000000E+00 -0.14433513329E+04  0.14433513329E+04  0.25500000920E-02 0. -1.
    10030    2    1    2    0    0  0.00000000000E+00  0.00000000000E+00 -0.60294318490E+03  0.22837594809E+04  0.22027294165E+04 0.  0.
        2    1    3    3  502    0  0.13957961232E+03  0.10821522497E+04 -0.14606338849E+03  0.11008498867E+04  0.25500000920E-02 0.  1.
       -2    1    3    3    0  502 -0.13957961232E+03 -0.10821522497E+04 -0.45687979640E+03  0.11829095942E+04  0.25500000920E-02 0. -1.
</event>
<event>
 5   0  0.1788413E-05  0.2188403E+04  0.7818609E-02  0.8523271E-01
       -1   -1    0    0    0  501  0.00000000000E+00  0.00000000000E+00  0.21108050572E+04  0.21108050572E+04  0.50400001928E-02 0. -1.
        1   -1    0    0  501    0  0.00000000000E+00  0.00000000000E+00 -0.56721323419E+03  0.56721323421E+03  0.50400001928E-02 0.  1.
    10030    2    1    2    0    0  0.00000000000E+00  0.00000000000E+00  0.15435918230E+04  0.26780182915E+04  0.21884026716E+04 0.  0.
        1    1    3    3  502    0 -0.87903950462E+03  0.47693313183E+03  0.22850729328E+03  0.10258612216E+04  0.50400001928E-02 0.  1.
       -1    1    3    3    0  502  0.87903950462E+03 -0.47693313183E+03  0.13150845298E+04  0.16521570698E+04  0.50400001928E-02 0. -1.
</event>
<event>
 5   0  0.1884407E-05  0.2204845E+04  0.7818609E-02  0.8516414E-01
       -1   -1    0    0    0  501  0.00000000000E+00  0.00000000000E+00  0.64153111170E+03  0.64153111172E+03  0.50400001928E-02 0.  1.
        1   -1    0    0  501    0  0.00000000000E+00  0.00000000000E+00 -0.18944292280E+04  0.18944292280E+04  0.50400001928E-02 0. -1.
    10030    2    1    2    0    0  0.00000000000E+00  0.00000000000E+00 -0.12528981163E+04  0.25359603398E+04  0.22048449276E+04 0.  0.
        3    1    3    3  502    0  0.66616180303E+03  0.28121678092E+03  0.33067513112E+03  0.79511035601E+03  0.10100000352E+00 0.  1.
       -3    1    3    3    0  502 -0.66616180303E+03 -0.28121678092E+03 -0.15835732474E+04  0.17408499838E+04  0.10100000352E+00 0. -1.
</event>
<event>
 5   0  0.1866935E-05  0.2193984E+04  0.7818609E-02  0.8520936E-01
        1   -1    0    0  501    0  0.00000000000E+00  0.00000000000E+00  0.18377390774E+04  0.18377390774E+04  0.50400001928E-02 0. -1.
       -1   -1    0    0    0  501  0.00000000000E+00  0.00000000000E+00 -0.65482193842E+03  0.65482193844E+03  0.50400001928E-02 0.  1.
    10030    2    1    2    0    0  0.00000000000E+00  0.00000000000E+00  0.11829171390E+04  0.24925610159E+04  0.21939843801E+04 0.  0.
        4    1    3    3  502    0 -0.92180198192E+02 -0.87004982571E+03 -0.16034242404E+03  0.88949153678E+03  0.12699999809E+01 0.  1.
       -4    1    3    3    0  502  0.92180198192E+02  0.87004982571E+03  0.13432595630E+04  0.16030694791E+04  0.12699999809E+01 0. -1.
</event>
<event>
 5   0  0.1788413E-05  0.2210351E+04  0.7818609E-02  0.8514132E-01
       -1   -1    0    0    0  501  0.00000000000E+00  0.00000000000E+00  0.64086263058E+03  0.64086263060E+03  0.50400001928E-02 0.  1.
        1   -1    0    0  501    0  0.00000000000E+00  0.00000000000E+00 -0.19058889973E+04  0.19058889973E+04  0.50400001928E-02 0. -1.
    10030    2    1    2    0    0  0.00000000000E+00  0.00000000000E+00 -0.12650263667E+04  0.25467516279E+04  0.22103511363E+04 0.  0.
        1    1    3    3  502    0 -0.32311598889E+03 -0.12253855944E+03 -0.18420380936E+04  0.18741728787E+04  0.50400001928E-02 0. -1.
       -1    1    3    3    0  502  0.32311598889E+03  0.12253855944E+03  0.57701172693E+03  0.67257874919E+03  0.50400001928E-02 0.  1.
</event>
<event>
 5   0  0.4029532E-05  0.2184738E+04  0.7818609E-02  0.8524807E-01
       -2   -1    0    0    0  501  0.00000000000E+00  0.00000000000E+00  0.11664051718E+04  0.11664051718E+04  0.25500000920E-02 0.  1.
        2   -1    0    0  501    0  0.00000000000E+00  0.00000000000E+00 -0.10230322658E+04  0.10230322658E+04  0.25500000920E-02 0. -1.
    10030    2    1    2    0    0  0.00000000000E+00  0.00000000000E+00  0.14337290594E+03  0.21894374376E+04  0.21847380857E+04 0.  0.
        3    1    3    3  502    0  0.39441026709E+02  0.10795592797E+04  0.23410382049E+03  0.11053544417E+04  0.10100000352E+00 0. -1.
       -3    1    3    3    0  502 -0.39441026709E+02 -0.10795592797E+04 -0.90730914545E+02  0.10840829959E+04  0.10100000352E+00 0.  1.
</event>
<event>
 5   0  0.1815681E-05  0.2196493E+04  0.7818609E-02  0.8519889E-01
        1   -1    0    0  501    0  0.00000000000E+00  0.00000000000E+00  0.10342491251E+04  0.10342491251E+04  0.50400001928E-02 0. -1.
       -1   -1    0    0    0  501  0.00000000000E+00  0.00000000000E+00 -0.11662037606E+04  0.11662037606E+04  0.50400001928E-02 0.  1.
    10030    2    1    2    0    0  0.00000000000E+00  0.00000000000E+00 -0.13195463549E+03  0.22004528857E+04  0.21964928583E+04 0.  0.
        2    1    3    3  502    0 -0.10256477413E+04 -0.39267021740E+03 -0.67404739869E+02  0.11003120411E+04  0.25500000920E-02 0.  1.
       -2    1    3    3    0  502  0.10256477413E+04  0.39267021740E+03 -0.64549895625E+02  0.11001408446E+04  0.25500000920E-02 0. -1.
</event>
<event>
 5   0  0.3963414E-05  0.2177097E+04  0.7818609E-02  0.8528022E-01
        2   -1    0    0  501    0  0.00000000000E+00  0.00000000000E+00  0.23301355789E+04  0.23301355789E+04  0.25500000920E-02 0.  1.
       -2   -1    0    0    0  501  0.00000000000E+00  0.00000000000E+00 -0.50852763706E+03  0.50852763707E+03  0.25500000920E-02 0. -1.
    10030    2    1    2    0    0  0.00000000000E+00  0.00000000000E+00  0.18216079418E+04  0.28386632160E+04  0.21770974622E+04 0.  0.
        1    1    3    3  502    0  0.75259853042E+03  0.70996199018E+03  0.46962425554E+03  0.11362207166E+04  0.50400001928E-02 0. -1.
       -1    1    3    3    0  502 -0.75259853042E+03 -0.70996199018E+03  0.13519836863E+04  0.17024424993E+04  0.50400001928E-02 0.  1.
</event>
<event>
 5   0  0.1815681E-05  0.2229345E+04  0.7818609E-02  0.8506312E-01
       -1   -1    0    0    0  501  0.00000000000E+00  0.00000000000E+00  0.74082083314E+03  0.74082083316E+03  0.50400001928E-02 0.  1.
        1   -1    0    0  501    0  0.00000000000E+00  0.00000000000E+00 -0.16771864834E+04  0.16771864834E+04  0.50400001928E-02 0. -1.
    10030    2    1    2    0    0  0.00000000000E+00  0.00000000000E+00 -0.93636565026E+03  0.24180073166E+04  0.22293449154E+04 0.  0.
        2    1    3    3  502    0  0.70785728057E+03  0.83244846515E+03 -0.22941137025E+03  0.11165401711E+04  0.25500000920E-02 0.  1.
       -2    1    3    3    0  502 -0.70785728057E+03 -0.83244846515E+03 -0.70695428001E+03  0.13014671455E+04  0.25500000920E-02 0. -1.
</event>
<event>
 5   0  0.1884407E-05  0.2148512E+04  0.7818609E-02  0.8540169E-01
       -1   -1    0    0    0  501  0.00000000000E+00  0.00000000000E+00  0.11355851107E+04  0.11355851107E+04  0.50400001928E-02 0.  1.
        1   -1    0    0  501    0  0.00000000000E+00  0.00000000000E+00 -0.10162391041E+04  0.10162391041E+04  0.50400001928E-02 0. -1.
    10030    2    1    2    0    0  0.00000000000E+00  0.00000000000E+00  0.11934600657E+03  0.21518242148E+04  0.21485120391E+04 0.  0.
        3    1    3    3  502    0 -0.10658496302E+03 -0.24596523125E+03  0.11015491351E+04  0.11336973832E+04  0.10100000352E+00 0.  1.
       -3    1    3    3    0  502  0.10658496302E+03  0.24596523125E+03 -0.98220312857E+03  0.10181268316E+04  0.10100000352E+00 0. -1.
</event>
<event>
 5   0  0.3963414E-05  0.2188377E+04  0.7818609E-02  0.8523282E-01
       -2   -1    0    0    0  501  0.00000000000E+00  0.00000000000E+00  0.10492753386E+04  0.10492753386E+04  0.25500000920E-02 0. -1.
        2   -1    0    0  501    0  0.00000000000E+00  0.00000000000E+00 -0.11410237219E+04  0.11410237219E+04  0.25500000920E-02 0.  1.
    10030    2    1    2    0    0  0.00000000000E+00  0.00000000000E+00 -0.91748383295E+02  0.21902990604E+04  0.21883766148E+04 0.  0.
        1    1    3    3  502    0 -0.26051165419E+03  0.10089616995E+04 -0.37990082499E+03  0.11091414111E+04  0.50400001928E-02 0.  1.
       -1    1    3    3    0  502  0.26051165419E+03 -0.10089616995E+04  0.28815244169E+03  0.10811576493E+04  0.50400001928E-02 0. -1.
</event>
<event>
 5   0  0.1866935E-05  0.2196429E+04  0.7818609E-02  0.8519916E-01
       -1   -1    0    0    0  501  0.00000000000E+00  0.00000000000E+00  0.10795576858E+04  0.10795576858E+04  0.50400001928E-02 0. -1.
        1   -1    0    0  501    0  0.00000000000E+00  0.00000000000E+00 -0.11171942420E+04  0.11171942420E+04  0.50400001928E-02 0.  1.
    10030    2    1    2    0    0  0.00000000000E+00  0.00000000000E+00 -0.37636556154E+02  0.21967519278E+04  0.21964294940E+04 0.  0.
        4    1    3    3  502    0  0.17855938299E+03  0.95548821144E+03  0.49236617520E+03  0.10896179325E+04  0.12699999809E+01 0. -1.
       -4    1    3    3    0  502 -0.17855938299E+03 -0.95548821144E+03 -0.53000273135E+03  0.11071339953E+04  0.12699999809E+01 0.  1.
</event>
<event>
 5   0  0.4143281E-05  0.2193007E+04  0.7818609E-02  0.8521344E-01
        2   -1    0    0  501    0  0.00000000000E+00  0.00000000000E+00  0.13241051152E+04  0.13241051152E+04  0.25500000920E-02 0.  1.
       -2   -1    0    0    0  501  0.00000000000E+00  0.00000000000E+00 -0.90802445705E+03  0.90802445705E+03  0.25500000920E-02 0. -1.
    10030    2    1    2    0    0  0.00000000000E+00  0.00000000000E+00  0.41608065812E+03  0.22321295722E+04  0.21930069113E+04 0.  0.
        2    1    3    3  502    0 -0.60867933149E+03 -0.62818504620E+02  0.11341531972E+04  0.12886970815E+04  0.25500000920E-02 0.  1.
       -2    1    3    3    0  502  0.60867933149E+03  0.62818504620E+02 -0.71807253910E+03  0.94343249071E+03  0.25500000920E-02 0. -1.
</event>
<event>
 5   0  0.1786228E-05  0.2204845E+04  0.7818609E-02  0.8516414E-01
        1   -1    0    0  501    0  0.00000000000E+00  0.00000000000E+00  0.14271057112E+04  0.14271057112E+04  0.50400001928E-02 0. -1.
       -1   -1    0    0    0  501  0.00000000000E+00  0.00000000000E+00 -0.85160839216E+03  0.85160839218E+03  0.50400001928E-02 0.  1.
    10030    2    1    2    0    0  0.00000000000E+00  0.00000000000E+00  0.57549731907E+03  0.22787141034E+04  0.22048448473E+04 0.  0.
        5    1    3    3  502    0  0.84313141175E+02 -0.10676025692E+04  0.55810241489E+03  0.12076358503E+04  0.46999998093E+01 0. -1.
       -5    1    3    3    0  502 -0.84313141175E+02  0.10676025692E+04  0.17394904173E+02  0.10710782531E+04  0.46999998093E+01 0.  1.
</event>
<event>
 5   0  0.4029532E-05  0.2199974E+04  0.7818609E-02  0.8518439E-01
        2   -1    0    0  501    0  0.00000000000E+00  0.00000000000E+00  0.10577746528E+04  0.10577746528E+04  0.25500000920E-02 0.  1.
       -2   -1    0    0    0  501  0.00000000000E+00  0.00000000000E+00 -0.11438843195E+04  0.11438843195E+04  0.25500000920E-02 0. -1.
    10030    2    1    2    0    0  0.00000000000E+00  0.00000000000E+00 -0.86109666674E+02  0.22016589723E+04  0.21999743989E+04 0.  0.
        3    1    3    3  502    0 -0.80314670178E+03  0.33429431427E+03  0.63064301779E+03  0.10744803112E+04  0.10100000352E+00 0.  1.
       -3    1    3    3    0  502  0.80314670178E+03 -0.33429431427E+03 -0.71675268446E+03  0.11271786611E+04  0.10100000352E+00 0. -1.
</event>
<event>
 5   0  0.1815681E-05  0.2193448E+04  0.7818609E-02  0.8521160E-01
        1   -1    0    0  501    0  0.00000000000E+00  0.00000000000E+00  0.15882148446E+04  0.15882148446E+04  0.50400001928E-02 0.  1.
       -1   -1    0    0    0  501  0.00000000000E+00  0.00000000000E+00 -0.75733067741E+03  0.75733067743E+03  0.50400001928E-02 0. -1.
    10030    2    1    2    0    0  0.00000000000E+00  0.00000000000E+00  0.83088416722E+03  0.23455455221E+04  0.21934482663E+04 0.  0.
        2    1    3    3  502    0 -0.56840030271E+02 -0.36870833673E+03 -0.68739455864E+03  0.78210479213E+03  0.25500000920E-02 0. -1.
       -2    1    3    3    0  502  0.56840030271E+02  0.36870833673E+03  0.15182787259E+04  0.15634407299E+04  0.25500000920E-02 0.  1.
</event>
<event>
 5   0  0.4143281E-05  0.2190570E+04  0.7818609E-02  0.8522363E-01
        2   -1    0    0  501    0  0.00000000000E+00  0.00000000000E+00  0.10489268807E+04  0.10489268807E+04  0.25500000920E-02 0. -1.
       -2   -1    0    0    0  501  0.00000000000E+00  0.00000000000E+00 -0.11436916777E+04  0.11436916777E+04  0.25500000920E-02 0.  1.
    10030    2    1    2    0    0  0.00000000000E+00  0.00000000000E+00 -0.94764797033E+02  0.21926185584E+04  0.21905697377E+04 0.  0.
        2    1    3    3  502    0 -0.48710653734E+03  0.81379562637E+03 -0.59572033456E+03  0.11200084005E+04  0.25500000920E-02 0.  1.
       -2    1    3    3    0  502  0.48710653734E+03 -0.81379562637E+03  0.50095553752E+03  0.10726101579E+04  0.25500000920E-02 0. -1.
</event>
<event>
 5   0  0.3963414E-05  0.2197807E+04  0.7818609E-02  0.8519342E-01
        2   -1    0    0  501    0  0.00000000000E+00  0.00000000000E+00  0.12714969268E+04  0.12714969268E+04  0.25500000920E-02 0. -1.
       -2   -1    0    0    0  501  0.00000000000E+00  0.00000000000E+00 -0.94973780664E+03  0.94973780664E+03  0.25500000920E-02 0.  1.
    10030    2    1    2    0    0  0.00000000000E+00  0.00000000000E+00  0.32175912012E+03  0.22212347334E+04  0.21978068181E+04 0.  0.
        1    1    3    3  502    0 -0.79847660922E+03  0.20537296391E+03  0.89515407527E+03  0.12169814166E+04  0.50400001928E-02 0. -1.
       -1    1    3    3    0  502  0.79847660922E+03 -0.20537296391E+03 -0.57339495515E+03  0.10042533168E+04  0.50400001928E-02 0.  1.
</event>
<event>
 5   0  0.1884407E-05  0.2205923E+04  0.7818609E-02  0.8515967E-01
       -1   -1    0    0    0  501  0.00000000000E+00  0.00000000000E+00  0.14079193725E+04  0.14079193725E+04  0.50400001928E-02 0.  1.
        1   -1    0    0  501    0  0.00000000000E+00  0.00000000000E+00 -0.86405780048E+03  0.86405780050E+03  0.50400001928E-02 0. -1.
    10030    2    1    2    0    0  0.00000000000E+00  0.00000000000E+00  0.54386157203E+03  0.22719771730E+04  0.22059226789E+04 0.  0.
        3    1    3    3  502    0  0.50858460886E+03 -0.63124459612E+03  0.10422544243E+04  0.13203871931E+04  0.10100000352E+00 0.  1.
       -3    1    3    3    0  502 -0.50858460886E+03  0.63124459612E+03 -0.49839285227E+03  0.95158997993E+03  0.10100000352E+00 0. -1.
</event>
<event>
 5   0  0.1866935E-05  0.2208987E+04  0.7818609E-02  0.8514697E-01
       -1   -1    0    0    0  501  0.00000000000E+00  0.00000000000E+00  0.13553931084E+04  0.13553931084E+04  0.50400001928E-02 0. -1.
        1   -1    0    0  501    0  0.00000000000E+00  0.00000000000E+00 -0.90003883668E+03  0.90003883670E+03  0.50400001928E-02 0.  1.
    10030    2    1    2    0    0  0.00000000000E+00  0.00000000000E+00  0.45535427175E+03  0.22554319451E+04  0.22089874935E+04 0.  0.
        4    1    3    3  502    0  0.76838062297E+02  0.98901438439E+03  0.72353315809E+03  0.12278254697E+04  0.12699999809E+01 0. -1.
       -4    1    3    3    0  502 -0.76838062297E+02 -0.98901438439E+03 -0.26817888634E+03  0.10276064754E+04  0.12699999809E+01 0.  1.
</event>
<event>
 5   0  0.4143281E-05  0.2190379E+04  0.7818609E-02  0.8522443E-01
       -2   -1    0    0    0  501  0.00000000000E+00  0.00000000000E+00  0.49626640096E+03  0.49626640097E+03  0.25500000920E-02 0. -1.
        2   -1    0    0  501    0  0.00000000000E+00  0.00000000000E+00 -0.24169272165E+04  0.24169272165E+04  0.25500000920E-02 0.  1.
    10030    2    1    2    0    0  0.00000000000E+00  0.00000000000E+00 -0.19206608155E+04  0.29131936174E+04  0.21903787536E+04 0.  0.
        2    1    3    3  502    0  0.10345337419E+04 -0.10158414477E+03 -0.14188613729E+04  0.17589050564E+04  0.25500000920E-02 0.  1.
       -2    1    3    3    0  502 -0.10345337419E+04  0.10158414477E+03 -0.50179944254E+03  0.11542885611E+04  0.25500000920E-02 0. -1.
</event>
<event>
 5   0  0.4132460E-05  0.2202801E+04  0.7818609E-02  0.8517263E-01
       -2   -1    0    0    0  501  0.00000000000E+00  0.00000000000E+00  0.91164757030E+03  0.91164757031E+03  0.25500000920E-02 0. -1.
        2   -1    0    0  501    0  0.00000000000E+00  0.00000000000E+00 -0.13306487537E+04  0.13306487537E+04  0.25500000920E-02 0.  1.
    10030    2    1    2    0    0  0.00000000000E+00  0.00000000000E+00 -0.41900118339E+03  0.22422963240E+04  0.22028006748E+04 0.  0.
        4    1    3    3  502    0 -0.20235172398E+03  0.21502995100E+03  0.87060728503E+03  0.91931646220E+03  0.12699999809E+01 0. -1.
       -4    1    3    3    0  502  0.20235172398E+03 -0.21502995100E+03 -0.12896084684E+04  0.13229798618E+04  0.12699999809E+01 0.  1.
</event>
<event>
 5   0  0.4029532E-05  0.2301395E+04  0.7818609E-02  0.8477371E-01
        2   -1    0    0  501    0  0.00000000000E+00  0.00000000000E+00  0.15283678314E+04  0.15283678314E+04  0.25500000920E-02 0.  1.
       -2   -1    0    0    0  501  0.00000000000E+00  0.00000000000E+00 -0.86635222917E+03  0.86635222917E+03  0.25500000920E-02 0. -1.
    10030    2    1    2    0    0  0.00000000000E+00  0.00000000000E+00  0.66201560221E+03  0.23947200606E+04  0.23013951227E+04 0.  0.
        3    1    3    3  502    0 -0.32419689339E+03 -0.54086719041E+03  0.13325697588E+04  0.14742398433E+04  0.10100000352E+00 0.  1.
       -3    1    3    3    0  502  0.32419689339E+03  0.54086719041E+03 -0.67055415654E+03  0.92048021728E+03  0.10100000352E+00 0. -1.
</event>
<event>
 5   0  0.4027923E-05  0.2183222E+04  0.7818609E-02  0.8525444E-01
        2   -1    0    0  501    0  0.00000000000E+00  0.00000000000E+00  0.20049760626E+04  0.20049760626E+04  0.25500000920E-02 0. -1.
       -2   -1    0    0    0  501  0.00000000000E+00  0.00000000000E+00 -0.59432868543E+03  0.59432868543E+03  0.25500000920E-02 0.  1.
    10030    2    1    2    0    0  0.00000000000E+00  0.00000000000E+00  0.14106473771E+04  0.25993047480E+04  0.21832221945E+04 0.  0.
        5    1    3    3  502    0 -0.29244840755E+01 -0.78016987510E+03 -0.20367531958E+03  0.80633697201E+03  0.46999998093E+01 0.  1.
       -5    1    3    3    0  502  0.29244840755E+01  0.78016987510E+03  0.16143226967E+04  0.17929677760E+04  0.46999998093E+01 0. -1.
</event>
<event>
 5   0  0.1866935E-05  0.2199327E+04  0.7818609E-02  0.8518708E-01
       -1   -1    0    0    0  501  0.00000000000E+00  0.00000000000E+00  0.14349244890E+04  0.14349244890E+04  0.50400001928E-02 0. -1.
        1   -1    0    0  501    0  0.00000000000E+00  0.00000000000E+00 -0.84273444696E+03  0.84273444698E+03  0.50400001928E-02 0.  1.
    10030    2    1    2    0    0  0.00000000000E+00  0.00000000000E+00  0.59219004201E+03  0.22776589360E+04  0.21993274387E+04 0.  0.
        4    1    3    3  502    0  0.54100951792E+03  0.95420699498E+03  0.37668961219E+03  0.11597840163E+04  0.12699999809E+01 0. -1.
       -4    1    3    3    0  502 -0.54100951792E+03 -0.95420699498E+03  0.21550042982E+03  0.11178749196E+04  0.12699999809E+01 0.  1.
</event>
<event>
 5   0  0.1786228E-05  0.2201001E+04  0.7818609E-02  0.8518012E-01
        1   -1    0    0  501    0  0.00000000000E+00  0.00000000000E+00  0.16450483760E+04  0.16450483760E+04  0.50400001928E-02 0.  1.
       -1   -1    0    0    0  501  0.00000000000E+00  0.00000000000E+00 -0.73621018045E+03  0.73621018047E+03  0.50400001928E-02 0. -1.
    10030    2    1    2    0    0  0.00000000000E+00  0.00000000000E+00  0.90883819558E+03  0.23812585565E+04  0.22010010103E+04 0.  0.
        5    1    3    3  502    0  0.10936949066E+04 -0.12105663121E+03  0.43710822093E+03  0.11840223577E+04  0.46999998093E+01 0.  1.
       -5    1    3    3    0  502 -0.10936949066E+04  0.12105663121E+03  0.47172997465E+03  0.11972361988E+04  0.46999998093E+01 0. -1.
</event>
<event>
 5   0  0.1788413E-05  0.2196062E+04  0.7818609E-02  0.8520069E-01
       -1   -1    0    0    0  501  0.00000000000E+00  0.00000000000E+00  0.50368443994E+03  0.50368443996E+03  0.50400001928E-02 0. -1.
        1   -1    0    0  501    0  0.00000000000E+00  0.00000000000E+00 -0.23937048026E+04  0.23937048026E+04  0.50400001928E-02 0.  1.
    10030    2    1    2    0    0  0.00000000000E+00  0.00000000000E+00 -0.18900203627E+04  0.28973892426E+04  0.21960618051E+04 0.  0.
        1    1    3    3  502    0  0.21495117534E+03  0.43486585510E+03  0.35464644521E+03  0.60090466868E+03  0.50400001928E-02 0. -1.
       -1    1    3    3    0  502 -0.21495117534E+03 -0.43486585510E+03 -0.22446668079E+04  0.22964845739E+04  0.50400001928E-02 0.  1.
</event>
<event>
 5   0  0.4132460E-05  0.2201403E+04  0.7818609E-02  0.8517844E-01
       -2   -1    0    0    0  501  0.00000000000E+00  0.00000000000E+00  0.64739423696E+03  0.64739423696E+03  0.25500000920E-02 0. -1.
        2   -1    0    0  501    0  0.00000000000E+00  0.00000000000E+00 -0.18714154145E+04  0.18714154145E+04  0.25500000920E-02 0.  1.
    10030    2    1    2    0    0  0.00000000000E+00  0.00000000000E+00 -0.12240211775E+04  0.25188096514E+04  0.22014027839E+04 0.  0.
        4    1    3    3  502    0  0.56950572932E+03 -0.11197323090E+03 -0.16820930553E+04  0.17794137911E+04  0.12699999809E+01 0.  1.
       -4    1    3    3    0  502 -0.56950572932E+03  0.11197323090E+03  0.45807187782E+03  0.73939586036E+03  0.12699999809E+01 0. -1.
</event>
<event>
 5   0  0.4132460E-05  0.2205305E+04  0.7818609E-02  0.8516223E-01
        2   -1    0    0  501    0  0.00000000000E+00  0.00000000000E+00  0.16139243106E+04  0.16139243106E+04  0.25500000920E-02 0. -1.
       -2   -1    0    0    0  501  0.00000000000E+00  0.00000000000E+00 -0.75334566149E+03  0.75334566149E+03  0.25500000920E-02 0.  1.
    10030    2    1    2    0    0  0.00000000000E+00  0.00000000000E+00  0.86057864909E+03  0.23672699721E+04  0.22053053098E+04 0.  0.
        4    1    3    3  502    0 -0.68572222970E+03 -0.34960735845E+03 -0.41725575622E+03  0.87552513407E+03  0.12699999809E+01 0.  1.
       -4    1    3    3    0  502  0.68572222970E+03  0.34960735845E+03  0.12778344053E+04  0.14917448380E+04  0.12699999809E+01 0. -1.
</event>
<event>
 5   0  0.1786228E-05  0.2280667E+04  0.7818609E-02  0.8485583E-01
       -1   -1    0    0    0  501  0.00000000000E+00  0.00000000000E+00  0.70746932329E+03  0.70746932330E+03  0.50400001928E-02 0.  1.
        1   -1    0    0  501    0  0.00000000000E+00  0.00000000000E+00 -0.18380455878E+04  0.18380455878E+04  0.50400001928E-02 0. -1.
    10030    2    1    2    0    0  0.00000000000E+00  0.00000000000E+00 -0.11305762645E+04  0.25455149111E+04  0.22806673306E+04 0.  0.
        5    1    3    3  502    0 -0.21179130199E+03  0.86060780167E+03 -0.13661336745E+04  0.16284485409E+04  0.46999998093E+01 0. -1.
       -5    1    3    3    0  502  0.21179130199E+03 -0.86060780167E+03  0.23555740998E+03  0.91706637017E+03  0.46999998093E+01 0.  1.
</event>
<event>
 5   0  0.4143281E-05  0.2223842E+04  0.7818609E-02  0.8508569E-01
       -2   -1    0    0    0  501  0.00000000000E+00  0.00000000000E+00  0.97731169417E+03  0.97731169417E+03  0.25500000920E-02 0.  1.
        2   -1    0    0  501    0  0.00000000000E+00  0.00000000000E+00 -0.12650709030E+04  0.12650709030E+04  0.25500000920E-02 0. -1.
    10030    2    1    2    0    0  0.00000000000E+00  0.00000000000E+00 -0.28775920882E+03  0.22423825972E+04  0.22238422493E+04 0.  0.
        2    1    3    3  502    0  0.10512379140E+04  0.11759237740E+03 -0.48943109908E+03  0.11655350358E+04  0.25500000920E-02 0. -1.
       -2    1    3    3    0  502 -0.10512379140E+04 -0.11759237740E+03  0.20167189025E+03  0.10768475613E+04  0.25500000920E-02 0.  1.
</event>
<event>
 5   0  0.1815681E-05  0.2197003E+04  0.7818609E-02  0.8519677E-01
        1   -1    0    0  501    0  0.00000000000E+00  0.00000000000E+00  0.11526674805E+04  0.11526674805E+04  0.50400001928E-02 0. -1.
       -1   -1    0    0    0  501  0.00000000000E+00  0.00000000000E+00 -0.10468808494E+04  0.10468808494E+04  0.50400001928E-02 0.  1.
    10030    2    1    2    0    0  0.00000000000E+00  0.00000000000E+00  0.10578663112E+03  0.21995483299E+04  0.21970029686E+04 0.  0.
        2    1    3    3  502    0  0.23182948277E+03 -0.10609655716E+04 -0.11256357097E+03  0.10918165646E+04  0.25500000920E-02 0. -1.
       -2    1    3    3    0  502 -0.23182948277E+03  0.10609655716E+04  0.21835020209E+03  0.11077317653E+04  0.25500000920E-02 0.  1.
</event>
<event>
 5   0  0.1884407E-05  0.2201821E+04  0.7818609E-02  0.8517671E-01
       -1   -1    0    0    0  501  0.00000000000E+00  0.00000000000E+00  0.70895753387E+03  0.70895753389E+03  0.50400001928E-02 0.  1.
        1   -1    0    0  501    0  0.00000000000E+00  0.00000000000E+00 -0.17095572875E+04  0.17095572875E+04  0.50400001928E-02 0. -1.
    10030    2    1    2    0    0  0.00000000000E+00  0.00000000000E+00 -0.10005997536E+04  0.24185148214E+04  0.22018206272E+04 0.  0.
        3    1    3    3  502    0  0.99372719636E+03  0.44862101726E+03 -0.33281774004E+03  0.11399658838E+04  0.10100000352E+00 0.  1.
       -3    1    3    3    0  502 -0.99372719636E+03 -0.44862101726E+03 -0.66778201356E+03  0.12785489376E+04  0.10100000352E+00 0. -1.
</event>
<event>
 5   0  0.4027923E-05  0.2124815E+04  0.7818609E-02  0.8550390E-01
       -2   -1    0    0    0  501  0.00000000000E+00  0.00000000000E+00  0.83241475228E+03  0.83241475228E+03  0.25500000920E-02 0.  1.
        2   -1    0    0  501    0  0.00000000000E+00  0.00000000000E+00 -0.13559468734E+04  0.13559468734E+04  0.25500000920E-02 0. -1.
    10030    2    1    2    0    0  0.00000000000E+00  0.00000000000E+00 -0.52353212113E+03  0.21883616257E+04  0.21248154562E+04 0.  0.
        5    1    3    3  502    0 -0.40080596104E+03 -0.68886251922E+03 -0.98527905775E+03  0.12672702555E+04  0.46999998093E+01 0. -1.
       -5    1    3    3    0  502  0.40080596104E+03  0.68886251922E+03  0.46174693663E+03  0.92109137021E+03  0.46999998093E+01 0.  1.
</event>
<event>
 5   0  0.3963414E-05  0.2208734E+04  0.7818609E-02  0.8514802E-01
       -2   -1    0    0    0  501  0.00000000000E+00  0.00000000000E+00  0.10205901687E+04  0.10205901687E+04  0.25500000920E-02 0. -1.
        2   -1    0    0  501    0  0.00000000000E+00  0.00000000000E+00 -0.11950208774E+04  0.11950208774E+04  0.25500000920E-02 0.  1.
    10030    2    1    2    0    0  0.00000000000E+00  0.00000000000E+00 -0.17443070874E+03  0.22156110461E+04  0.22087340799E+04 0.  0.
        1    1    3    3  502    0  0.43160721138E+03  0.96384743702E+03 -0.41123793840E+03  0.11333151851E+04  0.50400001928E-02 0.  1.
       -1    1    3    3    0  502 -0.43160721138E+03 -0.96384743702E+03  0.23680722965E+03  0.10822958610E+04  0.50400001928E-02 0. -1.
</event>
<event>
 5   0  0.1866935E-05  0.2219437E+04  0.7818609E-02  0.8510381E-01
       -1   -1    0    0    0  501  0.00000000000E+00  0.00000000000E+00  0.12766442031E+04  0.12766442031E+04  0.50400001928E-02 0.  1.
        1   -1    0    0  501    0  0.00000000000E+00  0.00000000000E+00 -0.96461917442E+03  0.96461917443E+03  0.50400001928E-02 0. -1.
    10030    2    1    2    0    0  0.00000000000E+00  0.00000000000E+00  0.31202502865E+03  0.22412633775E+04  0.22194372955E+04 0.  0.
        4    1    3    3  502    0  0.30794772716E+03  0.80512336398E+03 -0.54972960439E+03  0.10223794231E+04  0.12699999809E+01 0. -1.
       -4    1    3    3    0  502 -0.30794772716E+03 -0.80512336398E+03  0.86175463304E+03  0.12188839544E+04  0.12699999809E+01 0.  1.
</event>
<event>
 5   0  0.1866935E-05  0.2209529E+04  0.7818609E-02  0.8514472E-01
       -1   -1    0    0    0  501  0.00000000000E+00  0.00000000000E+00  0.10247299498E+04  0.10247299499E+04  0.50400001928E-02 0.  1.
        1   -1    0    0  501    0  0.00000000000E+00  0.00000000000E+00 -0.11910501236E+04  0.11910501236E+04  0.50400001928E-02 0. -1.
    10030    2    1    2    0    0  0.00000000000E+00  0.00000000000E+00 -0.16632017377E+03  0.22157800735E+04  0.22095291204E+04 0.  0.
        4    1    3    3  502    0 -0.10218540180E+04  0.41965224073E+03 -0.97674570455E+02  0.11089795183E+04  0.12699999809E+01 0. -1.
       -4    1    3    3    0  502  0.10218540180E+04 -0.41965224073E+03 -0.68645603319E+02  0.11068005552E+04  0.12699999809E+01 0.  1.
</event>
<event>
 5   0  0.1786228E-05  0.2175787E+04  0.7818609E-02  0.8528574E-01
        1   -1    0    0  501    0  0.00000000000E+00  0.00000000000E+00  0.98457633546E+03  0.98457633548E+03  0.50400001928E-02 0. -1.
       -1   -1    0    0    0  501  0.00000000000E+00  0.00000000000E+00 -0.12020517904E+04  0.12020517904E+04  0.50400001928E-02 0.  1.
    10030    2    1    2    0    0  0.00000000000E+00  0.00000000000E+00 -0.21747545491E+03  0.21866281259E+04  0.21757865215E+04 0.  0.
        5    1    3    3  502    0  0.48720573560E+03  0.44701111306E+03  0.75945420296E+03  0.10069663055E+04  0.46999998093E+01 0. -1.
       -5    1    3    3    0  502 -0.48720573560E+03 -0.44701111306E+03 -0.97692965787E+03  0.11796618204E+04  0.46999998093E+01 0.  1.
</event>
<event>
 5   0  0.4132460E-05  0.2201924E+04  0.7818609E-02  0.8517628E-01
        2   -1    0    0  501    0  0.00000000000E+00  0.00000000000E+00  0.10163577151E+04  0.10163577151E+04  0.25500000920E-02 0. -1.
       -2   -1    0    0    0  501  0.00000000000E+00  0.00000000000E+00 -0.11926092459E+04  0.11926092459E+04  0.25500000920E-02 0.  1.
    10030    2    1    2    0    0  0.00000000000E+00  0.00000000000E+00 -0.17625153080E+03  0.22089669610E+04  0.22019242568E+04 0.  0.
        4    1    3    3  502    0 -0.83521708499E+03  0.21910928302E+03  0.59708119055E+03  0.10498114202E+04  0.12699999809E+01 0. -1.
       -4    1    3    3    0  502  0.83521708499E+03 -0.21910928302E+03 -0.77333272135E+03  0.11591555408E+04  0.12699999809E+01 0.  1.
</event>
<event>
 5   0  0.1786228E-05  0.2198367E+04  0.7818609E-02  0.8519108E-01
       -1   -1    0    0    0  501  0.00000000000E+00  0.00000000000E+00  0.94451257968E+03  0.94451257970E+03  0.50400001928E-02 0. -1.
        1   -1    0    0  501    0  0.00000000000E+00  0.00000000000E+00 -0.12791831130E+04  0.12791831130E+04  0.50400001928E-02 0.  1.
    10030    2    1    2    0    0  0.00000000000E+00  0.00000000000E+00 -0.33467053329E+03  0.22236956927E+04  0.21983671595E+04 0.  0.
        5    1    3    3  502    0  0.12298652344E+03 -0.46300298810E+03 -0.11680184310E+04  0.12624526118E+04  0.46999998093E+01 0.  1.
       -5    1    3    3    0  502 -0.12298652344E+03  0.46300298810E+03  0.83334789769E+03  0.96124308087E+03  0.46999998093E+01 0. -1.
</event>
<event>
 5   0  0.4029532E-05  0.2188815E+04  0.7818609E-02  0.8523098E-01
        2   -1    0    0  501    0  0.00000000000E+00  0.00000000000E+00  0.19569534631E+04  0.19569534631E+04  0.25500000920E-02 0. -1.
       -2   -1    0    0    0  501  0.00000000000E+00  0.00000000000E+00 -0.61203669002E+03  0.61203669003E+03  0.25500000920E-02 0.  1.
    10030    2    1    2    0    0  0.00000000000E+00  0.00000000000E+00  0.13449167731E+04  0.25689901531E+04  0.21888145834E+04 0.  0.
        3    1    3    3  502    0 -0.69422532532E+03 -0.55758539253E+03 -0.74360064822E+02  0.89352095762E+03  0.10100000352E+00 0.  1.
       -3    1    3    3    0  502  0.69422532532E+03  0.55758539253E+03  0.14192768379E+04  0.16754691955E+04  0.10100000352E+00 0. -1.
</event>
<event>
 5   0  0.4029532E-05  0.2194789E+04  0.7818609E-02  0.8520600E-01
       -2   -1    0    0    0  501  0.00000000000E+00  0.00000000000E+00  0.78115500862E+03  0.78115500862E+03  0.25500000920E-02 0. -1.
        2   -1    0    0  501    0  0.00000000000E+00  0.00000000000E+00 -0.15416586970E+04  0.15416586970E+04  0.25500000920E-02 0.  1.
    10030    2    1    2    0    0  0.00000000000E+00  0.00000000000E+00 -0.76050368842E+03  0.23228137057E+04  0.21947887486E+04 0.  0.
        3    1    3    3  502    0  0.27582093130E+03  0.88377052590E+03 -0.10038118956E+04  0.13655643011E+04  0.10100000352E+00 0.  1.
       -3    1    3    3    0  502 -0.27582093130E+03 -0.88377052590E+03  0.24330820718E+03  0.95724940453E+03  0.10100000352E+00 0. -1.
</event>
<event>
 5   0  0.1433375E-05  0.2192906E+04  0.7818609E-02  0.8521387E-01
        3   -1    0    0  501    0  0.00000000000E+00  0.00000000000E+00  0.10802510161E+04  0.10802510209E+04  0.10100000352E+00 0.  1.
       -3   -1    0    0    0  501  0.00000000000E+00  0.00000000000E+00 -0.11128980777E+04  0.11128980823E+04  0.10100000352E+00 0. -1.
    10030    2    1    2    0    0  0.00000000000E+00  0.00000000000E+00 -0.32647061618E+02  0.21931491032E+04  0.21929060988E+04 0.  0.
        4    1    3    3  502    0  0.38630552229E+03  0.33270058893E+03 -0.98714528916E+03  0.11110261353E+04  0.12699999809E+01 0. -1.
       -4    1    3    3    0  502 -0.38630552229E+03 -0.33270058893E+03  0.95449822754E+03  0.10821229679E+04  0.12699999809E+01 0.  1.
</event>
<event>
 5   0  0.1786228E-05  0.2199802E+04  0.7818609E-02  0.8518510E-01
        1   -1    0    0  501    0  0.00000000000E+00  0.00000000000E+00  0.14521954898E+04  0.14521954898E+04  0.50400001928E-02 0.  1.
       -1   -1    0    0    0  501  0.00000000000E+00  0.00000000000E+00 -0.83307138295E+03  0.83307138297E+03  0.50400001928E-02 0. -1.
    10030    2    1    2    0    0  0.00000000000E+00  0.00000000000E+00  0.61912410689E+03  0.22852668728E+04  0.21998022684E+04 0.  0.
        5    1    3    3  502    0 -0.48698780019E+03 -0.21803597523E+03  0.13087313436E+04  0.14133282081E+04  0.46999998093E+01 0.  1.
       -5    1    3    3    0  502  0.48698780019E+03  0.21803597523E+03 -0.68960723675E+03  0.87193866470E+03  0.46999998093E+01 0. -1.
</event>
<event>
 5   0  0.4029532E-05  0.2175779E+04  0.7818609E-02  0.8528578E-01
       -2   -1    0    0    0  501  0.00000000000E+00  0.00000000000E+00  0.76410389554E+03  0.76410389554E+03  0.25500000920E-02 0.  1.
        2   -1    0    0  501    0  0.00000000000E+00  0.00000000000E+00 -0.15488771348E+04  0.15488771348E+04  0.25500000920E-02 0. -1.
    10030    2    1    2    0    0  0.00000000000E+00  0.00000000000E+00 -0.78477323924E+03  0.23129810303E+04  0.21757785295E+04 0.  0.
        3    1    3    3  502    0 -0.95327555980E+03 -0.28083887246E+03  0.78127534207E+02  0.99684938030E+03  0.10100000352E+00 0.  1.
       -3    1    3    3    0  502  0.95327555980E+03  0.28083887246E+03 -0.86290077345E+03  0.13161316500E+04  0.10100000352E+00 0. -1.
</event>
<event>
 5   0  0.1433375E-05  0.2204344E+04  0.7818609E-02  0.8516622E-01
       -3   -1    0    0    0  501  0.00000000000E+00  0.00000000000E+00  0.12828454875E+04  0.12828454915E+04  0.10100000352E+00 0. -1.
        3   -1    0    0  501    0  0.00000000000E+00  0.00000000000E+00 -0.94694456421E+03  0.94694456960E+03  0.10100000352E+00 0.  1.
    10030    2    1    2    0    0  0.00000000000E+00  0.00000000000E+00  0.33590092334E+03  0.22297900611E+04  0.22043444119E+04 0.  0.
        3    1    3    3  502    0  0.67062331731E+02 -0.39376955501E+03 -0.87115217802E+03  0.95836211645E+03  0.10100000352E+00 0.  1.
       -3    1    3    3    0  502 -0.67062331731E+02  0.39376955501E+03  0.12070531014E+04  0.12714279447E+04  0.10100000352E+00 0. -1.
</event>
<event>
 5   0  0.4143281E-05  0.2235601E+04  0.7818609E-02  0.8503755E-01
       -2   -1    0    0    0  501  0.00000000000E+00  0.00000000000E+00  0.55392902910E+03  0.55392902910E+03  0.25500000920E-02 0.  1.
        2   -1    0    0  501    0  0.00000000000E+00  0.00000000000E+00 -0.22556641744E+04  0.22556641744E+04  0.25500000920E-02 0. -1.
    10030    2    1    2    0    0  0.00000000000E+00  0.00000000000E+00 -0.17017351453E+04  0.28095932035E+04  0.22356009180E+04 0.  0.
        2    1    3    3  502    0 -0.53081316906E+03  0.80161863889E+03 -0.13427404720E+03  0.97076494705E+03  0.25500000920E-02 0.  1.
       -2    1    3    3    0  502  0.53081316906E+03 -0.80161863889E+03 -0.15674610981E+04  0.18388282564E+04  0.25500000920E-02 0. -1.
</event>
<event>
 5   0  0.3963414E-05  0.2084515E+04  0.7818609E-02  0.8568096E-01
        2   -1    0    0  501    0  0.00000000000E+00  0.00000000000E+00  0.21972111011E+04  0.21972111011E+04  0.25500000920E-02 0.  1.
       -2   -1    0    0    0  501  0.00000000000E+00  0.00000000000E+00 -0.49439956443E+03  0.49439956444E+03  0.25500000920E-02 0. -1.
    10030    2    1    2    0    0  0.00000000000E+00  0.00000000000E+00  0.17028115367E+04  0.26916106656E+04  0.20845145347E+04 0.  0.
        1    1    3    3  502    0 -0.92691576074E+03 -0.29739203126E+03  0.37054136661E+03  0.10415928918E+04  0.50400001928E-02 0. -1.
       -1    1    3    3    0  502  0.92691576074E+03  0.29739203126E+03  0.13322701701E+04  0.16500177738E+04  0.50400001928E-02 0.  1.
</event>
<event>
 5   0  0.1788413E-05  0.2202276E+04  0.7818609E-02  0.8517481E-01
       -1   -1    0    0    0  501  0.00000000000E+00  0.00000000000E+00  0.99647512812E+03  0.99647512814E+03  0.50400001928E-02 0.  1.
        1   -1    0    0  501    0  0.00000000000E+00  0.00000000000E+00 -0.12167938991E+04  0.12167938992E+04  0.50400001928E-02 0. -1.
    10030    2    1    2    0    0  0.00000000000E+00  0.00000000000E+00 -0.22031877102E+03  0.22132690273E+04  0.22022759651E+04 0.  0.
        1    1    3    3  502    0  0.23706209784E+03  0.10187323876E+04 -0.45610248690E+03  0.11410712486E+04  0.50400001928E-02 0. -1.
       -1    1    3    3    0  502 -0.23706209784E+03 -0.10187323876E+04  0.23578371588E+03  0.10721977787E+04  0.50400001928E-02 0.  1.
</event>
<event>
 5   0  0.4132460E-05  0.2215319E+04  0.7818609E-02  0.8512079E-01
       -2   -1    0    0    0  501  0.00000000000E+00  0.00000000000E+00  0.10035626285E+04  0.10035626285E+04  0.25500000920E-02 0.  1.
        2   -1    0    0  501    0  0.00000000000E+00  0.00000000000E+00 -0.12225536423E+04  0.12225536423E+04  0.25500000920E-02 0. -1.
    10030    2    1    2    0    0  0.00000000000E+00  0.00000000000E+00 -0.21899101381E+03  0.22261162708E+04  0.22153186197E+04 0.  0.
        4    1    3    3  502    0  0.48259952724E+03 -0.42873785800E+03  0.79499671938E+03  0.10240800024E+04  0.12699999809E+01 0.  1.
       -4    1    3    3    0  502 -0.48259952724E+03  0.42873785800E+03 -0.10139877332E+04  0.12020362684E+04  0.12699999809E+01 0. -1.
</event>
<event>
 5   0  0.4132460E-05  0.2196806E+04  0.7818609E-02  0.8519759E-01
        2   -1    0    0  501    0  0.00000000000E+00  0.00000000000E+00  0.17370591377E+04  0.17370591377E+04  0.25500000920E-02 0. -1.
       -2   -1    0    0    0  501  0.00000000000E+00  0.00000000000E+00 -0.69455862282E+03  0.69455862282E+03  0.25500000920E-02 0.  1.
    10030    2    1    2    0    0  0.00000000000E+00  0.00000000000E+00  0.10425005148E+04  0.24316177605E+04  0.21968062294E+04 0.  0.
        4    1    3    3  502    0  0.35087753660E+03  0.36215023420E+03 -0.55887020543E+03  0.75273192920E+03  0.12699999809E+01 0.  1.
       -4    1    3    3    0  502 -0.35087753660E+03 -0.36215023420E+03  0.16013707203E+04  0.16788858313E+04  0.12699999809E+01 0. -1.
</event>
<event>
 5   0  0.4029532E-05  0.2185246E+04  0.7818609E-02  0.8524594E-01
       -2   -1    0    0    0  501  0.00000000000E+00  0.00000000000E+00  0.14770500832E+04  0.14770500832E+04  0.25500000920E-02 0.  1.
        2   -1    0    0  501    0  0.00000000000E+00  0.00000000000E+00 -0.80824960651E+03  0.80824960651E+03  0.25500000920E-02 0. -1.
    10030    2    1    2    0    0  0.00000000000E+00  0.00000000000E+00  0.66880047667E+03  0.22852996897E+04  0.21852461175E+04 0.  0.
        3    1    3    3  502    0  0.19631402135E+03 -0.94888626345E+03 -0.19359305324E+03  0.98813087008E+03  0.10100000352E+00 0. -1.
       -3    1    3    3    0  502 -0.19631402135E+03  0.94888626345E+03  0.86239352991E+03  0.12971688196E+04  0.10100000352E+00 0.  1.
</event>
<event>
 5   0  0.1866935E-05  0.2179600E+04  0.7818609E-02  0.8526967E-01
       -1   -1    0    0    0  501  0.00000000000E+00  0.00000000000E+00  0.97018420975E+03  0.97018420976E+03  0.50400001928E-02 0. -1.
        1   -1    0    0  501    0  0.00000000000E+00  0.00000000000E+00 -0.12241636667E+04  0.12241636668E+04  0.50400001928E-02 0.  1.
    10030    2    1    2    0    0  0.00000000000E+00  0.00000000000E+00 -0.25397945700E+03  0.21943478765E+04  0.21796002016E+04 0.  0.
        4    1    3    3  502    0 -0.84846319554E+02  0.69835191953E+03 -0.96494851067E+03  0.11941614391E+04  0.12699999809E+01 0.  1.
       -4    1    3    3    0  502  0.84846319554E+02 -0.69835191953E+03  0.71096905367E+03  0.10001864374E+04  0.12699999809E+01 0. -1.
</event>
<event>
 5   0  0.1815681E-05  0.2196308E+04  0.7818609E-02  0.8519966E-01
        1   -1    0    0  501    0  0.00000000000E+00  0.00000000000E+00  0.79189316673E+03  0.79189316675E+03  0.50400001928E-02 0. -1.
       -1   -1    0    0    0  501  0.00000000000E+00  0.00000000000E+00 -0.15228595624E+04  0.15228595624E+04  0.50400001928E-02 0.  1.
    10030    2    1    2    0    0  0.00000000000E+00  0.00000000000E+00 -0.73096639568E+03  0.23147527292E+04  0.21963078850E+04 0.  0.
        2    1    3    3  502    0 -0.43548621298E+03 -0.82079784662E+03  0.25138927053E+03  0.96257670451E+03  0.25500000920E-02 0. -1.
       -2    1    3    3    0  502  0.43548621298E+03  0.82079784662E+03 -0.98235566622E+03  0.13521760247E+04  0.25500000920E-02 0.  1.
</event>
<event>
 5   0  0.4029532E-05  0.2189085E+04  0.7818609E-02  0.8522985E-01
       -2   -1    0    0    0  501  0.00000000000E+00  0.00000000000E+00  0.56762466415E+03  0.56762466416E+03  0.25500000920E-02 0. -1.
        2   -1    0    0  501    0  0.00000000000E+00  0.00000000000E+00 -0.21105897814E+04  0.21105897814E+04  0.25500000920E-02 0.  1.
    10030    2    1    2    0    0  0.00000000000E+00  0.00000000000E+00 -0.15429651173E+04  0.26782144456E+04  0.21890845720E+04 0.  0.
        3    1    3    3  502    0  0.16008370909E+03 -0.41570607864E+03 -0.19946687160E+04  0.20438056744E+04  0.10100000352E+00 0.  1.
       -3    1    3    3    0  502 -0.16008370909E+03  0.41570607864E+03  0.45170359872E+03  0.63440877124E+03  0.10100000352E+00 0. -1.
</event>
<event>
 5   0  0.4132460E-05  0.2149134E+04  0.7818609E-02  0.8539903E-01
        2   -1    0    0  501    0  0.00000000000E+00  0.00000000000E+00  0.17064094210E+04  0.17064094210E+04  0.25500000920E-02 0.  1.
       -2   -1    0    0    0  501  0.00000000000E+00  0.00000000000E+00 -0.67668060301E+03  0.67668060302E+03  0.25500000920E-02 0. -1.
    10030    2    1    2    0    0  0.00000000000E+00  0.00000000000E+00  0.10297288180E+04  0.23830900240E+04  0.21491339242E+04 0.  0.
        4    1    3    3  502    0 -0.87463452561E+03 -0.53085103891E+03  0.87911148288E+03  0.13489355030E+04  0.12699999809E+01 0.  1.
       -4    1    3    3    0  502  0.87463452561E+03  0.53085103891E+03  0.15061733511E+03  0.10341545211E+04  0.12699999809E+01 0. -1.
</event>
<event>
 5   0  0.4132460E-05  0.2173685E+04  0.7818609E-02  0.8529461E-01
       -2   -1    0    0    0  501  0.00000000000E+00  0.00000000000E+00  0.75836608478E+03  0.75836608479E+03  0.25500000920E-02 0.  1.
        2   -1    0    0  501    0  0.00000000000E+00  0.00000000000E+00 -0.15575945312E+04  0.15575945312E+04  0.25500000920E-02 0. -1.
    10030    2    1    2    0    0  0.00000000000E+00  0.00000000000E+00 -0.79922844641E+03  0.23159606160E+04  0.21736852268E+04 0.  0.
        4    1    3    3  502    0  0.64327375121E+03 -0.17154489256E+03 -0.13149104297E+04  0.14738452498E+04  0.12699999809E+01 0. -1.
       -4    1    3    3    0  502 -0.64327375121E+03  0.17154489256E+03  0.51568198333E+03  0.84211536620E+03  0.12699999809E+01 0.  1.
</event>
<event>
 5   0  0.1884407E-05  0.2208559E+04  0.7818609E-02  0.8514874E-01
        1   -1    0    0  501    0  0.00000000000E+00  0.00000000000E+00  0.78888833521E+03  0.78888833523E+03  0.50400001928E-02 0.  1.
       -1   -1    0    0    0  501  0.00000000000E+00  0.00000000000E+00 -0.15457614016E+04  0.15457614016E+04  0.50400001928E-02 0. -1.
    10030    2    1    2    0    0  0.00000000000E+00  0.00000000000E+00 -0.75687306634E+03  0.23346497368E+04  0.22085589317E+04 0.  0.
        3    1    3    3  502    0 -0.23573858048E+03 -0.49952773860E+03 -0.13892355644E+04  0.14950170914E+04  0.10100000352E+00 0. -1.
       -3    1    3    3    0  502  0.23573858048E+03  0.49952773860E+03  0.63236249810E+03  0.83963264536E+03  0.10100000352E+00 0.  1.
</event>
<event>
 5   0  0.1788413E-05  0.2197126E+04  0.7818609E-02  0.8519625E-01
       -1   -1    0    0    0  501  0.00000000000E+00  0.00000000000E+00  0.10935340927E+04  0.10935340928E+04  0.50400001928E-02 0.  1.
        1   -1    0    0  501    0  0.00000000000E+00  0.00000000000E+00 -0.11036150871E+04  0.11036150871E+04  0.50400001928E-02 0. -1.
    10030    2    1    2    0    0  0.00000000000E+00  0.00000000000E+00 -0.10080994306E+02  0.21971491798E+04  0.21971260528E+04 0.  0.
        1    1    3    3  502    0  0.10845059611E+03 -0.10698724419E+04 -0.22965842010E+03  0.10996051854E+04  0.50400001928E-02 0.  1.
       -1    1    3    3    0  502 -0.10845059611E+03  0.10698724419E+04  0.21957742579E+03  0.10975439944E+04  0.50400001928E-02 0. -1.
</event>
<event>
 5   0  0.1815681E-05  0.2203503E+04  0.7818609E-02  0.8516971E-01
        1   -1    0    0  501    0  0.00000000000E+00  0.00000000000E+00  0.15708182703E+04  0.15708182703E+04  0.50400001928E-02 0.  1.
       -1   -1    0    0    0  501  0.00000000000E+00  0.00000000000E+00 -0.77275441092E+03  0.77275441094E+03  0.50400001928E-02 0. -1.
    10030    2    1    2    0    0  0.00000000000E+00  0.00000000000E+00  0.79806385935E+03  0.23435726812E+04  0.22035033443E+04 0.  0.
        2    1    3    3  502    0 -0.68097451463E+03 -0.55701940902E+03  0.11044098586E+04  0.14119908100E+04  0.25500000920E-02 0.  1.
       -2    1    3    3    0  502  0.68097451463E+03  0.55701940902E+03 -0.30634599925E+03  0.93158187126E+03  0.25500000920E-02 0. -1.
</event>
<event>
 5   0  0.3963414E-05  0.2208462E+04  0.7818609E-02  0.8514914E-01
        2   -1    0    0  501    0  0.00000000000E+00  0.00000000000E+00  0.19048236191E+04  0.19048236191E+04  0.25500000920E-02 0.  1.
       -2   -1    0    0    0  501  0.00000000000E+00  0.00000000000E+00 -0.64012553714E+03  0.64012553715E+03  0.25500000920E-02 0. -1.
    10030    2    1    2    0    0  0.00000000000E+00  0.00000000000E+00  0.12646980820E+04  0.25449491563E+04  0.22084621277E+04 0.  0.
        1    1    3    3  502    0  0.99701651092E+02 -0.47430393412E+03  0.17757004246E+04  0.18406565783E+04  0.50400001928E-02 0.  1.
       -1    1    3    3    0  502 -0.99701651092E+02  0.47430393412E+03 -0.51100234266E+03  0.70429257797E+03  0.50400001928E-02 0. -1.
</event>
<event>
 5   0  0.4132460E-05  0.2190472E+04  0.7818609E-02  0.8522404E-01
        2   -1    0    0  501    0  0.00000000000E+00  0.00000000000E+00  0.99225755363E+03  0.99225755363E+03  0.25500000920E-02 0. -1.
       -2   -1    0    0    0  501  0.00000000000E+00  0.00000000000E+00 -0.12089017579E+04  0.12089017579E+04  0.25500000920E-02 0.  1.
    10030    2    1    2    0    0  0.00000000000E+00  0.00000000000E+00 -0.21664420426E+03  0.22011593115E+04  0.21904720047E+04 0.  0.
        4    1    3    3  502    0 -0.62554252775E+03  0.56314749427E+03 -0.81252774830E+03  0.11698895285E+04  0.12699999809E+01 0.  1.
       -4    1    3    3    0  502  0.62554252775E+03 -0.56314749427E+03  0.59588354404E+03  0.10312697830E+04  0.12699999809E+01 0. -1.
</event>
<event>
 5   0  0.1786228E-05  0.2216030E+04  0.7818609E-02  0.8511785E-01
       -1   -1    0    0    0  501  0.00000000000E+00  0.00000000000E+00  0.10779450805E+04  0.10779450805E+04  0.50400001928E-02 0. -1.
        1   -1    0    0  501    0  0.00000000000E+00  0.00000000000E+00 -0.11389239724E+04  0.11389239725E+04  0.50400001928E-02 0.  1.
    10030    2    1    2    0    0  0.00000000000E+00  0.00000000000E+00 -0.60978891995E+02  0.22168690529E+04  0.22160302283E+04 0.  0.
        5    1    3    3  502    0 -0.19029289527E+03  0.74825463740E+03  0.76453083248E+03  0.10865660920E+04  0.46999998093E+01 0. -1.
       -5    1    3    3    0  502  0.19029289527E+03 -0.74825463740E+03 -0.82550972447E+03  0.11303029610E+04  0.46999998093E+01 0.  1.
</event>
<event>
 5   0  0.3963414E-05  0.2127473E+04  0.7818609E-02  0.8549237E-01
       -2   -1    0    0    0  501  0.00000000000E+00  0.00000000000E+00  0.10913810359E+04  0.10913810359E+04  0.25500000920E-02 0.  1.
        2   -1    0    0  501    0  0.00000000000E+00  0.00000000000E+00 -0.10367918390E+04  0.10367918390E+04  0.25500000920E-02 0. -1.
    10030    2    1    2    0    0  0.00000000000E+00  0.00000000000E+00  0.54589196956E+02  0.21281728749E+04  0.21274726332E+04 0.  0.
        1    1    3    3  502    0 -0.60757954938E+02 -0.88969078916E+03  0.60739384465E+03  0.10789664091E+04  0.50400001928E-02 0.  1.
       -1    1    3    3    0  502  0.60757954938E+02  0.88969078916E+03 -0.55280464770E+03  0.10492064658E+04  0.50400001928E-02 0. -1.
</event>
<event>
 5   0  0.1884407E-05  0.2234412E+04  0.7818609E-02  0.8504240E-01
        1   -1    0    0  501    0  0.00000000000E+00  0.00000000000E+00  0.88559962696E+03  0.88559962697E+03  0.50400001928E-02 0.  1.
       -1   -1    0    0    0  501  0.00000000000E+00  0.00000000000E+00 -0.14093829240E+04  0.14093829241E+04  0.50400001928E-02 0. -1.
    10030    2    1    2    0    0  0.00000000000E+00  0.00000000000E+00 -0.52378329709E+03  0.22949825510E+04  0.22344117721E+04 0.  0.
        3    1    3    3  502    0 -0.67251216124E+03  0.34503125397E+03  0.58310680814E+03  0.95463748781E+03  0.10100000352E+00 0.  1.
       -3    1    3    3    0  502  0.67251216124E+03 -0.34503125397E+03 -0.11068901052E+04  0.13403450632E+04  0.10100000352E+00 0. -1.
</event>
<event>
 5   0  0.1786228E-05  0.2196893E+04  0.7818609E-02  0.8519722E-01
        1   -1    0    0  501    0  0.00000000000E+00  0.00000000000E+00  0.13483377862E+04  0.13483377862E+04  0.50400001928E-02 0.  1.
       -1   -1    0    0    0  501  0.00000000000E+00  0.00000000000E+00 -0.89486812588E+03  0.89486812590E+03  0.50400001928E-02 0. -1.
    10030    2    1    2    0    0  0.00000000000E+00  0.00000000000E+00  0.45346966031E+03  0.22432059121E+04  0.21968928129E+04 0.  0.
        5    1    3    3  502    0  0.97948304996E+03 -0.12014530654E+03 -0.26586724130E+03  0.10220222208E+04  0.46999998093E+01 0. -1.
       -5    1    3    3    0  502 -0.97948304996E+03  0.12014530654E+03  0.71933690161E+03  0.12211836913E+04  0.46999998093E+01 0.  1.
</event>
<event>
 5   0  0.1786228E-05  0.2189416E+04  0.7818609E-02  0.8522846E-01
        1   -1    0    0  501    0  0.00000000000E+00  0.00000000000E+00  0.17061837182E+04  0.17061837182E+04  0.50400001928E-02 0. -1.
       -1   -1    0    0    0  501  0.00000000000E+00  0.00000000000E+00 -0.70237790531E+03  0.70237790533E+03  0.50400001928E-02 0.  1.
    10030    2    1    2    0    0  0.00000000000E+00  0.00000000000E+00  0.10038058129E+04  0.24085616235E+04  0.21894161286E+04 0.  0.
        5    1    3    3  502    0  0.60761374759E+03  0.13951150185E+03  0.14918068531E+04  0.16168387991E+04  0.46999998093E+01 0. -1.
       -5    1    3    3    0  502 -0.60761374759E+03 -0.13951150185E+03 -0.48800104023E+03  0.79172282439E+03  0.46999998093E+01 0.  1.
</event>
<event>
 5   0  0.4027923E-05  0.2207561E+04  0.7818609E-02  0.8515287E-01
       -2   -1    0    0    0  501  0.00000000000E+00  0.00000000000E+00  0.10639117053E+04  0.10639117054E+04  0.25500000920E-02 0.  1.
        2   -1    0    0  501    0  0.00000000000E+00  0.00000000000E+00 -0.11451436946E+04  0.11451436946E+04  0.25500000920E-02 0. -1.
    10030    2    1    2    0    0  0.00000000000E+00  0.00000000000E+00 -0.81231989278E+02  0.22090554000E+04  0.22075613523E+04 0.  0.
        5    1    3    3  502    0 -0.48496544067E+01  0.16155918826E+03  0.10519951236E+04  0.10643499052E+04  0.46999998093E+01 0.  1.
       -5    1    3    3    0  502  0.48496544067E+01 -0.16155918826E+03 -0.11332271129E+04  0.11447054948E+04  0.46999998093E+01 0. -1.
</event>
<event>
 5   0  0.4027923E-05  0.2211460E+04  0.7818609E-02  0.8513673E-01
        2   -1    0    0  501    0  0.00000000000E+00  0.00000000000E+00  0.97128189328E+03  0.97128189328E+03  0.25500000920E-02 0.  1.
       -2   -1    0    0    0  501  0.00000000000E+00  0.00000000000E+00 -0.12587893841E+04  0.12587893841E+04  0.25500000920E-02 0. -1.
    10030    2    1    2    0    0  0.00000000000E+00  0.00000000000E+00 -0.28750749080E+03  0.22300712774E+04  0.22114604552E+04 0.  0.
        5    1    3    3  502    0  0.72951015613E+03  0.82634162753E+03 -0.55890167788E+02  0.11037080022E+04  0.46999998093E+01 0. -1.
       -5    1    3    3    0  502 -0.72951015613E+03 -0.82634162753E+03 -0.23161732301E+03  0.11263632751E+04  0.46999998093E+01 0.  1.
</event>
<event>
 5   0  0.4132460E-05  0.2209463E+04  0.7818609E-02  0.8514500E-01
        2   -1    0    0  501    0  0.00000000000E+00  0.00000000000E+00  0.17566788791E+04  0.17566788791E+04  0.25500000920E-02 0. -1.
       -2   -1    0    0    0  501  0.00000000000E+00  0.00000000000E+00 -0.69473827681E+03  0.69473827681E+03  0.25500000920E-02 0.  1.
    10030    2    1    2    0    0  0.00000000000E+00  0.00000000000E+00  0.10619406022E+04  0.24514171559E+04  0.22094633352E+04 0.  0.
        4    1    3    3  502    0 -0.10574177116E+04  0.20190067547E+03  0.25574445670E+03  0.11064822364E+04  0.12699999809E+01 0.  1.
       -4    1    3    3    0  502  0.10574177116E+04 -0.20190067547E+03  0.80619614554E+03  0.13449349194E+04  0.12699999809E+01 0. -1.
</event>
<event>
 5   0  0.1788413E-05  0.2150511E+04  0.7818609E-02  0.8539314E-01
       -1   -1    0    0    0  501  0.00000000000E+00  0.00000000000E+00  0.11873102491E+04  0.11873102491E+04  0.50400001928E-02 0. -1.
        1   -1    0    0  501    0  0.00000000000E+00  0.00000000000E+00 -0.97377622802E+03  0.97377622803E+03  0.50400001928E-02 0.  1.
    10030    2    1    2    0    0  0.00000000000E+00  0.00000000000E+00  0.21353402107E+03  0.21610864771E+04  0.21505110982E+04 0.  0.
        1    1    3    3  502    0  0.43396447056E+03  0.93218276092E+03 -0.20923865111E+03  0.10493191481E+04  0.50400001928E-02 0.  1.
       -1    1    3    3    0  502 -0.43396447056E+03 -0.93218276092E+03  0.42277267218E+03  0.11117673290E+04  0.50400001928E-02 0. -1.
</event>
<event>
 5   0  0.4027923E-05  0.2189843E+04  0.7818609E-02  0.8522668E-01
       -2   -1    0    0    0  501  0.00000000000E+00  0.00000000000E+00  0.84188866033E+03  0.84188866034E+03  0.25500000920E-02 0.  1.
        2   -1    0    0  501    0  0.00000000000E+00  0.00000000000E+00 -0.14240039035E+04  0.14240039035E+04  0.25500000920E-02 0. -1.
    10030    2    1    2    0    0  0.00000000000E+00  0.00000000000E+00 -0.58211524320E+03  0.22658925639E+04  0.21898426781E+04 0.  0.
        5    1    3    3  502    0 -0.89225456407E+03  0.52697968494E+03 -0.65689648230E+03  0.12269314870E+04  0.46999998093E+01 0. -1.
       -5    1    3    3    0  502  0.89225456407E+03 -0.52697968494E+03  0.74781239098E+02  0.10389610768E+04  0.46999998093E+01 0.  1.
</event>
<event>
 5   0  0.1786228E-05  0.2183252E+04  0.7818609E-02  0.8525432E-01
       -1   -1    0    0    0  501  0.00000000000E+00  0.00000000000E+00  0.60169717040E+03  0.60169717042E+03  0.50400001928E-02 0.  1.
        1   -1    0    0  501    0  0.00000000000E+00  0.00000000000E+00 -0.19804763099E+04  0.19804763099E+04  0.50400001928E-02 0. -1.
    10030    2    1    2    0    0  0.00000000000E+00  0.00000000000E+00 -0.13787791395E+04  0.25821734803E+04  0.21832516958E+04 0.  0.
        5    1    3    3  502    0  0.54763421474E+03  0.50553574137E+03  0.25393941621E+03  0.78738614165E+03  0.46999998093E+01 0.  1.
       -5    1    3    3    0  502 -0.54763421474E+03 -0.50553574137E+03 -0.16327185557E+04  0.17947873387E+04  0.46999998093E+01 0. -1.
</event>
<event>
 5   0  0.4029532E-05  0.2233664E+04  0.7818609E-02  0.8504546E-01
        2   -1    0    0  501    0  0.00000000000E+00  0.00000000000E+00  0.20304104079E+04  0.20304104079E+04  0.25500000920E-02 0. -1.
       -2   -1    0    0    0  501  0.00000000000E+00  0.00000000000E+00 -0.61431603222E+03  0.61431603223E+03  0.25500000920E-02 0.  1.
    10030    2    1    2    0    0  0.00000000000E+00  0.00000000000E+00  0.14160943757E+04  0.26447264402E+04  0.22336639547E+04 0.  0.
        3    1    3    3  502    0  0.22014051886E+03 -0.10136321892E+04  0.11982438473E+04  0.15848344995E+04  0.10100000352E+00 0.  1.
       -3    1    3    3    0  502 -0.22014051886E+03  0.10136321892E+04  0.21785052840E+03  0.10598919407E+04  0.10100000352E+00 0. -1.
</event>
<event>
 5   0  0.4027923E-05  0.2251948E+04  0.7818609E-02  0.8497112E-01
       -2   -1    0    0    0  501  0.00000000000E+00  0.00000000000E+00  0.68806893761E+03  0.68806893761E+03  0.25500000920E-02 0. -1.
        2   -1    0    0  501    0  0.00000000000E+00  0.00000000000E+00 -0.18425736471E+04  0.18425736471E+04  0.25500000920E-02 0.  1.
    10030    2    1    2    0    0  0.00000000000E+00  0.00000000000E+00 -0.11545047095E+04  0.25306425847E+04  0.22519482159E+04 0.  0.
        5    1    3    3  502    0 -0.68542533750E+03  0.14268685680E+03 -0.15682175570E+04  0.17174096275E+04  0.46999998093E+01 0.  1.
       -5    1    3    3    0  502  0.68542533750E+03 -0.14268685680E+03  0.41371284759E+03  0.81323295718E+03  0.46999998093E+01 0. -1.
</event>
<event>
 5   0  0.1866935E-05  0.2200919E+04  0.7818609E-02  0.8518046E-01
        1   -1    0    0  501    0  0.00000000000E+00  0.00000000000E+00  0.77666091626E+03  0.77666091627E+03  0.50400001928E-02 0. -1.
       -1   -1    0    0    0  501  0.00000000000E+00  0.00000000000E+00 -0.15592527966E+04  0.15592527966E+04  0.50400001928E-02 0.  1.
    10030    2    1    2    0    0  0.00000000000E+00  0.00000000000E+00 -0.78259188037E+03  0.23359137129E+04  0.22009186316E+04 0.  0.
        4    1    3    3  502    0 -0.84302378854E+03 -0.24402912566E+02  0.35897499537E+03  0.91659656904E+03  0.12699999809E+01 0. -1.
       -4    1    3    3    0  502  0.84302378854E+03  0.24402912566E+02 -0.11415668757E+04  0.14193171439E+04  0.12699999809E+01 0.  1.
</event>
<event>
 5   0  0.4029532E-05  0.2206545E+04  0.7818609E-02  0.8515709E-01
       -2   -1    0    0    0  501  0.00000000000E+00  0.00000000000E+00  0.81923011212E+03  0.81923011213E+03  0.25500000920E-02 0. -1.
        2   -1    0    0  501    0  0.00000000000E+00  0.00000000000E+00 -0.14857971050E+04  0.14857971050E+04  0.25500000920E-02 0.  1.
    10030    2    1    2    0    0  0.00000000000E+00  0.00000000000E+00 -0.66656699284E+03  0.23050272171E+04  0.22065445646E+04 0.  0.
        3    1    3    3  502    0 -0.72129254945E+02 -0.74090985988E+03  0.51734447736E+03  0.90652929812E+03  0.10100000352E+00 0. -1.
       -3    1    3    3    0  502  0.72129254945E+02  0.74090985988E+03 -0.11839114702E+04  0.13984979190E+04  0.10100000352E+00 0.  1.
</event>
<event>
 5   0  0.4143281E-05  0.2202418E+04  0.7818609E-02  0.8517422E-01
       -2   -1    0    0    0  501  0.00000000000E+00  0.00000000000E+00  0.50499891143E+03  0.50499891144E+03  0.25500000920E-02 0.  1.
        2   -1    0    0  501    0  0.00000000000E+00  0.00000000000E+00 -0.24013154620E+04  0.24013154620E+04  0.25500000920E-02 0. -1.
    10030    2    1    2    0    0  0.00000000000E+00  0.00000000000E+00 -0.18963165506E+04  0.29063143734E+04  0.22024183929E+04 0.  0.
        2    1    3    3  502    0  0.51514015563E+02  0.18856622119E+03 -0.23782377548E+04  0.23862576835E+04  0.25500000920E-02 0. -1.
       -2    1    3    3    0  502 -0.51514015563E+02 -0.18856622119E+03  0.48192120429E+03  0.52005668991E+03  0.25500000920E-02 0.  1.
</event>
<event>
 5   0  0.4132460E-05  0.2201677E+04  0.7818609E-02  0.8517731E-01
        2   -1    0    0  501    0  0.00000000000E+00  0.00000000000E+00  0.80910135007E+03  0.80910135007E+03  0.25500000920E-02 0. -1.
       -2   -1    0    0    0  501  0.00000000000E+00  0.00000000000E+00 -0.14977665771E+04  0.14977665771E+04  0.25500000920E-02 0.  1.
    10030    2    1    2    0    0  0.00000000000E+00  0.00000000000E+00 -0.68866522702E+03  0.23068679272E+04  0.22016765972E+04 0.  0.
        4    1    3    3  502    0  0.24727164756E+03  0.81822213641E+03 -0.10711707506E+04  0.13704156749E+04  0.12699999809E+01 0.  1.
       -4    1    3    3    0  502 -0.24727164756E+03 -0.81822213641E+03  0.38250552361E+03  0.93645225222E+03  0.12699999809E+01 0. -1.
</event>
<event>
 5   0  0.4029532E-05  0.2201052E+04  0.7818609E-02  0.8517990E-01
       -2   -1    0    0    0  501  0.00000000000E+00  0.00000000000E+00  0.56392324905E+03  0.56392324906E+03  0.25500000920E-02 0.  1.
        2   -1    0    0  501    0  0.00000000000E+00  0.00000000000E+00 -0.21477340326E+04  0.21477340326E+04  0.25500000920E-02 0. -1.
    10030    2    1    2    0    0  0.00000000000E+00  0.00000000000E+00 -0.15838107836E+04  0.27116572817E+04  0.22010517066E+04 0.  0.
        3    1    3    3  502    0 -0.45792049878E+03 -0.88049160003E+03 -0.13778429506E+04  0.16980600247E+04  0.10100000352E+00 0.  1.
       -3    1    3    3    0  502  0.45792049878E+03  0.88049160003E+03 -0.20596783302E+03  0.10135972570E+04  0.10100000352E+00 0. -1.
</event>
<event>
 5   0  0.3963414E-05  0.2202546E+04  0.7818609E-02  0.8517369E-01
       -2   -1    0    0    0  501  0.00000000000E+00  0.00000000000E+00  0.15058811864E+04  0.15058811864E+04  0.25500000920E-02 0.  1.
        2   -1    0    0  501    0  0.00000000000E+00  0.00000000000E+00 -0.80537697689E+03  0.80537697690E+03  0.25500000920E-02 0. -1.
    10030    2    1    2    0    0  0.00000000000E+00  0.00000000000E+00  0.70050420951E+03  0.23112581633E+04  0.22025458338E+04 0.  0.
        1    1    3    3  502    0 -0.31464511123E+03 -0.10321631823E+04  0.11929887973E+03  0.10856309703E+04  0.50400001928E-02 0.  1.
       -1    1    3    3    0  502  0.31464511123E+03  0.10321631823E+04  0.58120532978E+03  0.12256271930E+04  0.50400001928E-02 0. -1.
</event>
<event>
 5   0  0.3963414E-05  0.2192795E+04  0.7818609E-02  0.8521433E-01
       -2   -1    0    0    0  501  0.00000000000E+00  0.00000000000E+00  0.87516893046E+03  0.87516893047E+03  0.25500000920E-02 0. -1.
        2   -1    0    0  501    0  0.00000000000E+00  0.00000000000E+00 -0.13735484991E+04  0.13735484991E+04  0.25500000920E-02 0.  1.
    10030    2    1    2    0    0  0.00000000000E+00  0.00000000000E+00 -0.49837956861E+03  0.22487174295E+04  0.21927945375E+04 0.  0.
        1    1    3    3  502    0 -0.70959191888E+03  0.80710171099E+03 -0.26504199005E+02  0.10750052725E+04  0.50400001928E-02 0. -1.
       -1    1    3    3    0  502  0.70959191888E+03 -0.80710171099E+03 -0.47187536961E+03  0.11737121571E+04  0.50400001928E-02 0.  1.
</event>
<event>
 5   0  0.1788413E-05  0.2161253E+04  0.7818609E-02  0.8534731E-01
        1   -1    0    0  501    0  0.00000000000E+00  0.00000000000E+00  0.88201451771E+03  0.88201451772E+03  0.50400001928E-02 0. -1.
       -1   -1    0    0    0  501  0.00000000000E+00  0.00000000000E+00 -0.13239619397E+04  0.13239619397E+04  0.50400001928E-02 0.  1.
    10030    2    1    2    0    0  0.00000000000E+00  0.00000000000E+00 -0.44194742198E+03  0.22059764574E+04  0.21612530178E+04 0.  0.
        1    1    3    3  502    0 -0.62449155993E+03  0.47640829863E+03 -0.97848980150E+03  0.12547497229E+04  0.50400001928E-02 0.  1.
       -1    1    3    3    0  502  0.62449155993E+03 -0.47640829863E+03  0.53654237952E+03  0.95122673452E+03  0.50400001928E-02 0. -1.
</event>
<event>
 5   0  0.1815681E-05  0.2177289E+04  0.7818609E-02  0.8527941E-01
       -1   -1    0    0    0  501  0.00000000000E+00  0.00000000000E+00  0.99002273506E+03  0.99002273508E+03  0.50400001928E-02 0. -1.
        1   -1    0    0  501    0  0.00000000000E+00  0.00000000000E+00 -0.11970907985E+04  0.11970907985E+04  0.50400001928E-02 0.  1.
    10030    2    1    2    0    0  0.00000000000E+00  0.00000000000E+00 -0.20706806347E+03  0.21871135336E+04  0.21772892380E+04 0.  0.
        2    1    3    3  502    0 -0.10543103816E+04 -0.22772082502E+03  0.44507861203E+02  0.10795406915E+04  0.25500000920E-02 0. -1.
       -2    1    3    3    0  502  0.10543103816E+04  0.22772082502E+03 -0.25157592467E+03  0.11075728422E+04  0.25500000920E-02 0.  1.
</event>
<event>
 5   0  0.3963414E-05  0.2226446E+04  0.7818609E-02  0.8507501E-01
        2   -1    0    0  501    0  0.00000000000E+00  0.00000000000E+00  0.22477469062E+04  0.22477469062E+04  0.25500000920E-02 0.  1.
       -2   -1    0    0    0  501  0.00000000000E+00  0.00000000000E+00 -0.55133676574E+03  0.55133676575E+03  0.25500000920E-02 0. -1.
    10030    2    1    2    0    0  0.00000000000E+00  0.00000000000E+00  0.16964101404E+04  0.27990836719E+04  0.22264460555E+04 0.  0.
        1    1    3    3  502    0  0.58865474214E+03  0.74797869512E+03  0.12242061435E+03  0.95967355941E+03  0.50400001928E-02 0. -1.
       -1    1    3    3    0  502 -0.58865474214E+03 -0.74797869512E+03  0.15739895261E+04  0.18394101125E+04  0.50400001928E-02 0.  1.
</event>
<event>
 5   0  0.1884407E-05  0.2184446E+04  0.7818609E-02  0.8524930E-01
        1   -1    0    0  501    0  0.00000000000E+00  0.00000000000E+00  0.82302329890E+03  0.82302329892E+03  0.50400001928E-02 0. -1.
       -1   -1    0    0    0  501  0.00000000000E+00  0.00000000000E+00 -0.14494747962E+04  0.14494747962E+04  0.50400001928E-02 0.  1.
    10030    2    1    2    0    0  0.00000000000E+00  0.00000000000E+00 -0.62645149734E+03  0.22724980952E+04  0.21844464090E+04 0.  0.
        3    1    3    3  502    0  0.74181495600E+02  0.67158747416E+03 -0.12059649238E+04  0.13823472926E+04  0.10100000352E+00 0.  1.
       -3    1    3    3    0  502 -0.74181495600E+02 -0.67158747416E+03  0.57951342643E+03  0.89015080259E+03  0.10100000352E+00 0. -1.
</event>
<event>
 5   0  0.4027923E-05  0.2203818E+04  0.7818609E-02  0.8516841E-01
       -2   -1    0    0    0  501  0.00000000000E+00  0.00000000000E+00  0.63448750144E+03  0.63448750144E+03  0.25500000920E-02 0.  1.
        2   -1    0    0  501    0  0.00000000000E+00  0.00000000000E+00 -0.19136764818E+04  0.19136764818E+04  0.25500000920E-02 0. -1.
    10030    2    1    2    0    0  0.00000000000E+00  0.00000000000E+00 -0.12791889804E+04  0.25481639832E+04  0.22038183314E+04 0.  0.
        5    1    3    3  502    0  0.69703973106E+03  0.84880142706E+03 -0.53712787670E+03  0.12226433230E+04  0.46999998093E+01 0. -1.
       -5    1    3    3    0  502 -0.69703973106E+03 -0.84880142706E+03 -0.74206110365E+03  0.13255206603E+04  0.46999998093E+01 0.  1.
</event>
<event>
 5   0  0.1884407E-05  0.2193474E+04  0.7818609E-02  0.8521149E-01
       -1   -1    0    0    0  501  0.00000000000E+00  0.00000000000E+00  0.11789267483E+04  0.11789267483E+04  0.50400001928E-02 0.  1.
        1   -1    0    0  501    0  0.00000000000E+00  0.00000000000E+00 -0.10202775179E+04  0.10202775179E+04  0.50400001928E-02 0. -1.
    10030    2    1    2    0    0  0.00000000000E+00  0.00000000000E+00  0.15864923044E+03  0.21992042662E+04  0.21934743732E+04 0.  0.
        3    1    3    3  502    0 -0.60522473680E+03  0.54184114400E+03  0.81809653384E+03  0.11528966806E+04  0.10100000352E+00 0.  1.
       -3    1    3    3    0  502  0.60522473680E+03 -0.54184114400E+03 -0.65944730340E+03  0.10463075855E+04  0.10100000352E+00 0. -1.
</event>
<event>
 5   0  0.4143281E-05  0.2096251E+04  0.7818609E-02  0.8562897E-01
       -2   -1    0    0    0  501  0.00000000000E+00  0.00000000000E+00  0.60047211863E+03  0.60047211863E+03  0.25500000920E-02 0. -1.
        2   -1    0    0  501    0  0.00000000000E+00  0.00000000000E+00 -0.18295060291E+04  0.18295060291E+04  0.25500000920E-02 0.  1.
    10030    2    1    2    0    0  0.00000000000E+00  0.00000000000E+00 -0.12290339105E+04  0.24299781477E+04  0.20962512839E+04 0.  0.
        2    1    3    3  502    0 -0.78029028992E+03  0.42073495711E+02 -0.14242542210E+04  0.16245378425E+04  0.25500000920E-02 0.  1.
       -2    1    3    3    0  502  0.78029028992E+03 -0.42073495711E+02  0.19522031058E+03  0.80544030521E+03  0.25500000920E-02 0. -1.
</event>
<event>
 5   0  0.1866935E-05  0.2189294E+04  0.7818609E-02  0.8522897E-01
        1   -1    0    0  501    0  0.00000000000E+00  0.00000000000E+00  0.28481759763E+04  0.28481759763E+04  0.50400001928E-02 0.  1.
       -1   -1    0    0    0  501  0.00000000000E+00  0.00000000000E+00 -0.42070875904E+03  0.42070875907E+03  0.50400001928E-02 0. -1.
    10030    2    1    2    0    0  0.00000000000E+00  0.00000000000E+00  0.24274672173E+04  0.32688847354E+04  0.21892944805E+04 0.  0.
        4    1    3    3  502    0 -0.92690687777E+02 -0.10848547432E+04  0.13823281616E+04  0.17596403430E+04  0.12699999809E+01 0. -1.
       -4    1    3    3    0  502  0.92690687777E+02  0.10848547432E+04  0.10451390557E+04  0.15092443924E+04  0.12699999809E+01 0.  1.
</event>
<event>
 5   0  0.1786228E-05  0.2202635E+04  0.7818609E-02  0.8517332E-01
       -1   -1    0    0    0  501  0.00000000000E+00  0.00000000000E+00  0.89468371934E+03  0.89468371936E+03  0.50400001928E-02 0. -1.
        1   -1    0    0  501    0  0.00000000000E+00  0.00000000000E+00 -0.13556749946E+04  0.13556749946E+04  0.50400001928E-02 0.  1.
    10030    2    1    2    0    0  0.00000000000E+00  0.00000000000E+00 -0.46099127527E+03  0.22503587140E+04  0.22026351004E+04 0.  0.
        5    1    3    3  502    0  0.51151025563E+03  0.59499784984E+02 -0.12250844207E+04  0.13289232084E+04  0.46999998093E+01 0.  1.
       -5    1    3    3    0  502 -0.51151025563E+03 -0.59499784984E+02  0.76409314543E+03  0.92143550557E+03  0.46999998093E+01 0. -1.
</event>
<event>
 5   0  0.1788413E-05  0.2243587E+04  0.7818609E-02  0.8500502E-01
        1   -1    0    0  501    0  0.00000000000E+00  0.00000000000E+00  0.12200596054E+04  0.12200596054E+04  0.50400001928E-02 0. -1.
       -1   -1    0    0    0  501  0.00000000000E+00  0.00000000000E+00 -0.10314415304E+04  0.10314415304E+04  0.50400001928E-02 0.  1.
    10030    2    1    2    0    0  0.00000000000E+00  0.00000000000E+00  0.18861807505E+03  0.22515011358E+04  0.22435865453E+04 0.  0.
        1    1    3    3  502    0  0.73725992819E+02 -0.18121569686E+03 -0.10141895754E+04  0.10328868019E+04  0.50400001928E-02 0.  1.
       -1    1    3    3    0  502 -0.73725992819E+02  0.18121569686E+03  0.12028076504E+04  0.12186143339E+04  0.50400001928E-02 0. -1.
</event>
<event>
 5   0  0.1815681E-05  0.2199169E+04  0.7818609E-02  0.8518774E-01
       -1   -1    0    0    0  501  0.00000000000E+00  0.00000000000E+00  0.11325742674E+04  0.11325742675E+04  0.50400001928E-02 0.  1.
        1   -1    0    0  501    0  0.00000000000E+00  0.00000000000E+00 -0.10675558195E+04  0.10675558195E+04  0.50400001928E-02 0. -1.
    10030    2    1    2    0    0  0.00000000000E+00  0.00000000000E+00  0.65018447960E+02  0.22001300870E+04  0.21991691615E+04 0.  0.
        2    1    3    3  502    0 -0.80897271077E+03 -0.31339200115E+03 -0.64338560660E+03  0.10800909369E+04  0.25500000920E-02 0. -1.
       -2    1    3    3    0  502  0.80897271077E+03  0.31339200115E+03  0.70840405456E+03  0.11200391501E+04  0.25500000920E-02 0.  1.
</event>
<event>
 5   0  0.4029532E-05  0.2151456E+04  0.7818609E-02  0.8538909E-01
        2   -1    0    0  501    0  0.00000000000E+00  0.00000000000E+00  0.65218706474E+03  0.65218706475E+03  0.25500000920E-02 0. -1.
       -2   -1    0    0    0  501  0.00000000000E+00  0.00000000000E+00 -0.17743232445E+04  0.17743232445E+04  0.25500000920E-02 0.  1.
    10030    2    1    2    0    0  0.00000000000E+00  0.00000000000E+00 -0.11221361797E+04  0.24265103092E+04  0.21514559431E+04 0.  0.
        3    1    3    3  502    0 -0.10295794700E+04  0.43559082331E+02 -0.21296846229E+03  0.10522769858E+04  0.10100000352E+00 0.  1.
       -3    1    3    3    0  502  0.10295794700E+04 -0.43559082331E+02 -0.90916771745E+03  0.13742333235E+04  0.10100000352E+00 0. -1.
</event>
<event>
 5   0  0.3963414E-05  0.2222615E+04  0.7818609E-02  0.8509074E-01
        2   -1    0    0  501    0  0.00000000000E+00  0.00000000000E+00  0.17816672735E+04  0.17816672735E+04  0.25500000920E-02 0.  1.
       -2   -1    0    0    0  501  0.00000000000E+00  0.00000000000E+00 -0.69317319908E+03  0.69317319909E+03  0.25500000920E-02 0. -1.
    10030    2    1    2    0    0  0.00000000000E+00  0.00000000000E+00  0.10884940744E+04  0.24748404726E+04  0.22226146798E+04 0.  0.
        1    1    3    3  502    0  0.56277675229E+03  0.18696784012E+03  0.15907594008E+04  0.16977014218E+04  0.50400001928E-02 0.  1.
       -1    1    3    3    0  502 -0.56277675229E+03 -0.18696784012E+03 -0.50226532641E+03  0.77713905081E+03  0.50400001928E-02 0. -1.
</event>
<event>
 5   0  0.1815681E-05  0.2208033E+04  0.7818609E-02  0.8515092E-01
        1   -1    0    0  501    0  0.00000000000E+00  0.00000000000E+00  0.16768290226E+04  0.16768290226E+04  0.50400001928E-02 0.  1.
       -1   -1    0    0    0  501  0.00000000000E+00  0.00000000000E+00 -0.72687927585E+03  0.72687927586E+03  0.50400001928E-02 0. -1.
    10030    2    1    2    0    0  0.00000000000E+00  0.00000000000E+00  0.94994974673E+03  0.24037082985E+04  0.22080328491E+04 0.  0.
        2    1    3    3  502    0 -0.15947200113E+03  0.54510187206E+03  0.15055965475E+04  0.16091576473E+04  0.25500000920E-02 0.  1.
       -2    1    3    3    0  502  0.15947200113E+03 -0.54510187206E+03 -0.55564680075E+03  0.79455065116E+03  0.25500000920E-02 0. -1.
</event>
<event>
 5   0  0.1866935E-05  0.2199609E+04  0.7818609E-02  0.8518591E-01
       -1   -1    0    0    0  501  0.00000000000E+00  0.00000000000E+00  0.61843356743E+03  0.61843356745E+03  0.50400001928E-02 0.  1.
        1   -1    0    0  501    0  0.00000000000E+00  0.00000000000E+00 -0.19558598888E+04  0.19558598888E+04  0.50400001928E-02 0. -1.
    10030    2    1    2    0    0  0.00000000000E+00  0.00000000000E+00 -0.13374263214E+04  0.25742934563E+04  0.21996085183E+04 0.  0.
        4    1    3    3  502    0 -0.70833823073E+03  0.41579371691E+03  0.18727021672E+03  0.84243647304E+03  0.12699999809E+01 0.  1.
       -4    1    3    3    0  502  0.70833823073E+03 -0.41579371691E+03 -0.15246965381E+04  0.17318569832E+04  0.12699999809E+01 0. -1.
</event>
<event>
 5   0  0.1884407E-05  0.2194774E+04  0.7818609E-02  0.8520606E-01
        1   -1    0    0  501    0  0.00000000000E+00  0.00000000000E+00  0.21301841096E+04  0.21301841096E+04  0.50400001928E-02 0. -1.
       -1   -1    0    0    0  501  0.00000000000E+00  0.00000000000E+00 -0.56533055271E+03  0.56533055273E+03  0.50400001928E-02 0.  1.
    10030    2    1    2    0    0  0.00000000000E+00  0.00000000000E+00  0.15648535569E+04  0.26955146624E+04  0.21947739383E+04 0.  0.
        3    1    3    3  502    0 -0.10665091912E+04  0.12315318414E+03  0.50331039095E+03  0.11857191580E+04  0.10100000352E+00 0.  1.
       -3    1    3    3    0  502  0.10665091912E+04 -0.12315318414E+03  0.10615431660E+04  0.15097955044E+04  0.10100000352E+00 0. -1.
</event>
<event>
 5   0  0.1866935E-05  0.2209441E+04  0.7818609E-02  0.8514509E-01
       -1   -1    0    0    0  501  0.00000000000E+00  0.00000000000E+00  0.76750027762E+03  0.76750027763E+03  0.50400001928E-02 0.  1.
        1   -1    0    0  501    0  0.00000000000E+00  0.00000000000E+00 -0.15901066520E+04  0.15901066520E+04  0.50400001928E-02 0. -1.
    10030    2    1    2    0    0  0.00000000000E+00  0.00000000000E+00 -0.82260637436E+03  0.23576069296E+04  0.22094409219E+04 0.  0.
        4    1    3    3  502    0 -0.81517924038E+03  0.68054704501E+01 -0.12068481938E+04  0.14563817097E+04  0.12699999809E+01 0.  1.
       -4    1    3    3    0  502  0.81517924038E+03 -0.68054704501E+01  0.38424181946E+03  0.90122521997E+03  0.12699999809E+01 0. -1.
</event>
<event>
 5   0  0.4143281E-05  0.2207474E+04  0.7818609E-02  0.8515324E-01
       -2   -1    0    0    0  501  0.00000000000E+00  0.00000000000E+00  0.10244245757E+04  0.10244245757E+04  0.25500000920E-02 0. -1.
        2   -1    0    0  501    0  0.00000000000E+00  0.00000000000E+00 -0.11891898904E+04  0.11891898904E+04  0.25500000920E-02 0.  1.
    10030    2    1    2    0    0  0.00000000000E+00  0.00000000000E+00 -0.16476531471E+03  0.22136144662E+04  0.22074739853E+04 0.  0.
        2    1    3    3  502    0 -0.51195637984E+03 -0.92189982734E+03  0.24446375476E+03  0.10824791702E+04  0.25500000920E-02 0. -1.
       -2    1    3    3    0  502  0.51195637984E+03  0.92189982734E+03 -0.40922906947E+03  0.11311352960E+04  0.25500000920E-02 0.  1.
</event>
<event>
 5   0  0.3963414E-05  0.2143974E+04  0.7818609E-02  0.8542116E-01
       -2   -1    0    0    0  501  0.00000000000E+00  0.00000000000E+00  0.67753712061E+03  0.67753712061E+03  0.25500000920E-02 0.  1.
        2   -1    0    0  501    0  0.00000000000E+00  0.00000000000E+00 -0.16960791981E+04  0.16960791981E+04  0.25500000920E-02 0. -1.
    10030    2    1    2    0    0  0.00000000000E+00  0.00000000000E+00 -0.10185420775E+04  0.23736163187E+04  0.21439744553E+04 0.  0.
        1    1    3    3  502    0  0.19638744095E+03 -0.25018170195E+03  0.62409730561E+03  0.70046867015E+03  0.50400001928E-02 0.  1.
       -1    1    3    3    0  502 -0.19638744095E+03  0.25018170195E+03 -0.16426393831E+04  0.16731476486E+04  0.50400001928E-02 0. -1.
</event>
<event>
 5   0  0.1788413E-05  0.2206413E+04  0.7818609E-02  0.8515764E-01
       -1   -1    0    0    0  501  0.00000000000E+00  0.00000000000E+00  0.78699011431E+03  0.78699011432E+03  0.50400001928E-02 0. -1.
        1   -1    0    0  501    0  0.00000000000E+00  0.00000000000E+00 -0.15464802947E+04  0.15464802948E+04  0.50400001928E-02 0.  1.
    10030    2    1    2    0    0  0.00000000000E+00  0.00000000000E+00 -0.75949018044E+03  0.23334704091E+04  0.22064131109E+04 0.  0.
        1    1    3    3  502    0  0.65864436981E+02  0.43853706426E+03 -0.14480696424E+04  0.15144499232E+04  0.50400001928E-02 0.  1.
       -1    1    3    3    0  502 -0.65864436981E+02 -0.43853706426E+03  0.68857946194E+03  0.81902048584E+03  0.50400001928E-02 0. -1.
</event>
<event>
 5   0  0.4143281E-05  0.2200291E+04  0.7818609E-02  0.8518307E-01
       -2   -1    0    0    0  501  0.00000000000E+00  0.00000000000E+00  0.71017093994E+03  0.71017093994E+03  0.25500000920E-02 0. -1.
        2   -1    0    0  501    0  0.00000000000E+00  0.00000000000E+00 -0.17042652330E+04  0.17042652331E+04  0.25500000920E-02 0.  1.
    10030    2    1    2    0    0  0.00000000000E+00  0.00000000000E+00 -0.99409429311E+03  0.24144361730E+04  0.22002905649E+04 0.  0.
        2    1    3    3  502    0  0.21491228858E+03 -0.49116021239E+03 -0.15512194533E+04  0.16412517900E+04  0.25500000920E-02 0.  1.
       -2    1    3    3    0  502 -0.21491228858E+03  0.49116021239E+03  0.55712516015E+03  0.77318438298E+03  0.25500000920E-02 0. -1.
</event>
<event>
 5   0  0.1884407E-05  0.2192153E+04  0.7818609E-02  0.8521701E-01
       -1   -1    0    0    0  501  0.00000000000E+00  0.00000000000E+00  0.13665679892E+04  0.13665679892E+04  0.50400001928E-02 0.  1.
        1   -1    0    0  501    0  0.00000000000E+00  0.00000000000E+00 -0.87912451912E+03  0.87912451913E+03  0.50400001928E-02 0. -1.
    10030    2    1    2    0    0  0.00000000000E+00  0.00000000000E+00  0.48744347012E+03  0.22456925084E+04  0.21921527560E+04 0.  0.
        3    1    3    3  502    0 -0.17137009355E+03  0.76070878467E+01 -0.86528828625E+03  0.88212777151E+03  0.10100000352E+00 0. -1.
       -3    1    3    3    0  502  0.17137009355E+03 -0.76070878467E+01  0.13527317564E+04  0.13635647369E+04  0.10100000352E+00 0.  1.
</event>
<event>
 5   0  0.3963414E-05  0.2177249E+04  0.7818609E-02  0.8527958E-01
        2   -1    0    0  501    0  0.00000000000E+00  0.00000000000E+00  0.92037534144E+03  0.92037534145E+03  0.25500000920E-02 0.  1.
       -2   -1    0    0    0  501  0.00000000000E+00  0.00000000000E+00 -0.12876302992E+04  0.12876302992E+04  0.25500000920E-02 0. -1.
    10030    2    1    2    0    0  0.00000000000E+00  0.00000000000E+00 -0.36725495772E+03  0.22080056406E+04  0.21772488845E+04 0.  0.
        1    1    3    3  502    0 -0.60270434006E+03 -0.29815619239E+03 -0.10518485568E+04  0.12484130018E+04  0.50400001928E-02 0. -1.
       -1    1    3    3    0  502  0.60270434006E+03  0.29815619239E+03  0.68459359906E+03  0.95959263883E+03  0.50400001928E-02 0.  1.
</event>
<event>
 5   0  0.1884407E-05  0.2192075E+04  0.7818609E-02  0.8521734E-01
       -1   -1    0    0    0  501  0.00000000000E+00  0.00000000000E+00  0.12348411128E+04  0.12348411129E+04  0.50400001928E-02 0.  1.
        1   -1    0    0  501    0  0.00000000000E+00  0.00000000000E+00 -0.97283587549E+03  0.97283587550E+03  0.50400001928E-02 0. -1.
    10030    2    1    2    0    0  0.00000000000E+00  0.00000000000E+00  0.26200523736E+03  0.22076769884E+04  0.21920745746E+04 0.  0.
        3    1    3    3  502    0  0.73069730843E+03  0.80480853270E+03 -0.10218095676E+02  0.10870785393E+04  0.10100000352E+00 0. -1.
       -3    1    3    3    0  502 -0.73069730843E+03 -0.80480853270E+03  0.27222333304E+03  0.11205984491E+04  0.10100000352E+00 0.  1.
</event>
<event>
 5   0  0.4027923E-05  0.2213763E+04  0.7818609E-02  0.8512722E-01
        2   -1    0    0  501    0  0.00000000000E+00  0.00000000000E+00  0.11570782813E+04  0.11570782813E+04  0.25500000920E-02 0.  1.
       -2   -1    0    0    0  501  0.00000000000E+00  0.00000000000E+00 -0.10588621280E+04  0.10588621280E+04  0.25500000920E-02 0. -1.
    10030    2    1    2    0    0  0.00000000000E+00  0.00000000000E+00  0.98216153306E+02  0.22159404094E+04  0.22137627437E+04 0.  0.
        5    1    3    3  502    0  0.17198267672E+03  0.10828812364E+04  0.20076443340E+03  0.11146920028E+04  0.46999998093E+01 0.  1.
       -5    1    3    3    0  502 -0.17198267672E+03 -0.10828812364E+04 -0.10254828009E+03  0.11012484066E+04  0.46999998093E+01 0. -1.
</event>
<event>
 5   0  0.3963414E-05  0.2207131E+04  0.7818609E-02  0.8515466E-01
        2   -1    0    0  501    0  0.00000000000E+00  0.00000000000E+00  0.27154556396E+04  0.27154556396E+04  0.25500000920E-02 0. -1.
       -2   -1    0    0    0  501  0.00000000000E+00  0.00000000000E+00 -0.44849062779E+03  0.44849062780E+03  0.25500000920E-02 0.  1.
    10030    2    1    2    0    0  0.00000000000E+00  0.00000000000E+00  0.22669650118E+04  0.31639462674E+04  0.22071306301E+04 0.  0.
        1    1    3    3  502    0 -0.38820924489E+03  0.54461380041E+02  0.26122824067E+04  0.26415320994E+04  0.50400001928E-02 0. -1.
       -1    1    3    3    0  502  0.38820924489E+03 -0.54461380041E+02 -0.34531739487E+03  0.52241416803E+03  0.50400001928E-02 0.  1.
</event>
<event>
 5   0  0.1815681E-05  0.2207203E+04  0.7818609E-02  0.8515436E-01
        1   -1    0    0  501    0  0.00000000000E+00  0.00000000000E+00  0.15234042201E+04  0.15234042201E+04  0.50400001928E-02 0.  1.
       -1   -1    0    0    0  501  0.00000000000E+00  0.00000000000E+00 -0.79948305973E+03  0.79948305975E+03  0.50400001928E-02 0. -1.
    10030    2    1    2    0    0  0.00000000000E+00  0.00000000000E+00  0.72392116032E+03  0.23228872798E+04  0.22072026342E+04 0.  0.
        2    1    3    3  502    0  0.21507846177E+03 -0.25845535311E+03 -0.74426343856E+03  0.81669209636E+03  0.25500000920E-02 0. -1.
       -2    1    3    3    0  502 -0.21507846177E+03  0.25845535311E+03  0.14681845989E+04  0.15061951835E+04  0.25500000920E-02 0.  1.
</event>
<event>
 5   0  0.4143281E-05  0.2188856E+04  0.7818609E-02  0.8523081E-01
        2   -1    0    0  501    0  0.00000000000E+00  0.00000000000E+00  0.23309627623E+04  0.23309627623E+04  0.25500000920E-02 0.  1.
       -2   -1    0    0    0  501  0.00000000000E+00  0.00000000000E+00 -0.51385321621E+03  0.51385321621E+03  0.25500000920E-02 0. -1.
    10030    2    1    2    0    0  0.00000000000E+00  0.00000000000E+00  0.18171095460E+04  0.28448159785E+04  0.21888560595E+04 0.  0.
        2    1    3    3  502    0  0.80764474583E+03  0.84927892665E+02  0.18620906432E+04  0.20314734421E+04  0.25500000920E-02 0.  1.
       -2    1    3    3    0  502 -0.80764474583E+03 -0.84927892665E+02 -0.44981097125E+02  0.81334253640E+03  0.25500000920E-02 0. -1.
</event>
<event>
 5   0  0.3963414E-05  0.2148174E+04  0.7818609E-02  0.8540314E-01
       -2   -1    0    0    0  501  0.00000000000E+00  0.00000000000E+00  0.42652333179E+03  0.42652333180E+03  0.25500000920E-02 0. -1.
        2   -1    0    0  501    0  0.00000000000E+00  0.00000000000E+00 -0.27048061034E+04  0.27048061034E+04  0.25500000920E-02 0.  1.
    10030    2    1    2    0    0  0.00000000000E+00  0.00000000000E+00 -0.22782827716E+04  0.31313294352E+04  0.21481740256E+04 0.  0.
        1    1    3    3  502    0  0.63763130352E+03  0.59620485039E+03 -0.22692740131E+03  0.90195895047E+03  0.50400001928E-02 0. -1.
       -1    1    3    3    0  502 -0.63763130352E+03 -0.59620485039E+03 -0.20513553703E+04  0.22293704847E+04  0.50400001928E-02 0.  1.
</event>
<event>
 5   0  0.1815681E-05  0.2206639E+04  0.7818609E-02  0.8515670E-01
        1   -1    0    0  501    0  0.00000000000E+00  0.00000000000E+00  0.73911360623E+03  0.73911360624E+03  0.50400001928E-02 0. -1.
       -1   -1    0    0    0  501  0.00000000000E+00  0.00000000000E+00 -0.16469918991E+04  0.16469918991E+04  0.50400001928E-02 0.  1.
    10030    2    1    2    0    0  0.00000000000E+00  0.00000000000E+00 -0.90787829289E+03  0.23861055054E+04  0.22066391839E+04 0.  0.
        2    1    3    3  502    0  0.88123544796E+03 -0.64920715130E+03 -0.30383945019E+03  0.11359420106E+04  0.25500000920E-02 0.  1.
       -2    1    3    3    0  502 -0.88123544796E+03  0.64920715130E+03 -0.60403884271E+03  0.12501634947E+04  0.25500000920E-02 0. -1.
</event>
<event>
 5   0  0.1866935E-05  0.2237566E+04  0.7818609E-02  0.8502953E-01
        1   -1    0    0  501    0  0.00000000000E+00  0.00000000000E+00  0.98817243525E+03  0.98817243526E+03  0.50400001928E-02 0.  1.
       -1   -1    0    0    0  501  0.00000000000E+00  0.00000000000E+00 -0.12666569470E+04  0.12666569470E+04  0.50400001928E-02 0. -1.
    10030    2    1    2    0    0  0.00000000000E+00  0.00000000000E+00 -0.27848451172E+03  0.22548293822E+04  0.22375660705E+04 0.  0.
        4    1    3    3  502    0 -0.62459908844E+03  0.36494802071E+03  0.72078396465E+03  0.10211964628E+04  0.12699999809E+01 0.  1.
       -4    1    3    3    0  502  0.62459908844E+03 -0.36494802071E+03 -0.99926847637E+03  0.12336329194E+04  0.12699999809E+01 0. -1.
</event>
<event>
 5   0  0.4027923E-05  0.2183965E+04  0.7818609E-02  0.8525132E-01
       -2   -1    0    0    0  501  0.00000000000E+00  0.00000000000E+00  0.94729156894E+03  0.94729156895E+03  0.25500000920E-02 0.  1.
        2   -1    0    0  501    0  0.00000000000E+00  0.00000000000E+00 -0.12587734154E+04  0.12587734154E+04  0.25500000920E-02 0. -1.
    10030    2    1    2    0    0  0.00000000000E+00  0.00000000000E+00 -0.31148184643E+03  0.22060649843E+04  0.21839646917E+04 0.  0.
        5    1    3    3  502    0  0.50146463852E+03 -0.54899403672E+03  0.65206542880E+03  0.98897555555E+03  0.46999998093E+01 0.  1.
       -5    1    3    3    0  502 -0.50146463852E+03  0.54899403672E+03 -0.96354727523E+03  0.12170894288E+04  0.46999998093E+01 0. -1.
</event>
<event>
 5   0  0.1884407E-05  0.2206159E+04  0.7818609E-02  0.8515869E-01
       -1   -1    0    0    0  501  0.00000000000E+00  0.00000000000E+00  0.16577566773E+04  0.16577566773E+04  0.50400001928E-02 0.  1.
        1   -1    0    0  501    0  0.00000000000E+00  0.00000000000E+00 -0.73399486026E+03  0.73399486028E+03  0.50400001928E-02 0. -1.
    10030    2    1    2    0    0  0.00000000000E+00  0.00000000000E+00  0.92376181701E+03  0.23917515376E+04  0.22061594509E+04 0.  0.
        3    1    3    3  502    0 -0.45822309686E+03 -0.14121707921E+03 -0.61510510077E+03  0.77991343440E+03  0.10100000352E+00 0. -1.
       -3    1    3    3    0  502  0.45822309686E+03  0.14121707921E+03  0.15388669178E+04  0.16118381032E+04  0.10100000352E+00 0.  1.
</event>
<event>
 5   0  0.1884407E-05  0.2205377E+04  0.7818609E-02  0.8516193E-01
        1   -1    0    0  501    0  0.00000000000E+00  0.00000000000E+00  0.92668409216E+03  0.92668409217E+03  0.50400001928E-02 0. -1.
       -1   -1    0    0    0  501  0.00000000000E+00  0.00000000000E+00 -0.13121214122E+04  0.13121214122E+04  0.50400001928E-02 0.  1.
    10030    2    1    2    0    0  0.00000000000E+00  0.00000000000E+00 -0.38543732002E+03  0.22388055044E+04  0.22053771012E+04 0.  0.
        3    1    3    3  502    0 -0.90539309788E+02  0.58478935452E+03  0.75183964391E+03  0.95678566885E+03  0.10100000352E+00 0. -1.
       -3    1    3    3    0  502  0.90539309788E+02 -0.58478935452E+03 -0.11372769639E+04  0.12820198355E+04  0.10100000352E+00 0.  1.
</event>
<event>
 5   0  0.4029532E-05  0.2177371E+04  0.7818609E-02  0.8527906E-01
       -2   -1    0    0    0  501  0.00000000000E+00  0.00000000000E+00  0.51833906818E+03  0.51833906819E+03  0.25500000920E-02 0.  1.
        2   -1    0    0  501    0  0.00000000000E+00  0.00000000000E+00 -0.22866029142E+04  0.22866029142E+04  0.25500000920E-02 0. -1.
    10030    2    1    2    0    0  0.00000000000E+00  0.00000000000E+00 -0.17682638460E+04  0.28049419824E+04  0.21773705462E+04 0.  0.
        3    1    3    3  502    0 -0.81816247713E+03  0.71821303927E+03 -0.87901053793E+03  0.13992424182E+04  0.10100000352E+00 0.  1.
       -3    1    3    3    0  502  0.81816247713E+03 -0.71821303927E+03 -0.88925330810E+03  0.14056995642E+04  0.10100000352E+00 0. -1.
</event>
<event>
 5   0  0.4027923E-05  0.2208520E+04  0.7818609E-02  0.8514890E-01
        2   -1    0    0  501    0  0.00000000000E+00  0.00000000000E+00  0.11082939452E+04  0.11082939452E+04  0.25500000920E-02 0. -1.
       -2   -1    0    0    0  501  0.00000000000E+00  0.00000000000E+00 -0.11002404828E+04  0.11002404828E+04  0.25500000920E-02 0.  1.
    10030    2    1    2    0    0  0.00000000000E+00  0.00000000000E+00  0.80534624007E+01  0.22085344281E+04  0.22085197445E+04 0.  0.
        5    1    3    3  502    0  0.42775552133E+03 -0.13265640582E+03  0.10133873281E+04  0.11079478665E+04  0.46999998093E+01 0. -1.
       -5    1    3    3    0  502 -0.42775552133E+03  0.13265640582E+03 -0.10053338657E+04  0.11005865616E+04  0.46999998093E+01 0.  1.
</event>
<event>
 5   0  0.1786228E-05  0.2083821E+04  0.7818609E-02  0.8568404E-01
       -1   -1    0    0    0  501  0.00000000000E+00  0.00000000000E+00  0.10625242544E+04  0.10625242544E+04  0.50400001928E-02 0.  1.
        1   -1    0    0  501    0  0.00000000000E+00  0.00000000000E+00 -0.10216962721E+04  0.10216962721E+04  0.50400001928E-02 0. -1.
    10030    2    1    2    0    0  0.00000000000E+00  0.00000000000E+00  0.40827982293E+02  0.20842205265E+04  0.20838205966E+04 0.  0.
        5    1    3    3  502    0 -0.55073505908E+03  0.40823158957E+03  0.80516182153E+03  0.10574827587E+04  0.46999998093E+01 0.  1.
       -5    1    3    3    0  502  0.55073505908E+03 -0.40823158957E+03 -0.76433383924E+03  0.10267377678E+04  0.46999998093E+01 0. -1.
</event>
<event>
 5   0  0.1815681E-05  0.2208550E+04  0.7818609E-02  0.8514878E-01
        1   -1    0    0  501    0  0.00000000000E+00  0.00000000000E+00  0.20620967796E+04  0.20620967796E+04  0.50400001928E-02 0. -1.
       -1   -1    0    0    0  501  0.00000000000E+00  0.00000000000E+00 -0.59135110714E+03  0.59135110716E+03  0.50400001928E-02 0.  1.
    10030    2    1    2    0    0  0.00000000000E+00  0.00000000000E+00  0.14707456724E+04  0.26534478867E+04  0.22085499439E+04 0.  0.
        2    1    3    3  502    0 -0.36891187224E+03 -0.69834834927E+03 -0.19187132781E+03  0.81277364183E+03  0.25500000920E-02 0.  1.
       -2    1    3    3    0  502  0.36891187224E+03  0.69834834927E+03  0.16626170002E+04  0.18406742449E+04  0.25500000920E-02 0. -1.
</event>
<event>
 5   0  0.4132460E-05  0.2182171E+04  0.7818609E-02  0.8525886E-01
       -2   -1    0    0    0  501  0.00000000000E+00  0.00000000000E+00  0.72400271885E+03  0.72400271886E+03  0.25500000920E-02 0.  1.
        2   -1    0    0  501    0  0.00000000000E+00  0.00000000000E+00 -0.16442855889E+04  0.16442855889E+04  0.25500000920E-02 0. -1.
    10030    2    1    2    0    0  0.00000000000E+00  0.00000000000E+00 -0.92028287009E+03  0.23682883078E+04  0.21821706963E+04 0.  0.
        4    1    3    3  502    0 -0.93776932413E+03 -0.54984120396E+03 -0.56153895494E+03  0.12235457759E+04  0.12699999809E+01 0.  1.
       -4    1    3    3    0  502  0.93776932413E+03  0.54984120396E+03 -0.35874391515E+03  0.11447425319E+04  0.12699999809E+01 0. -1.
</event>
<event>
 5   0  0.4027923E-05  0.2207609E+04  0.7818609E-02  0.8515268E-01
        2   -1    0    0  501    0  0.00000000000E+00  0.00000000000E+00  0.11229246887E+04  0.11229246887E+04  0.25500000920E-02 0.  1.
       -2   -1    0    0    0  501  0.00000000000E+00  0.00000000000E+00 -0.10850098825E+04  0.10850098825E+04  0.25500000920E-02 0. -1.
    10030    2    1    2    0    0  0.00000000000E+00  0.00000000000E+00  0.37914806166E+02  0.22079345712E+04  0.22076090093E+04 0.  0.
        5    1    3    3  502    0 -0.99106614095E+03 -0.30543279128E+03  0.39698273035E+03  0.11104587628E+04  0.46999998093E+01 0. -1.
       -5    1    3    3    0  502  0.99106614095E+03  0.30543279128E+03 -0.35906792418E+03  0.10974758083E+04  0.46999998093E+01 0.  1.
</event>
<event>
 5   0  0.1788413E-05  0.2196773E+04  0.7818609E-02  0.8519772E-01
       -1   -1    0    0    0  501  0.00000000000E+00  0.00000000000E+00  0.87277235752E+03  0.87277235754E+03  0.50400001928E-02 0.  1.
        1   -1    0    0  501    0  0.00000000000E+00  0.00000000000E+00 -0.13823229533E+04  0.13823229534E+04  0.50400001928E-02 0. -1.
    10030    2    1    2    0    0  0.00000000000E+00  0.00000000000E+00 -0.50955059582E+03  0.22550953109E+04  0.21967733273E+04 0.  0.
        1    1    3    3  502    0 -0.58238664796E+03  0.79593664570E+03  0.24155225782E+03  0.10153998449E+04  0.50400001928E-02 0.  1.
       -1    1    3    3    0  502  0.58238664796E+03 -0.79593664570E+03 -0.75110285364E+03  0.12396954660E+04  0.50400001928E-02 0. -1.
</event>
<event>
 5   0  0.4143281E-05  0.2205465E+04  0.7818609E-02  0.8516157E-01
       -2   -1    0    0    0  501  0.00000000000E+00  0.00000000000E+00  0.94426072777E+03  0.94426072777E+03  0.25500000920E-02 0. -1.
        2   -1    0    0  501    0  0.00000000000E+00  0.00000000000E+00 -0.12878003338E+04  0.12878003338E+04  0.25500000920E-02 0.  1.
    10030    2    1    2    0    0  0.00000000000E+00  0.00000000000E+00 -0.34353960607E+03  0.22320610616E+04  0.22054652847E+04 0.  0.
        2    1    3    3  502    0 -0.31025940881E+03  0.10361080207E+04  0.45854776351E+02  0.10825356307E+04  0.25500000920E-02 0. -1.
       -2    1    3    3    0  502  0.31025940881E+03 -0.10361080207E+04 -0.38939438242E+03  0.11495254309E+04  0.25500000920E-02 0.  1.
</event>
<event>
 5   0  0.1815681E-05  0.2193699E+04  0.7818609E-02  0.8521055E-01
        1   -1    0    0  501    0  0.00000000000E+00  0.00000000000E+00  0.56105225835E+03  0.56105225837E+03  0.50400001928E-02 0. -1.
       -1   -1    0    0    0  501  0.00000000000E+00  0.00000000000E+00 -0.21443251389E+04  0.21443251389E+04  0.50400001928E-02 0.  1.
    10030    2    1    2    0    0  0.00000000000E+00  0.00000000000E+00 -0.15832728806E+04  0.27053773973E+04  0.21936986683E+04 0.  0.
        2    1    3    3  502    0 -0.17880161348E+03 -0.74496847347E+03  0.17638998061E+03  0.78616885509E+03  0.25500000920E-02 0. -1.
       -2    1    3    3    0  502  0.17880161348E+03  0.74496847347E+03 -0.17596628612E+04  0.19192085422E+04  0.25500000920E-02 0.  1.
</event>
<event>
 5   0  0.3963414E-05  0.2193474E+04  0.7818609E-02  0.8521149E-01
       -2   -1    0    0    0  501  0.00000000000E+00  0.00000000000E+00  0.11154878546E+04  0.11154878546E+04  0.25500000920E-02 0. -1.
        2   -1    0    0  501    0  0.00000000000E+00  0.00000000000E+00 -0.10783014485E+04  0.10783014485E+04  0.25500000920E-02 0.  1.
    10030    2    1    2    0    0  0.00000000000E+00  0.00000000000E+00  0.37186406111E+02  0.21937893030E+04  0.21934741114E+04 0.  0.
        1    1    3    3  502    0  0.43400538569E+03  0.24128648204E+03  0.99661527108E+03  0.11134728734E+04  0.50400001928E-02 0. -1.
       -1    1    3    3    0  502 -0.43400538569E+03 -0.24128648204E+03 -0.95942886497E+03  0.10803164297E+04  0.50400001928E-02 0.  1.
</event>
<event>
 5   0  0.1884407E-05  0.2197961E+04  0.7818609E-02  0.8519277E-01
       -1   -1    0    0    0  501  0.00000000000E+00  0.00000000000E+00  0.92747566765E+03  0.92747566767E+03  0.50400001928E-02 0.  1.
        1   -1    0    0  501    0  0.00000000000E+00  0.00000000000E+00 -0.13021991534E+04  0.13021991534E+04  0.50400001928E-02 0. -1.
    10030    2    1    2    0    0  0.00000000000E+00  0.00000000000E+00 -0.37472348575E+03  0.22296748211E+04  0.21979608998E+04 0.  0.
        3    1    3    3  502    0 -0.64832002745E+03  0.68384969653E+03  0.38629639701E+03  0.10184273081E+04  0.10100000352E+00 0.  1.
       -3    1    3    3    0  502  0.64832002745E+03 -0.68384969653E+03 -0.76101988276E+03  0.12112475129E+04  0.10100000352E+00 0. -1.
</event>
<event>
 5   0  0.1884407E-05  0.2191510E+04  0.7818609E-02  0.8521970E-01
        1   -1    0    0  501    0  0.00000000000E+00  0.00000000000E+00  0.87275504038E+03  0.87275504039E+03  0.50400001928E-02 0. -1.
       -1   -1    0    0    0  501  0.00000000000E+00  0.00000000000E+00 -0.13757342174E+04  0.13757342175E+04  0.50400001928E-02 0.  1.
    10030    2    1    2    0    0  0.00000000000E+00  0.00000000000E+00 -0.50297917706E+03  0.22484892578E+04  0.21915099566E+04 0.  0.
        3    1    3    3  502    0  0.82032512883E+03 -0.72398364443E+03 -0.18998666002E+03  0.11104866391E+04  0.10100000352E+00 0. -1.
       -3    1    3    3    0  502 -0.82032512883E+03  0.72398364443E+03 -0.31299251704E+03  0.11380026188E+04  0.10100000352E+00 0.  1.
</event>
<event>
 5   0  0.4132460E-05  0.2188192E+04  0.7818609E-02  0.8523359E-01
       -2   -1    0    0    0  501  0.00000000000E+00  0.00000000000E+00  0.10422367208E+04  0.10422367208E+04  0.25500000920E-02 0. -1.
        2   -1    0    0  501    0  0.00000000000E+00  0.00000000000E+00 -0.11485352296E+04  0.11485352296E+04  0.25500000920E-02 0.  1.
    10030    2    1    2    0    0  0.00000000000E+00  0.00000000000E+00 -0.10629850883E+03  0.21907719503E+04  0.21881915742E+04 0.  0.
        4    1    3    3  502    0  0.12386661413E+03  0.28069108647E+03 -0.11045845879E+04  0.11464026992E+04  0.12699999809E+01 0.  1.
       -4    1    3    3    0  502 -0.12386661413E+03 -0.28069108647E+03  0.99828607906E+03  0.10443692511E+04  0.12699999809E+01 0. -1.
</event>
<event>
 5   0  0.3963414E-05  0.2230843E+04  0.7818609E-02  0.8505699E-01
       -2   -1    0    0    0  501  0.00000000000E+00  0.00000000000E+00  0.96929946688E+03  0.96929946688E+03  0.25500000920E-02 0. -1.
        2   -1    0    0  501    0  0.00000000000E+00  0.00000000000E+00 -0.12835709038E+04  0.12835709038E+04  0.25500000920E-02 0.  1.
    10030    2    1    2    0    0  0.00000000000E+00  0.00000000000E+00 -0.31427143688E+03  0.22528703706E+04  0.22308425249E+04 0.  0.
        1    1    3    3  502    0 -0.28587360914E+03 -0.10028751058E+04  0.24260407964E+03  0.10706721897E+04  0.50400001928E-02 0. -1.
       -1    1    3    3    0  502  0.28587360914E+03  0.10028751058E+04 -0.55687551652E+03  0.11821981810E+04  0.50400001928E-02 0.  1.
</event>
<event>
 5   0  0.1433375E-05  0.2209442E+04  0.7818609E-02  0.8514509E-01
       -4   -1    0    0    0  501  0.00000000000E+00  0.00000000000E+00  0.10483510309E+04  0.10483518001E+04  0.12699999809E+01 0.  1.
        4   -1    0    0  501    0  0.00000000000E+00  0.00000000000E+00 -0.11641202036E+04  0.11641208964E+04  0.12699999809E+01 0. -1.
    10030    2    1    2    0    0  0.00000000000E+00  0.00000000000E+00 -0.11576917273E+03  0.22124726965E+04  0.22094417692E+04 0.  0.
        2    1    3    3  502    0  0.70877511178E+02 -0.90759302747E+02 -0.11580943745E+04  0.11638055907E+04  0.25500000920E-02 0. -1.
       -2    1    3    3    0  502 -0.70877511178E+02  0.90759302747E+02  0.10423252018E+04  0.10486671058E+04  0.25500000920E-02 0.  1.
</event>
<event>
 5   0  0.1866935E-05  0.2203641E+04  0.7818609E-02  0.8516914E-01
        1   -1    0    0  501    0  0.00000000000E+00  0.00000000000E+00  0.12851090632E+04  0.12851090632E+04  0.50400001928E-02 0. -1.
       -1   -1    0    0    0  501  0.00000000000E+00  0.00000000000E+00 -0.94467333957E+03  0.94467333958E+03  0.50400001928E-02 0.  1.
    10030    2    1    2    0    0  0.00000000000E+00  0.00000000000E+00  0.34043572365E+03  0.22297824028E+04  0.22036408696E+04 0.  0.
        4    1    3    3  502    0 -0.88634893900E+03  0.55551340811E+03 -0.18000521753E+03  0.10614203124E+04  0.12699999809E+01 0.  1.
       -4    1    3    3    0  502  0.88634893900E+03 -0.55551340811E+03  0.52044094118E+03  0.11683620905E+04  0.12699999809E+01 0. -1.
</event>
<event>
 5   0  0.1786228E-05  0.2175076E+04  0.7818609E-02  0.8528874E-01
       -1   -1    0    0    0  501  0.00000000000E+00  0.00000000000E+00  0.13074563565E+04  0.13074563566E+04  0.50400001928E-02 0. -1.
        1   -1    0    0  501    0  0.00000000000E+00  0.00000000000E+00 -0.90461078585E+03  0.90461078586E+03  0.50400001928E-02 0.  1.
    10030    2    1    2    0    0  0.00000000000E+00  0.00000000000E+00  0.40284557069E+03  0.22120671424E+04  0.21750762030E+04 0.  0.
        5    1    3    3  502    0  0.47708432981E+03  0.40942814814E+03  0.11039130734E+04  0.12703885350E+04  0.46999998093E+01 0. -1.
       -5    1    3    3    0  502 -0.47708432981E+03 -0.40942814814E+03 -0.70106750273E+03  0.94167860739E+03  0.46999998093E+01 0.  1.
</event>
<event>
 5   0  0.4143281E-05  0.2220399E+04  0.7818609E-02  0.8509985E-01
        2   -1    0    0  501    0  0.00000000000E+00  0.00000000000E+00  0.16299688512E+04  0.16299688512E+04  0.25500000920E-02 0.  1.
       -2   -1    0    0    0  501  0.00000000000E+00  0.00000000000E+00 -0.75617583576E+03  0.75617583576E+03  0.25500000920E-02 0. -1.
    10030    2    1    2    0    0  0.00000000000E+00  0.00000000000E+00  0.87379301540E+03  0.23861446869E+04  0.22203991157E+04 0.  0.
        2    1    3    3  502    0  0.22129667205E+03 -0.66472201026E+03  0.13624135133E+04  0.15319915631E+04  0.25500000920E-02 0.  1.
       -2    1    3    3    0  502 -0.22129667205E+03  0.66472201026E+03 -0.48862049794E+03  0.85415312385E+03  0.25500000920E-02 0. -1.
</event>
<event>
 5   0  0.1866935E-05  0.2187724E+04  0.7818609E-02  0.8523555E-01
        1   -1    0    0  501    0  0.00000000000E+00  0.00000000000E+00  0.21214394108E+04  0.21214394108E+04  0.50400001928E-02 0.  1.
       -1   -1    0    0    0  501  0.00000000000E+00  0.00000000000E+00 -0.56401980790E+03  0.56401980792E+03  0.50400001928E-02 0. -1.
    10030    2    1    2    0    0  0.00000000000E+00  0.00000000000E+00  0.15574196029E+04  0.26854592188E+04  0.21877237933E+04 0.  0.
        4    1    3    3  502    0  0.93341411794E+03 -0.55365556506E+03  0.61068917202E+03  0.12452868256E+04  0.12699999809E+01 0. -1.
       -4    1    3    3    0  502 -0.93341411794E+03  0.55365556506E+03  0.94673043091E+03  0.14401723932E+04  0.12699999809E+01 0.  1.
</event>
<event>
 5   0  0.4027923E-05  0.2193157E+04  0.7818609E-02  0.8521282E-01
        2   -1    0    0  501    0  0.00000000000E+00  0.00000000000E+00  0.19808527120E+04  0.19808527121E+04  0.25500000920E-02 0. -1.
       -2   -1    0    0    0  501  0.00000000000E+00  0.00000000000E+00 -0.60705394387E+03  0.60705394388E+03  0.25500000920E-02 0.  1.
    10030    2    1    2    0    0  0.00000000000E+00  0.00000000000E+00  0.13737987682E+04  0.25879066559E+04  0.21931570405E+04 0.  0.
        5    1    3    3  502    0 -0.10246500335E+04  0.38930926991E+03  0.72408245556E+03  0.13136920839E+04  0.46999998093E+01 0.  1.
       -5    1    3    3    0  502  0.10246500335E+04 -0.38930926991E+03  0.64971631262E+03  0.12742145721E+04  0.46999998093E+01 0. -1.
</event>
<event>
 5   0  0.1786228E-05  0.2176781E+04  0.7818609E-02  0.8528155E-01
       -1   -1    0    0    0  501  0.00000000000E+00  0.00000000000E+00  0.11279217397E+04  0.11279217397E+04  0.50400001928E-02 0. -1.
        1   -1    0    0  501    0  0.00000000000E+00  0.00000000000E+00 -0.10502448191E+04  0.10502448191E+04  0.50400001928E-02 0.  1.
    10030    2    1    2    0    0  0.00000000000E+00  0.00000000000E+00  0.77676920599E+02  0.21781665588E+04  0.21767810762E+04 0.  0.
        5    1    3    3  502    0 -0.75516609125E+02 -0.13641222329E+02  0.11252011674E+04  0.11278247197E+04  0.46999998093E+01 0. -1.
       -5    1    3    3    0  502  0.75516609125E+02  0.13641222329E+02 -0.10475242468E+04  0.10503418391E+04  0.46999998093E+01 0.  1.
</event>
<event>
 5   0  0.1788413E-05  0.2213453E+04  0.7818609E-02  0.8512849E-01
        1   -1    0    0  501    0  0.00000000000E+00  0.00000000000E+00  0.15844066952E+04  0.15844066952E+04  0.50400001928E-02 0. -1.
       -1   -1    0    0    0  501  0.00000000000E+00  0.00000000000E+00 -0.77306160065E+03  0.77306160066E+03  0.50400001928E-02 0.  1.
    10030    2    1    2    0    0  0.00000000000E+00  0.00000000000E+00  0.81134509454E+03  0.23574682959E+04  0.22134533886E+04 0.  0.
        1    1    3    3  502    0  0.58584532197E+03  0.71880394519E+03  0.10490891113E+04  0.14001720667E+04  0.50400001928E-02 0. -1.
       -1    1    3    3    0  502 -0.58584532197E+03 -0.71880394519E+03 -0.23774401672E+03  0.95729622919E+03  0.50400001928E-02 0.  1.
</event>
<event>
 5   0  0.4143281E-05  0.2204969E+04  0.7818609E-02  0.8516363E-01
        2   -1    0    0  501    0  0.00000000000E+00  0.00000000000E+00  0.13354518835E+04  0.13354518835E+04  0.25500000920E-02 0. -1.
       -2   -1    0    0    0  501  0.00000000000E+00  0.00000000000E+00 -0.91015822036E+03  0.91015822037E+03  0.25500000920E-02 0.  1.
    10030    2    1    2    0    0  0.00000000000E+00  0.00000000000E+00  0.42529366314E+03  0.22456101039E+04  0.22049693963E+04 0.  0.
        2    1    3    3  502    0  0.41296321423E+03 -0.40477065938E+03 -0.74332051698E+03  0.94175543214E+03  0.25500000920E-02 0.  1.
       -2    1    3    3    0  502 -0.41296321423E+03  0.40477065938E+03  0.11686141801E+04  0.13038546717E+04  0.25500000920E-02 0. -1.
</event>
<event>
 5   0  0.1786228E-05  0.2189862E+04  0.7818609E-02  0.8522660E-01
        1   -1    0    0  501    0  0.00000000000E+00  0.00000000000E+00  0.12914710990E+04  0.12914710990E+04  0.50400001928E-02 0. -1.
       -1   -1    0    0    0  501  0.00000000000E+00  0.00000000000E+00 -0.92830061845E+03  0.92830061846E+03  0.50400001928E-02 0.  1.
    10030    2    1    2    0    0  0.00000000000E+00  0.00000000000E+00  0.36317048057E+03  0.22197717175E+04  0.21898615664E+04 0.  0.
        5    1    3    3  502    0  0.42302179367E+03 -0.77782694761E+03 -0.47133131597E+03  0.10030640547E+04  0.46999998093E+01 0. -1.
       -5    1    3    3    0  502 -0.42302179367E+03  0.77782694761E+03  0.83450179654E+03  0.12167076628E+04  0.46999998093E+01 0.  1.
</event>
<event>
 5   0  0.3963414E-05  0.2188261E+04  0.7818609E-02  0.8523330E-01
       -2   -1    0    0    0  501  0.00000000000E+00  0.00000000000E+00  0.83878300814E+03  0.83878300815E+03  0.25500000920E-02 0. -1.
        2   -1    0    0  501    0  0.00000000000E+00  0.00000000000E+00 -0.14272129336E+04  0.14272129336E+04  0.25500000920E-02 0.  1.
    10030    2    1    2    0    0  0.00000000000E+00  0.00000000000E+00 -0.58842992545E+03  0.22659959417E+04  0.21882613717E+04 0.  0.
        1    1    3    3  502    0  0.99060811697E+03  0.38239266494E+03 -0.56739178899E+03  0.12039360589E+04  0.50400001928E-02 0.  1.
       -1    1    3    3    0  502 -0.99060811697E+03 -0.38239266494E+03 -0.21038136460E+02  0.10620598829E+04  0.50400001928E-02 0. -1.
</event>
<event>
 5   0  0.1788413E-05  0.2147256E+04  0.7818609E-02  0.8540708E-01
       -1   -1    0    0    0  501  0.00000000000E+00  0.00000000000E+00  0.60631061306E+03  0.60631061308E+03  0.50400001928E-02 0. -1.
        1   -1    0    0  501    0  0.00000000000E+00  0.00000000000E+00 -0.19011332164E+04  0.19011332164E+04  0.50400001928E-02 0.  1.
    10030    2    1    2    0    0  0.00000000000E+00  0.00000000000E+00 -0.12948226033E+04  0.25074438295E+04  0.21472561524E+04 0.  0.
        1    1    3    3  502    0  0.83141333979E+02  0.35116433367E+03 -0.18281887549E+04  0.18634653187E+04  0.50400001928E-02 0.  1.
       -1    1    3    3    0  502 -0.83141333979E+02 -0.35116433367E+03  0.53336615154E+03  0.64397851074E+03  0.50400001928E-02 0. -1.
</event>
<event>
 5   0  0.1815681E-05  0.2190811E+04  0.7818609E-02  0.8522263E-01
        1   -1    0    0  501    0  0.00000000000E+00  0.00000000000E+00  0.78084147272E+03  0.78084147273E+03  0.50400001928E-02 0.  1.
       -1   -1    0    0    0  501  0.00000000000E+00  0.00000000000E+00 -0.15366923641E+04  0.15366923641E+04  0.50400001928E-02 0. -1.
    10030    2    1    2    0    0  0.00000000000E+00  0.00000000000E+00 -0.75585089138E+03  0.23175338368E+04  0.21908109263E+04 0.  0.
        2    1    3    3  502    0 -0.99484571804E+03 -0.42011874159E+03 -0.18374464225E+03  0.10954359193E+04  0.25500000920E-02 0. -1.
       -2    1    3    3    0  502  0.99484571804E+03  0.42011874159E+03 -0.57210624913E+03  0.12220979175E+04  0.25500000920E-02 0.  1.
</event>
<event>
 5   0  0.4132460E-05  0.2191546E+04  0.7818609E-02  0.8521955E-01
       -2   -1    0    0    0  501  0.00000000000E+00  0.00000000000E+00  0.60896454774E+03  0.60896454774E+03  0.25500000920E-02 0. -1.
        2   -1    0    0  501    0  0.00000000000E+00  0.00000000000E+00 -0.19717383701E+04  0.19717383701E+04  0.25500000920E-02 0.  1.
    10030    2    1    2    0    0  0.00000000000E+00  0.00000000000E+00 -0.13627738224E+04  0.25807029179E+04  0.21915462713E+04 0.  0.
        4    1    3    3  502    0  0.87808362937E+03 -0.57670208214E+03 -0.10483304289E+04  0.14841207676E+04  0.12699999809E+01 0.  1.
       -4    1    3    3    0  502 -0.87808362937E+03  0.57670208214E+03 -0.31444339349E+03  0.10965821503E+04  0.12699999809E+01 0. -1.
</event>
<event>
 5   0  0.4143281E-05  0.2191425E+04  0.7818609E-02  0.8522006E-01
       -2   -1    0    0    0  501  0.00000000000E+00  0.00000000000E+00  0.41442800978E+03  0.41442800979E+03  0.25500000920E-02 0.  1.
        2   -1    0    0  501    0  0.00000000000E+00  0.00000000000E+00 -0.28969699023E+04  0.28969699023E+04  0.25500000920E-02 0. -1.
    10030    2    1    2    0    0  0.00000000000E+00  0.00000000000E+00 -0.24825418926E+04  0.33113979121E+04  0.21914246243E+04 0.  0.
        2    1    3    3  502    0  0.10081672990E+04  0.36258302284E+03 -0.15882179508E+04  0.19158037505E+04  0.25500000920E-02 0. -1.
       -2    1    3    3    0  502 -0.10081672990E+04 -0.36258302284E+03 -0.89432394180E+03  0.13955941617E+04  0.25500000920E-02 0.  1.
</event>
<event>
 5   0  0.4132460E-05  0.2157875E+04  0.7818609E-02  0.8536169E-01
        2   -1    0    0  501    0  0.00000000000E+00  0.00000000000E+00  0.29461257733E+04  0.29461257733E+04  0.25500000920E-02 0.  1.
       -2   -1    0    0    0  501  0.00000000000E+00  0.00000000000E+00 -0.39513112428E+03  0.39513112429E+03  0.25500000920E-02 0. -1.
    10030    2    1    2    0    0  0.00000000000E+00  0.00000000000E+00  0.25509946490E+04  0.33412568976E+04  0.21578748704E+04 0.  0.
        4    1    3    3  502    0  0.54952704712E+03  0.26313005089E+03  0.26542591590E+04  0.27232904170E+04  0.12699999809E+01 0.  1.
       -4    1    3    3    0  502 -0.54952704712E+03 -0.26313005089E+03 -0.10326451001E+03  0.61796648058E+03  0.12699999809E+01 0. -1.
</event>
<event>
 5   0  0.1815681E-05  0.2197133E+04  0.7818609E-02  0.8519622E-01
        1   -1    0    0  501    0  0.00000000000E+00  0.00000000000E+00  0.10444364271E+04  0.10444364271E+04  0.50400001928E-02 0. -1.
       -1   -1    0    0    0  501  0.00000000000E+00  0.00000000000E+00 -0.11555020423E+04  0.11555020423E+04  0.50400001928E-02 0.  1.
    10030    2    1    2    0    0  0.00000000000E+00  0.00000000000E+00 -0.11106561521E+03  0.21999384694E+04  0.21971330634E+04 0.  0.
        2    1    3    3  502    0  0.44344600924E+03 -0.54959021205E+03 -0.89812655738E+03  0.11425082395E+04  0.25500000920E-02 0.  1.
       -2    1    3    3    0  502 -0.44344600924E+03  0.54959021205E+03  0.78706094217E+03  0.10574302298E+04  0.25500000920E-02 0. -1.
</event>
<event>
 5   0  0.3963414E-05  0.2204916E+04  0.7818609E-02  0.8516385E-01
        2   -1    0    0  501    0  0.00000000000E+00  0.00000000000E+00  0.13551346771E+04  0.13551346771E+04  0.25500000920E-02 0. -1.
       -2   -1    0    0    0  501  0.00000000000E+00  0.00000000000E+00 -0.89689505727E+03  0.89689505727E+03  0.25500000920E-02 0.  1.
    10030    2    1    2    0    0  0.00000000000E+00  0.00000000000E+00  0.45823961984E+03  0.22520297344E+04  0.22049159565E+04 0.  0.
        1    1    3    3  502    0  0.69724159131E+03 -0.23021781162E+03  0.10690464258E+04  0.12969218705E+04  0.50400001928E-02 0. -1.
       -1    1    3    3    0  502 -0.69724159131E+03  0.23021781162E+03 -0.61080680600E+03  0.95510786392E+03  0.50400001928E-02 0.  1.
</event>
<event>
 5   0  0.1866935E-05  0.2238052E+04  0.7818609E-02  0.8502755E-01
        1   -1    0    0  501    0  0.00000000000E+00  0.00000000000E+00  0.14724184731E+04  0.14724184731E+04  0.50400001928E-02 0. -1.
       -1   -1    0    0    0  501  0.00000000000E+00  0.00000000000E+00 -0.85045060716E+03  0.85045060718E+03  0.50400001928E-02 0.  1.
    10030    2    1    2    0    0  0.00000000000E+00  0.00000000000E+00  0.62196786594E+03  0.23228690803E+04  0.22380519962E+04 0.  0.
        4    1    3    3  502    0  0.58915421862E+03 -0.94987504388E+03  0.36641466122E+03  0.11762765870E+04  0.12699999809E+01 0. -1.
       -4    1    3    3    0  502 -0.58915421862E+03  0.94987504388E+03  0.25555320473E+03  0.11465924933E+04  0.12699999809E+01 0.  1.
</event>
<event>
 5   0  0.1815681E-05  0.2194638E+04  0.7818609E-02  0.8520663E-01
       -1   -1    0    0    0  501  0.00000000000E+00  0.00000000000E+00  0.85256313042E+03  0.85256313044E+03  0.50400001928E-02 0.  1.
        1   -1    0    0  501    0  0.00000000000E+00  0.00000000000E+00 -0.14123404691E+04  0.14123404691E+04  0.50400001928E-02 0. -1.
    10030    2    1    2    0    0  0.00000000000E+00  0.00000000000E+00 -0.55977733869E+03  0.22649035996E+04  0.21946383862E+04 0.  0.
        2    1    3    3  502    0  0.51105777675E+03  0.48031055882E+02 -0.12807972311E+04  0.13798291853E+04  0.25500000920E-02 0. -1.
       -2    1    3    3    0  502 -0.51105777675E+03 -0.48031055882E+02  0.72101989239E+03  0.88507441424E+03  0.25500000920E-02 0.  1.
</event>
<event>
 5   0  0.1788413E-05  0.2201152E+04  0.7818609E-02  0.8517949E-01
        1   -1    0    0  501    0  0.00000000000E+00  0.00000000000E+00  0.13253397483E+04  0.13253397483E+04  0.50400001928E-02 0.  1.
       -1   -1    0    0    0  501  0.00000000000E+00  0.00000000000E+00 -0.91392988646E+03  0.91392988648E+03  0.50400001928E-02 0. -1.
    10030    2    1    2    0    0  0.00000000000E+00  0.00000000000E+00  0.41140986186E+03  0.22392696348E+04  0.22011520672E+04 0.  0.
        1    1    3    3  502    0  0.47907167559E+03 -0.67951988726E+03  0.93931024155E+03  0.12544164689E+04  0.50400001928E-02 0.  1.
       -1    1    3    3    0  502 -0.47907167559E+03  0.67951988726E+03 -0.52790037969E+03  0.98485316592E+03  0.50400001928E-02 0. -1.
</event>
<event>
 5   0  0.3963414E-05  0.2187666E+04  0.7818609E-02  0.8523579E-01
        2   -1    0    0  501    0  0.00000000000E+00  0.00000000000E+00  0.19886585742E+04  0.19886585742E+04  0.25500000920E-02 0. -1.
       -2   -1    0    0    0  501  0.00000000000E+00  0.00000000000E+00 -0.60164733589E+03  0.60164733589E+03  0.25500000920E-02 0.  1.
    10030    2    1    2    0    0  0.00000000000E+00  0.00000000000E+00  0.13870112383E+04  0.25903059101E+04  0.21876664583E+04 0.  0.
        1    1    3    3  502    0  0.10397841426E+04  0.25100947382E+03  0.96432529611E+03  0.14401666903E+04  0.50400001928E-02 0. -1.
       -1    1    3    3    0  502 -0.10397841426E+04 -0.25100947382E+03  0.42268594220E+03  0.11501392198E+04  0.50400001928E-02 0.  1.
</event>
<event>
 5   0  0.1884407E-05  0.2198958E+04  0.7818609E-02  0.8518862E-01
       -1   -1    0    0    0  501  0.00000000000E+00  0.00000000000E+00  0.77811714238E+03  0.77811714239E+03  0.50400001928E-02 0. -1.
        1   -1    0    0  501    0  0.00000000000E+00  0.00000000000E+00 -0.15535625974E+04  0.15535625974E+04  0.50400001928E-02 0.  1.
    10030    2    1    2    0    0  0.00000000000E+00  0.00000000000E+00 -0.77544545499E+03  0.23316797398E+04  0.21989576520E+04 0.  0.
        3    1    3    3  502    0 -0.71528676730E+03  0.99344753225E+02 -0.12668276865E+04  0.14582033250E+04  0.10100000352E+00 0.  1.
       -3    1    3    3    0  502  0.71528676730E+03 -0.99344753225E+02  0.49138223155E+03  0.87347641477E+03  0.10100000352E+00 0. -1.
</event>
<event>
 5   0  0.1786228E-05  0.2143899E+04  0.7818609E-02  0.8542148E-01
        1   -1    0    0  501    0  0.00000000000E+00  0.00000000000E+00  0.89619313952E+03  0.89619313953E+03  0.50400001928E-02 0.  1.
       -1   -1    0    0    0  501  0.00000000000E+00  0.00000000000E+00 -0.12821746547E+04  0.12821746547E+04  0.50400001928E-02 0. -1.
    10030    2    1    2    0    0  0.00000000000E+00  0.00000000000E+00 -0.38598151516E+03  0.21783677942E+04  0.21438993719E+04 0.  0.
        5    1    3    3  502    0 -0.53693149685E+02 -0.10693011541E+04 -0.24643031464E+03  0.10986527670E+04  0.46999998093E+01 0.  1.
       -5    1    3    3    0  502  0.53693149685E+02  0.10693011541E+04 -0.13955120052E+03  0.10797150272E+04  0.46999998093E+01 0. -1.
</event>
<event>
 5   0  0.1884407E-05  0.2201641E+04  0.7818609E-02  0.8517746E-01
        1   -1    0    0  501    0  0.00000000000E+00  0.00000000000E+00  0.21909516516E+04  0.21909516516E+04  0.50400001928E-02 0.  1.
       -1   -1    0    0    0  501  0.00000000000E+00  0.00000000000E+00 -0.55309549833E+03  0.55309549835E+03  0.50400001928E-02 0. -1.
    10030    2    1    2    0    0  0.00000000000E+00  0.00000000000E+00  0.16378561533E+04  0.27440471500E+04  0.22016407478E+04 0.  0.
        3    1    3    3  502    0 -0.75990709738E+03  0.79644403156E+03  0.81287411192E+03  0.13684101082E+04  0.10100000352E+00 0. -1.
       -3    1    3    3    0  502  0.75990709738E+03 -0.79644403156E+03  0.82498204135E+03  0.13756370418E+04  0.10100000352E+00 0.  1.
</event>
<event>
 5   0  0.4143281E-05  0.2214543E+04  0.7818609E-02  0.8512399E-01
        2   -1    0    0  501    0  0.00000000000E+00  0.00000000000E+00  0.19525186422E+04  0.19525186422E+04  0.25500000920E-02 0. -1.
       -2   -1    0    0    0  501  0.00000000000E+00  0.00000000000E+00 -0.62793245811E+03  0.62793245811E+03  0.25500000920E-02 0.  1.
    10030    2    1    2    0    0  0.00000000000E+00  0.00000000000E+00  0.13245861841E+04  0.25804511003E+04  0.22145426891E+04 0.  0.
        2    1    3    3  502    0  0.42438544417E+03 -0.68960611638E+03 -0.21773718870E+03  0.83849214923E+03  0.25500000920E-02 0.  1.
       -2    1    3    3    0  502 -0.42438544417E+03  0.68960611638E+03  0.15423233728E+04  0.17419589511E+04  0.25500000920E-02 0. -1.
</event>
<event>
 5   0  0.4143281E-05  0.2176944E+04  0.7818609E-02  0.8528086E-01
       -2   -1    0    0    0  501  0.00000000000E+00  0.00000000000E+00  0.12412112435E+04  0.12412112435E+04  0.25500000920E-02 0. -1.
        2   -1    0    0  501    0  0.00000000000E+00  0.00000000000E+00 -0.95452864857E+03  0.95452864857E+03  0.25500000920E-02 0.  1.
    10030    2    1    2    0    0  0.00000000000E+00  0.00000000000E+00  0.28668259497E+03  0.21957398921E+04  0.21769443639E+04 0.  0.
        2    1    3    3  502    0  0.86923460059E+03  0.65364554153E+03  0.98796593206E+02  0.10920540516E+04  0.25500000920E-02 0. -1.
       -2    1    3    3    0  502 -0.86923460059E+03 -0.65364554153E+03  0.18788600176E+03  0.11036858405E+04  0.25500000920E-02 0.  1.
</event>
<event>
 5   0  0.4132460E-05  0.2123131E+04  0.7818609E-02  0.8551122E-01
       -2   -1    0    0    0  501  0.00000000000E+00  0.00000000000E+00  0.62398116519E+03  0.62398116520E+03  0.25500000920E-02 0.  1.
        2   -1    0    0  501    0  0.00000000000E+00  0.00000000000E+00 -0.18060175178E+04  0.18060175178E+04  0.25500000920E-02 0. -1.
    10030    2    1    2    0    0  0.00000000000E+00  0.00000000000E+00 -0.11820363526E+04  0.24299986830E+04  0.21231306273E+04 0.  0.
        4    1    3    3  502    0  0.21245171694E+03  0.31408712834E+03 -0.17258602427E+04  0.17670262156E+04  0.12699999809E+01 0. -1.
       -4    1    3    3    0  502 -0.21245171694E+03 -0.31408712834E+03  0.54382389011E+03  0.66297246743E+03  0.12699999809E+01 0.  1.
</event>
<event>
 5   0  0.1433375E-05  0.2208469E+04  0.7818609E-02  0.8514911E-01
       -3   -1    0    0    0  501  0.00000000000E+00  0.00000000000E+00  0.70924582085E+03  0.70924582804E+03  0.10100000352E+00 0.  1.
        3   -1    0    0  501    0  0.00000000000E+00  0.00000000000E+00 -0.17191982673E+04  0.17191982702E+04  0.10100000352E+00 0. -1.
    10030    2    1    2    0    0  0.00000000000E+00  0.00000000000E+00 -0.10099524464E+04  0.24284440983E+04  0.22084693329E+04 0.  0.
        4    1    3    3  502    0  0.10070703870E+04  0.32252973313E+03 -0.85463748583E+03  0.13596407754E+04  0.12699999809E+01 0. -1.
       -4    1    3    3    0  502 -0.10070703870E+04 -0.32252973313E+03 -0.15531496059E+03  0.10688033229E+04  0.12699999809E+01 0.  1.
</event>
<event>
 5   0  0.1884407E-05  0.2208336E+04  0.7818609E-02  0.8514966E-01
       -1   -1    0    0    0  501  0.00000000000E+00  0.00000000000E+00  0.87772118975E+03  0.87772118977E+03  0.50400001928E-02 0.  1.
        1   -1    0    0  501    0  0.00000000000E+00  0.00000000000E+00 -0.13890371553E+04  0.13890371553E+04  0.50400001928E-02 0. -1.
    10030    2    1    2    0    0  0.00000000000E+00  0.00000000000E+00 -0.51131596554E+03  0.22667583451E+04  0.22083363372E+04 0.  0.
        3    1    3    3  502    0  0.90910407325E+02  0.29095337975E+03 -0.13449918957E+04  0.13791018022E+04  0.10100000352E+00 0. -1.
       -3    1    3    3    0  502 -0.90910407325E+02 -0.29095337975E+03  0.83367593012E+03  0.88765654282E+03  0.10100000352E+00 0.  1.
</event>
<event>
 5   0  0.1866935E-05  0.2198011E+04  0.7818609E-02  0.8519256E-01
        1   -1    0    0  501    0  0.00000000000E+00  0.00000000000E+00  0.14199781413E+04  0.14199781413E+04  0.50400001928E-02 0. -1.
       -1   -1    0    0    0  501  0.00000000000E+00  0.00000000000E+00 -0.85058581158E+03  0.85058581159E+03  0.50400001928E-02 0.  1.
    10030    2    1    2    0    0  0.00000000000E+00  0.00000000000E+00  0.56939232969E+03  0.22705639529E+04  0.21980111553E+04 0.  0.
        4    1    3    3  502    0  0.66014337188E+03  0.32510127336E+03  0.11279319543E+04  0.13467413322E+04  0.12699999809E+01 0. -1.
       -4    1    3    3    0  502 -0.66014337188E+03 -0.32510127336E+03 -0.55853962459E+03  0.92382262070E+03  0.12699999809E+01 0.  1.
</event>
<event>
 5   0  0.4027923E-05  0.2160943E+04  0.7818609E-02  0.8534863E-01
        2   -1    0    0  501    0  0.00000000000E+00  0.00000000000E+00  0.20746707831E+04  0.20746707831E+04  0.25500000920E-02 0.  1.
       -2   -1    0    0    0  501  0.00000000000E+00  0.00000000000E+00 -0.56270046536E+03  0.56270046537E+03  0.25500000920E-02 0. -1.
    10030    2    1    2    0    0  0.00000000000E+00  0.00000000000E+00  0.15119703177E+04  0.26373712485E+04  0.21609425861E+04 0.  0.
        5    1    3    3  502    0  0.84971932257E+03  0.60777398773E+03  0.41955954634E+03  0.11258172366E+04  0.46999998093E+01 0. -1.
       -5    1    3    3    0  502 -0.84971932257E+03 -0.60777398773E+03  0.10924107714E+04  0.15115540119E+04  0.46999998093E+01 0.  1.
</event>
<event>
 5   0  0.1884407E-05  0.2203658E+04  0.7818609E-02  0.8516907E-01
       -1   -1    0    0    0  501  0.00000000000E+00  0.00000000000E+00  0.70885323687E+03  0.70885323689E+03  0.50400001928E-02 0.  1.
        1   -1    0    0  501    0  0.00000000000E+00  0.00000000000E+00 -0.17126643603E+04  0.17126643603E+04  0.50400001928E-02 0. -1.
    10030    2    1    2    0    0  0.00000000000E+00  0.00000000000E+00 -0.10038111235E+04  0.24215175972E+04  0.22036584813E+04 0.  0.
        3    1    3    3  502    0 -0.88861405023E+03 -0.24905366442E+03 -0.11633851787E+04  0.14849672530E+04  0.10100000352E+00 0. -1.
       -3    1    3    3    0  502  0.88861405023E+03  0.24905366442E+03  0.15957405529E+03  0.93655034427E+03  0.10100000352E+00 0.  1.
</event>
<event>
 5   0  0.1815681E-05  0.2225305E+04  0.7818609E-02  0.8507969E-01
        1   -1    0    0  501    0  0.00000000000E+00  0.00000000000E+00  0.13049513379E+04  0.13049513379E+04  0.50400001928E-02 0. -1.
       -1   -1    0    0    0  501  0.00000000000E+00  0.00000000000E+00 -0.94869083136E+03  0.94869083138E+03  0.50400001928E-02 0.  1.
    10030    2    1    2    0    0  0.00000000000E+00  0.00000000000E+00  0.35626050650E+03  0.22536421693E+04  0.22253048058E+04 0.  0.
        2    1    3    3  502    0 -0.96200064459E+03 -0.39758519138E+03  0.57616974781E+03  0.11897440073E+04  0.25500000920E-02 0. -1.
       -2    1    3    3    0  502  0.96200064459E+03  0.39758519138E+03 -0.21990924130E+03  0.10638981620E+04  0.25500000920E-02 0.  1.
</event>
<event>
 5   0  0.4029532E-05  0.2181541E+04  0.7818609E-02  0.8526151E-01
        2   -1    0    0  501    0  0.00000000000E+00  0.00000000000E+00  0.21764118824E+04  0.21764118824E+04  0.25500000920E-02 0. -1.
       -2   -1    0    0    0  501  0.00000000000E+00  0.00000000000E+00 -0.54667049277E+03  0.54667049277E+03  0.25500000920E-02 0.  1.
    10030    2    1    2    0    0  0.00000000000E+00  0.00000000000E+00  0.16297413897E+04  0.27230823752E+04  0.21815408832E+04 0.  0.
        3    1    3    3  502    0  0.45582305605E+03 -0.81705502834E+03  0.11493677457E+03  0.94263675406E+03  0.10100000352E+00 0.  1.
       -3    1    3    3    0  502 -0.45582305605E+03  0.81705502834E+03  0.15148046151E+04  0.17804456211E+04  0.10100000352E+00 0. -1.
</event>
<event>
 5   0  0.1884407E-05  0.2192055E+04  0.7818609E-02  0.8521742E-01
       -1   -1    0    0    0  501  0.00000000000E+00  0.00000000000E+00  0.11239079968E+04  0.11239079968E+04  0.50400001928E-02 0. -1.
        1   -1    0    0  501    0  0.00000000000E+00  0.00000000000E+00 -0.10688390512E+04  0.10688390512E+04  0.50400001928E-02 0.  1.
    10030    2    1    2    0    0  0.00000000000E+00  0.00000000000E+00  0.55068945569E+02  0.21927470480E+04  0.21920554345E+04 0.  0.
        3    1    3    3  502    0 -0.47892370446E+03  0.89612700059E+03 -0.38352732883E+03  0.10860500624E+04  0.10100000352E+00 0.  1.
       -3    1    3    3    0  502  0.47892370446E+03 -0.89612700059E+03  0.43859627440E+03  0.11066969856E+04  0.10100000352E+00 0. -1.
</event>
<event>
 5   0  0.1884407E-05  0.2190342E+04  0.7818609E-02  0.8522459E-01
       -1   -1    0    0    0  501  0.00000000000E+00  0.00000000000E+00  0.90228483978E+03  0.90228483979E+03  0.50400001928E-02 0. -1.
        1   -1    0    0  501    0  0.00000000000E+00  0.00000000000E+00 -0.13292913881E+04  0.13292913881E+04  0.50400001928E-02 0.  1.
    10030    2    1    2    0    0  0.00000000000E+00  0.00000000000E+00 -0.42700654830E+03  0.22315762279E+04  0.21903419524E+04 0.  0.
        3    1    3    3  502    0 -0.78537932633E+03 -0.71544504973E+03 -0.48443644793E+03  0.11676305014E+04  0.10100000352E+00 0.  1.
       -3    1    3    3    0  502  0.78537932633E+03  0.71544504973E+03  0.57429899632E+02  0.10639457265E+04  0.10100000352E+00 0. -1.
</event>
<event>
 5   0  0.1884407E-05  0.2202338E+04  0.7818609E-02  0.8517456E-01
       -1   -1    0    0    0  501  0.00000000000E+00  0.00000000000E+00  0.14097439270E+04  0.14097439270E+04  0.50400001928E-02 0. -1.
        1   -1    0    0  501    0  0.00000000000E+00  0.00000000000E+00 -0.86013720352E+03  0.86013720354E+03  0.50400001928E-02 0.  1.
    10030    2    1    2    0    0  0.00000000000E+00  0.00000000000E+00  0.54960672351E+03  0.22698811306E+04  0.22023380296E+04 0.  0.
        3    1    3    3  502    0 -0.29983621859E+03  0.46178842885E+03  0.12576869288E+04  0.13729263389E+04  0.10100000352E+00 0. -1.
       -3    1    3    3    0  502  0.29983621859E+03 -0.46178842885E+03 -0.70808020528E+03  0.89695479168E+03  0.10100000352E+00 0.  1.
</event>
<event>
 5   0  0.1433375E-05  0.2221664E+04  0.7818609E-02  0.8509465E-01
        4   -1    0    0  501    0  0.00000000000E+00  0.00000000000E+00  0.95243206316E+03  0.95243290989E+03  0.12699999809E+01 0. -1.
       -4   -1    0    0    0  501  0.00000000000E+00  0.00000000000E+00 -0.12955735271E+04  0.12955741496E+04  0.12699999809E+01 0.  1.
    10030    2    1    2    0    0  0.00000000000E+00  0.00000000000E+00 -0.34314146396E+03  0.22480070595E+04  0.22216637178E+04 0.  0.
        4    1    3    3  502    0 -0.62793683780E+03 -0.39683542914E+03 -0.10072956604E+04  0.12515706894E+04  0.12699999809E+01 0.  1.
       -4    1    3    3    0  502  0.62793683780E+03  0.39683542914E+03  0.66415419646E+03  0.99643637010E+03  0.12699999809E+01 0. -1.
</event>
<event>
 5   0  0.1866935E-05  0.2163621E+04  0.7818609E-02  0.8533724E-01
        1   -1    0    0  501    0  0.00000000000E+00  0.00000000000E+00  0.13525309611E+04  0.13525309611E+04  0.50400001928E-02 0. -1.
       -1   -1    0    0    0  501  0.00000000000E+00  0.00000000000E+00 -0.86527736768E+03  0.86527736769E+03  0.50400001928E-02 0.  1.
    10030    2    1    2    0    0  0.00000000000E+00  0.00000000000E+00  0.48725359343E+03  0.22178083288E+04  0.21636214362E+04 0.  0.
        4    1    3    3  502    0  0.78108354476E+03 -0.74552187546E+03  0.31176293551E+03  0.11238737080E+04  0.12699999809E+01 0.  1.
       -4    1    3    3    0  502 -0.78108354476E+03  0.74552187546E+03  0.17549065792E+03  0.10939346208E+04  0.12699999809E+01 0. -1.
</event>
<event>
 5   0  0.1866935E-05  0.2212104E+04  0.7818609E-02  0.8513407E-01
       -1   -1    0    0    0  501  0.00000000000E+00  0.00000000000E+00  0.94808619615E+03  0.94808619616E+03  0.50400001928E-02 0. -1.
        1   -1    0    0  501    0  0.00000000000E+00  0.00000000000E+00 -0.12903373347E+04  0.12903373347E+04  0.50400001928E-02 0.  1.
    10030    2    1    2    0    0  0.00000000000E+00  0.00000000000E+00 -0.34225113853E+03  0.22384235308E+04  0.22121039898E+04 0.  0.
        4    1    3    3  502    0 -0.10874213092E+04 -0.73373094784E+02 -0.36172988857E+03  0.11483548406E+04  0.12699999809E+01 0.  1.
       -4    1    3    3    0  502  0.10874213092E+04  0.73373094784E+02  0.19478750047E+02  0.10900686902E+04  0.12699999809E+01 0. -1.
</event>
<event>
 5   0  0.4029532E-05  0.2207313E+04  0.7818609E-02  0.8515390E-01
       -2   -1    0    0    0  501  0.00000000000E+00  0.00000000000E+00  0.42217901766E+03  0.42217901767E+03  0.25500000920E-02 0. -1.
        2   -1    0    0  501    0  0.00000000000E+00  0.00000000000E+00 -0.28851686892E+04  0.28851686892E+04  0.25500000920E-02 0.  1.
    10030    2    1    2    0    0  0.00000000000E+00  0.00000000000E+00 -0.24629896715E+04  0.33073477068E+04  0.22073130118E+04 0.  0.
        3    1    3    3  502    0 -0.40181326448E+03  0.22210847413E+03  0.27230220681E+03  0.53379263373E+03  0.10100000352E+00 0. -1.
       -3    1    3    3    0  502  0.40181326448E+03 -0.22210847413E+03 -0.27352918783E+04  0.27735550731E+04  0.10100000352E+00 0.  1.
</event>
<event>
 5   0  0.4132460E-05  0.2195436E+04  0.7818609E-02  0.8520330E-01
       -2   -1    0    0    0  501  0.00000000000E+00  0.00000000000E+00  0.89029910506E+03  0.89029910506E+03  0.25500000920E-02 0.  1.
        2   -1    0    0  501    0  0.00000000000E+00  0.00000000000E+00 -0.13534612399E+04  0.13534612399E+04  0.25500000920E-02 0. -1.
    10030    2    1    2    0    0  0.00000000000E+00  0.00000000000E+00 -0.46316213486E+03  0.22437603450E+04  0.21954364765E+04 0.  0.
        4    1    3    3  502    0 -0.20825930802E+03  0.70439545621E+03  0.60211865901E+03  0.94978597090E+03  0.12699999809E+01 0.  1.
       -4    1    3    3    0  502  0.20825930802E+03 -0.70439545621E+03 -0.10652807939E+04  0.12939743741E+04  0.12699999809E+01 0. -1.
</event>
<event>
 5   0  0.4132460E-05  0.2193183E+04  0.7818609E-02  0.8521271E-01
        2   -1    0    0  501    0  0.00000000000E+00  0.00000000000E+00  0.10347581827E+04  0.10347581827E+04  0.25500000920E-02 0. -1.
       -2   -1    0    0    0  501  0.00000000000E+00  0.00000000000E+00 -0.11621195845E+04  0.11621195845E+04  0.25500000920E-02 0.  1.
    10030    2    1    2    0    0  0.00000000000E+00  0.00000000000E+00 -0.12736140180E+03  0.21968777671E+04  0.21931828462E+04 0.  0.
        4    1    3    3  502    0 -0.28530602191E+03 -0.44383082534E+03  0.89925347990E+03  0.10426139083E+04  0.12699999809E+01 0. -1.
       -4    1    3    3    0  502  0.28530602191E+03  0.44383082534E+03 -0.10266148817E+04  0.11542638589E+04  0.12699999809E+01 0.  1.
</event>
<event>
 5   0  0.1786228E-05  0.2196529E+04  0.7818609E-02  0.8519874E-01
        1   -1    0    0  501    0  0.00000000000E+00  0.00000000000E+00  0.23072990745E+04  0.23072990745E+04  0.50400001928E-02 0.  1.
       -1   -1    0    0    0  501  0.00000000000E+00  0.00000000000E+00 -0.52276905400E+03  0.52276905403E+03  0.50400001928E-02 0. -1.
    10030    2    1    2    0    0  0.00000000000E+00  0.00000000000E+00  0.17845300205E+04  0.28300681285E+04  0.21965286745E+04 0.  0.
        5    1    3    3  502    0 -0.94745854466E+03 -0.52873964555E+03  0.11113702859E+04  0.15531932619E+04  0.46999998093E+01 0.  1.
       -5    1    3    3    0  502  0.94745854466E+03  0.52873964555E+03  0.67315973464E+03  0.12768748666E+04  0.46999998093E+01 0. -1.
</event>
<event>
 5   0  0.1884407E-05  0.2195771E+04  0.7818609E-02  0.8520190E-01
       -1   -1    0    0    0  501  0.00000000000E+00  0.00000000000E+00  0.99519126036E+03  0.99519126038E+03  0.50400001928E-02 0.  1.
        1   -1    0    0  501    0  0.00000000000E+00  0.00000000000E+00 -0.12111767903E+04  0.12111767903E+04  0.50400001928E-02 0. -1.
    10030    2    1    2    0    0  0.00000000000E+00  0.00000000000E+00 -0.21598552989E+03  0.22063680506E+04  0.21957709866E+04 0.  0.
        3    1    3    3  502    0  0.28572526866E+03  0.19069441006E+03  0.93980012999E+03  0.10006136026E+04  0.10100000352E+00 0.  1.
       -3    1    3    3    0  502 -0.28572526866E+03 -0.19069441006E+03 -0.11557856599E+04  0.12057544480E+04  0.10100000352E+00 0. -1.
</event>
<event>
 5   0  0.4132460E-05  0.2165718E+04  0.7818609E-02  0.8532834E-01
       -2   -1    0    0    0  501  0.00000000000E+00  0.00000000000E+00  0.87798966550E+03  0.87798966550E+03  0.25500000920E-02 0. -1.
        2   -1    0    0  501    0  0.00000000000E+00  0.00000000000E+00 -0.13355325793E+04  0.13355325793E+04  0.25500000920E-02 0.  1.
    10030    2    1    2    0    0  0.00000000000E+00  0.00000000000E+00 -0.45754291376E+03  0.22135222448E+04  0.21657181742E+04 0.  0.
        4    1    3    3  502    0  0.35490907402E+03  0.82670315325E+03  0.38717801244E+03  0.97944217829E+03  0.12699999809E+01 0. -1.
       -4    1    3    3    0  502 -0.35490907402E+03 -0.82670315325E+03 -0.84472092619E+03  0.12340800665E+04  0.12699999809E+01 0.  1.
</event>
<event>
 5   0  0.4027923E-05  0.2208862E+04  0.7818609E-02  0.8514749E-01
       -2   -1    0    0    0  501  0.00000000000E+00  0.00000000000E+00  0.12711375610E+04  0.12711375610E+04  0.25500000920E-02 0. -1.
        2   -1    0    0  501    0  0.00000000000E+00  0.00000000000E+00 -0.95958762564E+03  0.95958762564E+03  0.25500000920E-02 0.  1.
    10030    2    1    2    0    0  0.00000000000E+00  0.00000000000E+00  0.31154993532E+03  0.22307251866E+04  0.22088620364E+04 0.  0.
        5    1    3    3  502    0 -0.33528908007E+03  0.10495333473E+04  0.23273137365E+03  0.11261105615E+04  0.46999998093E+01 0.  1.
       -5    1    3    3    0  502  0.33528908007E+03 -0.10495333473E+04  0.78818561672E+02  0.11046146251E+04  0.46999998093E+01 0. -1.
</event>
<event>
 5   0  0.1786228E-05  0.2193104E+04  0.7818609E-02  0.8521304E-01
        1   -1    0    0  501    0  0.00000000000E+00  0.00000000000E+00  0.18240512654E+04  0.18240512654E+04  0.50400001928E-02 0.  1.
       -1   -1    0    0    0  501  0.00000000000E+00  0.00000000000E+00 -0.65920668101E+03  0.65920668103E+03  0.50400001928E-02 0. -1.
    10030    2    1    2    0    0  0.00000000000E+00  0.00000000000E+00  0.11648445844E+04  0.24832579464E+04  0.21931044487E+04 0.  0.
        5    1    3    3  502    0 -0.56471468686E+03 -0.39802300219E+03  0.15465962389E+04  0.16939028910E+04  0.46999998093E+01 0.  1.
       -5    1    3    3    0  502  0.56471468686E+03  0.39802300219E+03 -0.38175165454E+03  0.78935505545E+03  0.46999998093E+01 0. -1.
</event>
<event>
 5   0  0.1884407E-05  0.2009486E+04  0.7818609E-02  0.8602198E-01
       -1   -1    0    0    0  501  0.00000000000E+00  0.00000000000E+00  0.58131456110E+03  0.58131456112E+03  0.50400001928E-02 0.  1.
        1   -1    0    0  501    0  0.00000000000E+00  0.00000000000E+00 -0.17365964414E+04  0.17365964414E+04  0.50400001928E-02 0. -1.
    10030    2    1    2    0    0  0.00000000000E+00  0.00000000000E+00 -0.11552818803E+04  0.23179110025E+04  0.20094863007E+04 0.  0.
        3    1    3    3  502    0 -0.34751275202E+03 -0.94019706951E+03 -0.65733281602E+03  0.11986751368E+04  0.10100000352E+00 0. -1.
       -3    1    3    3    0  502  0.34751275202E+03  0.94019706951E+03 -0.49794906428E+03  0.11192358657E+04  0.10100000352E+00 0.  1.
</event>
<event>
 5   0  0.4143281E-05  0.2209283E+04  0.7818609E-02  0.8514574E-01
        2   -1    0    0  501    0  0.00000000000E+00  0.00000000000E+00  0.13498831816E+04  0.13498831816E+04  0.25500000920E-02 0.  1.
       -2   -1    0    0    0  501  0.00000000000E+00  0.00000000000E+00 -0.90395443580E+03  0.90395443580E+03  0.25500000920E-02 0. -1.
    10030    2    1    2    0    0  0.00000000000E+00  0.00000000000E+00  0.44592874581E+03  0.22538376174E+04  0.22092830419E+04 0.  0.
        2    1    3    3  502    0 -0.45373917758E+03 -0.94528706473E+03  0.57751608641E+03  0.11970679622E+04  0.25500000920E-02 0.  1.
       -2    1    3    3    0  502  0.45373917758E+03  0.94528706473E+03 -0.13158734060E+03  0.10567696552E+04  0.25500000920E-02 0. -1.
</event>
<event>
 5   0  0.4027923E-05  0.2205835E+04  0.7818609E-02  0.8516003E-01
        2   -1    0    0  501    0  0.00000000000E+00  0.00000000000E+00  0.14031520934E+04  0.14031520934E+04  0.25500000920E-02 0. -1.
       -2   -1    0    0    0  501  0.00000000000E+00  0.00000000000E+00 -0.86692472342E+03  0.86692472343E+03  0.25500000920E-02 0.  1.
    10030    2    1    2    0    0  0.00000000000E+00  0.00000000000E+00  0.53622737002E+03  0.22700768169E+04  0.22058352074E+04 0.  0.
        5    1    3    3  502    0  0.86486636401E+03 -0.36746606283E+03 -0.32609264030E+03  0.99467765381E+03  0.46999998093E+01 0.  1.
       -5    1    3    3    0  502 -0.86486636401E+03  0.36746606283E+03  0.86232001032E+03  0.12753991631E+04  0.46999998093E+01 0. -1.
</event>
<event>
 5   0  0.3963414E-05  0.2203482E+04  0.7818609E-02  0.8516980E-01
        2   -1    0    0  501    0  0.00000000000E+00  0.00000000000E+00  0.53941612816E+03  0.53941612817E+03  0.25500000920E-02 0. -1.
       -2   -1    0    0    0  501  0.00000000000E+00  0.00000000000E+00 -0.22502722211E+04  0.22502722211E+04  0.25500000920E-02 0.  1.
    10030    2    1    2    0    0  0.00000000000E+00  0.00000000000E+00 -0.17108560930E+04  0.27896883493E+04  0.22034819072E+04 0.  0.
        1    1    3    3  502    0 -0.38950810206E+03 -0.66779619179E+03 -0.18492181025E+04  0.20043143231E+04  0.50400001928E-02 0.  1.
       -1    1    3    3    0  502  0.38950810206E+03  0.66779619179E+03  0.13836200947E+03  0.78537402620E+03  0.50400001928E-02 0. -1.
</event>
<event>
 5   0  0.4132460E-05  0.2162228E+04  0.7818609E-02  0.8534316E-01
       -2   -1    0    0    0  501  0.00000000000E+00  0.00000000000E+00  0.14223494056E+04  0.14223494056E+04  0.25500000920E-02 0.  1.
        2   -1    0    0  501    0  0.00000000000E+00  0.00000000000E+00 -0.82174448337E+03  0.82174448338E+03  0.25500000920E-02 0. -1.
    10030    2    1    2    0    0  0.00000000000E+00  0.00000000000E+00  0.60060492227E+03  0.22440938890E+04  0.21622282743E+04 0.  0.
        4    1    3    3  502    0  0.37286975085E+03 -0.60706161280E+03 -0.54365875953E+03  0.89617080545E+03  0.12699999809E+01 0. -1.
       -4    1    3    3    0  502 -0.37286975085E+03  0.60706161280E+03  0.11442636818E+04  0.13479230836E+04  0.12699999809E+01 0.  1.
</event>
<event>
 5   0  0.4027923E-05  0.2432058E+04  0.7818609E-02  0.8427598E-01
        2   -1    0    0  501    0  0.00000000000E+00  0.00000000000E+00  0.14822814444E+04  0.14822814444E+04  0.25500000920E-02 0. -1.
       -2   -1    0    0    0  501  0.00000000000E+00  0.00000000000E+00 -0.99760142398E+03  0.99760142398E+03  0.25500000920E-02 0.  1.
    10030    2    1    2    0    0  0.00000000000E+00  0.00000000000E+00  0.48468002045E+03  0.24798828684E+04  0.24320576306E+04 0.  0.
        5    1    3    3  502    0 -0.23357957416E+03 -0.11582344019E+04  0.53546055976E+03  0.12972302988E+04  0.46999998093E+01 0. -1.
       -5    1    3    3    0  502  0.23357957416E+03  0.11582344019E+04 -0.50780539308E+02  0.11826525696E+04  0.46999998093E+01 0.  1.
</event>
<event>
 5   0  0.4029532E-05  0.2200913E+04  0.7818609E-02  0.8518048E-01
       -2   -1    0    0    0  501  0.00000000000E+00  0.00000000000E+00  0.68176951273E+03  0.68176951273E+03  0.25500000920E-02 0.  1.
        2   -1    0    0  501    0  0.00000000000E+00  0.00000000000E+00 -0.17762661846E+04  0.17762661846E+04  0.25500000920E-02 0. -1.
    10030    2    1    2    0    0  0.00000000000E+00  0.00000000000E+00 -0.10944966718E+04  0.24580356973E+04  0.22009126572E+04 0.  0.
        3    1    3    3  502    0 -0.10515714438E+04 -0.22530472283E+03 -0.28666775490E+03  0.11129883789E+04  0.10100000352E+00 0. -1.
       -3    1    3    3    0  502  0.10515714438E+04  0.22530472283E+03 -0.80782891694E+03  0.13450473184E+04  0.10100000352E+00 0.  1.
</event>
<event>
 5   0  0.1815681E-05  0.2202338E+04  0.7818609E-02  0.8517455E-01
        1   -1    0    0  501    0  0.00000000000E+00  0.00000000000E+00  0.92577968581E+03  0.92577968582E+03  0.50400001928E-02 0.  1.
       -1   -1    0    0    0  501  0.00000000000E+00  0.00000000000E+00 -0.13097863515E+04  0.13097863515E+04  0.50400001928E-02 0. -1.
    10030    2    1    2    0    0  0.00000000000E+00  0.00000000000E+00 -0.38400666570E+03  0.22355660373E+04  0.22023383909E+04 0.  0.
        2    1    3    3  502    0  0.45261401247E+02  0.26446902697E+03  0.89208968194E+03  0.93156667035E+03  0.25500000920E-02 0.  1.
       -2    1    3    3    0  502 -0.45261401247E+02 -0.26446902697E+03 -0.12760963476E+04  0.13039993670E+04  0.25500000920E-02 0. -1.
</event>
<event>
 5   0  0.4027923E-05  0.2213214E+04  0.7818609E-02  0.8512948E-01
       -2   -1    0    0    0  501  0.00000000000E+00  0.00000000000E+00  0.73985580168E+03  0.73985580169E+03  0.25500000920E-02 0.  1.
        2   -1    0    0  501    0  0.00000000000E+00  0.00000000000E+00 -0.16551593725E+04  0.16551593725E+04  0.25500000920E-02 0. -1.
    10030    2    1    2    0    0  0.00000000000E+00  0.00000000000E+00 -0.91530357078E+03  0.23950151741E+04  0.22132141916E+04 0.  0.
        5    1    3    3  502    0  0.49757815245E+03  0.75768504918E+03  0.22922081560E+03  0.93500530686E+03  0.46999998093E+01 0.  1.
       -5    1    3    3    0  502 -0.49757815245E+03 -0.75768504918E+03 -0.11445243864E+04  0.14600098673E+04  0.46999998093E+01 0. -1.
</event>
<event>
 5   0  0.1786228E-05  0.2209089E+04  0.7818609E-02  0.8514655E-01
       -1   -1    0    0    0  501  0.00000000000E+00  0.00000000000E+00  0.82937003648E+03  0.82937003650E+03  0.50400001928E-02 0. -1.
        1   -1    0    0  501    0  0.00000000000E+00  0.00000000000E+00 -0.14710179118E+04  0.14710179119E+04  0.50400001928E-02 0.  1.
    10030    2    1    2    0    0  0.00000000000E+00  0.00000000000E+00 -0.64164787536E+03  0.23003879484E+04  0.22090886621E+04 0.  0.
        5    1    3    3  502    0 -0.93268839828E+03 -0.10082477141E+03  0.28630102364E+03  0.98084843322E+03  0.46999998093E+01 0. -1.
       -5    1    3    3    0  502  0.93268839828E+03  0.10082477141E+03 -0.92794889900E+03  0.13195395151E+04  0.46999998093E+01 0.  1.
</event>
<event>
 5   0  0.1786228E-05  0.2205050E+04  0.7818609E-02  0.8516329E-01
       -1   -1    0    0    0  501  0.00000000000E+00  0.00000000000E+00  0.52294388828E+03  0.52294388830E+03  0.50400001928E-02 0.  1.
        1   -1    0    0  501    0  0.00000000000E+00  0.00000000000E+00 -0.23244575112E+04  0.23244575112E+04  0.50400001928E-02 0. -1.
    10030    2    1    2    0    0  0.00000000000E+00  0.00000000000E+00 -0.18015136229E+04  0.28474013995E+04  0.22050495224E+04 0.  0.
        5    1    3    3  502    0 -0.67764046167E+03  0.66773736053E+02  0.21895331040E+03  0.71527475089E+03  0.46999998093E+01 0.  1.
       -5    1    3    3    0  502  0.67764046167E+03 -0.66773736053E+02 -0.20204669333E+04  0.21321266486E+04  0.46999998093E+01 0. -1.
</event>
<event>
 5   0  0.1786228E-05  0.2191023E+04  0.7818609E-02  0.8522174E-01
       -1   -1    0    0    0  501  0.00000000000E+00  0.00000000000E+00  0.80435715123E+03  0.80435715124E+03  0.50400001928E-02 0.  1.
        1   -1    0    0  501    0  0.00000000000E+00  0.00000000000E+00 -0.14920552174E+04  0.14920552174E+04  0.50400001928E-02 0. -1.
    10030    2    1    2    0    0  0.00000000000E+00  0.00000000000E+00 -0.68769806620E+03  0.22964123687E+04  0.21910228517E+04 0.  0.
        5    1    3    3  502    0  0.60713694199E+03  0.19545711195E+02  0.61166347492E+03  0.86206240940E+03  0.46999998093E+01 0.  1.
       -5    1    3    3    0  502 -0.60713694199E+03 -0.19545711195E+02 -0.12993615411E+04  0.14343499593E+04  0.46999998093E+01 0. -1.
</event>
<event>
 5   0  0.1788413E-05  0.2191038E+04  0.7818609E-02  0.8522168E-01
       -1   -1    0    0    0  501  0.00000000000E+00  0.00000000000E+00  0.11037729118E+04  0.11037729118E+04  0.50400001928E-02 0.  1.
        1   -1    0    0  501    0  0.00000000000E+00  0.00000000000E+00 -0.10873263970E+04  0.10873263970E+04  0.50400001928E-02 0. -1.
    10030    2    1    2    0    0  0.00000000000E+00  0.00000000000E+00  0.16446514731E+02  0.21910993088E+04  0.21910375837E+04 0.  0.
        1    1    3    3  502    0  0.67782065885E+03 -0.49347222248E+02 -0.85103632353E+03  0.10891000036E+04  0.50400001928E-02 0. -1.
       -1    1    3    3    0  502 -0.67782065885E+03  0.49347222248E+02  0.86748283826E+03  0.11019993052E+04  0.50400001928E-02 0.  1.
</event>
<event>
 5   0  0.4029532E-05  0.2209494E+04  0.7818609E-02  0.8514487E-01
       -2   -1    0    0    0  501  0.00000000000E+00  0.00000000000E+00  0.10281465799E+04  0.10281465799E+04  0.25500000920E-02 0. -1.
        2   -1    0    0  501    0  0.00000000000E+00  0.00000000000E+00 -0.11870545303E+04  0.11870545303E+04  0.25500000920E-02 0.  1.
    10030    2    1    2    0    0  0.00000000000E+00  0.00000000000E+00 -0.15890795033E+03  0.22152011102E+04  0.22094941100E+04 0.  0.
        3    1    3    3  502    0 -0.98292818234E+03 -0.33064648250E+03 -0.46121451880E+03  0.11349862337E+04  0.10100000352E+00 0.  1.
       -3    1    3    3    0  502  0.98292818234E+03  0.33064648250E+03  0.30230656848E+03  0.10802148766E+04  0.10100000352E+00 0. -1.
</event>
<event>
 5   0  0.4027923E-05  0.2243373E+04  0.7818609E-02  0.8500589E-01
        2   -1    0    0  501    0  0.00000000000E+00  0.00000000000E+00  0.22316655414E+04  0.22316655414E+04  0.25500000920E-02 0. -1.
       -2   -1    0    0    0  501  0.00000000000E+00  0.00000000000E+00 -0.56378566799E+03  0.56378566800E+03  0.25500000920E-02 0.  1.
    10030    2    1    2    0    0  0.00000000000E+00  0.00000000000E+00  0.16678798734E+04  0.27954512094E+04  0.22433733956E+04 0.  0.
        5    1    3    3  502    0 -0.65273469725E+01 -0.71146822214E+03  0.19144749929E+04  0.20424167610E+04  0.46999998093E+01 0. -1.
       -5    1    3    3    0  502  0.65273469725E+01  0.71146822214E+03 -0.24659511953E+03  0.75303444832E+03  0.46999998093E+01 0.  1.
</event>
<event>
 5   0  0.1866935E-05  0.2235543E+04  0.7818609E-02  0.8503778E-01
       -1   -1    0    0    0  501  0.00000000000E+00  0.00000000000E+00  0.10033625260E+04  0.10033625260E+04  0.50400001928E-02 0. -1.
        1   -1    0    0  501    0  0.00000000000E+00  0.00000000000E+00 -0.12452260194E+04  0.12452260194E+04  0.50400001928E-02 0.  1.
    10030    2    1    2    0    0  0.00000000000E+00  0.00000000000E+00 -0.24186349340E+03  0.22485885454E+04  0.22355429982E+04 0.  0.
        4    1    3    3  502    0 -0.72103841635E+03 -0.83472580673E+03 -0.30295168660E+03  0.11438727672E+04  0.12699999809E+01 0.  1.
       -4    1    3    3    0  502  0.72103841635E+03  0.83472580673E+03  0.61088193194E+02  0.11047157782E+04  0.12699999809E+01 0. -1.
</event>
<event>
 5   0  0.4143281E-05  0.2177680E+04  0.7818609E-02  0.8527776E-01
       -2   -1    0    0    0  501  0.00000000000E+00  0.00000000000E+00  0.11040422210E+04  0.11040422210E+04  0.25500000920E-02 0.  1.
        2   -1    0    0  501    0  0.00000000000E+00  0.00000000000E+00 -0.10738466992E+04  0.10738466992E+04  0.25500000920E-02 0. -1.
    10030    2    1    2    0    0  0.00000000000E+00  0.00000000000E+00  0.30195521837E+02  0.21778889202E+04  0.21776795859E+04 0.  0.
        2    1    3    3  502    0  0.93102161964E+02  0.83788904412E+03  0.70425472965E+03  0.10984993341E+04  0.25500000920E-02 0.  1.
       -2    1    3    3    0  502 -0.93102161964E+02 -0.83788904412E+03 -0.67405920781E+03  0.10793895860E+04  0.25500000920E-02 0. -1.
</event>
<event>
 5   0  0.4143281E-05  0.2196504E+04  0.7818609E-02  0.8519885E-01
       -2   -1    0    0    0  501  0.00000000000E+00  0.00000000000E+00  0.95092882037E+03  0.95092882037E+03  0.25500000920E-02 0.  1.
        2   -1    0    0  501    0  0.00000000000E+00  0.00000000000E+00 -0.12683993822E+04  0.12683993822E+04  0.25500000920E-02 0. -1.
    10030    2    1    2    0    0  0.00000000000E+00  0.00000000000E+00 -0.31747056181E+03  0.22193282025E+04  0.21965040662E+04 0.  0.
        2    1    3    3  502    0  0.87969120220E+03 -0.58880754948E+03 -0.45436161033E+03  0.11519528699E+04  0.25500000920E-02 0. -1.
       -2    1    3    3    0  502 -0.87969120220E+03  0.58880754948E+03  0.13689104852E+03  0.10673753326E+04  0.25500000920E-02 0.  1.
</event>
<event>
 5   0  0.1788413E-05  0.2194415E+04  0.7818609E-02  0.8520756E-01
       -1   -1    0    0    0  501  0.00000000000E+00  0.00000000000E+00  0.56085214792E+03  0.56085214795E+03  0.50400001928E-02 0. -1.
        1   -1    0    0  501    0  0.00000000000E+00  0.00000000000E+00 -0.21464909241E+04  0.21464909241E+04  0.50400001928E-02 0.  1.
    10030    2    1    2    0    0  0.00000000000E+00  0.00000000000E+00 -0.15856387762E+04  0.27073430721E+04  0.21944147697E+04 0.  0.
        1    1    3    3  502    0  0.87204038881E+03  0.63710420108E+03 -0.55388117187E+03  0.12137300175E+04  0.50400001928E-02 0. -1.
       -1    1    3    3    0  502 -0.87204038881E+03 -0.63710420108E+03 -0.10317576043E+04  0.14936130546E+04  0.50400001928E-02 0.  1.
</event>
<event>
 5   0  0.4027923E-05  0.2215512E+04  0.7818609E-02  0.8511999E-01
        2   -1    0    0  501    0  0.00000000000E+00  0.00000000000E+00  0.15082069779E+04  0.15082069779E+04  0.25500000920E-02 0. -1.
       -2   -1    0    0    0  501  0.00000000000E+00  0.00000000000E+00 -0.81363025651E+03  0.81363025651E+03  0.25500000920E-02 0.  1.
    10030    2    1    2    0    0  0.00000000000E+00  0.00000000000E+00  0.69457672136E+03  0.23218372344E+04  0.22155115258E+04 0.  0.
        5    1    3    3  502    0 -0.28372262964E+03 -0.88788058040E+03 -0.27999411113E+03  0.97326730547E+03  0.46999998093E+01 0.  1.
       -5    1    3    3    0  502  0.28372262964E+03  0.88788058040E+03  0.97457083250E+03  0.13485699289E+04  0.46999998093E+01 0. -1.
</event>
<event>
 5   0  0.1884407E-05  0.2168644E+04  0.7818609E-02  0.8531594E-01
       -1   -1    0    0    0  501  0.00000000000E+00  0.00000000000E+00  0.45356689201E+03  0.45356689204E+03  0.50400001928E-02 0.  1.
        1   -1    0    0  501    0  0.00000000000E+00  0.00000000000E+00 -0.25922397641E+04  0.25922397641E+04  0.50400001928E-02 0. -1.
    10030    2    1    2    0    0  0.00000000000E+00  0.00000000000E+00 -0.21386728721E+04  0.30458066562E+04  0.21686439387E+04 0.  0.
        3    1    3    3  502    0  0.64676288364E+03 -0.12917465506E+03  0.13946381505E+03  0.67412052711E+03  0.10100000352E+00 0.  1.
       -3    1    3    3    0  502 -0.64676288364E+03  0.12917465506E+03 -0.22781366871E+04  0.23716861290E+04  0.10100000352E+00 0. -1.
</event>
<event>
 5   0  0.4132460E-05  0.2204866E+04  0.7818609E-02  0.8516405E-01
       -2   -1    0    0    0  501  0.00000000000E+00  0.00000000000E+00  0.94708686951E+03  0.94708686952E+03  0.25500000920E-02 0.  1.
        2   -1    0    0  501    0  0.00000000000E+00  0.00000000000E+00 -0.12832600293E+04  0.12832600293E+04  0.25500000920E-02 0. -1.
    10030    2    1    2    0    0  0.00000000000E+00  0.00000000000E+00 -0.33617315981E+03  0.22303468988E+04  0.22048661855E+04 0.  0.
        4    1    3    3  502    0 -0.10211988803E+02  0.10490712442E+04  0.17450472729E+03  0.10635357413E+04  0.12699999809E+01 0. -1.
       -4    1    3    3    0  502  0.10211988803E+02 -0.10490712442E+04 -0.51067788709E+03  0.11668111576E+04  0.12699999809E+01 0.  1.
</event>
<event>
 5   0  0.1433375E-05  0.2226825E+04  0.7818609E-02  0.8507345E-01
       -3   -1    0    0    0  501  0.00000000000E+00  0.00000000000E+00  0.64064872720E+03  0.64064873516E+03  0.10100000352E+00 0. -1.
        3   -1    0    0  501    0  0.00000000000E+00  0.00000000000E+00 -0.19350509512E+04  0.19350509538E+04  0.10100000352E+00 0.  1.
    10030    2    1    2    0    0  0.00000000000E+00  0.00000000000E+00 -0.12944022240E+04  0.25756996890E+04  0.22268254917E+04 0.  0.
        5    1    3    3  502    0 -0.16350596620E+03  0.33147050295E+03  0.56760901615E+03  0.67735439802E+03  0.46999998093E+01 0. -1.
       -5    1    3    3    0  502  0.16350596620E+03 -0.33147050295E+03 -0.18620112401E+04  0.18983452910E+04  0.46999998093E+01 0.  1.
</event>
<event>
 5   0  0.4027923E-05  0.2193541E+04  0.7818609E-02  0.8521121E-01
       -2   -1    0    0    0  501  0.00000000000E+00  0.00000000000E+00  0.90235781208E+03  0.90235781208E+03  0.25500000920E-02 0.  1.
        2   -1    0    0  501    0  0.00000000000E+00  0.00000000000E+00 -0.13330693499E+04  0.13330693499E+04  0.25500000920E-02 0. -1.
    10030    2    1    2    0    0  0.00000000000E+00  0.00000000000E+00 -0.43071153782E+03  0.22354271620E+04  0.21935410112E+04 0.  0.
        5    1    3    3  502    0  0.54261883892E+03 -0.54458695046E+03  0.58180426449E+03  0.96412055425E+03  0.46999998093E+01 0.  1.
       -5    1    3    3    0  502 -0.54261883892E+03  0.54458695046E+03 -0.10125158023E+04  0.12713066077E+04  0.46999998093E+01 0. -1.
</event>
<event>
 5   0  0.1788413E-05  0.2204208E+04  0.7818609E-02  0.8516679E-01
       -1   -1    0    0    0  501  0.00000000000E+00  0.00000000000E+00  0.10497906291E+04  0.10497906292E+04  0.50400001928E-02 0.  1.
        1   -1    0    0  501    0  0.00000000000E+00  0.00000000000E+00 -0.11570243365E+04  0.11570243365E+04  0.50400001928E-02 0. -1.
    10030    2    1    2    0    0  0.00000000000E+00  0.00000000000E+00 -0.10723370736E+03  0.22068149657E+04  0.22042080720E+04 0.  0.
        1    1    3    3  502    0  0.22655371179E+03 -0.25756964384E+03  0.99498262741E+03  0.10524538634E+04  0.50400001928E-02 0.  1.
       -1    1    3    3    0  502 -0.22655371179E+03  0.25756964384E+03 -0.11022163348E+04  0.11543611023E+04  0.50400001928E-02 0. -1.
</event>
<event>
 5   0  0.1788413E-05  0.2180590E+04  0.7818609E-02  0.8526550E-01
       -1   -1    0    0    0  501  0.00000000000E+00  0.00000000000E+00  0.94425621441E+03  0.94425621443E+03  0.50400001928E-02 0.  1.
        1   -1    0    0  501    0  0.00000000000E+00  0.00000000000E+00 -0.12589206358E+04  0.12589206358E+04  0.50400001928E-02 0. -1.
    10030    2    1    2    0    0  0.00000000000E+00  0.00000000000E+00 -0.31466442136E+03  0.22031768502E+04  0.21805904098E+04 0.  0.
        1    1    3    3  502    0  0.90873255612E+03 -0.51813206297E+03  0.15324061507E+03  0.10572314691E+04  0.50400001928E-02 0.  1.
       -1    1    3    3    0  502 -0.90873255612E+03  0.51813206297E+03 -0.46790503643E+03  0.11459453811E+04  0.50400001928E-02 0. -1.
</event>
<event>
 5   0  0.1884407E-05  0.2194813E+04  0.7818609E-02  0.8520590E-01
       -1   -1    0    0    0  501  0.00000000000E+00  0.00000000000E+00  0.59551017182E+03  0.59551017184E+03  0.50400001928E-02 0.  1.
        1   -1    0    0  501    0  0.00000000000E+00  0.00000000000E+00 -0.20223005815E+04  0.20223005815E+04  0.50400001928E-02 0. -1.
    10030    2    1    2    0    0  0.00000000000E+00  0.00000000000E+00 -0.14267904097E+04  0.26178107533E+04  0.21948125813E+04 0.  0.
        3    1    3    3  502    0 -0.10950781160E+04  0.69861834205E+02 -0.69555205748E+03  0.12991802919E+04  0.10100000352E+00 0.  1.
       -3    1    3    3    0  502  0.10950781160E+04 -0.69861834205E+02 -0.73123835217E+03  0.13186304614E+04  0.10100000352E+00 0. -1.
</event>
<event>
 5   0  0.4132460E-05  0.2187575E+04  0.7818609E-02  0.8523618E-01
       -2   -1    0    0    0  501  0.00000000000E+00  0.00000000000E+00  0.85666688836E+03  0.85666688837E+03  0.25500000920E-02 0. -1.
        2   -1    0    0  501    0  0.00000000000E+00  0.00000000000E+00 -0.13965412398E+04  0.13965412398E+04  0.25500000920E-02 0.  1.
    10030    2    1    2    0    0  0.00000000000E+00  0.00000000000E+00 -0.53987435141E+03  0.22532081281E+04  0.21875745824E+04 0.  0.
        4    1    3    3  502    0 -0.55282811082E+03  0.26246475418E+03  0.66382867181E+03  0.90287141151E+03  0.12699999809E+01 0. -1.
       -4    1    3    3    0  502  0.55282811082E+03 -0.26246475418E+03 -0.12037030232E+04  0.13503367166E+04  0.12699999809E+01 0.  1.
</event>
<event>
 5   0  0.3963414E-05  0.2149748E+04  0.7818609E-02  0.8539640E-01
       -2   -1    0    0    0  501  0.00000000000E+00  0.00000000000E+00  0.51128634571E+03  0.51128634572E+03  0.25500000920E-02 0. -1.
        2   -1    0    0  501    0  0.00000000000E+00  0.00000000000E+00 -0.22596999544E+04  0.22596999544E+04  0.25500000920E-02 0.  1.
    10030    2    1    2    0    0  0.00000000000E+00  0.00000000000E+00 -0.17484136087E+04  0.27709863002E+04  0.21497476430E+04 0.  0.
        1    1    3    3  502    0  0.41540546900E+03  0.30344994762E+03 -0.20907151697E+04  0.21530753575E+04  0.50400001928E-02 0.  1.
       -1    1    3    3    0  502 -0.41540546900E+03 -0.30344994762E+03  0.34230156095E+03  0.61791094265E+03  0.50400001928E-02 0. -1.
</event>
<event>
 5   0  0.4027923E-05  0.2237524E+04  0.7818609E-02  0.8502970E-01
       -2   -1    0    0    0  501  0.00000000000E+00  0.00000000000E+00  0.91208650421E+03  0.91208650421E+03  0.25500000920E-02 0.  1.
        2   -1    0    0  501    0  0.00000000000E+00  0.00000000000E+00 -0.13722688881E+04  0.13722688881E+04  0.25500000920E-02 0. -1.
    10030    2    1    2    0    0  0.00000000000E+00  0.00000000000E+00 -0.46018238385E+03  0.22843553923E+04  0.22375235712E+04 0.  0.
        5    1    3    3  502    0  0.19415941226E+03  0.27534296093E+03  0.85905245001E+03  0.92277019099E+03  0.46999998093E+01 0.  1.
       -5    1    3    3    0  502 -0.19415941226E+03 -0.27534296093E+03 -0.13192348339E+04  0.13615852013E+04  0.46999998093E+01 0. -1.
</event>
<event>
 5   0  0.1815681E-05  0.2172077E+04  0.7818609E-02  0.8530141E-01
       -1   -1    0    0    0  501  0.00000000000E+00  0.00000000000E+00  0.87895411571E+03  0.87895411573E+03  0.50400001928E-02 0. -1.
        1   -1    0    0  501    0  0.00000000000E+00  0.00000000000E+00 -0.13419130898E+04  0.13419130898E+04  0.50400001928E-02 0.  1.
    10030    2    1    2    0    0  0.00000000000E+00  0.00000000000E+00 -0.46295897404E+03  0.22208672055E+04  0.21720773773E+04 0.  0.
        2    1    3    3  502    0 -0.61431060323E+03  0.11769565592E+03 -0.11392568674E+04  0.12996676477E+04  0.25500000920E-02 0.  1.
       -2    1    3    3    0  502  0.61431060323E+03 -0.11769565592E+03  0.67629789335E+03  0.92119955776E+03  0.25500000920E-02 0. -1.
</event>
<event>
 5   0  0.1786228E-05  0.2190798E+04  0.7818609E-02  0.8522268E-01
       -1   -1    0    0    0  501  0.00000000000E+00  0.00000000000E+00  0.10752899079E+04  0.10752899079E+04  0.50400001928E-02 0. -1.
        1   -1    0    0  501    0  0.00000000000E+00  0.00000000000E+00 -0.11158838528E+04  0.11158838528E+04  0.50400001928E-02 0.  1.
    10030    2    1    2    0    0  0.00000000000E+00  0.00000000000E+00 -0.40593944923E+02  0.21911737607E+04  0.21907977043E+04 0.  0.
        5    1    3    3  502    0  0.81941884878E+03  0.42664609797E+02  0.70550592082E+03  0.10821405699E+04  0.46999998093E+01 0. -1.
       -5    1    3    3    0  502 -0.81941884878E+03 -0.42664609797E+02 -0.74609986574E+03  0.11090331908E+04  0.46999998093E+01 0.  1.
</event>
<event>
 5   0  0.4132460E-05  0.2218909E+04  0.7818609E-02  0.8510599E-01
       -2   -1    0    0    0  501  0.00000000000E+00  0.00000000000E+00  0.82877880036E+03  0.82877880036E+03  0.25500000920E-02 0.  1.
        2   -1    0    0  501    0  0.00000000000E+00  0.00000000000E+00 -0.14851847766E+04  0.14851847766E+04  0.25500000920E-02 0. -1.
    10030    2    1    2    0    0  0.00000000000E+00  0.00000000000E+00 -0.65640597625E+03  0.23139635770E+04  0.22189093334E+04 0.  0.
        4    1    3    3  502    0  0.37411381210E+03  0.10428184426E+04 -0.26689158269E+03  0.11395894780E+04  0.12699999809E+01 0. -1.
       -4    1    3    3    0  502 -0.37411381210E+03 -0.10428184426E+04 -0.38951439356E+03  0.11743740990E+04  0.12699999809E+01 0.  1.
</event>
<event>
 5   0  0.1884407E-05  0.2204984E+04  0.7818609E-02  0.8516357E-01
        1   -1    0    0  501    0  0.00000000000E+00  0.00000000000E+00  0.16331327067E+04  0.16331327067E+04  0.50400001928E-02 0. -1.
       -1   -1    0    0    0  501  0.00000000000E+00  0.00000000000E+00 -0.74426792631E+03  0.74426792633E+03  0.50400001928E-02 0.  1.
    10030    2    1    2    0    0  0.00000000000E+00  0.00000000000E+00  0.88886478040E+03  0.23774006331E+04  0.22049837125E+04 0.  0.
        3    1    3    3  502    0 -0.96139107647E+03  0.53935401769E+03  0.42536558353E+03  0.11815716009E+04  0.10100000352E+00 0.  1.
       -3    1    3    3    0  502  0.96139107647E+03 -0.53935401769E+03  0.46349919688E+03  0.11958290321E+04  0.10100000352E+00 0. -1.
</event>
<event>
 5   0  0.4132460E-05  0.2206314E+04  0.7818609E-02  0.8515805E-01
        2   -1    0    0  501    0  0.00000000000E+00  0.00000000000E+00  0.15218728720E+04  0.15218728720E+04  0.25500000920E-02 0.  1.
       -2   -1    0    0    0  501  0.00000000000E+00  0.00000000000E+00 -0.79964314996E+03  0.79964314997E+03  0.25500000920E-02 0. -1.
    10030    2    1    2    0    0  0.00000000000E+00  0.00000000000E+00  0.72222972203E+03  0.23215160220E+04  0.22063138645E+04 0.  0.
        4    1    3    3  502    0  0.73854993368E+03 -0.12178161293E+03  0.12137769105E+04  0.14260234105E+04  0.12699999809E+01 0.  1.
       -4    1    3    3    0  502 -0.73854993368E+03  0.12178161293E+03 -0.49154718851E+03  0.89549261148E+03  0.12699999809E+01 0. -1.
</event>
<event>
 5   0  0.1884407E-05  0.2199940E+04  0.7818609E-02  0.8518453E-01
        1   -1    0    0  501    0  0.00000000000E+00  0.00000000000E+00  0.13375570478E+04  0.13375570478E+04  0.50400001928E-02 0.  1.
       -1   -1    0    0    0  501  0.00000000000E+00  0.00000000000E+00 -0.90458494856E+03  0.90458494858E+03  0.50400001928E-02 0. -1.
    10030    2    1    2    0    0  0.00000000000E+00  0.00000000000E+00  0.43297209920E+03  0.22421419964E+04  0.21999399749E+04 0.  0.
        3    1    3    3  502    0 -0.45473646479E+03  0.79385935617E+02  0.12340610867E+04  0.13175713093E+04  0.10100000352E+00 0.  1.
       -3    1    3    3    0  502  0.45473646479E+03 -0.79385935617E+02 -0.80108898752E+03  0.92457068703E+03  0.10100000352E+00 0. -1.
</event>
<event>
 5   0  0.1788413E-05  0.2179719E+04  0.7818609E-02  0.8526917E-01
       -1   -1    0    0    0  501  0.00000000000E+00  0.00000000000E+00  0.77846213069E+03  0.77846213071E+03  0.50400001928E-02 0. -1.
        1   -1    0    0  501    0  0.00000000000E+00  0.00000000000E+00 -0.15258208106E+04  0.15258208106E+04  0.50400001928E-02 0.  1.
    10030    2    1    2    0    0  0.00000000000E+00  0.00000000000E+00 -0.74735867990E+03  0.23042829413E+04  0.21797189904E+04 0.  0.
        1    1    3    3  502    0  0.72480584268E+03 -0.19703418779E+03  0.46115058624E+03  0.88137724270E+03  0.50400001928E-02 0. -1.
       -1    1    3    3    0  502 -0.72480584268E+03  0.19703418779E+03 -0.12085092661E+04  0.14229056986E+04  0.50400001928E-02 0.  1.
</event>
<event>
 5   0  0.4132460E-05  0.2143051E+04  0.7818609E-02  0.8542513E-01
        2   -1    0    0  501    0  0.00000000000E+00  0.00000000000E+00  0.79765930431E+03  0.79765930431E+03  0.25500000920E-02 0. -1.
       -2   -1    0    0    0  501  0.00000000000E+00  0.00000000000E+00 -0.14394200089E+04  0.14394200089E+04  0.25500000920E-02 0.  1.
    10030    2    1    2    0    0  0.00000000000E+00  0.00000000000E+00 -0.64176070461E+03  0.22370793132E+04  0.21430508747E+04 0.  0.
        4    1    3    3  502    0  0.11261211974E+03  0.69935148479E+03  0.51837980365E+03  0.87777743337E+03  0.12699999809E+01 0. -1.
       -4    1    3    3    0  502 -0.11261211974E+03 -0.69935148479E+03 -0.11601405083E+04  0.13593018799E+04  0.12699999809E+01 0.  1.
</event>
<event>
 5   0  0.3963414E-05  0.2203687E+04  0.7818609E-02  0.8516895E-01
        2   -1    0    0  501    0  0.00000000000E+00  0.00000000000E+00  0.18717077853E+04  0.18717077853E+04  0.25500000920E-02 0. -1.
       -2   -1    0    0    0  501  0.00000000000E+00  0.00000000000E+00 -0.64863708479E+03  0.64863708480E+03  0.25500000920E-02 0.  1.
    10030    2    1    2    0    0  0.00000000000E+00  0.00000000000E+00  0.12230707005E+04  0.25203448701E+04  0.22036869845E+04 0.  0.
        1    1    3    3  502    0 -0.30395413953E+03  0.37971648367E+03  0.17422822779E+04  0.18089002910E+04  0.50400001928E-02 0. -1.
       -1    1    3    3    0  502  0.30395413953E+03 -0.37971648367E+03 -0.51921157743E+03  0.71144457906E+03  0.50400001928E-02 0.  1.
</event>
<event>
 5   0  0.4132460E-05  0.2167845E+04  0.7818609E-02  0.8531932E-01
       -2   -1    0    0    0  501  0.00000000000E+00  0.00000000000E+00  0.12765247114E+04  0.12765247114E+04  0.25500000920E-02 0. -1.
        2   -1    0    0  501    0  0.00000000000E+00  0.00000000000E+00 -0.92037982340E+03  0.92037982340E+03  0.25500000920E-02 0.  1.
    10030    2    1    2    0    0  0.00000000000E+00  0.00000000000E+00  0.35614488799E+03  0.21969045348E+04  0.21678446332E+04 0.  0.
        4    1    3    3  502    0  0.29867533536E+03  0.36245322764E+03 -0.81190890576E+03  0.93796427561E+03  0.12699999809E+01 0.  1.
       -4    1    3    3    0  502 -0.29867533536E+03 -0.36245322764E+03  0.11680537938E+04  0.12589402592E+04  0.12699999809E+01 0. -1.
</event>
<event>
 5   0  0.4132460E-05  0.2197757E+04  0.7818609E-02  0.8519362E-01
        2   -1    0    0  501    0  0.00000000000E+00  0.00000000000E+00  0.73508371641E+03  0.73508371642E+03  0.25500000920E-02 0.  1.
       -2   -1    0    0    0  501  0.00000000000E+00  0.00000000000E+00 -0.16427159061E+04  0.16427159061E+04  0.25500000920E-02 0. -1.
    10030    2    1    2    0    0  0.00000000000E+00  0.00000000000E+00 -0.90763218965E+03  0.23777996225E+04  0.21977567775E+04 0.  0.
        4    1    3    3  502    0  0.46009389744E+02  0.10864435551E+04 -0.28255908474E+03  0.11235291326E+04  0.12699999809E+01 0. -1.
       -4    1    3    3    0  502 -0.46009389744E+02 -0.10864435551E+04 -0.62507310491E+03  0.12542704899E+04  0.12699999809E+01 0.  1.
</event>
<event>
 5   0  0.1788413E-05  0.2198597E+04  0.7818609E-02  0.8519012E-01
        1   -1    0    0  501    0  0.00000000000E+00  0.00000000000E+00  0.12265708775E+04  0.12265708775E+04  0.50400001928E-02 0. -1.
       -1   -1    0    0    0  501  0.00000000000E+00  0.00000000000E+00 -0.98523218747E+03  0.98523218748E+03  0.50400001928E-02 0.  1.
    10030    2    1    2    0    0  0.00000000000E+00  0.00000000000E+00  0.24133869004E+03  0.22118030650E+04  0.21985969242E+04 0.  0.
        1    1    3    3  502    0 -0.54846374643E+03  0.27659987260E+03  0.10378126154E+04  0.12059747076E+04  0.50400001928E-02 0. -1.
       -1    1    3    3    0  502  0.54846374643E+03 -0.27659987260E+03 -0.79647392538E+03  0.10058283574E+04  0.50400001928E-02 0.  1.
</event>
<event>
 5   0  0.1884407E-05  0.2208299E+04  0.7818609E-02  0.8514982E-01
       -1   -1    0    0    0  501  0.00000000000E+00  0.00000000000E+00  0.68588953133E+03  0.68588953135E+03  0.50400001928E-02 0.  1.
        1   -1    0    0  501    0  0.00000000000E+00  0.00000000000E+00 -0.17774675683E+04  0.17774675683E+04  0.50400001928E-02 0. -1.
    10030    2    1    2    0    0  0.00000000000E+00  0.00000000000E+00 -0.10915780370E+04  0.24633570997E+04  0.22082992527E+04 0.  0.
        3    1    3    3  502    0 -0.87811900941E+03  0.56699279910E+02  0.19820710578E+03  0.90199438469E+03  0.10100000352E+00 0.  1.
       -3    1    3    3    0  502  0.87811900941E+03 -0.56699279910E+02 -0.12897851428E+04  0.15613627150E+04  0.10100000352E+00 0. -1.
</event>
<event>
 5   0  0.4143281E-05  0.2209424E+04  0.7818609E-02  0.8514516E-01
       -2   -1    0    0    0  501  0.00000000000E+00  0.00000000000E+00  0.57966060189E+03  0.57966060189E+03  0.25500000920E-02 0.  1.
        2   -1    0    0  501    0  0.00000000000E+00  0.00000000000E+00 -0.21053502285E+04  0.21053502285E+04  0.25500000920E-02 0. -1.
    10030    2    1    2    0    0  0.00000000000E+00  0.00000000000E+00 -0.15256896266E+04  0.26850108303E+04  0.22094239798E+04 0.  0.
        2    1    3    3  502    0  0.81909951091E+02  0.84170829563E+03 -0.16266214182E+04  0.18333246666E+04  0.25500000920E-02 0. -1.
       -2    1    3    3    0  502 -0.81909951091E+02 -0.84170829563E+03  0.10093179159E+03  0.85168616379E+03  0.25500000920E-02 0.  1.
</event>
<event>
 5   0  0.1815681E-05  0.2213296E+04  0.7818609E-02  0.8512914E-01
        1   -1    0    0  501    0  0.00000000000E+00  0.00000000000E+00  0.14116204793E+04  0.14116204793E+04  0.50400001928E-02 0. -1.
       -1   -1    0    0    0  501  0.00000000000E+00  0.00000000000E+00 -0.86756339170E+03  0.86756339172E+03  0.50400001928E-02 0.  1.
    10030    2    1    2    0    0  0.00000000000E+00  0.00000000000E+00  0.54405708756E+03  0.22791838710E+04  0.22132964111E+04 0.  0.
        2    1    3    3  502    0 -0.11017502940E+04 -0.10071270616E+03  0.24530427898E+03  0.11332126671E+04  0.25500000920E-02 0.  1.
       -2    1    3    3    0  502  0.11017502940E+04  0.10071270616E+03  0.29875280858E+03  0.11459712039E+04  0.25500000920E-02 0. -1.
</event>
<event>
 5   0  0.1866935E-05  0.2196818E+04  0.7818609E-02  0.8519754E-01
       -1   -1    0    0    0  501  0.00000000000E+00  0.00000000000E+00  0.75005048525E+03  0.75005048526E+03  0.50400001928E-02 0. -1.
        1   -1    0    0  501    0  0.00000000000E+00  0.00000000000E+00 -0.16085619471E+04  0.16085619471E+04  0.50400001928E-02 0.  1.
    10030    2    1    2    0    0  0.00000000000E+00  0.00000000000E+00 -0.85851146182E+03  0.23586124323E+04  0.21968183074E+04 0.  0.
        4    1    3    3  502    0 -0.64678084794E+03 -0.37561261718E+03  0.43440871387E+03  0.86494095003E+03  0.12699999809E+01 0. -1.
       -4    1    3    3    0  502  0.64678084794E+03  0.37561261718E+03 -0.12929201757E+04  0.14936714823E+04  0.12699999809E+01 0.  1.
</event>
<event>
 5   0  0.1866935E-05  0.2281960E+04  0.7818609E-02  0.8485068E-01
       -1   -1    0    0    0  501  0.00000000000E+00  0.00000000000E+00  0.82121280741E+03  0.82121280743E+03  0.50400001928E-02 0.  1.
        1   -1    0    0  501    0  0.00000000000E+00  0.00000000000E+00 -0.15852599205E+04  0.15852599205E+04  0.50400001928E-02 0. -1.
    10030    2    1    2    0    0  0.00000000000E+00  0.00000000000E+00 -0.76404711306E+03  0.24064727279E+04  0.22819603413E+04 0.  0.
        4    1    3    3  502    0 -0.85280973499E+03 -0.34253032020E+03 -0.10951010525E+04  0.14296361049E+04  0.12699999809E+01 0. -1.
       -4    1    3    3    0  502  0.85280973499E+03  0.34253032020E+03  0.33105393943E+03  0.97683662301E+03  0.12699999809E+01 0.  1.
</event>
<event>
 5   0  0.4143281E-05  0.2210551E+04  0.7818609E-02  0.8514049E-01
       -2   -1    0    0    0  501  0.00000000000E+00  0.00000000000E+00  0.59391991772E+03  0.59391991772E+03  0.25500000920E-02 0. -1.
        2   -1    0    0  501    0  0.00000000000E+00  0.00000000000E+00 -0.20569006738E+04  0.20569006738E+04  0.25500000920E-02 0.  1.
    10030    2    1    2    0    0  0.00000000000E+00  0.00000000000E+00 -0.14629807561E+04  0.26508205915E+04  0.22105513149E+04 0.  0.
        2    1    3    3  502    0  0.51810775909E+03  0.87406324196E+03 -0.12531102909E+04  0.16132909230E+04  0.25500000920E-02 0.  1.
       -2    1    3    3    0  502 -0.51810775909E+03 -0.87406324196E+03 -0.20987046520E+03  0.10375296686E+04  0.25500000920E-02 0. -1.
</event>
<event>
 5   0  0.1788413E-05  0.2197865E+04  0.7818609E-02  0.8519317E-01
        1   -1    0    0  501    0  0.00000000000E+00  0.00000000000E+00  0.21299679421E+04  0.21299679421E+04  0.50400001928E-02 0.  1.
       -1   -1    0    0    0  501  0.00000000000E+00  0.00000000000E+00 -0.56698169830E+03  0.56698169833E+03  0.50400001928E-02 0. -1.
    10030    2    1    2    0    0  0.00000000000E+00  0.00000000000E+00  0.15629862438E+04  0.26969496404E+04  0.21978651835E+04 0.  0.
        1    1    3    3  502    0 -0.10346004155E+04  0.15218632216E+03  0.11959730140E+04  0.15886818897E+04  0.50400001928E-02 0.  1.
       -1    1    3    3    0  502  0.10346004155E+04 -0.15218632216E+03  0.36701322982E+03  0.11082677507E+04  0.50400001928E-02 0. -1.
</event>
<event>
 5   0  0.4143281E-05  0.2211654E+04  0.7818609E-02  0.8513593E-01
        2   -1    0    0  501    0  0.00000000000E+00  0.00000000000E+00  0.11035632306E+04  0.11035632306E+04  0.25500000920E-02 0. -1.
       -2   -1    0    0    0  501  0.00000000000E+00  0.00000000000E+00 -0.11080950706E+04  0.11080950706E+04  0.25500000920E-02 0.  1.
    10030    2    1    2    0    0  0.00000000000E+00  0.00000000000E+00 -0.45318400313E+01  0.22116583012E+04  0.22116536582E+04 0.  0.
        2    1    3    3  502    0  0.15567986592E+03  0.61987095322E+02  0.10907937178E+04  0.11035893962E+04  0.25500000920E-02 0. -1.
       -2    1    3    3    0  502 -0.15567986592E+03 -0.61987095322E+02 -0.10953255578E+04  0.11080689050E+04  0.25500000920E-02 0.  1.
</event>
<event>
 5   0  0.4143281E-05  0.2203107E+04  0.7818609E-02  0.8517136E-01
        2   -1    0    0  501    0  0.00000000000E+00  0.00000000000E+00  0.11018825655E+04  0.11018825656E+04  0.25500000920E-02 0. -1.
       -2   -1    0    0    0  501  0.00000000000E+00  0.00000000000E+00 -0.11012246337E+04  0.11012246337E+04  0.25500000920E-02 0.  1.
    10030    2    1    2    0    0  0.00000000000E+00  0.00000000000E+00  0.65793183114E+00  0.22031071993E+04  0.22031071010E+04 0.  0.
        2    1    3    3  502    0 -0.87853624094E+03  0.50573656412E+03  0.43140302252E+03  0.11016823348E+04  0.25500000920E-02 0. -1.
       -2    1    3    3    0  502  0.87853624094E+03 -0.50573656412E+03 -0.43074509069E+03  0.11014248645E+04  0.25500000920E-02 0.  1.
</event>
<event>
 5   0  0.4143281E-05  0.2206352E+04  0.7818609E-02  0.8515789E-01
        2   -1    0    0  501    0  0.00000000000E+00  0.00000000000E+00  0.13331685029E+04  0.13331685029E+04  0.25500000920E-02 0. -1.
       -2   -1    0    0    0  501  0.00000000000E+00  0.00000000000E+00 -0.91286056400E+03  0.91286056400E+03  0.25500000920E-02 0.  1.
    10030    2    1    2    0    0  0.00000000000E+00  0.00000000000E+00  0.42030793890E+03  0.22460290669E+04  0.22063516959E+04 0.  0.
        2    1    3    3  502    0  0.95126057460E+02 -0.10705626052E+04 -0.43002097346E+02  0.10756404784E+04  0.25500000920E-02 0.  1.
       -2    1    3    3    0  502 -0.95126057460E+02  0.10705626052E+04  0.46331003625E+03  0.11703885885E+04  0.25500000920E-02 0. -1.
</event>
<event>
 5   0  0.3963414E-05  0.2220236E+04  0.7818609E-02  0.8510052E-01
        2   -1    0    0  501    0  0.00000000000E+00  0.00000000000E+00  0.13156240058E+04  0.13156240058E+04  0.25500000920E-02 0. -1.
       -2   -1    0    0    0  501  0.00000000000E+00  0.00000000000E+00 -0.93671293520E+03  0.93671293520E+03  0.25500000920E-02 0.  1.
    10030    2    1    2    0    0  0.00000000000E+00  0.00000000000E+00  0.37891107057E+03  0.22523369410E+04  0.22202360452E+04 0.  0.
        1    1    3    3  502    0 -0.25574242218E+03 -0.41483277629E+03 -0.82239817534E+03  0.95594412892E+03  0.50400001928E-02 0.  1.
       -1    1    3    3    0  502  0.25574242218E+03  0.41483277629E+03  0.12013092459E+04  0.12963928121E+04  0.50400001928E-02 0. -1.
</event>
<event>
 5   0  0.1815681E-05  0.2197561E+04  0.7818609E-02  0.8519444E-01
        1   -1    0    0  501    0  0.00000000000E+00  0.00000000000E+00  0.16726134918E+04  0.16726134918E+04  0.50400001928E-02 0. -1.
       -1   -1    0    0    0  501  0.00000000000E+00  0.00000000000E+00 -0.72181577697E+03  0.72181577699E+03  0.50400001928E-02 0.  1.
    10030    2    1    2    0    0  0.00000000000E+00  0.00000000000E+00  0.95079771485E+03  0.23944292688E+04  0.21975612002E+04 0.  0.
        2    1    3    3  502    0  0.78397671418E+02 -0.46664556773E+03  0.15559102330E+04  0.16262720971E+04  0.25500000920E-02 0. -1.
       -2    1    3    3    0  502 -0.78397671418E+02  0.46664556773E+03 -0.60511251815E+03  0.76815717168E+03  0.25500000920E-02 0.  1.
</event>
<event>
 5   0  0.4132460E-05  0.2183998E+04  0.7818609E-02  0.8525118E-01
       -2   -1    0    0    0  501  0.00000000000E+00  0.00000000000E+00  0.12870377290E+04  0.12870377290E+04  0.25500000920E-02 0.  1.
        2   -1    0    0  501    0  0.00000000000E+00  0.00000000000E+00 -0.92651633169E+03  0.92651633170E+03  0.25500000920E-02 0. -1.
    10030    2    1    2    0    0  0.00000000000E+00  0.00000000000E+00  0.36052139732E+03  0.22135540607E+04  0.21839976881E+04 0.  0.
        4    1    3    3  502    0  0.94859818983E+02 -0.69020520531E+03 -0.67199850217E+03  0.96796963305E+03  0.12699999809E+01 0. -1.
       -4    1    3    3    0  502 -0.94859818983E+02  0.69020520531E+03  0.10325198995E+04  0.12455844277E+04  0.12699999809E+01 0.  1.
</event>
<event>
 5   0  0.4027923E-05  0.2193621E+04  0.7818609E-02  0.8521088E-01
       -2   -1    0    0    0  501  0.00000000000E+00  0.00000000000E+00  0.71804205869E+03  0.71804205869E+03  0.25500000920E-02 0. -1.
        2   -1    0    0  501    0  0.00000000000E+00  0.00000000000E+00 -0.16753806019E+04  0.16753806019E+04  0.25500000920E-02 0.  1.
    10030    2    1    2    0    0  0.00000000000E+00  0.00000000000E+00 -0.95733854325E+03  0.23934226606E+04  0.21936214227E+04 0.  0.
        5    1    3    3  502    0  0.10616610419E+04  0.20226925768E+03 -0.27473708818E+03  0.11151410575E+04  0.46999998093E+01 0. -1.
       -5    1    3    3    0  502 -0.10616610419E+04 -0.20226925768E+03 -0.68260145508E+03  0.12782816031E+04  0.46999998093E+01 0.  1.
</event>
<event>
 5   0  0.1884407E-05  0.2174822E+04  0.7818609E-02  0.8528981E-01
        1   -1    0    0  501    0  0.00000000000E+00  0.00000000000E+00  0.16140986794E+04  0.16140986795E+04  0.50400001928E-02 0. -1.
       -1   -1    0    0    0  501  0.00000000000E+00  0.00000000000E+00 -0.73258401991E+03  0.73258401993E+03  0.50400001928E-02 0.  1.
    10030    2    1    2    0    0  0.00000000000E+00  0.00000000000E+00  0.88151465954E+03  0.23466826994E+04  0.21748221989E+04 0.  0.
        3    1    3    3  502    0 -0.50838381667E+03 -0.77757389800E+02  0.14745729777E+04  0.15616868423E+04  0.10100000352E+00 0. -1.
       -3    1    3    3    0  502  0.50838381667E+03  0.77757389800E+02 -0.59305831814E+03  0.78499585708E+03  0.10100000352E+00 0.  1.
</event>
<event>
 5   0  0.4027923E-05  0.2209486E+04  0.7818609E-02  0.8514490E-01
        2   -1    0    0  501    0  0.00000000000E+00  0.00000000000E+00  0.10026230158E+04  0.10026230158E+04  0.25500000920E-02 0.  1.
       -2   -1    0    0    0  501  0.00000000000E+00  0.00000000000E+00 -0.12172641322E+04  0.12172641322E+04  0.25500000920E-02 0. -1.
    10030    2    1    2    0    0  0.00000000000E+00  0.00000000000E+00 -0.21464111641E+03  0.22198871479E+04  0.22094859449E+04 0.  0.
        5    1    3    3  502    0 -0.46204042583E+02 -0.77322862875E+03  0.68405332756E+03  0.10334255517E+04  0.46999998093E+01 0.  1.
       -5    1    3    3    0  502  0.46204042583E+02  0.77322862875E+03 -0.89869444397E+03  0.11864615963E+04  0.46999998093E+01 0. -1.
</event>
<event>
 5   0  0.1786228E-05  0.2203792E+04  0.7818609E-02  0.8516851E-01
       -1   -1    0    0    0  501  0.00000000000E+00  0.00000000000E+00  0.10802085369E+04  0.10802085369E+04  0.50400001928E-02 0.  1.
        1   -1    0    0  501    0  0.00000000000E+00  0.00000000000E+00 -0.11240191780E+04  0.11240191780E+04  0.50400001928E-02 0. -1.
    10030    2    1    2    0    0  0.00000000000E+00  0.00000000000E+00 -0.43810641065E+02  0.22042277150E+04  0.22037922877E+04 0.  0.
        5    1    3    3  502    0 -0.12210299164E+03  0.10605704003E+04  0.25097509957E+03  0.10966901592E+04  0.46999998093E+01 0. -1.
       -5    1    3    3    0  502  0.12210299164E+03 -0.10605704003E+04 -0.29478574063E+03  0.11075375558E+04  0.46999998093E+01 0.  1.
</event>
<event>
 5   0  0.4027923E-05  0.2214457E+04  0.7818609E-02  0.8512435E-01
       -2   -1    0    0    0  501  0.00000000000E+00  0.00000000000E+00  0.99607195987E+03  0.99607195988E+03  0.25500000920E-02 0. -1.
        2   -1    0    0  501    0  0.00000000000E+00  0.00000000000E+00 -0.12307897150E+04  0.12307897150E+04  0.25500000920E-02 0.  1.
    10030    2    1    2    0    0  0.00000000000E+00  0.00000000000E+00 -0.23471775515E+03  0.22268616749E+04  0.22144571557E+04 0.  0.
        5    1    3    3  502    0  0.26324353646E+03  0.10745046118E+04 -0.16317408421E+03  0.11182598947E+04  0.46999998093E+01 0.  1.
       -5    1    3    3    0  502 -0.26324353646E+03 -0.10745046118E+04 -0.71543670936E+02  0.11086017802E+04  0.46999998093E+01 0. -1.
</event>
<event>
 5   0  0.4143281E-05  0.2201711E+04  0.7818609E-02  0.8517716E-01
       -2   -1    0    0    0  501  0.00000000000E+00  0.00000000000E+00  0.86765043255E+03  0.86765043255E+03  0.25500000920E-02 0.  1.
        2   -1    0    0  501    0  0.00000000000E+00  0.00000000000E+00 -0.13967409866E+04  0.13967409866E+04  0.25500000920E-02 0. -1.
    10030    2    1    2    0    0  0.00000000000E+00  0.00000000000E+00 -0.52909055402E+03  0.22643914191E+04  0.22017110811E+04 0.  0.
        2    1    3    3  502    0  0.23897174723E+03  0.56606231724E+03 -0.12039765543E+04  0.13517002576E+04  0.25500000920E-02 0. -1.
       -2    1    3    3    0  502 -0.23897174723E+03 -0.56606231724E+03  0.67488600030E+03  0.91269116155E+03  0.25500000920E-02 0.  1.
</event>
<event>
 5   0  0.1788413E-05  0.2180529E+04  0.7818609E-02  0.8526576E-01
        1   -1    0    0  501    0  0.00000000000E+00  0.00000000000E+00  0.10581064848E+04  0.10581064848E+04  0.50400001928E-02 0. -1.
       -1   -1    0    0    0  501  0.00000000000E+00  0.00000000000E+00 -0.11234002323E+04  0.11234002323E+04  0.50400001928E-02 0.  1.
    10030    2    1    2    0    0  0.00000000000E+00  0.00000000000E+00 -0.65293747491E+02  0.21815067172E+04  0.21805293586E+04 0.  0.
        1    1    3    3  502    0  0.97904985259E+02  0.41888695827E+02  0.10528910907E+04  0.10582625846E+04  0.50400001928E-02 0. -1.
       -1    1    3    3    0  502 -0.97904985259E+02 -0.41888695827E+02 -0.11181848382E+04  0.11232441326E+04  0.50400001928E-02 0.  1.
</event>
<event>
 5   0  0.1884407E-05  0.2197562E+04  0.7818609E-02  0.8519443E-01
        1   -1    0    0  501    0  0.00000000000E+00  0.00000000000E+00  0.14519447302E+04  0.14519447302E+04  0.50400001928E-02 0. -1.
       -1   -1    0    0    0  501  0.00000000000E+00  0.00000000000E+00 -0.83151917034E+03  0.83151917036E+03  0.50400001928E-02 0.  1.
    10030    2    1    2    0    0  0.00000000000E+00  0.00000000000E+00  0.62042555987E+03  0.22834639006E+04  0.21975621743E+04 0.  0.
        3    1    3    3  502    0 -0.68502220862E+03  0.83669290061E+03  0.10763180195E+03  0.10866899517E+04  0.10100000352E+00 0. -1.
       -3    1    3    3    0  502  0.68502220862E+03 -0.83669290061E+03  0.51279375792E+03  0.11967739488E+04  0.10100000352E+00 0.  1.
</event>
<event>
 5   0  0.4132460E-05  0.2245670E+04  0.7818609E-02  0.8499656E-01
        2   -1    0    0  501    0  0.00000000000E+00  0.00000000000E+00  0.13344595580E+04  0.13344595580E+04  0.25500000920E-02 0. -1.
       -2   -1    0    0    0  501  0.00000000000E+00  0.00000000000E+00 -0.94477059594E+03  0.94477059595E+03  0.25500000920E-02 0.  1.
    10030    2    1    2    0    0  0.00000000000E+00  0.00000000000E+00  0.38968896205E+03  0.22792301539E+04  0.22456697459E+04 0.  0.
        4    1    3    3  502    0 -0.63258578655E+03 -0.76856829585E+02  0.11331521832E+04  0.13000412428E+04  0.12699999809E+01 0. -1.
       -4    1    3    3    0  502  0.63258578655E+03  0.76856829585E+02 -0.74346322120E+03  0.97918891118E+03  0.12699999809E+01 0.  1.
</event>
<event>
 5   0  0.4132460E-05  0.2198992E+04  0.7818609E-02  0.8518848E-01
       -2   -1    0    0    0  501  0.00000000000E+00  0.00000000000E+00  0.63022254531E+03  0.63022254531E+03  0.25500000920E-02 0.  1.
        2   -1    0    0  501    0  0.00000000000E+00  0.00000000000E+00 -0.19181969741E+04  0.19181969741E+04  0.25500000920E-02 0. -1.
    10030    2    1    2    0    0  0.00000000000E+00  0.00000000000E+00 -0.12879744288E+04  0.25484195194E+04  0.21989915684E+04 0.  0.
        4    1    3    3  502    0  0.73877545103E+03 -0.55234706929E+03 -0.13374077599E+04  0.16246653751E+04  0.12699999809E+01 0. -1.
       -4    1    3    3    0  502 -0.73877545103E+03  0.55234706929E+03  0.49433331083E+02  0.92375414431E+03  0.12699999809E+01 0.  1.
</event>
<event>
 5   0  0.3963414E-05  0.2187250E+04  0.7818609E-02  0.8523754E-01
       -2   -1    0    0    0  501  0.00000000000E+00  0.00000000000E+00  0.15817692225E+04  0.15817692225E+04  0.25500000920E-02 0.  1.
        2   -1    0    0  501    0  0.00000000000E+00  0.00000000000E+00 -0.75612495591E+03  0.75612495592E+03  0.25500000920E-02 0. -1.
    10030    2    1    2    0    0  0.00000000000E+00  0.00000000000E+00  0.82564426656E+03  0.23378941784E+04  0.21872495821E+04 0.  0.
        1    1    3    3  502    0  0.49493164091E+03 -0.23074450497E+03  0.14256132749E+04  0.15266216183E+04  0.50400001928E-02 0.  1.
       -1    1    3    3    0  502 -0.49493164091E+03  0.23074450497E+03 -0.59996900837E+03  0.81127256010E+03  0.50400001928E-02 0. -1.
</event>
<event>
 5   0  0.4027923E-05  0.2206865E+04  0.7818609E-02  0.8515576E-01
        2   -1    0    0  501    0  0.00000000000E+00  0.00000000000E+00  0.94565046955E+03  0.94565046955E+03  0.25500000920E-02 0.  1.
       -2   -1    0    0    0  501  0.00000000000E+00  0.00000000000E+00 -0.12875401679E+04  0.12875401679E+04  0.25500000920E-02 0. -1.
    10030    2    1    2    0    0  0.00000000000E+00  0.00000000000E+00 -0.34188969839E+03  0.22331906375E+04  0.22068647121E+04 0.  0.
        5    1    3    3  502    0  0.10471901364E+04 -0.46024495742E+02  0.17786322171E+03  0.10631946443E+04  0.46999998093E+01 0.  1.
       -5    1    3    3    0  502 -0.10471901364E+04  0.46024495742E+02 -0.51975292011E+03  0.11699959932E+04  0.46999998093E+01 0. -1.
</event>
<event>
 5   0  0.1884407E-05  0.2200693E+04  0.7818609E-02  0.8518140E-01
        1   -1    0    0  501    0  0.00000000000E+00  0.00000000000E+00  0.76096881067E+03  0.76096881069E+03  0.50400001928E-02 0.  1.
       -1   -1    0    0    0  501  0.00000000000E+00  0.00000000000E+00 -0.15910802044E+04  0.15910802044E+04  0.50400001928E-02 0. -1.
    10030    2    1    2    0    0  0.00000000000E+00  0.00000000000E+00 -0.83011139373E+03  0.23520490151E+04  0.22006929916E+04 0.  0.
        3    1    3    3  502    0  0.28512648934E+03  0.72927165226E+03 -0.12412884895E+04  0.14676278078E+04  0.10100000352E+00 0. -1.
       -3    1    3    3    0  502 -0.28512648934E+03 -0.72927165226E+03  0.41117709578E+03  0.88442120734E+03  0.10100000352E+00 0.  1.
</event>
<event>
 5   0  0.1788413E-05  0.2206147E+04  0.7818609E-02  0.8515874E-01
       -1   -1    0    0    0  501  0.00000000000E+00  0.00000000000E+00  0.68966264777E+03  0.68966264779E+03  0.50400001928E-02 0. -1.
        1   -1    0    0  501    0  0.00000000000E+00  0.00000000000E+00 -0.17642990459E+04  0.17642990459E+04  0.50400001928E-02 0.  1.
    10030    2    1    2    0    0  0.00000000000E+00  0.00000000000E+00 -0.10746363981E+04  0.24539616937E+04  0.22061470046E+04 0.  0.
        1    1    3    3  502    0 -0.89245093618E+03 -0.51850301397E+03 -0.10442760122E+03  0.10374098385E+04  0.50400001928E-02 0. -1.
       -1    1    3    3    0  502  0.89245093618E+03  0.51850301397E+03 -0.97020879692E+03  0.14165518553E+04  0.50400001928E-02 0.  1.
</event>
<event>
 5   0  0.4143281E-05  0.2255245E+04  0.7818609E-02  0.8495779E-01
        2   -1    0    0  501    0  0.00000000000E+00  0.00000000000E+00  0.26494941691E+04  0.26494941691E+04  0.25500000920E-02 0.  1.
       -2   -1    0    0    0  501  0.00000000000E+00  0.00000000000E+00 -0.47991536854E+03  0.47991536855E+03  0.25500000920E-02 0. -1.
    10030    2    1    2    0    0  0.00000000000E+00  0.00000000000E+00  0.21695788005E+04  0.31294095376E+04  0.22552454151E+04 0.  0.
        2    1    3    3  502    0 -0.91995986844E+02 -0.94403941437E+03  0.23861883696E+03  0.97806575793E+03  0.25500000920E-02 0. -1.
       -2    1    3    3    0  502  0.91995986844E+02  0.94403941437E+03  0.19309599636E+04  0.21513437797E+04  0.25500000920E-02 0.  1.
</event>
<event>
 5   0  0.1786228E-05  0.2199013E+04  0.7818609E-02  0.8518839E-01
        1   -1    0    0  501    0  0.00000000000E+00  0.00000000000E+00  0.12529625644E+04  0.12529625644E+04  0.50400001928E-02 0. -1.
       -1   -1    0    0    0  501  0.00000000000E+00  0.00000000000E+00 -0.96484522021E+03  0.96484522022E+03  0.50400001928E-02 0.  1.
    10030    2    1    2    0    0  0.00000000000E+00  0.00000000000E+00  0.28811734416E+03  0.22178077846E+04  0.21990133618E+04 0.  0.
        5    1    3    3  502    0  0.23077238265E+03 -0.13088472863E+03  0.12201861605E+04  0.12487045532E+04  0.46999998093E+01 0. -1.
       -5    1    3    3    0  502 -0.23077238265E+03  0.13088472863E+03 -0.93206881635E+03  0.96910323144E+03  0.46999998093E+01 0.  1.
</event>
<event>
 5   0  0.1788413E-05  0.2203596E+04  0.7818609E-02  0.8516933E-01
       -1   -1    0    0    0  501  0.00000000000E+00  0.00000000000E+00  0.87245882958E+03  0.87245882959E+03  0.50400001928E-02 0.  1.
        1   -1    0    0  501    0  0.00000000000E+00  0.00000000000E+00 -0.13914224215E+04  0.13914224215E+04  0.50400001928E-02 0. -1.
    10030    2    1    2    0    0  0.00000000000E+00  0.00000000000E+00 -0.51896359189E+03  0.22638812511E+04  0.22035959496E+04 0.  0.
        1    1    3    3  502    0  0.11894186810E+03  0.10458478348E+04 -0.59398718241E+03  0.12086213776E+04  0.50400001928E-02 0.  1.
       -1    1    3    3    0  502 -0.11894186810E+03 -0.10458478348E+04  0.75023590525E+02  0.10552598735E+04  0.50400001928E-02 0. -1.
</event>
<event>
 5   0  0.1815681E-05  0.2190761E+04  0.7818609E-02  0.8522284E-01
        1   -1    0    0  501    0  0.00000000000E+00  0.00000000000E+00  0.12509335585E+04  0.12509335586E+04  0.50400001928E-02 0.  1.
       -1   -1    0    0    0  501  0.00000000000E+00  0.00000000000E+00 -0.95917003345E+03  0.95917003347E+03  0.50400001928E-02 0. -1.
    10030    2    1    2    0    0  0.00000000000E+00  0.00000000000E+00  0.29176352509E+03  0.22101035920E+04  0.21907605832E+04 0.  0.
        2    1    3    3  502    0  0.78020556137E+03  0.62694190625E+03  0.59487442541E+03  0.11643248919E+04  0.25500000920E-02 0.  1.
       -2    1    3    3    0  502 -0.78020556137E+03 -0.62694190625E+03 -0.30311090032E+03  0.10457787002E+04  0.25500000920E-02 0. -1.
</event>
<event>
 5   0  0.4143281E-05  0.2201677E+04  0.7818609E-02  0.8517730E-01
       -2   -1    0    0    0  501  0.00000000000E+00  0.00000000000E+00  0.47069913750E+03  0.47069913751E+03  0.25500000920E-02 0.  1.
        2   -1    0    0  501    0  0.00000000000E+00  0.00000000000E+00 -0.25745652117E+04  0.25745652117E+04  0.25500000920E-02 0. -1.
    10030    2    1    2    0    0  0.00000000000E+00  0.00000000000E+00 -0.21038660742E+04  0.30452643492E+04  0.22016772012E+04 0.  0.
        2    1    3    3  502    0 -0.21652770343E+03  0.45108970351E+03  0.30432198052E+03  0.58564326582E+03  0.25500000920E-02 0.  1.
       -2    1    3    3    0  502  0.21652770343E+03 -0.45108970351E+03 -0.24081880547E+04  0.24596210833E+04  0.25500000920E-02 0. -1.
</event>
<event>
 5   0  0.4029532E-05  0.2102583E+04  0.7818609E-02  0.8560106E-01
        2   -1    0    0  501    0  0.00000000000E+00  0.00000000000E+00  0.65710286372E+03  0.65710286373E+03  0.25500000920E-02 0. -1.
       -2   -1    0    0    0  501  0.00000000000E+00  0.00000000000E+00 -0.16819494625E+04  0.16819494625E+04  0.25500000920E-02 0.  1.
    10030    2    1    2    0    0  0.00000000000E+00  0.00000000000E+00 -0.10248465988E+04  0.23390523262E+04  0.21025829910E+04 0.  0.
        3    1    3    3  502    0  0.72353578457E+03 -0.27724158149E+03 -0.13028591425E+04  0.15158525263E+04  0.10100000352E+00 0.  1.
       -3    1    3    3    0  502 -0.72353578457E+03  0.27724158149E+03  0.27801254367E+03  0.82319979999E+03  0.10100000352E+00 0. -1.
</event>
<event>
 5   0  0.1786228E-05  0.2196264E+04  0.7818609E-02  0.8519985E-01
       -1   -1    0    0    0  501  0.00000000000E+00  0.00000000000E+00  0.12218379970E+04  0.12218379970E+04  0.50400001928E-02 0.  1.
        1   -1    0    0  501    0  0.00000000000E+00  0.00000000000E+00 -0.98695109945E+03  0.98695109947E+03  0.50400001928E-02 0. -1.
    10030    2    1    2    0    0  0.00000000000E+00  0.00000000000E+00  0.23488689756E+03  0.22087890965E+04  0.21962644235E+04 0.  0.
        5    1    3    3  502    0  0.92614394950E+03 -0.11577700492E+03  0.69929730269E+03  0.11662700106E+04  0.46999998093E+01 0.  1.
       -5    1    3    3    0  502 -0.92614394950E+03  0.11577700492E+03 -0.46441040513E+03  0.10425190859E+04  0.46999998093E+01 0. -1.
</event>
<event>
 5   0  0.1788413E-05  0.2207793E+04  0.7818609E-02  0.8515192E-01
       -1   -1    0    0    0  501  0.00000000000E+00  0.00000000000E+00  0.28701685582E+04  0.28701685582E+04  0.50400001928E-02 0. -1.
        1   -1    0    0  501    0  0.00000000000E+00  0.00000000000E+00 -0.42456986868E+03  0.42456986871E+03  0.50400001928E-02 0.  1.
    10030    2    1    2    0    0  0.00000000000E+00  0.00000000000E+00  0.24455986896E+04  0.32947384269E+04  0.22077926424E+04 0.  0.
        1    1    3    3  502    0  0.42517403273E+03 -0.90470810201E+03  0.52392486183E+03  0.11286128516E+04  0.50400001928E-02 0.  1.
       -1    1    3    3    0  502 -0.42517403273E+03  0.90470810201E+03  0.19216738277E+04  0.21661255753E+04  0.50400001928E-02 0. -1.
</event>
<event>
 5   0  0.1884407E-05  0.2239208E+04  0.7818609E-02  0.8502284E-01
       -1   -1    0    0    0  501  0.00000000000E+00  0.00000000000E+00  0.22024698685E+04  0.22024698685E+04  0.50400001928E-02 0.  1.
        1   -1    0    0  501    0  0.00000000000E+00  0.00000000000E+00 -0.56913959753E+03  0.56913959755E+03  0.50400001928E-02 0. -1.
    10030    2    1    2    0    0  0.00000000000E+00  0.00000000000E+00  0.16333302710E+04  0.27716094661E+04  0.22392077300E+04 0.  0.
        3    1    3    3  502    0  0.10893826667E+03  0.80861032708E+03  0.17656306846E+04  0.19450372571E+04  0.10100000352E+00 0.  1.
       -3    1    3    3    0  502 -0.10893826667E+03 -0.80861032708E+03 -0.13230041359E+03  0.82657220897E+03  0.10100000352E+00 0. -1.
</event>
<event>
 5   0  0.4027923E-05  0.2210741E+04  0.7818609E-02  0.8513971E-01
       -2   -1    0    0    0  501  0.00000000000E+00  0.00000000000E+00  0.96485561296E+03  0.96485561296E+03  0.25500000920E-02 0.  1.
        2   -1    0    0  501    0  0.00000000000E+00  0.00000000000E+00 -0.12663490210E+04  0.12663490210E+04  0.25500000920E-02 0. -1.
    10030    2    1    2    0    0  0.00000000000E+00  0.00000000000E+00 -0.30149340805E+03  0.22312046340E+04  0.22107410168E+04 0.  0.
        5    1    3    3  502    0  0.10657113654E+04 -0.29193571497E+03 -0.18025248216E+03  0.11195893101E+04  0.46999998093E+01 0.  1.
       -5    1    3    3    0  502 -0.10657113654E+04  0.29193571497E+03 -0.12124092589E+03  0.11116153238E+04  0.46999998093E+01 0. -1.
</event>
<event>
 5   0  0.1433375E-05  0.2192300E+04  0.7818609E-02  0.8521640E-01
        3   -1    0    0  501    0  0.00000000000E+00  0.00000000000E+00  0.86266158071E+03  0.86266158662E+03  0.10100000352E+00 0.  1.
       -3   -1    0    0    0  501  0.00000000000E+00  0.00000000000E+00 -0.13928348495E+04  0.13928348531E+04  0.10100000352E+00 0. -1.
    10030    2    1    2    0    0  0.00000000000E+00  0.00000000000E+00 -0.53017326876E+03  0.22554964398E+04  0.21923002748E+04 0.  0.
        4    1    3    3  502    0 -0.10528957266E+04 -0.26476285778E+03 -0.10955091447E+03  0.10911882504E+04  0.12699999809E+01 0.  1.
       -4    1    3    3    0  502  0.10528957266E+04  0.26476285778E+03 -0.42062235430E+03  0.11643081894E+04  0.12699999809E+01 0. -1.
</event>
<event>
 5   0  0.4143281E-05  0.2194869E+04  0.7818609E-02  0.8520567E-01
       -2   -1    0    0    0  501  0.00000000000E+00  0.00000000000E+00  0.76519291710E+03  0.76519291710E+03  0.25500000920E-02 0.  1.
        2   -1    0    0  501    0  0.00000000000E+00  0.00000000000E+00 -0.15739327779E+04  0.15739327779E+04  0.25500000920E-02 0. -1.
    10030    2    1    2    0    0  0.00000000000E+00  0.00000000000E+00 -0.80873986080E+03  0.23391256950E+04  0.21948687557E+04 0.  0.
        2    1    3    3  502    0  0.17958358446E+03  0.72479274726E+03  0.45271880373E+03  0.87322912546E+03  0.25500000920E-02 0.  1.
       -2    1    3    3    0  502 -0.17958358446E+03 -0.72479274726E+03 -0.12614586645E+04  0.14658965695E+04  0.25500000920E-02 0. -1.
</event>
<event>
 5   0  0.4143281E-05  0.2197860E+04  0.7818609E-02  0.8519319E-01
        2   -1    0    0  501    0  0.00000000000E+00  0.00000000000E+00  0.12671755524E+04  0.12671755524E+04  0.25500000920E-02 0. -1.
       -2   -1    0    0    0  501  0.00000000000E+00  0.00000000000E+00 -0.95302297826E+03  0.95302297827E+03  0.25500000920E-02 0.  1.
    10030    2    1    2    0    0  0.00000000000E+00  0.00000000000E+00  0.31415257417E+03  0.22201985307E+04  0.21978602494E+04 0.  0.
        2    1    3    3  502    0  0.62740145653E+03  0.56585735772E+03 -0.55278942282E+03  0.10096550316E+04  0.25500000920E-02 0.  1.
       -2    1    3    3    0  502 -0.62740145653E+03 -0.56585735772E+03  0.86694199699E+03  0.12105434991E+04  0.25500000920E-02 0. -1.
</event>
<event>
 5   0  0.4027923E-05  0.2181900E+04  0.7818609E-02  0.8526000E-01
        2   -1    0    0  501    0  0.00000000000E+00  0.00000000000E+00  0.12880110841E+04  0.12880110841E+04  0.25500000920E-02 0. -1.
       -2   -1    0    0    0  501  0.00000000000E+00  0.00000000000E+00 -0.92403877680E+03  0.92403877681E+03  0.25500000920E-02 0.  1.
    10030    2    1    2    0    0  0.00000000000E+00  0.00000000000E+00  0.36397230725E+03  0.22120498609E+04  0.21819002604E+04 0.  0.
        5    1    3    3  502    0  0.96622673740E+03 -0.22159737990E+03  0.64374726512E+03  0.11820034425E+04  0.46999998093E+01 0. -1.
       -5    1    3    3    0  502 -0.96622673740E+03  0.22159737990E+03 -0.27977495787E+03  0.10300464183E+04  0.46999998093E+01 0.  1.
</event>
<event>
 5   0  0.3963414E-05  0.2194892E+04  0.7818609E-02  0.8520557E-01
        2   -1    0    0  501    0  0.00000000000E+00  0.00000000000E+00  0.22729068513E+04  0.22729068513E+04  0.25500000920E-02 0. -1.
       -2   -1    0    0    0  501  0.00000000000E+00  0.00000000000E+00 -0.52988869846E+03  0.52988869846E+03  0.25500000920E-02 0.  1.
    10030    2    1    2    0    0  0.00000000000E+00  0.00000000000E+00  0.17430181529E+04  0.28027955498E+04  0.21948919364E+04 0.  0.
        1    1    3    3  502    0 -0.85248375742E+03 -0.62409698425E+03  0.12506661111E+04  0.16371900696E+04  0.50400001928E-02 0.  1.
       -1    1    3    3    0  502  0.85248375742E+03  0.62409698425E+03  0.49235204172E+03  0.11656054802E+04  0.50400001928E-02 0. -1.
</event>
<event>
 5   0  0.4143281E-05  0.2191725E+04  0.7818609E-02  0.8521880E-01
        2   -1    0    0  501    0  0.00000000000E+00  0.00000000000E+00  0.21171135349E+04  0.21171135349E+04  0.25500000920E-02 0. -1.
       -2   -1    0    0    0  501  0.00000000000E+00  0.00000000000E+00 -0.56724139114E+03  0.56724139114E+03  0.25500000920E-02 0.  1.
    10030    2    1    2    0    0  0.00000000000E+00  0.00000000000E+00  0.15498721438E+04  0.26843549261E+04  0.21917248246E+04 0.  0.
        2    1    3    3  502    0  0.46012552650E+03  0.51535676475E+03 -0.26691367431E+03  0.74064229197E+03  0.25500000920E-02 0.  1.
       -2    1    3    3    0  502 -0.46012552650E+03 -0.51535676475E+03  0.18167858181E+04  0.19437126341E+04  0.25500000920E-02 0. -1.
</event>
<event>
 5   0  0.3963414E-05  0.2190809E+04  0.7818609E-02  0.8522263E-01
        2   -1    0    0  501    0  0.00000000000E+00  0.00000000000E+00  0.10389106742E+04  0.10389106742E+04  0.25500000920E-02 0. -1.
       -2   -1    0    0    0  501  0.00000000000E+00  0.00000000000E+00 -0.11549708257E+04  0.11549708257E+04  0.25500000920E-02 0.  1.
    10030    2    1    2    0    0  0.00000000000E+00  0.00000000000E+00 -0.11606015147E+03  0.21938814999E+04  0.21908094570E+04 0.  0.
        1    1    3    3  502    0  0.23175779718E+03  0.47879294843E+03 -0.10169516304E+04  0.11476693699E+04  0.50400001928E-02 0.  1.
       -1    1    3    3    0  502 -0.23175779718E+03 -0.47879294843E+03  0.90089147898E+03  0.10462121300E+04  0.50400001928E-02 0. -1.
</event>
<event>
 5   0  0.1866935E-05  0.2050001E+04  0.7818609E-02  0.8583594E-01
       -1   -1    0    0    0  501  0.00000000000E+00  0.00000000000E+00  0.55226893780E+03  0.55226893782E+03  0.50400001928E-02 0.  1.
        1   -1    0    0  501    0  0.00000000000E+00  0.00000000000E+00 -0.19023807839E+04  0.19023807839E+04  0.50400001928E-02 0. -1.
    10030    2    1    2    0    0  0.00000000000E+00  0.00000000000E+00 -0.13501118461E+04  0.24546497217E+04  0.20500007950E+04 0.  0.
        4    1    3    3  502    0 -0.47177859281E+03 -0.89688591903E+03 -0.49093488789E+03  0.11260542036E+04  0.12699999809E+01 0. -1.
       -4    1    3    3    0  502  0.47177859281E+03  0.89688591903E+03 -0.85917695822E+03  0.13285955181E+04  0.12699999809E+01 0.  1.
</event>
<event>
 5   0  0.1866935E-05  0.2142205E+04  0.7818609E-02  0.8542876E-01
        1   -1    0    0  501    0  0.00000000000E+00  0.00000000000E+00  0.11393774099E+04  0.11393774099E+04  0.50400001928E-02 0.  1.
       -1   -1    0    0    0  501  0.00000000000E+00  0.00000000000E+00 -0.10069185504E+04  0.10069185504E+04  0.50400001928E-02 0. -1.
    10030    2    1    2    0    0  0.00000000000E+00  0.00000000000E+00  0.13245885951E+03  0.21462959603E+04  0.21422047054E+04 0.  0.
        4    1    3    3  502    0  0.10523924987E+04 -0.36665361058E+02 -0.13006390247E+03  0.10610337185E+04  0.12699999809E+01 0.  1.
       -4    1    3    3    0  502 -0.10523924987E+04  0.36665361058E+02  0.26252276198E+03  0.10852622418E+04  0.12699999809E+01 0. -1.
</event>
<event>
 5   0  0.1866935E-05  0.2196206E+04  0.7818609E-02  0.8520009E-01
       -1   -1    0    0    0  501  0.00000000000E+00  0.00000000000E+00  0.69261272765E+03  0.69261272767E+03  0.50400001928E-02 0.  1.
        1   -1    0    0  501    0  0.00000000000E+00  0.00000000000E+00 -0.17409877977E+04  0.17409877977E+04  0.50400001928E-02 0. -1.
    10030    2    1    2    0    0  0.00000000000E+00  0.00000000000E+00 -0.10483750700E+04  0.24336005254E+04  0.21962060991E+04 0.  0.
        4    1    3    3  502    0 -0.21040114567E+03 -0.11274542352E+03  0.66351472285E+03  0.70514790857E+03  0.12699999809E+01 0.  1.
       -4    1    3    3    0  502  0.21040114567E+03  0.11274542352E+03 -0.17118897929E+04  0.17284526168E+04  0.12699999809E+01 0. -1.
</event>
<event>
 5   0  0.4132460E-05  0.2219049E+04  0.7818609E-02  0.8510541E-01
        2   -1    0    0  501    0  0.00000000000E+00  0.00000000000E+00  0.11905590953E+04  0.11905590953E+04  0.25500000920E-02 0.  1.
       -2   -1    0    0    0  501  0.00000000000E+00  0.00000000000E+00 -0.10340058072E+04  0.10340058072E+04  0.25500000920E-02 0. -1.
    10030    2    1    2    0    0  0.00000000000E+00  0.00000000000E+00  0.15655328811E+03  0.22245649025E+04  0.22190493625E+04 0.  0.
        4    1    3    3  502    0 -0.10837735526E+04  0.31197006830E+01 -0.15994514011E+03  0.10955176432E+04  0.12699999809E+01 0. -1.
       -4    1    3    3    0  502  0.10837735526E+04 -0.31197006830E+01  0.31649842821E+03  0.11290472593E+04  0.12699999809E+01 0.  1.
</event>
<event>
 5   0  0.1786228E-05  0.2202815E+04  0.7818609E-02  0.8517257E-01
       -1   -1    0    0    0  501  0.00000000000E+00  0.00000000000E+00  0.81200418886E+03  0.81200418888E+03  0.50400001928E-02 0.  1.
        1   -1    0    0  501    0  0.00000000000E+00  0.00000000000E+00 -0.14939555388E+04  0.14939555388E+04  0.50400001928E-02 0. -1.
    10030    2    1    2    0    0  0.00000000000E+00  0.00000000000E+00 -0.68195134995E+03  0.23059597277E+04  0.22028147044E+04 0.  0.
        5    1    3    3  502    0  0.50137138679E+03 -0.91706862774E+03 -0.70464416284E+03  0.12605291039E+04  0.46999998093E+01 0. -1.
       -5    1    3    3    0  502 -0.50137138679E+03  0.91706862774E+03  0.22692812888E+02  0.10454306238E+04  0.46999998093E+01 0.  1.
</event>
<event>
 5   0  0.1815681E-05  0.2106642E+04  0.7818609E-02  0.8558323E-01
       -1   -1    0    0    0  501  0.00000000000E+00  0.00000000000E+00  0.39634932382E+03  0.39634932385E+03  0.50400001928E-02 0. -1.
        1   -1    0    0  501    0  0.00000000000E+00  0.00000000000E+00 -0.27992597305E+04  0.27992597305E+04  0.50400001928E-02 0.  1.
    10030    2    1    2    0    0  0.00000000000E+00  0.00000000000E+00 -0.24029104067E+04  0.31956090544E+04  0.21066415940E+04 0.  0.
        2    1    3    3  502    0  0.97884622369E+03  0.42389716284E+02 -0.61484025705E+03  0.11567045255E+04  0.25500000920E-02 0.  1.
       -2    1    3    3    0  502 -0.97884622369E+03 -0.42389716284E+02 -0.17880701496E+04  0.20389045288E+04  0.25500000920E-02 0. -1.
</event>
<event>
 5   0  0.1866935E-05  0.2197981E+04  0.7818609E-02  0.8519269E-01
       -1   -1    0    0    0  501  0.00000000000E+00  0.00000000000E+00  0.10991079143E+04  0.10991079143E+04  0.50400001928E-02 0.  1.
        1   -1    0    0  501    0  0.00000000000E+00  0.00000000000E+00 -0.10988733379E+04  0.10988733379E+04  0.50400001928E-02 0. -1.
    10030    2    1    2    0    0  0.00000000000E+00  0.00000000000E+00  0.23457644623E+00  0.21979812522E+04  0.21979812397E+04 0.  0.
        4    1    3    3  502    0  0.17506706611E+03  0.57904158792E+02 -0.10832927975E+04  0.10988750007E+04  0.12699999809E+01 0. -1.
       -4    1    3    3    0  502 -0.17506706611E+03 -0.57904158792E+02  0.10835273739E+04  0.10991062515E+04  0.12699999809E+01 0.  1.
</event>
<event>
 5   0  0.1866935E-05  0.2186319E+04  0.7818609E-02  0.8524144E-01
       -1   -1    0    0    0  501  0.00000000000E+00  0.00000000000E+00  0.83262854051E+03  0.83262854053E+03  0.50400001928E-02 0. -1.
        1   -1    0    0  501    0  0.00000000000E+00  0.00000000000E+00 -0.14352110788E+04  0.14352110789E+04  0.50400001928E-02 0.  1.
    10030    2    1    2    0    0  0.00000000000E+00  0.00000000000E+00 -0.60258253833E+03  0.22678396194E+04  0.21863190123E+04 0.  0.
        4    1    3    3  502    0 -0.10796744879E+04 -0.97082119563E+02 -0.44752351387E+03  0.11727748488E+04  0.12699999809E+01 0. -1.
       -4    1    3    3    0  502  0.10796744879E+04  0.97082119563E+02 -0.15505902446E+03  0.10950647705E+04  0.12699999809E+01 0.  1.
</event>
<event>
 5   0  0.4029532E-05  0.2199310E+04  0.7818609E-02  0.8518715E-01
       -2   -1    0    0    0  501  0.00000000000E+00  0.00000000000E+00  0.81304714019E+03  0.81304714020E+03  0.25500000920E-02 0.  1.
        2   -1    0    0  501    0  0.00000000000E+00  0.00000000000E+00 -0.14872949906E+04  0.14872949906E+04  0.25500000920E-02 0. -1.
    10030    2    1    2    0    0  0.00000000000E+00  0.00000000000E+00 -0.67424785045E+03  0.23003421308E+04  0.21993098361E+04 0.  0.
        3    1    3    3  502    0  0.65597157819E+03  0.54918525586E+03  0.38551095096E+03  0.93836126314E+03  0.10100000352E+00 0.  1.
       -3    1    3    3    0  502 -0.65597157819E+03 -0.54918525586E+03 -0.10597588014E+04  0.13619808677E+04  0.10100000352E+00 0. -1.
</event>
<event>
 5   0  0.1815681E-05  0.2185670E+04  0.7818609E-02  0.8524416E-01
       -1   -1    0    0    0  501  0.00000000000E+00  0.00000000000E+00  0.65077069875E+03  0.65077069877E+03  0.50400001928E-02 0.  1.
        1   -1    0    0  501    0  0.00000000000E+00  0.00000000000E+00 -0.18351914744E+04  0.18351914744E+04  0.50400001928E-02 0. -1.
    10030    2    1    2    0    0  0.00000000000E+00  0.00000000000E+00 -0.11844207757E+04  0.24859621732E+04  0.21856704584E+04 0.  0.
        2    1    3    3  502    0  0.30309335637E+03  0.56185736168E+03 -0.16010574372E+04  0.17236398101E+04  0.25500000920E-02 0. -1.
       -2    1    3    3    0  502 -0.30309335637E+03 -0.56185736168E+03  0.41663666156E+03  0.76232236312E+03  0.25500000920E-02 0.  1.
</event>
<event>
 5   0  0.4029532E-05  0.2198093E+04  0.7818609E-02  0.8519222E-01
       -2   -1    0    0    0  501  0.00000000000E+00  0.00000000000E+00  0.81267868429E+03  0.81267868430E+03  0.25500000920E-02 0. -1.
        2   -1    0    0  501    0  0.00000000000E+00  0.00000000000E+00 -0.14863233478E+04  0.14863233478E+04  0.25500000920E-02 0.  1.
    10030    2    1    2    0    0  0.00000000000E+00  0.00000000000E+00 -0.67364466349E+03  0.22990020321E+04  0.21980930851E+04 0.  0.
        3    1    3    3  502    0  0.45615309626E+02  0.38675697083E+03 -0.14117392674E+04  0.14644690097E+04  0.10100000352E+00 0.  1.
       -3    1    3    3    0  502 -0.45615309626E+02 -0.38675697083E+03  0.73809460392E+03  0.83453302241E+03  0.10100000352E+00 0. -1.
</event>
<event>
 5   0  0.1786228E-05  0.2062665E+04  0.7818609E-02  0.8577870E-01
        1   -1    0    0  501    0  0.00000000000E+00  0.00000000000E+00  0.11000728211E+04  0.11000728211E+04  0.50400001928E-02 0.  1.
       -1   -1    0    0    0  501  0.00000000000E+00  0.00000000000E+00 -0.96688794154E+03  0.96688794155E+03  0.50400001928E-02 0. -1.
    10030    2    1    2    0    0  0.00000000000E+00  0.00000000000E+00  0.13318487953E+03  0.20669607626E+04  0.20626654072E+04 0.  0.
        5    1    3    3  502    0  0.73780274045E+02 -0.59083302254E+03 -0.77724062067E+03  0.97910789078E+03  0.46999998093E+01 0. -1.
       -5    1    3    3    0  502 -0.73780274045E+02  0.59083302254E+03  0.91042550021E+03  0.10878528719E+04  0.46999998093E+01 0.  1.
</event>
<event>
 5   0  0.4029532E-05  0.2185807E+04  0.7818609E-02  0.8524359E-01
       -2   -1    0    0    0  501  0.00000000000E+00  0.00000000000E+00  0.10799967455E+04  0.10799967455E+04  0.25500000920E-02 0. -1.
        2   -1    0    0  501    0  0.00000000000E+00  0.00000000000E+00 -0.11059646133E+04  0.11059646133E+04  0.25500000920E-02 0.  1.
    10030    2    1    2    0    0  0.00000000000E+00  0.00000000000E+00 -0.25967867814E+02  0.21859613588E+04  0.21858071122E+04 0.  0.
        3    1    3    3  502    0 -0.73810319774E+03  0.29755572984E+03  0.73613663295E+03  0.10840815908E+04  0.10100000352E+00 0. -1.
       -3    1    3    3    0  502  0.73810319774E+03 -0.29755572984E+03 -0.76210450077E+03  0.11018797680E+04  0.10100000352E+00 0.  1.
</event>
<event>
 5   0  0.1884407E-05  0.2184959E+04  0.7818609E-02  0.8524715E-01
        1   -1    0    0  501    0  0.00000000000E+00  0.00000000000E+00  0.84307850997E+03  0.84307850998E+03  0.50400001928E-02 0.  1.
       -1   -1    0    0    0  501  0.00000000000E+00  0.00000000000E+00 -0.14156581770E+04  0.14156581771E+04  0.50400001928E-02 0. -1.
    10030    2    1    2    0    0  0.00000000000E+00  0.00000000000E+00 -0.57257966708E+03  0.22587366870E+04  0.21849585685E+04 0.  0.
        3    1    3    3  502    0 -0.10918836196E+04  0.14692736067E+02 -0.32034551024E+03  0.11380013055E+04  0.10100000352E+00 0. -1.
       -3    1    3    3    0  502  0.10918836196E+04 -0.14692736067E+02 -0.25223415685E+03  0.11207353815E+04  0.10100000352E+00 0.  1.
</event>
<event>
 5   0  0.1786228E-05  0.2189455E+04  0.7818609E-02  0.8522830E-01
       -1   -1    0    0    0  501  0.00000000000E+00  0.00000000000E+00  0.10703260220E+04  0.10703260221E+04  0.50400001928E-02 0.  1.
        1   -1    0    0  501    0  0.00000000000E+00  0.00000000000E+00 -0.11196848432E+04  0.11196848432E+04  0.50400001928E-02 0. -1.
    10030    2    1    2    0    0  0.00000000000E+00  0.00000000000E+00 -0.49358821185E+02  0.21900108653E+04  0.21894545661E+04 0.  0.
        5    1    3    3  502    0 -0.92120509480E+03 -0.31485771941E+03 -0.52545771675E+03  0.11062920556E+04  0.46999998093E+01 0. -1.
       -5    1    3    3    0  502  0.92120509480E+03  0.31485771941E+03  0.47609889557E+03  0.10837188097E+04  0.46999998093E+01 0.  1.
</event>
<event>
 5   0  0.4027923E-05  0.2160688E+04  0.7818609E-02  0.8534971E-01
        2   -1    0    0  501    0  0.00000000000E+00  0.00000000000E+00  0.16184929686E+04  0.16184929686E+04  0.25500000920E-02 0. -1.
       -2   -1    0    0    0  501  0.00000000000E+00  0.00000000000E+00 -0.72112934862E+03  0.72112934863E+03  0.25500000920E-02 0.  1.
    10030    2    1    2    0    0  0.00000000000E+00  0.00000000000E+00  0.89736361997E+03  0.23396223172E+04  0.21606876500E+04 0.  0.
        5    1    3    3  502    0 -0.70706010930E+03 -0.78052603275E+03  0.18798260986E+03  0.10698198155E+04  0.46999998093E+01 0. -1.
       -5    1    3    3    0  502  0.70706010930E+03  0.78052603275E+03  0.70938101010E+03  0.12698025018E+04  0.46999998093E+01 0.  1.
</event>
<event>
 5   0  0.1788413E-05  0.2197077E+04  0.7818609E-02  0.8519646E-01
        1   -1    0    0  501    0  0.00000000000E+00  0.00000000000E+00  0.15710547943E+04  0.15710547943E+04  0.50400001928E-02 0. -1.
       -1   -1    0    0    0  501  0.00000000000E+00  0.00000000000E+00 -0.76813777177E+03  0.76813777178E+03  0.50400001928E-02 0.  1.
    10030    2    1    2    0    0  0.00000000000E+00  0.00000000000E+00  0.80291702256E+03  0.23391925661E+04  0.21970767206E+04 0.  0.
        1    1    3    3  502    0  0.84544123113E+03 -0.52418775492E+03  0.89770048989E+03  0.13399290456E+04  0.50400001928E-02 0. -1.
       -1    1    3    3    0  502 -0.84544123113E+03  0.52418775492E+03 -0.94783467327E+02  0.99926352051E+03  0.50400001928E-02 0.  1.
</event>
<event>
 5   0  0.1815681E-05  0.2204993E+04  0.7818609E-02  0.8516353E-01
        1   -1    0    0  501    0  0.00000000000E+00  0.00000000000E+00  0.17877484025E+04  0.17877484025E+04  0.50400001928E-02 0.  1.
       -1   -1    0    0    0  501  0.00000000000E+00  0.00000000000E+00 -0.67990474507E+03  0.67990474509E+03  0.50400001928E-02 0. -1.
    10030    2    1    2    0    0  0.00000000000E+00  0.00000000000E+00  0.11078436574E+04  0.24676531476E+04  0.22049930811E+04 0.  0.
        2    1    3    3  502    0 -0.71044061990E+03 -0.70041214419E+03  0.10790691792E+04  0.14695895140E+04  0.25500000920E-02 0.  1.
       -2    1    3    3    0  502  0.71044061990E+03  0.70041214419E+03  0.28774478236E+02  0.99806363361E+03  0.25500000920E-02 0. -1.
</event>
<event>
 5   0  0.4143281E-05  0.2192754E+04  0.7818609E-02  0.8521450E-01
       -2   -1    0    0    0  501  0.00000000000E+00  0.00000000000E+00  0.82279849566E+03  0.82279849566E+03  0.25500000920E-02 0. -1.
        2   -1    0    0  501    0  0.00000000000E+00  0.00000000000E+00 -0.14609194511E+04  0.14609194511E+04  0.25500000920E-02 0.  1.
    10030    2    1    2    0    0  0.00000000000E+00  0.00000000000E+00 -0.63812095543E+03  0.22837179468E+04  0.21927538181E+04 0.  0.
        2    1    3    3  502    0  0.12644356032E+03 -0.46536948963E+03 -0.13445312065E+04  0.14283980191E+04  0.25500000920E-02 0.  1.
       -2    1    3    3    0  502 -0.12644356032E+03  0.46536948963E+03  0.70641025105E+03  0.85531992764E+03  0.25500000920E-02 0. -1.
</event>
<event>
 5   0  0.4143281E-05  0.2202872E+04  0.7818609E-02  0.8517234E-01
        2   -1    0    0  501    0  0.00000000000E+00  0.00000000000E+00  0.16826802341E+04  0.16826802341E+04  0.25500000920E-02 0.  1.
       -2   -1    0    0    0  501  0.00000000000E+00  0.00000000000E+00 -0.72096950483E+03  0.72096950483E+03  0.25500000920E-02 0. -1.
    10030    2    1    2    0    0  0.00000000000E+00  0.00000000000E+00  0.96171072928E+03  0.24036497389E+04  0.22028718848E+04 0.  0.
        2    1    3    3  502    0  0.55965825989E+02 -0.98472164230E+03 -0.54085822407E+02  0.98779257068E+03  0.25500000920E-02 0. -1.
       -2    1    3    3    0  502 -0.55965825989E+02  0.98472164230E+03  0.10157965517E+04  0.14158571683E+04  0.25500000920E-02 0.  1.
</event>
<event>
 5   0  0.4132460E-05  0.2196182E+04  0.7818609E-02  0.8520019E-01
        2   -1    0    0  501    0  0.00000000000E+00  0.00000000000E+00  0.14044916877E+04  0.14044916877E+04  0.25500000920E-02 0. -1.
       -2   -1    0    0    0  501  0.00000000000E+00  0.00000000000E+00 -0.85853429512E+03  0.85853429513E+03  0.25500000920E-02 0.  1.
    10030    2    1    2    0    0  0.00000000000E+00  0.00000000000E+00  0.54595739256E+03  0.22630259828E+04  0.21961823978E+04 0.  0.
        4    1    3    3  502    0  0.50588053207E+03  0.27778517306E+03 -0.68965117271E+03  0.89927752559E+03  0.12699999809E+01 0.  1.
       -4    1    3    3    0  502 -0.50588053207E+03 -0.27778517306E+03  0.12356085653E+04  0.13637484572E+04  0.12699999809E+01 0. -1.
</event>
<event>
 5   0  0.3963414E-05  0.2208302E+04  0.7818609E-02  0.8514980E-01
       -2   -1    0    0    0  501  0.00000000000E+00  0.00000000000E+00  0.11306930779E+04  0.11306930779E+04  0.25500000920E-02 0. -1.
        2   -1    0    0  501    0  0.00000000000E+00  0.00000000000E+00 -0.10782323963E+04  0.10782323963E+04  0.25500000920E-02 0.  1.
    10030    2    1    2    0    0  0.00000000000E+00  0.00000000000E+00  0.52460681540E+02  0.22089254742E+04  0.22083024311E+04 0.  0.
        1    1    3    3  502    0  0.26898369164E+03  0.14361184083E+03 -0.10352822022E+04  0.10792524382E+04  0.50400001928E-02 0.  1.
       -1    1    3    3    0  502 -0.26898369164E+03 -0.14361184083E+03  0.10877428837E+04  0.11296730360E+04  0.50400001928E-02 0. -1.
</event>
<event>
 5   0  0.1433375E-05  0.2242504E+04  0.7818609E-02  0.8500942E-01
        4   -1    0    0  501    0  0.00000000000E+00  0.00000000000E+00  0.11949620108E+04  0.11949626857E+04  0.12699999809E+01 0.  1.
       -4   -1    0    0    0  501  0.00000000000E+00  0.00000000000E+00 -0.10520876807E+04  0.10520884473E+04  0.12699999809E+01 0. -1.
    10030    2    1    2    0    0  0.00000000000E+00  0.00000000000E+00  0.14287433009E+03  0.22470511329E+04  0.22425043411E+04 0.  0.
        2    1    3    3  502    0 -0.69066381647E+03  0.44762572572E+03  0.83444093284E+03  0.11720396615E+04  0.25500000920E-02 0.  1.
       -2    1    3    3    0  502  0.69066381647E+03 -0.44762572572E+03 -0.69156660275E+03  0.10750114714E+04  0.25500000920E-02 0. -1.
</event>
<event>
 5   0  0.4132460E-05  0.2203199E+04  0.7818609E-02  0.8517098E-01
        2   -1    0    0  501    0  0.00000000000E+00  0.00000000000E+00  0.18568151512E+04  0.18568151512E+04  0.25500000920E-02 0. -1.
       -2   -1    0    0    0  501  0.00000000000E+00  0.00000000000E+00 -0.65354984534E+03  0.65354984534E+03  0.25500000920E-02 0.  1.
    10030    2    1    2    0    0  0.00000000000E+00  0.00000000000E+00  0.12032653059E+04  0.25103649966E+04  0.22031988153E+04 0.  0.
        4    1    3    3  502    0  0.99425881997E+03  0.45962770411E+03  0.46821161596E+03  0.11912312780E+04  0.12699999809E+01 0. -1.
       -4    1    3    3    0  502 -0.99425881997E+03 -0.45962770411E+03  0.73505368993E+03  0.13191337186E+04  0.12699999809E+01 0.  1.
</event>
<event>
 5   0  0.4029532E-05  0.2131446E+04  0.7818609E-02  0.8547516E-01
       -2   -1    0    0    0  501  0.00000000000E+00  0.00000000000E+00  0.86338609204E+03  0.86338609204E+03  0.25500000920E-02 0.  1.
        2   -1    0    0  501    0  0.00000000000E+00  0.00000000000E+00 -0.13154776574E+04  0.13154776575E+04  0.25500000920E-02 0. -1.
    10030    2    1    2    0    0  0.00000000000E+00  0.00000000000E+00 -0.45209156541E+03  0.21788637495E+04  0.21314456257E+04 0.  0.
        3    1    3    3  502    0 -0.50430606775E+03  0.92701605632E+03 -0.37795086834E+03  0.11209506000E+04  0.10100000352E+00 0.  1.
       -3    1    3    3    0  502  0.50430606775E+03 -0.92701605632E+03 -0.74140697065E+02  0.10579131495E+04  0.10100000352E+00 0. -1.
</event>
<event>
 5   0  0.1433375E-05  0.2220369E+04  0.7818609E-02  0.8509998E-01
        3   -1    0    0  501    0  0.00000000000E+00  0.00000000000E+00  0.90614716193E+03  0.90614716756E+03  0.10100000352E+00 0. -1.
       -3   -1    0    0    0  501  0.00000000000E+00  0.00000000000E+00 -0.13601649115E+04  0.13601649153E+04  0.10100000352E+00 0.  1.
    10030    2    1    2    0    0  0.00000000000E+00  0.00000000000E+00 -0.45401774957E+03  0.22663120828E+04  0.22203689648E+04 0.  0.
        1    1    3    3  502    0 -0.38673009780E+03  0.79796475399E+03 -0.90881384134E+03  0.12697442717E+04  0.50400001928E-02 0.  1.
       -1    1    3    3    0  502  0.38673009780E+03 -0.79796475399E+03  0.45479609177E+03  0.99656781117E+03  0.50400001928E-02 0. -1.
</event>
<event>
 5   0  0.1433375E-05  0.2176766E+04  0.7818609E-02  0.8528161E-01
       -3   -1    0    0    0  501  0.00000000000E+00  0.00000000000E+00  0.89587670353E+03  0.89587670922E+03  0.10100000352E+00 0.  1.
        3   -1    0    0  501    0  0.00000000000E+00  0.00000000000E+00 -0.13222551049E+04  0.13222551088E+04  0.10100000352E+00 0. -1.
    10030    2    1    2    0    0  0.00000000000E+00  0.00000000000E+00 -0.42637840137E+03  0.22181318180E+04  0.21767660005E+04 0.  0.
        1    1    3    3  502    0 -0.96376871979E+03  0.13948560635E+03  0.28212522559E+03  0.10138545372E+04  0.50400001928E-02 0.  1.
       -1    1    3    3    0  502  0.96376871979E+03 -0.13948560635E+03 -0.70850362696E+03  0.12042772808E+04  0.50400001928E-02 0. -1.
</event>
<event>
 5   0  0.1884407E-05  0.2121247E+04  0.7818609E-02  0.8551941E-01
       -1   -1    0    0    0  501  0.00000000000E+00  0.00000000000E+00  0.99210947794E+03  0.99210947795E+03  0.50400001928E-02 0. -1.
        1   -1    0    0  501    0  0.00000000000E+00  0.00000000000E+00 -0.11338694965E+04  0.11338694965E+04  0.50400001928E-02 0.  1.
    10030    2    1    2    0    0  0.00000000000E+00  0.00000000000E+00 -0.14176001852E+03  0.21259789744E+04  0.21212474389E+04 0.  0.
        3    1    3    3  502    0 -0.53172027747E+03  0.40704604809E+03  0.75345673045E+03  0.10080228140E+04  0.10100000352E+00 0. -1.
       -3    1    3    3    0  502  0.53172027747E+03 -0.40704604809E+03 -0.89521674896E+03  0.11179561604E+04  0.10100000352E+00 0.  1.
</event>
<event>
 5   0  0.4027923E-05  0.2194476E+04  0.7818609E-02  0.8520731E-01
       -2   -1    0    0    0  501  0.00000000000E+00  0.00000000000E+00  0.16577153506E+04  0.16577153506E+04  0.25500000920E-02 0. -1.
        2   -1    0    0  501    0  0.00000000000E+00  0.00000000000E+00 -0.72625902103E+03  0.72625902103E+03  0.25500000920E-02 0.  1.
    10030    2    1    2    0    0  0.00000000000E+00  0.00000000000E+00  0.93145632959E+03  0.23839743717E+04  0.21944755434E+04 0.  0.
        5    1    3    3  502    0 -0.30824636691E+03  0.29070314979E+03 -0.63378981384E+03  0.76238819648E+03  0.46999998093E+01 0.  1.
       -5    1    3    3    0  502  0.30824636691E+03 -0.29070314979E+03  0.15652461434E+04  0.16215861752E+04  0.46999998093E+01 0. -1.
</event>
<event>
 5   0  0.1866935E-05  0.2200349E+04  0.7818609E-02  0.8518283E-01
        1   -1    0    0  501    0  0.00000000000E+00  0.00000000000E+00  0.10413055376E+04  0.10413055376E+04  0.50400001928E-02 0. -1.
       -1   -1    0    0    0  501  0.00000000000E+00  0.00000000000E+00 -0.11623714290E+04  0.11623714290E+04  0.50400001928E-02 0.  1.
    10030    2    1    2    0    0  0.00000000000E+00  0.00000000000E+00 -0.12106589143E+03  0.22036769666E+04  0.22003488867E+04 0.  0.
        4    1    3    3  502    0  0.50004263844E+03  0.19755821895E+03  0.90076795300E+03  0.10490264097E+04  0.12699999809E+01 0. -1.
       -4    1    3    3    0  502 -0.50004263844E+03 -0.19755821895E+03 -0.10218338444E+04  0.11546505569E+04  0.12699999809E+01 0.  1.
</event>
<event>
 5   0  0.3963414E-05  0.2188752E+04  0.7818609E-02  0.8523125E-01
        2   -1    0    0  501    0  0.00000000000E+00  0.00000000000E+00  0.12994908460E+04  0.12994908460E+04  0.25500000920E-02 0. -1.
       -2   -1    0    0    0  501  0.00000000000E+00  0.00000000000E+00 -0.92163674967E+03  0.92163674967E+03  0.25500000920E-02 0.  1.
    10030    2    1    2    0    0  0.00000000000E+00  0.00000000000E+00  0.37785409629E+03  0.22211275956E+04  0.21887517168E+04 0.  0.
        1    1    3    3  502    0 -0.19797463252E+03  0.77456502365E+03  0.94731928725E+03  0.12395800753E+04  0.50400001928E-02 0. -1.
       -1    1    3    3    0  502  0.19797463252E+03 -0.77456502365E+03 -0.56946519096E+03  0.98154752036E+03  0.50400001928E-02 0.  1.
</event>
<event>
 5   0  0.4143281E-05  0.2201239E+04  0.7818609E-02  0.8517913E-01
        2   -1    0    0  501    0  0.00000000000E+00  0.00000000000E+00  0.18475147426E+04  0.18475147426E+04  0.25500000920E-02 0. -1.
       -2   -1    0    0    0  501  0.00000000000E+00  0.00000000000E+00 -0.65567187580E+03  0.65567187581E+03  0.25500000920E-02 0.  1.
    10030    2    1    2    0    0  0.00000000000E+00  0.00000000000E+00  0.11918428668E+04  0.25031866184E+04  0.22012391573E+04 0.  0.
        2    1    3    3  502    0  0.36491757051E+03  0.10313687718E+04  0.73274675846E+03  0.13167399852E+04  0.25500000920E-02 0. -1.
       -2    1    3    3    0  502 -0.36491757051E+03 -0.10313687718E+04  0.45909610836E+03  0.11864466332E+04  0.25500000920E-02 0.  1.
</event>
<event>
 5   0  0.1786228E-05  0.2196735E+04  0.7818609E-02  0.8519788E-01
       -1   -1    0    0    0  501  0.00000000000E+00  0.00000000000E+00  0.10163814016E+04  0.10163814016E+04  0.50400001928E-02 0.  1.
        1   -1    0    0  501    0  0.00000000000E+00  0.00000000000E+00 -0.11869669812E+04  0.11869669812E+04  0.50400001928E-02 0. -1.
    10030    2    1    2    0    0  0.00000000000E+00  0.00000000000E+00 -0.17058557965E+03  0.22033483828E+04  0.21967349991E+04 0.  0.
        5    1    3    3  502    0  0.16287205682E+03 -0.28367763331E+03  0.96638123982E+03  0.10202524674E+04  0.46999998093E+01 0.  1.
       -5    1    3    3    0  502 -0.16287205682E+03  0.28367763331E+03 -0.11369668195E+04  0.11830959154E+04  0.46999998093E+01 0. -1.
</event>
<event>
 5   0  0.4132460E-05  0.2178988E+04  0.7818609E-02  0.8527225E-01
        2   -1    0    0  501    0  0.00000000000E+00  0.00000000000E+00  0.21558974041E+04  0.21558974041E+04  0.25500000920E-02 0.  1.
       -2   -1    0    0    0  501  0.00000000000E+00  0.00000000000E+00 -0.55058145596E+03  0.55058145597E+03  0.25500000920E-02 0. -1.
    10030    2    1    2    0    0  0.00000000000E+00  0.00000000000E+00  0.16053159481E+04  0.27064788601E+04  0.21789879593E+04 0.  0.
        4    1    3    3  502    0  0.39080085796E+03 -0.10132156971E+04  0.69391979132E+03  0.12887426621E+04  0.12699999809E+01 0. -1.
       -4    1    3    3    0  502 -0.39080085796E+03  0.10132156971E+04  0.91139615681E+03  0.14177361980E+04  0.12699999809E+01 0.  1.
</event>
<event>
 5   0  0.4027923E-05  0.2232029E+04  0.7818609E-02  0.8505214E-01
       -2   -1    0    0    0  501  0.00000000000E+00  0.00000000000E+00  0.11947609671E+04  0.11947609671E+04  0.25500000920E-02 0. -1.
        2   -1    0    0  501    0  0.00000000000E+00  0.00000000000E+00 -0.10424583532E+04  0.10424583532E+04  0.25500000920E-02 0.  1.
    10030    2    1    2    0    0  0.00000000000E+00  0.00000000000E+00  0.15230261385E+03  0.22372193203E+04  0.22320291667E+04 0.  0.
        5    1    3    3  502    0  0.69739035571E+02 -0.17388430814E+03  0.11788764178E+04  0.11936795986E+04  0.46999998093E+01 0. -1.
       -5    1    3    3    0  502 -0.69739035571E+02  0.17388430814E+03 -0.10265738040E+04  0.10435397217E+04  0.46999998093E+01 0.  1.
</event>
<event>
 5   0  0.1866935E-05  0.2184026E+04  0.7818609E-02  0.8525106E-01
       -1   -1    0    0    0  501  0.00000000000E+00  0.00000000000E+00  0.86332730948E+03  0.86332730950E+03  0.50400001928E-02 0. -1.
        1   -1    0    0  501    0  0.00000000000E+00  0.00000000000E+00 -0.13812753197E+04  0.13812753197E+04  0.50400001928E-02 0.  1.
    10030    2    1    2    0    0  0.00000000000E+00  0.00000000000E+00 -0.51794801025E+03  0.22446026292E+04  0.21840262869E+04 0.  0.
        4    1    3    3  502    0 -0.96561130913E+03  0.47196458411E+03 -0.45755677590E+03  0.11681248157E+04  0.12699999809E+01 0. -1.
       -4    1    3    3    0  502  0.96561130913E+03 -0.47196458411E+03 -0.60391234346E+02  0.10764778135E+04  0.12699999809E+01 0.  1.
</event>
<event>
 5   0  0.4029532E-05  0.2176941E+04  0.7818609E-02  0.8528088E-01
        2   -1    0    0  501    0  0.00000000000E+00  0.00000000000E+00  0.15362993549E+04  0.15362993549E+04  0.25500000920E-02 0.  1.
       -2   -1    0    0    0  501  0.00000000000E+00  0.00000000000E+00 -0.77118300213E+03  0.77118300214E+03  0.25500000920E-02 0. -1.
    10030    2    1    2    0    0  0.00000000000E+00  0.00000000000E+00  0.76511635278E+03  0.23074823571E+04  0.21769409259E+04 0.  0.
        3    1    3    3  502    0  0.57969414364E+03 -0.72159545070E+03 -0.22451865321E+03  0.95244628745E+03  0.10100000352E+00 0. -1.
       -3    1    3    3    0  502 -0.57969414364E+03  0.72159545070E+03  0.98963500599E+03  0.13550360696E+04  0.10100000352E+00 0.  1.
</event>
<event>
 5   0  0.1786228E-05  0.2201856E+04  0.7818609E-02  0.8517656E-01
        1   -1    0    0  501    0  0.00000000000E+00  0.00000000000E+00  0.84661031928E+03  0.84661031929E+03  0.50400001928E-02 0. -1.
       -1   -1    0    0    0  501  0.00000000000E+00  0.00000000000E+00 -0.14316419262E+04  0.14316419262E+04  0.50400001928E-02 0.  1.
    10030    2    1    2    0    0  0.00000000000E+00  0.00000000000E+00 -0.58503160687E+03  0.22782522455E+04  0.22018563334E+04 0.  0.
        5    1    3    3  502    0 -0.49244543717E+03  0.83606872762E+03 -0.83066454985E+03  0.12773171534E+04  0.46999998093E+01 0.  1.
       -5    1    3    3    0  502  0.49244543717E+03 -0.83606872762E+03  0.24563294298E+03  0.10009350921E+04  0.46999998093E+01 0. -1.
</event>
<event>
 5   0  0.1884407E-05  0.2402086E+04  0.7818609E-02  0.8438723E-01
       -1   -1    0    0    0  501  0.00000000000E+00  0.00000000000E+00  0.12143816780E+04  0.12143816780E+04  0.50400001928E-02 0. -1.
        1   -1    0    0  501    0  0.00000000000E+00  0.00000000000E+00 -0.11878511332E+04  0.11878511332E+04  0.50400001928E-02 0.  1.
    10030    2    1    2    0    0  0.00000000000E+00  0.00000000000E+00  0.26530544797E+02  0.24022328111E+04  0.24020863034E+04 0.  0.
        3    1    3    3  502    0  0.83218163683E+03 -0.57860975136E+03  0.65765627860E+03  0.12082331365E+04  0.10100000352E+00 0. -1.
       -3    1    3    3    0  502 -0.83218163683E+03  0.57860975136E+03 -0.63112573380E+03  0.11939996747E+04  0.10100000352E+00 0.  1.
</event>
<event>
 5   0  0.1884407E-05  0.2186735E+04  0.7818609E-02  0.8523970E-01
        1   -1    0    0  501    0  0.00000000000E+00  0.00000000000E+00  0.14193575258E+04  0.14193575258E+04  0.50400001928E-02 0.  1.
       -1   -1    0    0    0  501  0.00000000000E+00  0.00000000000E+00 -0.84224905173E+03  0.84224905175E+03  0.50400001928E-02 0. -1.
    10030    2    1    2    0    0  0.00000000000E+00  0.00000000000E+00  0.57710847408E+03  0.22616065776E+04  0.21867350367E+04 0.  0.
        3    1    3    3  502    0 -0.48479846654E+03  0.55400191832E+03 -0.54752088283E+03  0.91745670524E+03  0.10100000352E+00 0. -1.
       -3    1    3    3    0  502  0.48479846654E+03 -0.55400191832E+03  0.11246293569E+04  0.13441498723E+04  0.10100000352E+00 0.  1.
</event>
<event>
 5   0  0.1788413E-05  0.2240907E+04  0.7818609E-02  0.8501592E-01
        1   -1    0    0  501    0  0.00000000000E+00  0.00000000000E+00  0.27202848386E+04  0.27202848386E+04  0.50400001928E-02 0. -1.
       -1   -1    0    0    0  501  0.00000000000E+00  0.00000000000E+00 -0.46150163352E+03  0.46150163355E+03  0.50400001928E-02 0.  1.
    10030    2    1    2    0    0  0.00000000000E+00  0.00000000000E+00  0.22587832050E+04  0.31817864721E+04  0.22409068671E+04 0.  0.
        1    1    3    3  502    0 -0.31543739275E+03 -0.88794152067E+01 -0.39710340820E+03  0.50721860138E+03  0.50400001928E-02 0.  1.
       -1    1    3    3    0  502  0.31543739275E+03  0.88794152067E+01  0.26558866132E+04  0.26745678707E+04  0.50400001928E-02 0. -1.
</event>
<event>
 5   0  0.4029532E-05  0.2178368E+04  0.7818609E-02  0.8527486E-01
        2   -1    0    0  501    0  0.00000000000E+00  0.00000000000E+00  0.13309737758E+04  0.13309737758E+04  0.25500000920E-02 0. -1.
       -2   -1    0    0    0  501  0.00000000000E+00  0.00000000000E+00 -0.89131880706E+03  0.89131880706E+03  0.25500000920E-02 0.  1.
    10030    2    1    2    0    0  0.00000000000E+00  0.00000000000E+00  0.43965496872E+03  0.22222925828E+04  0.21783681581E+04 0.  0.
        3    1    3    3  502    0  0.10908859178E+03 -0.97672918873E+03  0.69878517261E+03  0.12059025486E+04  0.10100000352E+00 0. -1.
       -3    1    3    3    0  502 -0.10908859178E+03  0.97672918873E+03 -0.25913020389E+03  0.10163900343E+04  0.10100000352E+00 0.  1.
</event>
<event>
 5   0  0.1433375E-05  0.2196474E+04  0.7818609E-02  0.8519897E-01
        3   -1    0    0  501    0  0.00000000000E+00  0.00000000000E+00  0.12898766596E+04  0.12898766636E+04  0.10100000352E+00 0.  1.
       -3   -1    0    0    0  501  0.00000000000E+00  0.00000000000E+00 -0.93506927669E+03  0.93506928214E+03  0.10100000352E+00 0. -1.
    10030    2    1    2    0    0  0.00000000000E+00  0.00000000000E+00  0.35480738292E+03  0.22249459457E+04  0.21964735788E+04 0.  0.
        2    1    3    3  502    0  0.97510459938E+03 -0.28325999348E+03  0.60122765287E+03  0.11800592757E+04  0.25500000920E-02 0.  1.
       -2    1    3    3    0  502 -0.97510459938E+03  0.28325999348E+03 -0.24642026995E+03  0.10448866700E+04  0.25500000920E-02 0. -1.
</event>
<event>
 5   0  0.4029532E-05  0.2147353E+04  0.7818609E-02  0.8540666E-01
       -2   -1    0    0    0  501  0.00000000000E+00  0.00000000000E+00  0.54614807729E+03  0.54614807729E+03  0.25500000920E-02 0.  1.
        2   -1    0    0  501    0  0.00000000000E+00  0.00000000000E+00 -0.21107483334E+04  0.21107483334E+04  0.25500000920E-02 0. -1.
    10030    2    1    2    0    0  0.00000000000E+00  0.00000000000E+00 -0.15646002561E+04  0.26568964107E+04  0.21473529230E+04 0.  0.
        3    1    3    3  502    0  0.77641130216E+03  0.73201648855E+03 -0.63528391602E+03  0.12418729057E+04  0.10100000352E+00 0.  1.
       -3    1    3    3    0  502 -0.77641130216E+03 -0.73201648855E+03 -0.92931634009E+03  0.14150235050E+04  0.10100000352E+00 0. -1.
</event>
<event>
 5   0  0.4027923E-05  0.2194903E+04  0.7818609E-02  0.8520553E-01
        2   -1    0    0  501    0  0.00000000000E+00  0.00000000000E+00  0.14240652400E+04  0.14240652400E+04  0.25500000920E-02 0.  1.
       -2   -1    0    0    0  501  0.00000000000E+00  0.00000000000E+00 -0.84574769576E+03  0.84574769577E+03  0.25500000920E-02 0. -1.
    10030    2    1    2    0    0  0.00000000000E+00  0.00000000000E+00  0.57831754423E+03  0.22698129358E+04  0.21949030916E+04 0.  0.
        5    1    3    3  502    0 -0.68743529849E+03 -0.15175147212E+03 -0.58146607682E+03  0.91308306709E+03  0.46999998093E+01 0. -1.
       -5    1    3    3    0  502  0.68743529849E+03  0.15175147212E+03  0.11597836210E+04  0.13567298687E+04  0.46999998093E+01 0.  1.
</event>
<event>
 5   0  0.1815681E-05  0.2177722E+04  0.7818609E-02  0.8527758E-01
       -1   -1    0    0    0  501  0.00000000000E+00  0.00000000000E+00  0.13112710307E+04  0.13112710307E+04  0.50400001928E-02 0.  1.
        1   -1    0    0  501    0  0.00000000000E+00  0.00000000000E+00 -0.90417508327E+03  0.90417508329E+03  0.50400001928E-02 0. -1.
    10030    2    1    2    0    0  0.00000000000E+00  0.00000000000E+00  0.40709594739E+03  0.22154461140E+04  0.21777222903E+04 0.  0.
        2    1    3    3  502    0  0.16320356040E+03  0.44470682727E+03  0.12009491469E+04  0.12909989999E+04  0.25500000920E-02 0.  1.
       -2    1    3    3    0  502 -0.16320356040E+03 -0.44470682727E+03 -0.79385319949E+03  0.92444711406E+03  0.25500000920E-02 0. -1.
</event>
<event>
 5   0  0.1866935E-05  0.2197686E+04  0.7818609E-02  0.8519392E-01
        1   -1    0    0  501    0  0.00000000000E+00  0.00000000000E+00  0.16756346621E+04  0.16756346621E+04  0.50400001928E-02 0.  1.
       -1   -1    0    0    0  501  0.00000000000E+00  0.00000000000E+00 -0.72059624169E+03  0.72059624171E+03  0.50400001928E-02 0. -1.
    10030    2    1    2    0    0  0.00000000000E+00  0.00000000000E+00  0.95503842043E+03  0.23962309038E+04  0.21976860922E+04 0.  0.
        4    1    3    3  502    0 -0.44639673704E+03 -0.20936113322E+02  0.15720766554E+04  0.16343607286E+04  0.12699999809E+01 0.  1.
       -4    1    3    3    0  502  0.44639673704E+03  0.20936113322E+02 -0.61703823497E+03  0.76187017529E+03  0.12699999809E+01 0. -1.
</event>
<event>
 5   0  0.4143281E-05  0.2197464E+04  0.7818609E-02  0.8519484E-01
       -2   -1    0    0    0  501  0.00000000000E+00  0.00000000000E+00  0.11996617080E+04  0.11996617080E+04  0.25500000920E-02 0. -1.
        2   -1    0    0  501    0  0.00000000000E+00  0.00000000000E+00 -0.10062935521E+04  0.10062935521E+04  0.25500000920E-02 0.  1.
    10030    2    1    2    0    0  0.00000000000E+00  0.00000000000E+00  0.19336815594E+03  0.22059552601E+04  0.21974638486E+04 0.  0.
        2    1    3    3  502    0 -0.41663708292E+03  0.36268038244E+03  0.10501375215E+04  0.11865548165E+04  0.25500000920E-02 0. -1.
       -2    1    3    3    0  502  0.41663708292E+03 -0.36268038244E+03 -0.85676936552E+03  0.10194004436E+04  0.25500000920E-02 0.  1.
</event>
<event>
 5   0  0.4029532E-05  0.2200665E+04  0.7818609E-02  0.8518151E-01
        2   -1    0    0  501    0  0.00000000000E+00  0.00000000000E+00  0.13870353090E+04  0.13870353091E+04  0.25500000920E-02 0.  1.
       -2   -1    0    0    0  501  0.00000000000E+00  0.00000000000E+00 -0.87289166753E+03  0.87289166753E+03  0.25500000920E-02 0. -1.
    10030    2    1    2    0    0  0.00000000000E+00  0.00000000000E+00  0.51414364152E+03  0.22599269766E+04  0.22006649575E+04 0.  0.
        3    1    3    3  502    0  0.59671613218E+03  0.75856262304E+03 -0.28559407207E+03  0.10065045353E+04  0.10100000352E+00 0. -1.
       -3    1    3    3    0  502 -0.59671613218E+03 -0.75856262304E+03  0.79973771359E+03  0.12534224412E+04  0.10100000352E+00 0.  1.
</event>
<event>
 5   0  0.1788413E-05  0.2207288E+04  0.7818609E-02  0.8515401E-01
        1   -1    0    0  501    0  0.00000000000E+00  0.00000000000E+00  0.19834789899E+04  0.19834789899E+04  0.50400001928E-02 0. -1.
       -1   -1    0    0    0  501  0.00000000000E+00  0.00000000000E+00 -0.61408779270E+03  0.61408779272E+03  0.50400001928E-02 0.  1.
    10030    2    1    2    0    0  0.00000000000E+00  0.00000000000E+00  0.13693911972E+04  0.25975667826E+04  0.22072881414E+04 0.  0.
        1    1    3    3  502    0  0.64366453222E+03 -0.83077563461E+03  0.28816344677E+03  0.10897386646E+04  0.50400001928E-02 0.  1.
       -1    1    3    3    0  502 -0.64366453222E+03  0.83077563461E+03  0.10812277504E+04  0.15078281180E+04  0.50400001928E-02 0. -1.
</event>
<event>
 5   0  0.4027923E-05  0.2166881E+04  0.7818609E-02  0.8532341E-01
       -2   -1    0    0    0  501  0.00000000000E+00  0.00000000000E+00  0.57384638914E+03  0.57384638915E+03  0.25500000920E-02 0. -1.
        2   -1    0    0  501    0  0.00000000000E+00  0.00000000000E+00 -0.20455714011E+04  0.20455714011E+04  0.25500000920E-02 0.  1.
    10030    2    1    2    0    0  0.00000000000E+00  0.00000000000E+00 -0.14717250120E+04  0.26194177903E+04  0.21668814109E+04 0.  0.
        5    1    3    3  502    0 -0.35485565694E+03 -0.57795485828E+03  0.28549639571E+03  0.73585639729E+03  0.46999998093E+01 0. -1.
       -5    1    3    3    0  502  0.35485565694E+03  0.57795485828E+03 -0.17572214077E+04  0.18835613930E+04  0.46999998093E+01 0.  1.
</event>
<event>
 5   0  0.1866935E-05  0.2221570E+04  0.7818609E-02  0.8509503E-01
       -1   -1    0    0    0  501  0.00000000000E+00  0.00000000000E+00  0.54030793777E+03  0.54030793779E+03  0.50400001928E-02 0.  1.
        1   -1    0    0  501    0  0.00000000000E+00  0.00000000000E+00 -0.22835927967E+04  0.22835927967E+04  0.50400001928E-02 0. -1.
    10030    2    1    2    0    0  0.00000000000E+00  0.00000000000E+00 -0.17432848589E+04  0.28239007345E+04  0.22215699986E+04 0.  0.
        4    1    3    3  502    0  0.61962734445E+03 -0.70609757884E+03 -0.16250794556E+04  0.18770713057E+04  0.12699999809E+01 0. -1.
       -4    1    3    3    0  502 -0.61962734445E+03  0.70609757884E+03 -0.11820540327E+03  0.94682942872E+03  0.12699999809E+01 0.  1.
</event>
<event>
 5   0  0.1786228E-05  0.2187239E+04  0.7818609E-02  0.8523758E-01
        1   -1    0    0  501    0  0.00000000000E+00  0.00000000000E+00  0.13999863984E+04  0.13999863984E+04  0.50400001928E-02 0. -1.
       -1   -1    0    0    0  501  0.00000000000E+00  0.00000000000E+00 -0.85429646309E+03  0.85429646310E+03  0.50400001928E-02 0.  1.
    10030    2    1    2    0    0  0.00000000000E+00  0.00000000000E+00  0.54568993531E+03  0.22542828615E+04  0.21872388334E+04 0.  0.
        5    1    3    3  502    0 -0.35117642249E+03  0.10267500238E+04  0.41280455063E+03  0.11610211790E+04  0.46999998093E+01 0. -1.
       -5    1    3    3    0  502  0.35117642249E+03 -0.10267500238E+04  0.13288538467E+03  0.10932616825E+04  0.46999998093E+01 0.  1.
</event>
<event>
 5   0  0.4143281E-05  0.2212313E+04  0.7818609E-02  0.8513321E-01
        2   -1    0    0  501    0  0.00000000000E+00  0.00000000000E+00  0.16084474993E+04  0.16084474993E+04  0.25500000920E-02 0.  1.
       -2   -1    0    0    0  501  0.00000000000E+00  0.00000000000E+00 -0.76072224555E+03  0.76072224555E+03  0.25500000920E-02 0. -1.
    10030    2    1    2    0    0  0.00000000000E+00  0.00000000000E+00  0.84772525380E+03  0.23691697449E+04  0.22123126303E+04 0.  0.
        2    1    3    3  502    0 -0.75311068490E+03  0.14727921866E+03  0.12770394189E+04  0.14898646077E+04  0.25500000920E-02 0.  1.
       -2    1    3    3    0  502  0.75311068490E+03 -0.14727921866E+03 -0.42931416507E+03  0.87930513719E+03  0.25500000920E-02 0. -1.
</event>
<event>
 5   0  0.1788413E-05  0.2200614E+04  0.7818609E-02  0.8518173E-01
       -1   -1    0    0    0  501  0.00000000000E+00  0.00000000000E+00  0.74172865966E+03  0.74172865968E+03  0.50400001928E-02 0. -1.
        1   -1    0    0  501    0  0.00000000000E+00  0.00000000000E+00 -0.16322345093E+04  0.16322345093E+04  0.50400001928E-02 0.  1.
    10030    2    1    2    0    0  0.00000000000E+00  0.00000000000E+00 -0.89050584962E+03  0.23739631690E+04  0.22006136552E+04 0.  0.
        1    1    3    3  502    0  0.19553903864E+03  0.56481713868E+02  0.72124441830E+03  0.74941257702E+03  0.50400001928E-02 0. -1.
       -1    1    3    3    0  502 -0.19553903864E+03 -0.56481713868E+02 -0.16117502679E+04  0.16245505919E+04  0.50400001928E-02 0.  1.
</event>
<event>
 5   0  0.1815681E-05  0.2194106E+04  0.7818609E-02  0.8520885E-01
       -1   -1    0    0    0  501  0.00000000000E+00  0.00000000000E+00  0.47307896747E+03  0.47307896750E+03  0.50400001928E-02 0. -1.
        1   -1    0    0  501    0  0.00000000000E+00  0.00000000000E+00 -0.25440270506E+04  0.25440270506E+04  0.50400001928E-02 0.  1.
    10030    2    1    2    0    0  0.00000000000E+00  0.00000000000E+00 -0.20709480832E+04  0.30171060181E+04  0.21941063697E+04 0.  0.
        2    1    3    3  502    0  0.80373615544E+03  0.57311720587E+03 -0.37733519878E+03  0.10568050868E+04  0.25500000920E-02 0. -1.
       -2    1    3    3    0  502 -0.80373615544E+03 -0.57311720587E+03 -0.16936128844E+04  0.19603009313E+04  0.25500000920E-02 0.  1.
</event>
<event>
 5   0  0.4027923E-05  0.2239370E+04  0.7818609E-02  0.8502218E-01
       -2   -1    0    0    0  501  0.00000000000E+00  0.00000000000E+00  0.10511324087E+04  0.10511324087E+04  0.25500000920E-02 0. -1.
        2   -1    0    0  501    0  0.00000000000E+00  0.00000000000E+00 -0.11927081307E+04  0.11927081307E+04  0.25500000920E-02 0.  1.
    10030    2    1    2    0    0  0.00000000000E+00  0.00000000000E+00 -0.14157572203E+03  0.22438405394E+04  0.22393697062E+04 0.  0.
        5    1    3    3  502    0  0.55959552333E+03 -0.91566234241E+03  0.24936123070E+03  0.11017203767E+04  0.46999998093E+01 0. -1.
       -5    1    3    3    0  502 -0.55959552333E+03  0.91566234241E+03 -0.39093695272E+03  0.11421201627E+04  0.46999998093E+01 0.  1.
</event>
<event>
 5   0  0.4132460E-05  0.2176917E+04  0.7818609E-02  0.8528098E-01
       -2   -1    0    0    0  501  0.00000000000E+00  0.00000000000E+00  0.15803524748E+04  0.15803524748E+04  0.25500000920E-02 0. -1.
        2   -1    0    0  501    0  0.00000000000E+00  0.00000000000E+00 -0.74966948564E+03  0.74966948565E+03  0.25500000920E-02 0.  1.
    10030    2    1    2    0    0  0.00000000000E+00  0.00000000000E+00  0.83068298915E+03  0.23300219604E+04  0.21769171109E+04 0.  0.
        4    1    3    3  502    0  0.10692086667E+04  0.34179734591E+02  0.63038212725E+03  0.12416757493E+04  0.12699999809E+01 0. -1.
       -4    1    3    3    0  502 -0.10692086667E+04 -0.34179734591E+02  0.20030086190E+03  0.10883462111E+04  0.12699999809E+01 0.  1.
</event>
<event>
 5   0  0.1815681E-05  0.2188129E+04  0.7818609E-02  0.8523385E-01
       -1   -1    0    0    0  501  0.00000000000E+00  0.00000000000E+00  0.10325033322E+04  0.10325033323E+04  0.50400001928E-02 0.  1.
        1   -1    0    0  501    0  0.00000000000E+00  0.00000000000E+00 -0.11592960359E+04  0.11592960359E+04  0.50400001928E-02 0. -1.
    10030    2    1    2    0    0  0.00000000000E+00  0.00000000000E+00 -0.12679270367E+03  0.21917993682E+04  0.21881288995E+04 0.  0.
        2    1    3    3  502    0  0.94297313204E+03  0.45100013686E+03  0.26022076483E+03  0.10771788606E+04  0.25500000920E-02 0. -1.
       -2    1    3    3    0  502 -0.94297313204E+03 -0.45100013686E+03 -0.38701346850E+03  0.11146205076E+04  0.25500000920E-02 0.  1.
</event>
<event>
 5   0  0.1884407E-05  0.2104709E+04  0.7818609E-02  0.8559172E-01
        1   -1    0    0  501    0  0.00000000000E+00  0.00000000000E+00  0.26100696010E+04  0.26100696010E+04  0.50400001928E-02 0.  1.
       -1   -1    0    0    0  501  0.00000000000E+00  0.00000000000E+00 -0.42429901436E+03  0.42429901439E+03  0.50400001928E-02 0. -1.
    10030    2    1    2    0    0  0.00000000000E+00  0.00000000000E+00  0.21857705867E+04  0.30343686154E+04  0.21047089672E+04 0.  0.
        3    1    3    3  502    0  0.29948606719E+03  0.73071541065E+03  0.90083578154E+02  0.79482826891E+03  0.10100000352E+00 0. -1.
       -3    1    3    3    0  502 -0.29948606719E+03 -0.73071541065E+03  0.20956870085E+04  0.22395403465E+04  0.10100000352E+00 0.  1.
</event>
<event>
 5   0  0.1815681E-05  0.2199532E+04  0.7818609E-02  0.8518623E-01
       -1   -1    0    0    0  501  0.00000000000E+00  0.00000000000E+00  0.14128607742E+04  0.14128607742E+04  0.50400001928E-02 0.  1.
        1   -1    0    0  501    0  0.00000000000E+00  0.00000000000E+00 -0.85605401193E+03  0.85605401194E+03  0.50400001928E-02 0. -1.
    10030    2    1    2    0    0  0.00000000000E+00  0.00000000000E+00  0.55680676224E+03  0.22689147861E+04  0.21995318902E+04 0.  0.
        2    1    3    3  502    0  0.38449381559E+03 -0.76866675522E+03  0.98619699186E+03  0.13081546474E+04  0.25500000920E-02 0.  1.
       -2    1    3    3    0  502 -0.38449381559E+03  0.76866675522E+03 -0.42939022961E+03  0.96076013870E+03  0.25500000920E-02 0. -1.
</event>
<event>
 5   0  0.4029532E-05  0.2210469E+04  0.7818609E-02  0.8514083E-01
        2   -1    0    0  501    0  0.00000000000E+00  0.00000000000E+00  0.66314807079E+03  0.66314807080E+03  0.25500000920E-02 0.  1.
       -2   -1    0    0    0  501  0.00000000000E+00  0.00000000000E+00 -0.18420372762E+04  0.18420372762E+04  0.25500000920E-02 0. -1.
    10030    2    1    2    0    0  0.00000000000E+00  0.00000000000E+00 -0.11788892054E+04  0.25051853470E+04  0.22104691502E+04 0.  0.
        3    1    3    3  502    0  0.93636221102E+03 -0.26464240759E+03 -0.11834786561E+04  0.15321330013E+04  0.10100000352E+00 0.  1.
       -3    1    3    3    0  502 -0.93636221102E+03  0.26464240759E+03  0.45894507109E+01  0.97305234565E+03  0.10100000352E+00 0. -1.
</event>
<event>
 5   0  0.1786228E-05  0.2197716E+04  0.7818609E-02  0.8519379E-01
        1   -1    0    0  501    0  0.00000000000E+00  0.00000000000E+00  0.12379705482E+04  0.12379705482E+04  0.50400001928E-02 0. -1.
       -1   -1    0    0    0  501  0.00000000000E+00  0.00000000000E+00 -0.97537774430E+03  0.97537774431E+03  0.50400001928E-02 0.  1.
    10030    2    1    2    0    0  0.00000000000E+00  0.00000000000E+00  0.26259280388E+03  0.22133482925E+04  0.21977160152E+04 0.  0.
        5    1    3    3  502    0 -0.40965585300E+03 -0.48273696010E+03 -0.77320875778E+03  0.99936317905E+03  0.46999998093E+01 0.  1.
       -5    1    3    3    0  502  0.40965585300E+03  0.48273696010E+03  0.10358015617E+04  0.12139851134E+04  0.46999998093E+01 0. -1.
</event>
<event>
 5   0  0.1866935E-05  0.2206836E+04  0.7818609E-02  0.8515588E-01
       -1   -1    0    0    0  501  0.00000000000E+00  0.00000000000E+00  0.13415870969E+04  0.13415870969E+04  0.50400001928E-02 0.  1.
        1   -1    0    0  501    0  0.00000000000E+00  0.00000000000E+00 -0.90753030263E+03  0.90753030264E+03  0.50400001928E-02 0. -1.
    10030    2    1    2    0    0  0.00000000000E+00  0.00000000000E+00  0.43405679430E+03  0.22491173996E+04  0.22068356931E+04 0.  0.
        4    1    3    3  502    0 -0.13626998217E+03  0.38959596615E+03 -0.82589333755E+03  0.92328540701E+03  0.12699999809E+01 0. -1.
       -4    1    3    3    0  502  0.13626998217E+03 -0.38959596615E+03  0.12599501318E+04  0.13258319926E+04  0.12699999809E+01 0.  1.
</event>
<event>
 5   0  0.1884407E-05  0.2177923E+04  0.7818609E-02  0.8527674E-01
        1   -1    0    0  501    0  0.00000000000E+00  0.00000000000E+00  0.68932609408E+03  0.68932609410E+03  0.50400001928E-02 0. -1.
       -1   -1    0    0    0  501  0.00000000000E+00  0.00000000000E+00 -0.17202843688E+04  0.17202843688E+04  0.50400001928E-02 0.  1.
    10030    2    1    2    0    0  0.00000000000E+00  0.00000000000E+00 -0.10309582748E+04  0.24096104629E+04  0.21779227761E+04 0.  0.
        3    1    3    3  502    0 -0.79712606641E+03  0.58699290350E+03 -0.13486958306E+02  0.99002653639E+03  0.10100000352E+00 0. -1.
       -3    1    3    3    0  502  0.79712606641E+03 -0.58699290350E+03 -0.10174713164E+04  0.14195839265E+04  0.10100000352E+00 0.  1.
</event>
<event>
 5   0  0.3963414E-05  0.2197440E+04  0.7818609E-02  0.8519495E-01
        2   -1    0    0  501    0  0.00000000000E+00  0.00000000000E+00  0.22627096372E+04  0.22627096372E+04  0.25500000920E-02 0. -1.
       -2   -1    0    0    0  501  0.00000000000E+00  0.00000000000E+00 -0.53351307205E+03  0.53351307206E+03  0.25500000920E-02 0.  1.
    10030    2    1    2    0    0  0.00000000000E+00  0.00000000000E+00  0.17291965652E+04  0.27962227093E+04  0.21974395734E+04 0.  0.
        1    1    3    3  502    0  0.12206679467E+03  0.88046151673E+03  0.16863876819E+04  0.19063095757E+04  0.50400001928E-02 0. -1.
       -1    1    3    3    0  502 -0.12206679467E+03 -0.88046151673E+03  0.42808883288E+02  0.88991313358E+03  0.50400001928E-02 0.  1.
</event>
<event>
 5   0  0.1788413E-05  0.2221977E+04  0.7818609E-02  0.8509336E-01
        1   -1    0    0  501    0  0.00000000000E+00  0.00000000000E+00  0.11963942854E+04  0.11963942854E+04  0.50400001928E-02 0.  1.
       -1   -1    0    0    0  501  0.00000000000E+00  0.00000000000E+00 -0.10316791517E+04  0.10316791517E+04  0.50400001928E-02 0. -1.
    10030    2    1    2    0    0  0.00000000000E+00  0.00000000000E+00  0.16471513376E+03  0.22280734371E+04  0.22219766349E+04 0.  0.
        1    1    3    3  502    0 -0.22197170069E+03 -0.54120306802E+03 -0.86475662331E+03  0.10440192596E+04  0.50400001928E-02 0. -1.
       -1    1    3    3    0  502  0.22197170069E+03  0.54120306802E+03  0.10294717571E+04  0.11840541775E+04  0.50400001928E-02 0.  1.
</event>
<event>
 5   0  0.4029532E-05  0.2205386E+04  0.7818609E-02  0.8516190E-01
        2   -1    0    0  501    0  0.00000000000E+00  0.00000000000E+00  0.18719664931E+04  0.18719664931E+04  0.25500000920E-02 0. -1.
       -2   -1    0    0    0  501  0.00000000000E+00  0.00000000000E+00 -0.64954813834E+03  0.64954813835E+03  0.25500000920E-02 0.  1.
    10030    2    1    2    0    0  0.00000000000E+00  0.00000000000E+00  0.12224183547E+04  0.25215146314E+04  0.22053864520E+04 0.  0.
        3    1    3    3  502    0 -0.38210484903E+03 -0.70434422549E+03  0.14773079937E+04  0.16806379211E+04  0.10100000352E+00 0. -1.
       -3    1    3    3    0  502  0.38210484903E+03  0.70434422549E+03 -0.25488963895E+03  0.84087671027E+03  0.10100000352E+00 0.  1.
</event>
<event>
 5   0  0.4029532E-05  0.2207287E+04  0.7818609E-02  0.8515401E-01
        2   -1    0    0  501    0  0.00000000000E+00  0.00000000000E+00  0.26290412929E+04  0.26290412929E+04  0.25500000920E-02 0.  1.
       -2   -1    0    0    0  501  0.00000000000E+00  0.00000000000E+00 -0.46329764389E+03  0.46329764390E+03  0.25500000920E-02 0. -1.
    10030    2    1    2    0    0  0.00000000000E+00  0.00000000000E+00  0.21657436490E+04  0.30923389368E+04  0.22072866934E+04 0.  0.
        3    1    3    3  502    0  0.55114661068E+03 -0.33967971089E+03 -0.16931789243E+03  0.66918865154E+03  0.10100000352E+00 0. -1.
       -3    1    3    3    0  502 -0.55114661068E+03  0.33967971089E+03  0.23350615415E+04  0.24231502853E+04  0.10100000352E+00 0.  1.
</event>
<event>
 5   0  0.4132460E-05  0.2202712E+04  0.7818609E-02  0.8517300E-01
       -2   -1    0    0    0  501  0.00000000000E+00  0.00000000000E+00  0.67239194731E+03  0.67239194731E+03  0.25500000920E-02 0. -1.
        2   -1    0    0  501    0  0.00000000000E+00  0.00000000000E+00 -0.18039853541E+04  0.18039853541E+04  0.25500000920E-02 0.  1.
    10030    2    1    2    0    0  0.00000000000E+00  0.00000000000E+00 -0.11315934068E+04  0.24763773014E+04  0.22027121693E+04 0.  0.
        4    1    3    3  502    0 -0.32247623682E+03 -0.56793802072E+03 -0.15627885586E+04  0.16937692318E+04  0.12699999809E+01 0.  1.
       -4    1    3    3    0  502  0.32247623682E+03  0.56793802072E+03  0.43119515186E+03  0.78260806959E+03  0.12699999809E+01 0. -1.
</event>
<event>
 5   0  0.1884407E-05  0.2172138E+04  0.7818609E-02  0.8530115E-01
       -1   -1    0    0    0  501  0.00000000000E+00  0.00000000000E+00  0.80339206640E+03  0.80339206642E+03  0.50400001928E-02 0.  1.
        1   -1    0    0  501    0  0.00000000000E+00  0.00000000000E+00 -0.14682074638E+04  0.14682074638E+04  0.50400001928E-02 0. -1.
    10030    2    1    2    0    0  0.00000000000E+00  0.00000000000E+00 -0.66481539741E+03  0.22715995302E+04  0.21721383274E+04 0.  0.
        3    1    3    3  502    0 -0.34246907839E+03 -0.10480419086E+03  0.73985925196E+03  0.82198583381E+03  0.10100000352E+00 0.  1.
       -3    1    3    3    0  502  0.34246907839E+03  0.10480419086E+03 -0.14046746494E+04  0.14496136964E+04  0.10100000352E+00 0. -1.
</event>
<event>
 5   0  0.4132460E-05  0.2206613E+04  0.7818609E-02  0.8515681E-01
        2   -1    0    0  501    0  0.00000000000E+00  0.00000000000E+00  0.16677095432E+04  0.16677095432E+04  0.25500000920E-02 0. -1.
       -2   -1    0    0    0  501  0.00000000000E+00  0.00000000000E+00 -0.72991428944E+03  0.72991428944E+03  0.25500000920E-02 0.  1.
    10030    2    1    2    0    0  0.00000000000E+00  0.00000000000E+00  0.93779525372E+03  0.23976238326E+04  0.22066128126E+04 0.  0.
        4    1    3    3  502    0  0.98204919000E+03 -0.20898933140E+03 -0.28062437284E+02  0.10044333057E+04  0.12699999809E+01 0.  1.
       -4    1    3    3    0  502 -0.98204919000E+03  0.20898933140E+03  0.96585769100E+03  0.13931905270E+04  0.12699999809E+01 0. -1.
</event>
<event>
 5   0  0.1786228E-05  0.2151466E+04  0.7818609E-02  0.8538905E-01
       -1   -1    0    0    0  501  0.00000000000E+00  0.00000000000E+00  0.11867153757E+04  0.11867153757E+04  0.50400001928E-02 0.  1.
        1   -1    0    0  501    0  0.00000000000E+00  0.00000000000E+00 -0.97512968136E+03  0.97512968137E+03  0.50400001928E-02 0. -1.
    10030    2    1    2    0    0  0.00000000000E+00  0.00000000000E+00  0.21158569434E+03  0.21618450571E+04  0.21514659060E+04 0.  0.
        5    1    3    3  502    0 -0.16354527868E+03  0.10584688135E+04  0.49292704298E+01  0.10710507341E+04  0.46999998093E+01 0. -1.
       -5    1    3    3    0  502  0.16354527868E+03 -0.10584688135E+04  0.20665642391E+03  0.10907943229E+04  0.46999998093E+01 0.  1.
</event>
<event>
 5   0  0.3963414E-05  0.2270288E+04  0.7818609E-02  0.8489729E-01
        2   -1    0    0  501    0  0.00000000000E+00  0.00000000000E+00  0.20792992984E+04  0.20792992984E+04  0.25500000920E-02 0.  1.
       -2   -1    0    0    0  501  0.00000000000E+00  0.00000000000E+00 -0.61970497695E+03  0.61970497695E+03  0.25500000920E-02 0. -1.
    10030    2    1    2    0    0  0.00000000000E+00  0.00000000000E+00  0.14595943215E+04  0.26990042754E+04  0.22702881965E+04 0.  0.
        1    1    3    3  502    0 -0.55211918199E+03 -0.24482281794E+03 -0.41283505421E+03  0.73157814710E+03  0.50400001928E-02 0. -1.
       -1    1    3    3    0  502  0.55211918199E+03  0.24482281794E+03  0.18724293757E+04  0.19674261283E+04  0.50400001928E-02 0.  1.
</event>
<event>
 5   0  0.1815681E-05  0.2174465E+04  0.7818609E-02  0.8529132E-01
       -1   -1    0    0    0  501  0.00000000000E+00  0.00000000000E+00  0.84476789465E+03  0.84476789466E+03  0.50400001928E-02 0.  1.
        1   -1    0    0  501    0  0.00000000000E+00  0.00000000000E+00 -0.13992896561E+04  0.13992896561E+04  0.50400001928E-02 0. -1.
    10030    2    1    2    0    0  0.00000000000E+00  0.00000000000E+00 -0.55452176141E+03  0.22440575507E+04  0.21744654302E+04 0.  0.
        2    1    3    3  502    0 -0.95257445552E+03  0.10364704463E+03  0.25292638891E+03  0.99101592388E+03  0.25500000920E-02 0.  1.
       -2    1    3    3    0  502  0.95257445552E+03 -0.10364704463E+03 -0.80744815031E+03  0.12530416268E+04  0.25500000920E-02 0. -1.
</event>
<event>
 5   0  0.4027923E-05  0.2165393E+04  0.7818609E-02  0.8532972E-01
        2   -1    0    0  501    0  0.00000000000E+00  0.00000000000E+00  0.19123381151E+04  0.19123381151E+04  0.25500000920E-02 0.  1.
       -2   -1    0    0    0  501  0.00000000000E+00  0.00000000000E+00 -0.61298340201E+03  0.61298340201E+03  0.25500000920E-02 0. -1.
    10030    2    1    2    0    0  0.00000000000E+00  0.00000000000E+00  0.12993547131E+04  0.25253215172E+04  0.21653928268E+04 0.  0.
        5    1    3    3  502    0  0.60885523515E+03 -0.87944342695E+03  0.45423916780E+03  0.11621018674E+04  0.46999998093E+01 0.  1.
       -5    1    3    3    0  502 -0.60885523515E+03  0.87944342695E+03  0.84511554533E+03  0.13632196498E+04  0.46999998093E+01 0. -1.
</event>
<event>
 5   0  0.1884407E-05  0.2215653E+04  0.7818609E-02  0.8511941E-01
        1   -1    0    0  501    0  0.00000000000E+00  0.00000000000E+00  0.67846624905E+03  0.67846624907E+03  0.50400001928E-02 0. -1.
       -1   -1    0    0    0  501  0.00000000000E+00  0.00000000000E+00 -0.18089022797E+04  0.18089022797E+04  0.50400001928E-02 0.  1.
    10030    2    1    2    0    0  0.00000000000E+00  0.00000000000E+00 -0.11304360307E+04  0.24873685288E+04  0.22156526304E+04 0.  0.
        3    1    3    3  502    0  0.30449049713E+03 -0.34985685827E+03 -0.16946604170E+04  0.17569827044E+04  0.10100000352E+00 0.  1.
       -3    1    3    3    0  502 -0.30449049713E+03  0.34985685827E+03  0.56422438639E+03  0.73038582442E+03  0.10100000352E+00 0. -1.
</event>
<event>
 5   0  0.1884407E-05  0.2474703E+04  0.7818609E-02  0.8412053E-01
        1   -1    0    0  501    0  0.00000000000E+00  0.00000000000E+00  0.15347868150E+04  0.15347868150E+04  0.50400001928E-02 0.  1.
       -1   -1    0    0    0  501  0.00000000000E+00  0.00000000000E+00 -0.99755803412E+03  0.99755803413E+03  0.50400001928E-02 0. -1.
    10030    2    1    2    0    0  0.00000000000E+00  0.00000000000E+00  0.53722878090E+03  0.25323448492E+04  0.24747031483E+04 0.  0.
        3    1    3    3  502    0 -0.82024364491E+03 -0.50841570247E+03 -0.52386113361E+03  0.10980513016E+04  0.10100000352E+00 0. -1.
       -3    1    3    3    0  502  0.82024364491E+03  0.50841570247E+03  0.10610899145E+04  0.14342935475E+04  0.10100000352E+00 0.  1.
</event>
<event>
 5   0  0.1433375E-05  0.2258793E+04  0.7818609E-02  0.8494348E-01
        3   -1    0    0  501    0  0.00000000000E+00  0.00000000000E+00  0.11891883562E+04  0.11891883605E+04  0.10100000352E+00 0. -1.
       -3   -1    0    0    0  501  0.00000000000E+00  0.00000000000E+00 -0.10726112768E+04  0.10726112815E+04  0.10100000352E+00 0.  1.
    10030    2    1    2    0    0  0.00000000000E+00  0.00000000000E+00  0.11657707945E+03  0.22617996420E+04  0.22587933516E+04 0.  0.
        4    1    3    3  502    0  0.27881335883E+03 -0.17292478696E+03  0.11404189406E+04  0.11866747002E+04  0.12699999809E+01 0. -1.
       -4    1    3    3    0  502 -0.27881335883E+03  0.17292478696E+03 -0.10238418612E+04  0.10751249419E+04  0.12699999809E+01 0.  1.
</event>
<event>
 5   0  0.1788413E-05  0.2202140E+04  0.7818609E-02  0.8517538E-01
       -1   -1    0    0    0  501  0.00000000000E+00  0.00000000000E+00  0.10150942671E+04  0.10150942671E+04  0.50400001928E-02 0. -1.
        1   -1    0    0  501    0  0.00000000000E+00  0.00000000000E+00 -0.11943281398E+04  0.11943281398E+04  0.50400001928E-02 0.  1.
    10030    2    1    2    0    0  0.00000000000E+00  0.00000000000E+00 -0.17923387272E+03  0.22094224068E+04  0.22021404566E+04 0.  0.
        1    1    3    3  502    0  0.53810911826E+03  0.92033843021E+03  0.18655935264E+03  0.10823070920E+04  0.50400001928E-02 0.  1.
       -1    1    3    3    0  502 -0.53810911826E+03 -0.92033843021E+03 -0.36579322535E+03  0.11271153149E+04  0.50400001928E-02 0. -1.
</event>
<event>
 5   0  0.1815681E-05  0.2198592E+04  0.7818609E-02  0.8519014E-01
        1   -1    0    0  501    0  0.00000000000E+00  0.00000000000E+00  0.94552931820E+03  0.94552931821E+03  0.50400001928E-02 0. -1.
       -1   -1    0    0    0  501  0.00000000000E+00  0.00000000000E+00 -0.12780694637E+04  0.12780694637E+04  0.50400001928E-02 0.  1.
    10030    2    1    2    0    0  0.00000000000E+00  0.00000000000E+00 -0.33254014549E+03  0.22235987819E+04  0.21985924121E+04 0.  0.
        2    1    3    3  502    0 -0.86839614236E+03 -0.40353891761E+03  0.37977497438E+03  0.10301381214E+04  0.25500000920E-02 0. -1.
       -2    1    3    3    0  502  0.86839614236E+03  0.40353891761E+03 -0.71231511987E+03  0.11934606605E+04  0.25500000920E-02 0.  1.
</event>
<event>
 5   0  0.1786228E-05  0.1951259E+04  0.7818609E-02  0.8629754E-01
        1   -1    0    0  501    0  0.00000000000E+00  0.00000000000E+00  0.10957624230E+04  0.10957624230E+04  0.50400001928E-02 0.  1.
       -1   -1    0    0    0  501  0.00000000000E+00  0.00000000000E+00 -0.86866731949E+03  0.86866731951E+03  0.50400001928E-02 0. -1.
    10030    2    1    2    0    0  0.00000000000E+00  0.00000000000E+00  0.22709510351E+03  0.19644297425E+04  0.19512590877E+04 0.  0.
        5    1    3    3  502    0 -0.76338515842E+03 -0.53329525509E+03 -0.17939794298E+03  0.94834932442E+03  0.46999998093E+01 0. -1.
       -5    1    3    3    0  502  0.76338515842E+03  0.53329525509E+03  0.40649304649E+03  0.10160804181E+04  0.46999998093E+01 0.  1.
</event>
<event>
 5   0  0.4027923E-05  0.2189974E+04  0.7818609E-02  0.8522613E-01
       -2   -1    0    0    0  501  0.00000000000E+00  0.00000000000E+00  0.64726947676E+03  0.64726947676E+03  0.25500000920E-02 0.  1.
        2   -1    0    0  501    0  0.00000000000E+00  0.00000000000E+00 -0.18523924075E+04  0.18523924075E+04  0.25500000920E-02 0. -1.
    10030    2    1    2    0    0  0.00000000000E+00  0.00000000000E+00 -0.12051229308E+04  0.24996618843E+04  0.21899744879E+04 0.  0.
        5    1    3    3  502    0  0.30373813894E+03 -0.99749043877E+03 -0.22103124591E+03  0.10658897383E+04  0.46999998093E+01 0.  1.
       -5    1    3    3    0  502 -0.30373813894E+03  0.99749043877E+03 -0.98409168487E+03  0.14337721460E+04  0.46999998093E+01 0. -1.
</event>
<event>
 5   0  0.1786228E-05  0.2204491E+04  0.7818609E-02  0.8516561E-01
       -1   -1    0    0    0  501  0.00000000000E+00  0.00000000000E+00  0.84272758997E+03  0.84272758999E+03  0.50400001928E-02 0. -1.
        1   -1    0    0  501    0  0.00000000000E+00  0.00000000000E+00 -0.14416822726E+04  0.14416822726E+04  0.50400001928E-02 0.  1.
    10030    2    1    2    0    0  0.00000000000E+00  0.00000000000E+00 -0.59895468261E+03  0.22844098626E+04  0.22044912584E+04 0.  0.
        5    1    3    3  502    0 -0.26419831719E+02  0.51135030869E+03 -0.13109502524E+04  0.14074053432E+04  0.46999998093E+01 0.  1.
       -5    1    3    3    0  502  0.26419831719E+02 -0.51135030869E+03  0.71199556978E+03  0.87700451942E+03  0.46999998093E+01 0. -1.
</event>
<event>
 5   0  0.3963414E-05  0.2192176E+04  0.7818609E-02  0.8521692E-01
       -2   -1    0    0    0  501  0.00000000000E+00  0.00000000000E+00  0.55008962712E+03  0.55008962713E+03  0.25500000920E-02 0. -1.
        2   -1    0    0  501    0  0.00000000000E+00  0.00000000000E+00 -0.21840243344E+04  0.21840243344E+04  0.25500000920E-02 0.  1.
    10030    2    1    2    0    0  0.00000000000E+00  0.00000000000E+00 -0.16339347073E+04  0.27341139615E+04  0.21921762080E+04 0.  0.
        1    1    3    3  502    0  0.73852793352E+03  0.95635080895E+02  0.18612157553E+03  0.76760068929E+03  0.50400001928E-02 0. -1.
       -1    1    3    3    0  502 -0.73852793352E+03 -0.95635080895E+02 -0.18200562828E+04  0.19665132722E+04  0.50400001928E-02 0.  1.
</event>
<event>
 5   0  0.1788413E-05  0.2204429E+04  0.7818609E-02  0.8516587E-01
        1   -1    0    0  501    0  0.00000000000E+00  0.00000000000E+00  0.20634404925E+04  0.20634404925E+04  0.50400001928E-02 0. -1.
       -1   -1    0    0    0  501  0.00000000000E+00  0.00000000000E+00 -0.58876282803E+03  0.58876282805E+03  0.50400001928E-02 0.  1.
    10030    2    1    2    0    0  0.00000000000E+00  0.00000000000E+00  0.14746776644E+04  0.26522033205E+04  0.22044292321E+04 0.  0.
        1    1    3    3  502    0  0.26130352812E+03 -0.83673193063E+03 -0.66576473214E+02  0.87910880121E+03  0.50400001928E-02 0.  1.
       -1    1    3    3    0  502 -0.26130352812E+03  0.83673193063E+03  0.15412541377E+04  0.17730945193E+04  0.50400001928E-02 0. -1.
</event>
<event>
 5   0  0.4132460E-05  0.2198597E+04  0.7818609E-02  0.8519012E-01
       -2   -1    0    0    0  501  0.00000000000E+00  0.00000000000E+00  0.71691121934E+03  0.71691121935E+03  0.25500000920E-02 0. -1.
        2   -1    0    0  501    0  0.00000000000E+00  0.00000000000E+00 -0.16856434487E+04  0.16856434487E+04  0.25500000920E-02 0.  1.
    10030    2    1    2    0    0  0.00000000000E+00  0.00000000000E+00 -0.96873222941E+03  0.24025546681E+04  0.21985965526E+04 0.  0.
        4    1    3    3  502    0 -0.40335284312E+03  0.63447958184E+03  0.39202873970E+03  0.84790683538E+03  0.12699999809E+01 0. -1.
       -4    1    3    3    0  502  0.40335284312E+03 -0.63447958184E+03 -0.13607609691E+04  0.15546478327E+04  0.12699999809E+01 0.  1.
</event>
<event>
 5   0  0.4029532E-05  0.2210653E+04  0.7818609E-02  0.8514007E-01
        2   -1    0    0  501    0  0.00000000000E+00  0.00000000000E+00  0.10997478776E+04  0.10997478776E+04  0.25500000920E-02 0.  1.
       -2   -1    0    0    0  501  0.00000000000E+00  0.00000000000E+00 -0.11109330657E+04  0.11109330657E+04  0.25500000920E-02 0. -1.
    10030    2    1    2    0    0  0.00000000000E+00  0.00000000000E+00 -0.11185188133E+02  0.22106809433E+04  0.22106526468E+04 0.  0.
        3    1    3    3  502    0 -0.72601411672E+03  0.14267365952E+03 -0.82675717097E+03  0.11094952459E+04  0.10100000352E+00 0. -1.
       -3    1    3    3    0  502  0.72601411672E+03 -0.14267365952E+03  0.81557198284E+03  0.11011856974E+04  0.10100000352E+00 0.  1.
</event>
<event>
 5   0  0.1884407E-05  0.2207506E+04  0.7818609E-02  0.8515311E-01
        1   -1    0    0  501    0  0.00000000000E+00  0.00000000000E+00  0.91914117527E+03  0.91914117528E+03  0.50400001928E-02 0.  1.
       -1   -1    0    0    0  501  0.00000000000E+00  0.00000000000E+00 -0.13254439847E+04  0.13254439847E+04  0.50400001928E-02 0. -1.
    10030    2    1    2    0    0  0.00000000000E+00  0.00000000000E+00 -0.40630280940E+03  0.22445851600E+04  0.22075055079E+04 0.  0.
        3    1    3    3  502    0  0.73346895053E+03 -0.10979707373E+03 -0.10343405947E+04  0.12727500048E+04  0.10100000352E+00 0. -1.
       -3    1    3    3    0  502 -0.73346895053E+03  0.10979707373E+03  0.62803778529E+03  0.97183515513E+03  0.10100000352E+00 0.  1.
</event>
<event>
 5   0  0.1786228E-05  0.2205563E+04  0.7818609E-02  0.8516116E-01
        1   -1    0    0  501    0  0.00000000000E+00  0.00000000000E+00  0.25306075122E+04  0.25306075122E+04  0.50400001928E-02 0. -1.
       -1   -1    0    0    0  501  0.00000000000E+00  0.00000000000E+00 -0.48056724132E+03  0.48056724135E+03  0.50400001928E-02 0.  1.
    10030    2    1    2    0    0  0.00000000000E+00  0.00000000000E+00  0.20500402709E+04  0.30111747536E+04  0.22055630311E+04 0.  0.
        5    1    3    3  502    0  0.52105460266E+03  0.82120773812E+03  0.31531296066E+03  0.10224110725E+04  0.46999998093E+01 0.  1.
       -5    1    3    3    0  502 -0.52105460266E+03 -0.82120773812E+03  0.17347273103E+04  0.19887636810E+04  0.46999998093E+01 0. -1.
</event>
<event>
 5   0  0.1433375E-05  0.2195976E+04  0.7818609E-02  0.8520105E-01
        3   -1    0    0  501    0  0.00000000000E+00  0.00000000000E+00  0.12925641028E+04  0.12925641068E+04  0.10100000352E+00 0.  1.
       -3   -1    0    0    0  501  0.00000000000E+00  0.00000000000E+00 -0.93270217932E+03  0.93270218479E+03  0.10100000352E+00 0. -1.
    10030    2    1    2    0    0  0.00000000000E+00  0.00000000000E+00  0.35986192350E+03  0.22252662916E+04  0.21959757431E+04 0.  0.
        3    1    3    3  502    0 -0.79686953795E+02 -0.96972416812E+03 -0.33564056310E+03  0.10292568050E+04  0.10100000352E+00 0. -1.
       -3    1    3    3    0  502  0.79686953795E+02  0.96972416812E+03  0.69550248660E+03  0.11960094866E+04  0.10100000352E+00 0.  1.
</event>
<event>
 5   0  0.1815681E-05  0.2208965E+04  0.7818609E-02  0.8514706E-01
        1   -1    0    0  501    0  0.00000000000E+00  0.00000000000E+00  0.11202166726E+04  0.11202166726E+04  0.50400001928E-02 0. -1.
       -1   -1    0    0    0  501  0.00000000000E+00  0.00000000000E+00 -0.10889690499E+04  0.10889690499E+04  0.50400001928E-02 0.  1.
    10030    2    1    2    0    0  0.00000000000E+00  0.00000000000E+00  0.31247622701E+02  0.22091857225E+04  0.22089647219E+04 0.  0.
        2    1    3    3  502    0  0.13238233028E+03 -0.35498182018E+03  0.10531976606E+04  0.11192687284E+04  0.25500000920E-02 0. -1.
       -2    1    3    3    0  502 -0.13238233028E+03  0.35498182018E+03 -0.10219500379E+04  0.10899169941E+04  0.25500000920E-02 0.  1.
</event>
<event>
 5   0  0.4029532E-05  0.2220577E+04  0.7818609E-02  0.8509912E-01
        2   -1    0    0  501    0  0.00000000000E+00  0.00000000000E+00  0.20849077858E+04  0.20849077858E+04  0.25500000920E-02 0. -1.
       -2   -1    0    0    0  501  0.00000000000E+00  0.00000000000E+00 -0.59126859683E+03  0.59126859684E+03  0.25500000920E-02 0.  1.
    10030    2    1    2    0    0  0.00000000000E+00  0.00000000000E+00  0.14936391890E+04  0.26761763826E+04  0.22205769530E+04 0.  0.
        3    1    3    3  502    0 -0.68192538859E+03  0.85561682607E+03  0.97433258026E+03  0.14650687273E+04  0.10100000352E+00 0. -1.
       -3    1    3    3    0  502  0.68192538859E+03 -0.85561682607E+03  0.51930660871E+03  0.12111076553E+04  0.10100000352E+00 0.  1.
</event>
<event>
 5   0  0.4143281E-05  0.2201379E+04  0.7818609E-02  0.8517854E-01
       -2   -1    0    0    0  501  0.00000000000E+00  0.00000000000E+00  0.59490025099E+03  0.59490025100E+03  0.25500000920E-02 0. -1.
        2   -1    0    0  501    0  0.00000000000E+00  0.00000000000E+00 -0.20365050149E+04  0.20365050149E+04  0.25500000920E-02 0.  1.
    10030    2    1    2    0    0  0.00000000000E+00  0.00000000000E+00 -0.14416047639E+04  0.26314052659E+04  0.22013789719E+04 0.  0.
        2    1    3    3  502    0  0.30718218034E+03  0.10088076490E+04 -0.10977881621E+04  0.15222327724E+04  0.25500000920E-02 0. -1.
       -2    1    3    3    0  502 -0.30718218034E+03 -0.10088076490E+04 -0.34381660177E+03  0.11091724935E+04  0.25500000920E-02 0.  1.
</event>
<event>
 5   0  0.4029532E-05  0.2154955E+04  0.7818609E-02  0.8537414E-01
        2   -1    0    0  501    0  0.00000000000E+00  0.00000000000E+00  0.80562237060E+03  0.80562237061E+03  0.25500000920E-02 0.  1.
       -2   -1    0    0    0  501  0.00000000000E+00  0.00000000000E+00 -0.14410687841E+04  0.14410687841E+04  0.25500000920E-02 0. -1.
    10030    2    1    2    0    0  0.00000000000E+00  0.00000000000E+00 -0.63544641348E+03  0.22466911547E+04  0.21549545239E+04 0.  0.
        3    1    3    3  502    0  0.74022079880E+03  0.65897823947E+03 -0.75854434424E+03  0.12480259146E+04  0.10100000352E+00 0. -1.
       -3    1    3    3    0  502 -0.74022079880E+03 -0.65897823947E+03  0.12309793076E+03  0.99866524012E+03  0.10100000352E+00 0.  1.
</event>
<event>
 5   0  0.4143281E-05  0.2200936E+04  0.7818609E-02  0.8518039E-01
       -2   -1    0    0    0  501  0.00000000000E+00  0.00000000000E+00  0.80966329186E+03  0.80966329186E+03  0.25500000920E-02 0. -1.
        2   -1    0    0  501    0  0.00000000000E+00  0.00000000000E+00 -0.14957203464E+04  0.14957203464E+04  0.25500000920E-02 0.  1.
    10030    2    1    2    0    0  0.00000000000E+00  0.00000000000E+00 -0.68605705458E+03  0.23053836383E+04  0.22009360367E+04 0.  0.
        2    1    3    3  502    0  0.10192682609E+04  0.21618889766E+03  0.27872122355E+02  0.10423158266E+04  0.25500000920E-02 0. -1.
       -2    1    3    3    0  502 -0.10192682609E+04 -0.21618889766E+03 -0.71392917693E+03  0.12630678117E+04  0.25500000920E-02 0.  1.
</event>
<event>
 5   0  0.4029532E-05  0.2197910E+04  0.7818609E-02  0.8519299E-01
       -2   -1    0    0    0  501  0.00000000000E+00  0.00000000000E+00  0.14703571080E+04  0.14703571080E+04  0.25500000920E-02 0.  1.
        2   -1    0    0  501    0  0.00000000000E+00  0.00000000000E+00 -0.82136639846E+03  0.82136639846E+03  0.25500000920E-02 0. -1.
    10030    2    1    2    0    0  0.00000000000E+00  0.00000000000E+00  0.64899070959E+03  0.22917235065E+04  0.21979098455E+04 0.  0.
        3    1    3    3  502    0 -0.10629457601E+04  0.12124256678E+03  0.62475779844E+02  0.10716607123E+04  0.10100000352E+00 0. -1.
       -3    1    3    3    0  502  0.10629457601E+04 -0.12124256678E+03  0.58651492975E+03  0.12200627943E+04  0.10100000352E+00 0.  1.
</event>
<event>
 5   0  0.4027923E-05  0.1941102E+04  0.7818609E-02  0.8634663E-01
       -2   -1    0    0    0  501  0.00000000000E+00  0.00000000000E+00  0.12001061771E+04  0.12001061771E+04  0.25500000920E-02 0.  1.
        2   -1    0    0  501    0  0.00000000000E+00  0.00000000000E+00 -0.78490502182E+03  0.78490502182E+03  0.25500000920E-02 0. -1.
    10030    2    1    2    0    0  0.00000000000E+00  0.00000000000E+00  0.41520115532E+03  0.19850111990E+04  0.19411021252E+04 0.  0.
        5    1    3    3  502    0  0.23634967190E+03 -0.12008700023E+02 -0.75493589935E+03  0.79117360826E+03  0.46999998093E+01 0. -1.
       -5    1    3    3    0  502 -0.23634967190E+03  0.12008700023E+02  0.11701370547E+04  0.11938375907E+04  0.46999998093E+01 0.  1.
</event>
<event>
 5   0  0.4132460E-05  0.2177473E+04  0.7818609E-02  0.8527863E-01
        2   -1    0    0  501    0  0.00000000000E+00  0.00000000000E+00  0.73512126842E+03  0.73512126842E+03  0.25500000920E-02 0.  1.
       -2   -1    0    0    0  501  0.00000000000E+00  0.00000000000E+00 -0.16124506096E+04  0.16124506096E+04  0.25500000920E-02 0. -1.
    10030    2    1    2    0    0  0.00000000000E+00  0.00000000000E+00 -0.87732934113E+03  0.23475718780E+04  0.21774726059E+04 0.  0.
        4    1    3    3  502    0  0.10147048884E+03 -0.25074237194E+03 -0.15756455939E+04  0.15986959210E+04  0.12699999809E+01 0. -1.
       -4    1    3    3    0  502 -0.10147048884E+03  0.25074237194E+03  0.69831625278E+03  0.74887595701E+03  0.12699999809E+01 0.  1.
</event>
<event>
 5   0  0.4132460E-05  0.2185752E+04  0.7818609E-02  0.8524382E-01
        2   -1    0    0  501    0  0.00000000000E+00  0.00000000000E+00  0.11691305757E+04  0.11691305757E+04  0.25500000920E-02 0.  1.
       -2   -1    0    0    0  501  0.00000000000E+00  0.00000000000E+00 -0.10215952256E+04  0.10215952257E+04  0.25500000920E-02 0. -1.
    10030    2    1    2    0    0  0.00000000000E+00  0.00000000000E+00  0.14753535005E+03  0.21907258014E+04  0.21857522406E+04 0.  0.
        4    1    3    3  502    0 -0.37239827975E+03  0.76511199031E+03  0.76111219070E+03  0.11416524060E+04  0.12699999809E+01 0.  1.
       -4    1    3    3    0  502  0.37239827975E+03 -0.76511199031E+03 -0.61357684065E+03  0.10490733953E+04  0.12699999809E+01 0. -1.
</event>
<event>
 5   0  0.1788413E-05  0.2203103E+04  0.7818609E-02  0.8517138E-01
        1   -1    0    0  501    0  0.00000000000E+00  0.00000000000E+00  0.84886942625E+03  0.84886942626E+03  0.50400001928E-02 0.  1.
       -1   -1    0    0    0  501  0.00000000000E+00  0.00000000000E+00 -0.14294488343E+04  0.14294488343E+04  0.50400001928E-02 0. -1.
    10030    2    1    2    0    0  0.00000000000E+00  0.00000000000E+00 -0.58057940807E+03  0.22783182606E+04  0.22031027319E+04 0.  0.
        1    1    3    3  502    0  0.38238137344E+03  0.14712533291E+03 -0.13477227607E+04  0.14086227381E+04  0.50400001928E-02 0. -1.
       -1    1    3    3    0  502 -0.38238137344E+03 -0.14712533291E+03  0.76714335267E+03  0.86969552253E+03  0.50400001928E-02 0.  1.
</event>
<event>
 5   0  0.4143281E-05  0.2223748E+04  0.7818609E-02  0.8508608E-01
       -2   -1    0    0    0  501  0.00000000000E+00  0.00000000000E+00  0.12384065151E+04  0.12384065151E+04  0.25500000920E-02 0.  1.
        2   -1    0    0  501    0  0.00000000000E+00  0.00000000000E+00 -0.99827002215E+03  0.99827002216E+03  0.25500000920E-02 0. -1.
    10030    2    1    2    0    0  0.00000000000E+00  0.00000000000E+00  0.24013649293E+03  0.22366765372E+04  0.22237482765E+04 0.  0.
        2    1    3    3  502    0  0.10127150164E+02 -0.11084078405E+04  0.32420371678E+02  0.11089281224E+04  0.25500000920E-02 0. -1.
       -2    1    3    3    0  502 -0.10127150164E+02  0.11084078405E+04  0.20771612126E+03  0.11277484148E+04  0.25500000920E-02 0.  1.
</event>
<event>
 5   0  0.1786228E-05  0.2199542E+04  0.7818609E-02  0.8518619E-01
       -1   -1    0    0    0  501  0.00000000000E+00  0.00000000000E+00  0.53084195161E+03  0.53084195163E+03  0.50400001928E-02 0. -1.
        1   -1    0    0  501    0  0.00000000000E+00  0.00000000000E+00 -0.22784488386E+04  0.22784488386E+04  0.50400001928E-02 0.  1.
    10030    2    1    2    0    0  0.00000000000E+00  0.00000000000E+00 -0.17476068870E+04  0.28092907902E+04  0.21995419779E+04 0.  0.
        5    1    3    3  502    0 -0.25058589035E+03 -0.89901160573E+03 -0.16168524585E+04  0.18668821919E+04  0.46999998093E+01 0.  1.
       -5    1    3    3    0  502  0.25058589035E+03  0.89901160573E+03 -0.13075442844E+03  0.94240859834E+03  0.46999998093E+01 0. -1.
</event>
<event>
 5   0  0.1866935E-05  0.2212994E+04  0.7818609E-02  0.8513039E-01
        1   -1    0    0  501    0  0.00000000000E+00  0.00000000000E+00  0.16968680304E+04  0.16968680304E+04  0.50400001928E-02 0.  1.
       -1   -1    0    0    0  501  0.00000000000E+00  0.00000000000E+00 -0.72152671674E+03  0.72152671676E+03  0.50400001928E-02 0. -1.
    10030    2    1    2    0    0  0.00000000000E+00  0.00000000000E+00  0.97534131370E+03  0.24183947472E+04  0.22129940070E+04 0.  0.
        4    1    3    3  502    0 -0.75045744333E+03  0.21766282878E+03 -0.36847955244E+03  0.86391103405E+03  0.12699999809E+01 0. -1.
       -4    1    3    3    0  502  0.75045744333E+03 -0.21766282878E+03  0.13438208661E+04  0.15544837132E+04  0.12699999809E+01 0.  1.
</event>
<event>
 5   0  0.1786228E-05  0.2185309E+04  0.7818609E-02  0.8524568E-01
       -1   -1    0    0    0  501  0.00000000000E+00  0.00000000000E+00  0.68316542656E+03  0.68316542658E+03  0.50400001928E-02 0.  1.
        1   -1    0    0  501    0  0.00000000000E+00  0.00000000000E+00 -0.17475914366E+04  0.17475914366E+04  0.50400001928E-02 0. -1.
    10030    2    1    2    0    0  0.00000000000E+00  0.00000000000E+00 -0.10644260100E+04  0.24307568632E+04  0.21853091765E+04 0.  0.
        5    1    3    3  502    0  0.10897480747E+04  0.55978119926E+01 -0.44399736631E+03  0.11767488912E+04  0.46999998093E+01 0.  1.
       -5    1    3    3    0  502 -0.10897480747E+04 -0.55978119926E+01 -0.62042864373E+03  0.12540079719E+04  0.46999998093E+01 0. -1.
</event>
<event>
 5   0  0.3963414E-05  0.2202621E+04  0.7818609E-02  0.8517338E-01
       -2   -1    0    0    0  501  0.00000000000E+00  0.00000000000E+00  0.10044909688E+04  0.10044909688E+04  0.25500000920E-02 0. -1.
        2   -1    0    0  501    0  0.00000000000E+00  0.00000000000E+00 -0.12074617761E+04  0.12074617761E+04  0.25500000920E-02 0.  1.
    10030    2    1    2    0    0  0.00000000000E+00  0.00000000000E+00 -0.20297080726E+03  0.22119527449E+04  0.22026206657E+04 0.  0.
        1    1    3    3  502    0  0.74480980488E+03 -0.61752980583E+01  0.71318815556E+03  0.10312211814E+04  0.50400001928E-02 0. -1.
       -1    1    3    3    0  502 -0.74480980488E+03  0.61752980583E+01 -0.91615896282E+03  0.11807315635E+04  0.50400001928E-02 0.  1.
</event>
<event>
 5   0  0.4029532E-05  0.2181235E+04  0.7818609E-02  0.8526279E-01
       -2   -1    0    0    0  501  0.00000000000E+00  0.00000000000E+00  0.10291778370E+04  0.10291778370E+04  0.25500000920E-02 0. -1.
        2   -1    0    0  501    0  0.00000000000E+00  0.00000000000E+00 -0.11557246345E+04  0.11557246345E+04  0.25500000920E-02 0.  1.
    10030    2    1    2    0    0  0.00000000000E+00  0.00000000000E+00 -0.12654679754E+03  0.21849024715E+04  0.21812346774E+04 0.  0.
        3    1    3    3  502    0  0.48695591012E+03  0.91067703884E+03  0.28801195781E+03  0.10721052306E+04  0.10100000352E+00 0. -1.
       -3    1    3    3    0  502 -0.48695591012E+03 -0.91067703884E+03 -0.41455875535E+03  0.11127972409E+04  0.10100000352E+00 0.  1.
</event>
<event>
 5   0  0.4027923E-05  0.2198117E+04  0.7818609E-02  0.8519212E-01
       -2   -1    0    0    0  501  0.00000000000E+00  0.00000000000E+00  0.81780672123E+03  0.81780672123E+03  0.25500000920E-02 0.  1.
        2   -1    0    0  501    0  0.00000000000E+00  0.00000000000E+00 -0.14770356650E+04  0.14770356650E+04  0.25500000920E-02 0. -1.
    10030    2    1    2    0    0  0.00000000000E+00  0.00000000000E+00 -0.65922894376E+03  0.22948423862E+04  0.21981170982E+04 0.  0.
        5    1    3    3  502    0  0.10458887049E+04  0.23232028351E+03 -0.73776668458E+02  0.10739278299E+04  0.46999998093E+01 0.  1.
       -5    1    3    3    0  502 -0.10458887049E+04 -0.23232028351E+03 -0.58545227530E+03  0.12209145563E+04  0.46999998093E+01 0. -1.
</event>
<event>
 5   0  0.1786228E-05  0.2187704E+04  0.7818609E-02  0.8523563E-01
        1   -1    0    0  501    0  0.00000000000E+00  0.00000000000E+00  0.11739202255E+04  0.11739202255E+04  0.50400001928E-02 0. -1.
       -1   -1    0    0    0  501  0.00000000000E+00  0.00000000000E+00 -0.10192452811E+04  0.10192452811E+04  0.50400001928E-02 0.  1.
    10030    2    1    2    0    0  0.00000000000E+00  0.00000000000E+00  0.15467494434E+03  0.21931655066E+04  0.21877044135E+04 0.  0.
        5    1    3    3  502    0 -0.91802475509E+03 -0.49654509895E+03  0.40551389109E+03  0.11197276866E+04  0.46999998093E+01 0.  1.
       -5    1    3    3    0  502  0.91802475509E+03  0.49654509895E+03 -0.25083894675E+03  0.10734378200E+04  0.46999998093E+01 0. -1.
</event>
<event>
 5   0  0.4029532E-05  0.2212533E+04  0.7818609E-02  0.8513229E-01
        2   -1    0    0  501    0  0.00000000000E+00  0.00000000000E+00  0.17438791872E+04  0.17438791872E+04  0.25500000920E-02 0. -1.
       -2   -1    0    0    0  501  0.00000000000E+00  0.00000000000E+00 -0.70178375537E+03  0.70178375537E+03  0.25500000920E-02 0.  1.
    10030    2    1    2    0    0  0.00000000000E+00  0.00000000000E+00  0.10420954318E+04  0.24456629425E+04  0.22125334663E+04 0.  0.
        3    1    3    3  502    0  0.79390963644E+03  0.46861742463E+03 -0.15488372593E+03  0.93481751174E+03  0.10100000352E+00 0.  1.
       -3    1    3    3    0  502 -0.79390963644E+03 -0.46861742463E+03  0.11969791577E+04  0.15108454308E+04  0.10100000352E+00 0. -1.
</event>
<event>
 5   0  0.4132460E-05  0.2194914E+04  0.7818609E-02  0.8520548E-01
       -2   -1    0    0    0  501  0.00000000000E+00  0.00000000000E+00  0.18644420078E+04  0.18644420078E+04  0.25500000920E-02 0. -1.
        2   -1    0    0  501    0  0.00000000000E+00  0.00000000000E+00 -0.64599063428E+03  0.64599063429E+03  0.25500000920E-02 0.  1.
    10030    2    1    2    0    0  0.00000000000E+00  0.00000000000E+00  0.12184513735E+04  0.25104326421E+04  0.21949141899E+04 0.  0.
        4    1    3    3  502    0 -0.37442206285E+03 -0.88972825646E+03  0.12058805449E+02  0.96537830884E+03  0.12699999809E+01 0.  1.
       -4    1    3    3    0  502  0.37442206285E+03  0.88972825646E+03  0.12063925681E+04  0.15450543332E+04  0.12699999809E+01 0. -1.
</event>
<event>
 5   0  0.4027923E-05  0.2228992E+04  0.7818609E-02  0.8506457E-01
        2   -1    0    0  501    0  0.00000000000E+00  0.00000000000E+00  0.13332363978E+04  0.13332363978E+04  0.25500000920E-02 0. -1.
       -2   -1    0    0    0  501  0.00000000000E+00  0.00000000000E+00 -0.93164413110E+03  0.93164413111E+03  0.25500000920E-02 0.  1.
    10030    2    1    2    0    0  0.00000000000E+00  0.00000000000E+00  0.40159226667E+03  0.22648805289E+04  0.22289924768E+04 0.  0.
        5    1    3    3  502    0  0.19121631599E+03  0.22455242466E+03  0.12928524638E+04  0.13260758101E+04  0.46999998093E+01 0. -1.
       -5    1    3    3    0  502 -0.19121631599E+03 -0.22455242466E+03 -0.89126019717E+03  0.93880471877E+03  0.46999998093E+01 0.  1.
</event>
<event>
 5   0  0.1786228E-05  0.2213421E+04  0.7818609E-02  0.8512863E-01
       -1   -1    0    0    0  501  0.00000000000E+00  0.00000000000E+00  0.61189783226E+03  0.61189783228E+03  0.50400001928E-02 0.  1.
        1   -1    0    0  501    0  0.00000000000E+00  0.00000000000E+00 -0.20016550880E+04  0.20016550880E+04  0.50400001928E-02 0. -1.
    10030    2    1    2    0    0  0.00000000000E+00  0.00000000000E+00 -0.13897572558E+04  0.26135529203E+04  0.22134212517E+04 0.  0.
        5    1    3    3  502    0  0.90704948044E+03  0.44033901699E+03 -0.15616929260E+03  0.10203176700E+04  0.46999998093E+01 0. -1.
       -5    1    3    3    0  502 -0.90704948044E+03 -0.44033901699E+03 -0.12335879632E+04  0.15932352503E+04  0.46999998093E+01 0.  1.
</event>
<event>
 5   0  0.4029532E-05  0.2127977E+04  0.7818609E-02  0.8549018E-01
       -2   -1    0    0    0  501  0.00000000000E+00  0.00000000000E+00  0.14024013254E+04  0.14024013254E+04  0.25500000920E-02 0. -1.
        2   -1    0    0  501    0  0.00000000000E+00  0.00000000000E+00 -0.80723799928E+03  0.80723799928E+03  0.25500000920E-02 0.  1.
    10030    2    1    2    0    0  0.00000000000E+00  0.00000000000E+00  0.59516332616E+03  0.22096393247E+04  0.21279771053E+04 0.  0.
        3    1    3    3  502    0 -0.98262459742E+03 -0.15228659227E+02 -0.12585231225E+03  0.99076830097E+03  0.10100000352E+00 0.  1.
       -3    1    3    3    0  502  0.98262459742E+03  0.15228659227E+02  0.72101563841E+03  0.12188710238E+04  0.10100000352E+00 0. -1.
</event>
<event>
 5   0  0.3963414E-05  0.2210585E+04  0.7818609E-02  0.8514035E-01
       -2   -1    0    0    0  501  0.00000000000E+00  0.00000000000E+00  0.78479153949E+03  0.78479153950E+03  0.25500000920E-02 0. -1.
        2   -1    0    0  501    0  0.00000000000E+00  0.00000000000E+00 -0.15566830434E+04  0.15566830434E+04  0.25500000920E-02 0.  1.
    10030    2    1    2    0    0  0.00000000000E+00  0.00000000000E+00 -0.77189150390E+03  0.23414745829E+04  0.22105851552E+04 0.  0.
        1    1    3    3  502    0  0.97726241775E+02  0.21371037497E+03  0.75802547706E+03  0.79361525099E+03  0.50400001928E-02 0. -1.
       -1    1    3    3    0  502 -0.97726241775E+02 -0.21371037497E+03 -0.15299169810E+04  0.15478593319E+04  0.50400001928E-02 0.  1.
</event>
<event>
 5   0  0.4132460E-05  0.2199887E+04  0.7818609E-02  0.8518475E-01
       -2   -1    0    0    0  501  0.00000000000E+00  0.00000000000E+00  0.61582690286E+03  0.61582690286E+03  0.25500000920E-02 0.  1.
        2   -1    0    0  501    0  0.00000000000E+00  0.00000000000E+00 -0.19646363453E+04  0.19646363453E+04  0.25500000920E-02 0. -1.
    10030    2    1    2    0    0  0.00000000000E+00  0.00000000000E+00 -0.13488094424E+04  0.25804632481E+04  0.21998871933E+04 0.  0.
        4    1    3    3  502    0 -0.78661212567E+03  0.10712546161E+02  0.22735605447E+03  0.81888081141E+03  0.12699999809E+01 0.  1.
       -4    1    3    3    0  502  0.78661212567E+03 -0.10712546161E+02 -0.15761654969E+04  0.17615824367E+04  0.12699999809E+01 0. -1.
</event>
<event>
 5   0  0.3963414E-05  0.2214532E+04  0.7818609E-02  0.8512404E-01
       -2   -1    0    0    0  501  0.00000000000E+00  0.00000000000E+00  0.79130917060E+03  0.79130917060E+03  0.25500000920E-02 0.  1.
        2   -1    0    0  501    0  0.00000000000E+00  0.00000000000E+00 -0.15493799091E+04  0.15493799091E+04  0.25500000920E-02 0. -1.
    10030    2    1    2    0    0  0.00000000000E+00  0.00000000000E+00 -0.75807073851E+03  0.23406890797E+04  0.22145324841E+04 0.  0.
        1    1    3    3  502    0 -0.82465975486E+03 -0.68634905201E+03 -0.89766300175E+02  0.10766599840E+04  0.50400001928E-02 0.  1.
       -1    1    3    3    0  502  0.82465975486E+03  0.68634905201E+03 -0.66830443833E+03  0.12640290957E+04  0.50400001928E-02 0. -1.
</event>
<event>
 5   0  0.4029532E-05  0.2197389E+04  0.7818609E-02  0.8519516E-01
        2   -1    0    0  501    0  0.00000000000E+00  0.00000000000E+00  0.47121533862E+03  0.47121533863E+03  0.25500000920E-02 0. -1.
       -2   -1    0    0    0  501  0.00000000000E+00  0.00000000000E+00 -0.25617356075E+04  0.25617356075E+04  0.25500000920E-02 0.  1.
    10030    2    1    2    0    0  0.00000000000E+00  0.00000000000E+00 -0.20905202689E+04  0.30329509461E+04  0.21973885517E+04 0.  0.
        3    1    3    3  502    0 -0.10273699934E+04  0.23055298140E+03 -0.61210418757E+03  0.12179143349E+04  0.10100000352E+00 0. -1.
       -3    1    3    3    0  502  0.10273699934E+04 -0.23055298140E+03 -0.14784160813E+04  0.18150366112E+04  0.10100000352E+00 0.  1.
</event>
<event>
 5   0  0.4143281E-05  0.2202236E+04  0.7818609E-02  0.8517498E-01
       -2   -1    0    0    0  501  0.00000000000E+00  0.00000000000E+00  0.73204705759E+03  0.73204705759E+03  0.25500000920E-02 0.  1.
        2   -1    0    0  501    0  0.00000000000E+00  0.00000000000E+00 -0.16562606013E+04  0.16562606013E+04  0.25500000920E-02 0. -1.
    10030    2    1    2    0    0  0.00000000000E+00  0.00000000000E+00 -0.92421354367E+03  0.23883076589E+04  0.22022358636E+04 0.  0.
        2    1    3    3  502    0  0.33969159871E+03  0.60729370677E+03  0.46338180285E+03  0.83601359064E+03  0.25500000920E-02 0.  1.
       -2    1    3    3    0  502 -0.33969159871E+03 -0.60729370677E+03 -0.13875953465E+04  0.15522940682E+04  0.25500000920E-02 0. -1.
</event>
<event>
 5   0  0.3963414E-05  0.2199194E+04  0.7818609E-02  0.8518764E-01
       -2   -1    0    0    0  501  0.00000000000E+00  0.00000000000E+00  0.98926124322E+03  0.98926124322E+03  0.25500000920E-02 0. -1.
        2   -1    0    0  501    0  0.00000000000E+00  0.00000000000E+00 -0.12222391268E+04  0.12222391268E+04  0.25500000920E-02 0.  1.
    10030    2    1    2    0    0  0.00000000000E+00  0.00000000000E+00 -0.23297788355E+03  0.22115003700E+04  0.21991942143E+04 0.  0.
        1    1    3    3  502    0  0.14028710901E+03  0.98127902934E+03 -0.59509842762E+03  0.11561708978E+04  0.50400001928E-02 0.  1.
       -1    1    3    3    0  502 -0.14028710901E+03 -0.98127902934E+03  0.36212054407E+03  0.10553294722E+04  0.50400001928E-02 0. -1.
</event>
<event>
 5   0  0.4143281E-05  0.2138687E+04  0.7818609E-02  0.8544390E-01
       -2   -1    0    0    0  501  0.00000000000E+00  0.00000000000E+00  0.77039218601E+03  0.77039218602E+03  0.25500000920E-02 0.  1.
        2   -1    0    0  501    0  0.00000000000E+00  0.00000000000E+00 -0.14843033463E+04  0.14843033463E+04  0.25500000920E-02 0. -1.
    10030    2    1    2    0    0  0.00000000000E+00  0.00000000000E+00 -0.71391116025E+03  0.22546955323E+04  0.21386871671E+04 0.  0.
        2    1    3    3  502    0 -0.53732502645E+03  0.63697518338E+03  0.34949733066E+03  0.90366141471E+03  0.25500000920E-02 0.  1.
       -2    1    3    3    0  502  0.53732502645E+03 -0.63697518338E+03 -0.10634084909E+04  0.13510341176E+04  0.25500000920E-02 0. -1.
</event>
<event>
 5   0  0.1788413E-05  0.2200983E+04  0.7818609E-02  0.8518019E-01
        1   -1    0    0  501    0  0.00000000000E+00  0.00000000000E+00  0.98941775774E+03  0.98941775775E+03  0.50400001928E-02 0. -1.
       -1   -1    0    0    0  501  0.00000000000E+00  0.00000000000E+00 -0.12240341994E+04  0.12240341994E+04  0.50400001928E-02 0.  1.
    10030    2    1    2    0    0  0.00000000000E+00  0.00000000000E+00 -0.23461644166E+03  0.22134519572E+04  0.22009826651E+04 0.  0.
        1    1    3    3  502    0 -0.25333863264E+03  0.16163765665E+03 -0.11819720449E+04  0.12195757909E+04  0.50400001928E-02 0.  1.
       -1    1    3    3    0  502  0.25333863264E+03 -0.16163765665E+03  0.94735560323E+03  0.99387616625E+03  0.50400001928E-02 0. -1.
</event>
<event>
 5   0  0.1815681E-05  0.2283518E+04  0.7818609E-02  0.8484448E-01
        1   -1    0    0  501    0  0.00000000000E+00  0.00000000000E+00  0.90330796120E+03  0.90330796121E+03  0.50400001928E-02 0.  1.
       -1   -1    0    0    0  501  0.00000000000E+00  0.00000000000E+00 -0.14431554892E+04  0.14431554892E+04  0.50400001928E-02 0. -1.
    10030    2    1    2    0    0  0.00000000000E+00  0.00000000000E+00 -0.53984752799E+03  0.23464634504E+04  0.22835182002E+04 0.  0.
        2    1    3    3  502    0 -0.22288814781E+03  0.58358463024E+03 -0.12519683123E+04  0.13991693258E+04  0.25500000920E-02 0. -1.
       -2    1    3    3    0  502  0.22288814781E+03 -0.58358463024E+03  0.71212078434E+03  0.94729412464E+03  0.25500000920E-02 0.  1.
</event>
<event>
 5   0  0.1866935E-05  0.2184965E+04  0.7818609E-02  0.8524712E-01
       -1   -1    0    0    0  501  0.00000000000E+00  0.00000000000E+00  0.85122455701E+03  0.85122455703E+03  0.50400001928E-02 0.  1.
        1   -1    0    0  501    0  0.00000000000E+00  0.00000000000E+00 -0.14021189151E+04  0.14021189151E+04  0.50400001928E-02 0. -1.
    10030    2    1    2    0    0  0.00000000000E+00  0.00000000000E+00 -0.55089435804E+03  0.22533434721E+04  0.21849650362E+04 0.  0.
        4    1    3    3  502    0 -0.59615270889E+03  0.88241328928E+03 -0.52693343235E+03  0.11881547544E+04  0.12699999809E+01 0. -1.
       -4    1    3    3    0  502  0.59615270889E+03 -0.88241328928E+03 -0.23960925696E+02  0.10651887177E+04  0.12699999809E+01 0.  1.
</event>
<event>
 5   0  0.1786228E-05  0.2193914E+04  0.7818609E-02  0.8520965E-01
        1   -1    0    0  501    0  0.00000000000E+00  0.00000000000E+00  0.65097344112E+03  0.65097344114E+03  0.50400001928E-02 0.  1.
       -1   -1    0    0    0  501  0.00000000000E+00  0.00000000000E+00 -0.18484858281E+04  0.18484858281E+04  0.50400001928E-02 0. -1.
    10030    2    1    2    0    0  0.00000000000E+00  0.00000000000E+00 -0.11975123869E+04  0.24994592692E+04  0.21939144745E+04 0.  0.
        5    1    3    3  502    0 -0.98287733624E+03 -0.14588530353E+03 -0.11281949811E+04  0.15033883016E+04  0.46999998093E+01 0. -1.
       -5    1    3    3    0  502  0.98287733624E+03  0.14588530353E+03 -0.69317405846E+02  0.99607096767E+03  0.46999998093E+01 0.  1.
</event>
<event>
 5   0  0.4029532E-05  0.2195907E+04  0.7818609E-02  0.8520134E-01
       -2   -1    0    0    0  501  0.00000000000E+00  0.00000000000E+00  0.59877673172E+03  0.59877673173E+03  0.25500000920E-02 0. -1.
        2   -1    0    0  501    0  0.00000000000E+00  0.00000000000E+00 -0.20132743843E+04  0.20132743843E+04  0.25500000920E-02 0.  1.
    10030    2    1    2    0    0  0.00000000000E+00  0.00000000000E+00 -0.14144976526E+04  0.26120511161E+04  0.21959069706E+04 0.  0.
        3    1    3    3  502    0  0.10534691186E+03  0.94586164901E+03 -0.13584977987E+04  0.16586948213E+04  0.10100000352E+00 0.  1.
       -3    1    3    3    0  502 -0.10534691186E+03 -0.94586164901E+03 -0.55999853875E+02  0.95335629475E+03  0.10100000352E+00 0. -1.
</event>
<event>
 5   0  0.1433375E-05  0.2238947E+04  0.7818609E-02  0.8502390E-01
       -3   -1    0    0    0  501  0.00000000000E+00  0.00000000000E+00  0.12111384449E+04  0.12111384491E+04  0.10100000352E+00 0.  1.
        3   -1    0    0  501    0  0.00000000000E+00  0.00000000000E+00 -0.10347461633E+04  0.10347461682E+04  0.10100000352E+00 0. -1.
    10030    2    1    2    0    0  0.00000000000E+00  0.00000000000E+00  0.17639228163E+03  0.22458846174E+04  0.22389469573E+04 0.  0.
        5    1    3    3  502    0  0.74634768231E+03  0.77553176633E+03 -0.22051452363E+03  0.10986961038E+04  0.46999998093E+01 0.  1.
       -5    1    3    3    0  502 -0.74634768231E+03 -0.77553176633E+03  0.39690680527E+03  0.11471885135E+04  0.46999998093E+01 0. -1.
</event>
<event>
 5   0  0.4029532E-05  0.2202295E+04  0.7818609E-02  0.8517473E-01
        2   -1    0    0  501    0  0.00000000000E+00  0.00000000000E+00  0.59933050867E+03  0.59933050868E+03  0.25500000920E-02 0. -1.
       -2   -1    0    0    0  501  0.00000000000E+00  0.00000000000E+00 -0.20231343449E+04  0.20231343449E+04  0.25500000920E-02 0.  1.
    10030    2    1    2    0    0  0.00000000000E+00  0.00000000000E+00 -0.14238038362E+04  0.26224648536E+04  0.22022952900E+04 0.  0.
        3    1    3    3  502    0  0.10832101843E+04  0.17492236902E+03 -0.82222811839E+03  0.13711313677E+04  0.10100000352E+00 0.  1.
       -3    1    3    3    0  502 -0.10832101843E+04 -0.17492236902E+03 -0.60157571784E+03  0.12513334859E+04  0.10100000352E+00 0. -1.
</event>
<event>
 5   0  0.1884407E-05  0.2203703E+04  0.7818609E-02  0.8516889E-01
       -1   -1    0    0    0  501  0.00000000000E+00  0.00000000000E+00  0.60043291242E+03  0.60043291244E+03  0.50400001928E-02 0. -1.
        1   -1    0    0  501    0  0.00000000000E+00  0.00000000000E+00 -0.20220016511E+04  0.20220016511E+04  0.50400001928E-02 0.  1.
    10030    2    1    2    0    0  0.00000000000E+00  0.00000000000E+00 -0.14215687387E+04  0.26224345636E+04  0.22037026481E+04 0.  0.
        3    1    3    3  502    0  0.88486047824E+03 -0.43125136145E+03 -0.12999555673E+04  0.16305950724E+04  0.10100000352E+00 0. -1.
       -3    1    3    3    0  502 -0.88486047824E+03  0.43125136145E+03 -0.12161317135E+03  0.99183949122E+03  0.10100000352E+00 0.  1.
</event>
<event>
 5   0  0.1866935E-05  0.2194077E+04  0.7818609E-02  0.8520898E-01
        1   -1    0    0  501    0  0.00000000000E+00  0.00000000000E+00  0.11085344004E+04  0.11085344004E+04  0.50400001928E-02 0. -1.
       -1   -1    0    0    0  501  0.00000000000E+00  0.00000000000E+00 -0.10856613689E+04  0.10856613689E+04  0.50400001928E-02 0.  1.
    10030    2    1    2    0    0  0.00000000000E+00  0.00000000000E+00  0.22873031527E+02  0.21941957693E+04  0.21940765479E+04 0.  0.
        4    1    3    3  502    0  0.75450825464E+03 -0.79427721546E+03  0.69166252447E+02  0.10976996787E+04  0.12699999809E+01 0.  1.
       -4    1    3    3    0  502 -0.75450825464E+03  0.79427721546E+03 -0.46293220920E+02  0.10964960905E+04  0.12699999809E+01 0. -1.
</event>
<event>
 5   0  0.1786228E-05  0.2255591E+04  0.7818609E-02  0.8495640E-01
       -1   -1    0    0    0  501  0.00000000000E+00  0.00000000000E+00  0.11529901825E+04  0.11529901825E+04  0.50400001928E-02 0. -1.
        1   -1    0    0  501    0  0.00000000000E+00  0.00000000000E+00 -0.11031516093E+04  0.11031516093E+04  0.50400001928E-02 0.  1.
    10030    2    1    2    0    0  0.00000000000E+00  0.00000000000E+00  0.49838573147E+02  0.22561417918E+04  0.22555912532E+04 0.  0.
        5    1    3    3  502    0  0.89488851687E+03  0.67988336022E+03 -0.69093250588E+02  0.11259941423E+04  0.46999998093E+01 0. -1.
       -5    1    3    3    0  502 -0.89488851687E+03 -0.67988336022E+03  0.11893182374E+03  0.11301476496E+04  0.46999998093E+01 0.  1.
</event>
<event>
 5   0  0.4132460E-05  0.2195132E+04  0.7818609E-02  0.8520457E-01
        2   -1    0    0  501    0  0.00000000000E+00  0.00000000000E+00  0.26841371050E+04  0.26841371050E+04  0.25500000920E-02 0. -1.
       -2   -1    0    0    0  501  0.00000000000E+00  0.00000000000E+00 -0.44880373484E+03  0.44880373485E+03  0.25500000920E-02 0.  1.
    10030    2    1    2    0    0  0.00000000000E+00  0.00000000000E+00  0.22353333702E+04  0.31329408399E+04  0.21951316658E+04 0.  0.
        4    1    3    3  502    0 -0.36095741988E+03 -0.67769660592E+03 -0.16670929821E+01  0.76783288594E+03  0.12699999809E+01 0.  1.
       -4    1    3    3    0  502  0.36095741988E+03  0.67769660592E+03  0.22370004632E+04  0.23651079539E+04  0.12699999809E+01 0. -1.
</event>
<event>
 5   0  0.4132460E-05  0.2199659E+04  0.7818609E-02  0.8518570E-01
        2   -1    0    0  501    0  0.00000000000E+00  0.00000000000E+00  0.17376630145E+04  0.17376630145E+04  0.25500000920E-02 0. -1.
       -2   -1    0    0    0  501  0.00000000000E+00  0.00000000000E+00 -0.69612169392E+03  0.69612169392E+03  0.25500000920E-02 0.  1.
    10030    2    1    2    0    0  0.00000000000E+00  0.00000000000E+00  0.10415413205E+04  0.24337847084E+04  0.21996589927E+04 0.  0.
        4    1    3    3  502    0 -0.10283523104E+04  0.32387342160E+03  0.28033789206E+03  0.11139988394E+04  0.12699999809E+01 0. -1.
       -4    1    3    3    0  502  0.10283523104E+04 -0.32387342160E+03  0.76120342848E+03  0.13197858690E+04  0.12699999809E+01 0.  1.
</event>
<event>
 5   0  0.4029532E-05  0.2210019E+04  0.7818609E-02  0.8514269E-01
       -2   -1    0    0    0  501  0.00000000000E+00  0.00000000000E+00  0.12533948400E+04  0.12533948400E+04  0.25500000920E-02 0. -1.
        2   -1    0    0  501    0  0.00000000000E+00  0.00000000000E+00 -0.97419141573E+03  0.97419141573E+03  0.25500000920E-02 0.  1.
    10030    2    1    2    0    0  0.00000000000E+00  0.00000000000E+00  0.27920342429E+03  0.22275862558E+04  0.22100194512E+04 0.  0.
        3    1    3    3  502    0 -0.49858470231E+03 -0.98178086771E+03  0.46312773391E+02  0.11021003860E+04  0.10100000352E+00 0.  1.
       -3    1    3    3    0  502  0.49858470231E+03  0.98178086771E+03  0.23289065090E+03  0.11254858698E+04  0.10100000352E+00 0. -1.
</event>
<event>
 5   0  0.1788413E-05  0.2200733E+04  0.7818609E-02  0.8518123E-01
       -1   -1    0    0    0  501  0.00000000000E+00  0.00000000000E+00  0.85842948352E+03  0.85842948354E+03  0.50400001928E-02 0.  1.
        1   -1    0    0  501    0  0.00000000000E+00  0.00000000000E+00 -0.14104902779E+04  0.14104902779E+04  0.50400001928E-02 0. -1.
    10030    2    1    2    0    0  0.00000000000E+00  0.00000000000E+00 -0.55206079434E+03  0.22689197614E+04  0.22007330058E+04 0.  0.
        1    1    3    3  502    0  0.46950093109E+03  0.44214857670E+03  0.64315380734E+03  0.91080915020E+03  0.50400001928E-02 0.  1.
       -1    1    3    3    0  502 -0.46950093109E+03 -0.44214857670E+03 -0.11952146017E+04  0.13581106112E+04  0.50400001928E-02 0. -1.
</event>
<event>
 5   0  0.4132460E-05  0.2211528E+04  0.7818609E-02  0.8513645E-01
       -2   -1    0    0    0  501  0.00000000000E+00  0.00000000000E+00  0.91902168974E+03  0.91902168974E+03  0.25500000920E-02 0. -1.
        2   -1    0    0  501    0  0.00000000000E+00  0.00000000000E+00 -0.13304521441E+04  0.13304521441E+04  0.25500000920E-02 0.  1.
    10030    2    1    2    0    0  0.00000000000E+00  0.00000000000E+00 -0.41143045436E+03  0.22494738338E+04  0.22115283200E+04 0.  0.
        4    1    3    3  502    0 -0.38105204441E+03 -0.10380150086E+04 -0.21189784080E+03  0.11258677216E+04  0.12699999809E+01 0.  1.
       -4    1    3    3    0  502  0.38105204441E+03  0.10380150086E+04 -0.19953261356E+03  0.11236061122E+04  0.12699999809E+01 0. -1.
</event>
<event>
 5   0  0.1866935E-05  0.2203868E+04  0.7818609E-02  0.8516820E-01
       -1   -1    0    0    0  501  0.00000000000E+00  0.00000000000E+00  0.89409796383E+03  0.89409796384E+03  0.50400001928E-02 0. -1.
        1   -1    0    0  501    0  0.00000000000E+00  0.00000000000E+00 -0.13580822276E+04  0.13580822276E+04  0.50400001928E-02 0.  1.
    10030    2    1    2    0    0  0.00000000000E+00  0.00000000000E+00 -0.46398426373E+03  0.22521801914E+04  0.22038680127E+04 0.  0.
        4    1    3    3  502    0  0.69794327304E+03 -0.17618321187E+03 -0.10846027775E+04  0.13017411933E+04  0.12699999809E+01 0.  1.
       -4    1    3    3    0  502 -0.69794327304E+03  0.17618321187E+03  0.62061851378E+03  0.95043899808E+03  0.12699999809E+01 0. -1.
</event>
<event>
 5   0  0.3963414E-05  0.2129617E+04  0.7818609E-02  0.8548308E-01
       -2   -1    0    0    0  501  0.00000000000E+00  0.00000000000E+00  0.50024929260E+03  0.50024929261E+03  0.25500000920E-02 0.  1.
        2   -1    0    0  501    0  0.00000000000E+00  0.00000000000E+00 -0.22665051838E+04  0.22665051838E+04  0.25500000920E-02 0. -1.
    10030    2    1    2    0    0  0.00000000000E+00  0.00000000000E+00 -0.17662558912E+04  0.27667544765E+04  0.21296174444E+04 0.  0.
        1    1    3    3  502    0 -0.67799093288E+03  0.10389999599E+03  0.17500593841E+03  0.70787992819E+03  0.50400001928E-02 0.  1.
       -1    1    3    3    0  502  0.67799093288E+03 -0.10389999599E+03 -0.19412618296E+04  0.20588745483E+04  0.50400001928E-02 0. -1.
</event>
<event>
 5   0  0.4027923E-05  0.2205508E+04  0.7818609E-02  0.8516139E-01
       -2   -1    0    0    0  501  0.00000000000E+00  0.00000000000E+00  0.68073926697E+03  0.68073926698E+03  0.25500000920E-02 0. -1.
        2   -1    0    0  501    0  0.00000000000E+00  0.00000000000E+00 -0.17863913238E+04  0.17863913238E+04  0.25500000920E-02 0.  1.
    10030    2    1    2    0    0  0.00000000000E+00  0.00000000000E+00 -0.11056520568E+04  0.24671305907E+04  0.22055083045E+04 0.  0.
        5    1    3    3  502    0 -0.18915369954E+03  0.57891420534E+03 -0.15811823453E+04  0.16944262977E+04  0.46999998093E+01 0.  1.
       -5    1    3    3    0  502  0.18915369954E+03 -0.57891420534E+03  0.47553028852E+03  0.77270429305E+03  0.46999998093E+01 0. -1.
</event>
<event>
 5   0  0.1788413E-05  0.2024622E+04  0.7818609E-02  0.8595195E-01
        1   -1    0    0  501    0  0.00000000000E+00  0.00000000000E+00  0.19308100368E+04  0.19308100368E+04  0.50400001928E-02 0. -1.
       -1   -1    0    0    0  501  0.00000000000E+00  0.00000000000E+00 -0.53074779082E+03  0.53074779084E+03  0.50400001928E-02 0.  1.
    10030    2    1    2    0    0  0.00000000000E+00  0.00000000000E+00  0.14000622460E+04  0.24615578277E+04  0.20246216057E+04 0.  0.
        1    1    3    3  502    0  0.41262177111E+02  0.95529937789E+03  0.29592483190E+03  0.10009350503E+04  0.50400001928E-02 0.  1.
       -1    1    3    3    0  502 -0.41262177111E+02 -0.95529937789E+03  0.11041374141E+04  0.14606227774E+04  0.50400001928E-02 0. -1.
</event>
<event>
 5   0  0.1788413E-05  0.2194263E+04  0.7818609E-02  0.8520820E-01
       -1   -1    0    0    0  501  0.00000000000E+00  0.00000000000E+00  0.10013840363E+04  0.10013840363E+04  0.50400001928E-02 0.  1.
        1   -1    0    0  501    0  0.00000000000E+00  0.00000000000E+00 -0.12020343931E+04  0.12020343931E+04  0.50400001928E-02 0. -1.
    10030    2    1    2    0    0  0.00000000000E+00  0.00000000000E+00 -0.20065035681E+03  0.22034184295E+04  0.21942634777E+04 0.  0.
        1    1    3    3  502    0 -0.90087041522E+03  0.15052353731E+03  0.51005395897E+03  0.10461261307E+04  0.50400001928E-02 0.  1.
       -1    1    3    3    0  502  0.90087041522E+03 -0.15052353731E+03 -0.71070431578E+03  0.11572922988E+04  0.50400001928E-02 0. -1.
</event>
<event>
 5   0  0.1866935E-05  0.2144052E+04  0.7818609E-02  0.8542083E-01
       -1   -1    0    0    0  501  0.00000000000E+00  0.00000000000E+00  0.12917045151E+04  0.12917045152E+04  0.50400001928E-02 0.  1.
        1   -1    0    0  501    0  0.00000000000E+00  0.00000000000E+00 -0.88970770038E+03  0.88970770039E+03  0.50400001928E-02 0. -1.
    10030    2    1    2    0    0  0.00000000000E+00  0.00000000000E+00  0.40199681477E+03  0.21814122155E+04  0.21440517286E+04 0.  0.
        4    1    3    3  502    0 -0.48690791893E+03  0.90520138136E+03  0.51088577221E+03  0.11478130281E+04  0.12699999809E+01 0.  1.
       -4    1    3    3    0  502  0.48690791893E+03 -0.90520138136E+03 -0.10888895744E+03  0.10335991874E+04  0.12699999809E+01 0. -1.
</event>
<event>
 5   0  0.4132460E-05  0.2197848E+04  0.7818609E-02  0.8519324E-01
       -2   -1    0    0    0  501  0.00000000000E+00  0.00000000000E+00  0.73826008377E+03  0.73826008378E+03  0.25500000920E-02 0. -1.
        2   -1    0    0  501    0  0.00000000000E+00  0.00000000000E+00 -0.16357836000E+04  0.16357836000E+04  0.25500000920E-02 0.  1.
    10030    2    1    2    0    0  0.00000000000E+00  0.00000000000E+00 -0.89752351624E+03  0.23740436838E+04  0.21978477996E+04 0.  0.
        4    1    3    3  502    0  0.56393945429E+02  0.91126217603E+03 -0.11093908846E+04  0.14367772194E+04  0.12699999809E+01 0. -1.
       -4    1    3    3    0  502 -0.56393945429E+02 -0.91126217603E+03  0.21186736837E+03  0.93726646436E+03  0.12699999809E+01 0.  1.
</event>
<event>
 5   0  0.1788413E-05  0.2196571E+04  0.7818609E-02  0.8519857E-01
       -1   -1    0    0    0  501  0.00000000000E+00  0.00000000000E+00  0.14527557654E+04  0.14527557654E+04  0.50400001928E-02 0.  1.
        1   -1    0    0  501    0  0.00000000000E+00  0.00000000000E+00 -0.83030526436E+03  0.83030526438E+03  0.50400001928E-02 0. -1.
    10030    2    1    2    0    0  0.00000000000E+00  0.00000000000E+00  0.62245050105E+03  0.22830610298E+04  0.21965707454E+04 0.  0.
        1    1    3    3  502    0 -0.51008918777E+03  0.57817706526E+03 -0.50171699282E+03  0.91989110181E+03  0.50400001928E-02 0. -1.
       -1    1    3    3    0  502  0.51008918777E+03 -0.57817706526E+03  0.11241674939E+04  0.13631699280E+04  0.50400001928E-02 0.  1.
</event>
<event>
 5   0  0.3963414E-05  0.2199778E+04  0.7818609E-02  0.8518521E-01
        2   -1    0    0  501    0  0.00000000000E+00  0.00000000000E+00  0.12344323947E+04  0.12344323947E+04  0.25500000920E-02 0. -1.
       -2   -1    0    0    0  501  0.00000000000E+00  0.00000000000E+00 -0.98000973235E+03  0.98000973235E+03  0.25500000920E-02 0.  1.
    10030    2    1    2    0    0  0.00000000000E+00  0.00000000000E+00  0.25442266237E+03  0.22144421271E+04  0.21997779531E+04 0.  0.
        1    1    3    3  502    0 -0.13565401412E+03 -0.72837413264E+03 -0.69111905933E+03  0.10132010871E+04  0.50400001928E-02 0.  1.
       -1    1    3    3    0  502  0.13565401412E+03  0.72837413264E+03  0.94554172170E+03  0.12012410400E+04  0.50400001928E-02 0. -1.
</event>
<event>
 5   0  0.1433375E-05  0.2228177E+04  0.7818609E-02  0.8506791E-01
       -3   -1    0    0    0  501  0.00000000000E+00  0.00000000000E+00  0.12929989048E+04  0.12929989087E+04  0.10100000352E+00 0. -1.
        3   -1    0    0  501    0  0.00000000000E+00  0.00000000000E+00 -0.95993383105E+03  0.95993383636E+03  0.10100000352E+00 0.  1.
    10030    2    1    2    0    0  0.00000000000E+00  0.00000000000E+00  0.33306507371E+03  0.22529327451E+04  0.22281771946E+04 0.  0.
        1    1    3    3  502    0  0.32816073921E+03 -0.91202935797E+03 -0.38884812135E+03  0.10443609922E+04  0.50400001928E-02 0.  1.
       -1    1    3    3    0  502 -0.32816073921E+03  0.91202935797E+03  0.72191319505E+03  0.12085717528E+04  0.50400001928E-02 0. -1.
</event>
<event>
 5   0  0.1786228E-05  0.2064285E+04  0.7818609E-02  0.8577142E-01
        1   -1    0    0  501    0  0.00000000000E+00  0.00000000000E+00  0.81762172973E+03  0.81762172974E+03  0.50400001928E-02 0.  1.
       -1   -1    0    0    0  501  0.00000000000E+00  0.00000000000E+00 -0.13029469277E+04  0.13029469277E+04  0.50400001928E-02 0. -1.
    10030    2    1    2    0    0  0.00000000000E+00  0.00000000000E+00 -0.48532519798E+03  0.21205686575E+04  0.20642845936E+04 0.  0.
        5    1    3    3  502    0 -0.24113074513E+03 -0.50366458401E+03 -0.11343585233E+04  0.12643628430E+04  0.46999998093E+01 0. -1.
       -5    1    3    3    0  502  0.24113074513E+03  0.50366458401E+03  0.64903332528E+03  0.85620581448E+03  0.46999998093E+01 0.  1.
</event>
<event>
 5   0  0.4029532E-05  0.2202162E+04  0.7818609E-02  0.8517529E-01
       -2   -1    0    0    0  501  0.00000000000E+00  0.00000000000E+00  0.75453585926E+03  0.75453585927E+03  0.25500000920E-02 0. -1.
        2   -1    0    0  501    0  0.00000000000E+00  0.00000000000E+00 -0.16067882610E+04  0.16067882610E+04  0.25500000920E-02 0.  1.
    10030    2    1    2    0    0  0.00000000000E+00  0.00000000000E+00 -0.85225240169E+03  0.23613241202E+04  0.22021619933E+04 0.  0.
        3    1    3    3  502    0  0.51049791218E+02 -0.60035799206E+03  0.56208105238E+03  0.82399691715E+03  0.10100000352E+00 0. -1.
       -3    1    3    3    0  502 -0.51049791218E+02  0.60035799206E+03 -0.14143334541E+04  0.15373272031E+04  0.10100000352E+00 0.  1.
</event>
<event>
 5   0  0.1788413E-05  0.2184979E+04  0.7818609E-02  0.8524706E-01
       -1   -1    0    0    0  501  0.00000000000E+00  0.00000000000E+00  0.79564786106E+03  0.79564786108E+03  0.50400001928E-02 0. -1.
        1   -1    0    0  501    0  0.00000000000E+00  0.00000000000E+00 -0.15000773056E+04  0.15000773056E+04  0.50400001928E-02 0.  1.
    10030    2    1    2    0    0  0.00000000000E+00  0.00000000000E+00 -0.70442944449E+03  0.22957251666E+04  0.21849789927E+04 0.  0.
        1    1    3    3  502    0 -0.11388803473E+02 -0.36627625822E+03 -0.14335762183E+04  0.14796718473E+04  0.50400001928E-02 0.  1.
       -1    1    3    3    0  502  0.11388803473E+02  0.36627625822E+03  0.72914677379E+03  0.81605331930E+03  0.50400001928E-02 0. -1.
</event>
<event>
 5   0  0.1786228E-05  0.2181196E+04  0.7818609E-02  0.8526296E-01
       -1   -1    0    0    0  501  0.00000000000E+00  0.00000000000E+00  0.98342136493E+03  0.98342136494E+03  0.50400001928E-02 0.  1.
        1   -1    0    0  501    0  0.00000000000E+00  0.00000000000E+00 -0.12094545694E+04  0.12094545694E+04  0.50400001928E-02 0. -1.
    10030    2    1    2    0    0  0.00000000000E+00  0.00000000000E+00 -0.22603320443E+03  0.21928759343E+04  0.21811955102E+04 0.  0.
        5    1    3    3  502    0  0.51460166924E+03 -0.28318466926E+03 -0.10368350265E+04  0.11916616118E+04  0.46999998093E+01 0. -1.
       -5    1    3    3    0  502 -0.51460166924E+03  0.28318466926E+03  0.81080182207E+03  0.10012143225E+04  0.46999998093E+01 0.  1.
</event>
<event>
 5   0  0.4027923E-05  0.2153145E+04  0.7818609E-02  0.8538187E-01
       -2   -1    0    0    0  501  0.00000000000E+00  0.00000000000E+00  0.91155557112E+03  0.91155557112E+03  0.25500000920E-02 0. -1.
        2   -1    0    0  501    0  0.00000000000E+00  0.00000000000E+00 -0.12714623191E+04  0.12714623191E+04  0.25500000920E-02 0.  1.
    10030    2    1    2    0    0  0.00000000000E+00  0.00000000000E+00 -0.35990674794E+03  0.21830178902E+04  0.21531451975E+04 0.  0.
        5    1    3    3  502    0 -0.51246117134E+03  0.71319891687E+03  0.45135504387E+03  0.98742726961E+03  0.46999998093E+01 0. -1.
       -5    1    3    3    0  502  0.51246117134E+03 -0.71319891687E+03 -0.81126179181E+03  0.11955906206E+04  0.46999998093E+01 0.  1.
</event>
<event>
 5   0  0.1788413E-05  0.2199805E+04  0.7818609E-02  0.8518509E-01
        1   -1    0    0  501    0  0.00000000000E+00  0.00000000000E+00  0.11420012837E+04  0.11420012837E+04  0.50400001928E-02 0. -1.
       -1   -1    0    0    0  501  0.00000000000E+00  0.00000000000E+00 -0.10593553026E+04  0.10593553026E+04  0.50400001928E-02 0.  1.
    10030    2    1    2    0    0  0.00000000000E+00  0.00000000000E+00  0.82645981155E+02  0.22013565863E+04  0.21998046418E+04 0.  0.
        1    1    3    3  502    0  0.95071079734E+03  0.50186372407E+03  0.27400993090E+03  0.11094141066E+04  0.50400001928E-02 0. -1.
       -1    1    3    3    0  502 -0.95071079734E+03 -0.50186372407E+03 -0.19136394975E+03  0.10919424797E+04  0.50400001928E-02 0.  1.
</event>
<event>
 5   0  0.1786228E-05  0.2216089E+04  0.7818609E-02  0.8511761E-01
       -1   -1    0    0    0  501  0.00000000000E+00  0.00000000000E+00  0.10099753074E+04  0.10099753074E+04  0.50400001928E-02 0. -1.
        1   -1    0    0  501    0  0.00000000000E+00  0.00000000000E+00 -0.12156360363E+04  0.12156360363E+04  0.50400001928E-02 0.  1.
    10030    2    1    2    0    0  0.00000000000E+00  0.00000000000E+00 -0.20566072894E+03  0.22256113437E+04  0.22160887884E+04 0.  0.
        5    1    3    3  502    0 -0.96546706969E+03 -0.32244691061E+03  0.33681964068E+03  0.10721791982E+04  0.46999998093E+01 0. -1.
       -5    1    3    3    0  502  0.96546706969E+03  0.32244691061E+03 -0.54248036962E+03  0.11534321455E+04  0.46999998093E+01 0.  1.
</event>
<event>
 5   0  0.1884407E-05  0.2173744E+04  0.7818609E-02  0.8529436E-01
       -1   -1    0    0    0  501  0.00000000000E+00  0.00000000000E+00  0.65512602618E+03  0.65512602620E+03  0.50400001928E-02 0.  1.
        1   -1    0    0  501    0  0.00000000000E+00  0.00000000000E+00 -0.18031509231E+04  0.18031509231E+04  0.50400001928E-02 0. -1.
    10030    2    1    2    0    0  0.00000000000E+00  0.00000000000E+00 -0.11480248969E+04  0.24582769493E+04  0.21737443262E+04 0.  0.
        3    1    3    3  502    0 -0.81932114107E+03  0.33871579278E+03 -0.12850169220E+04  0.15611803293E+04  0.10100000352E+00 0. -1.
       -3    1    3    3    0  502  0.81932114107E+03 -0.33871579278E+03  0.13699202511E+03  0.89709662000E+03  0.10100000352E+00 0.  1.
</event>
<event>
 5   0  0.4132460E-05  0.2221265E+04  0.7818609E-02  0.8509629E-01
        2   -1    0    0  501    0  0.00000000000E+00  0.00000000000E+00  0.27416291336E+04  0.27416291336E+04  0.25500000920E-02 0. -1.
       -2   -1    0    0    0  501  0.00000000000E+00  0.00000000000E+00 -0.44991677443E+03  0.44991677443E+03  0.25500000920E-02 0.  1.
    10030    2    1    2    0    0  0.00000000000E+00  0.00000000000E+00  0.22917123592E+04  0.31915459081E+04  0.22212653479E+04 0.  0.
        4    1    3    3  502    0 -0.23726809056E+03  0.55255644038E+02 -0.41105265653E+03  0.47782343217E+03  0.12699999809E+01 0.  1.
       -4    1    3    3    0  502  0.23726809056E+03 -0.55255644038E+02  0.27027650157E+04  0.27137224759E+04  0.12699999809E+01 0. -1.
</event>
<event>
 5   0  0.1815681E-05  0.2178986E+04  0.7818609E-02  0.8527226E-01
        1   -1    0    0  501    0  0.00000000000E+00  0.00000000000E+00  0.11272234338E+04  0.11272234338E+04  0.50400001928E-02 0.  1.
       -1   -1    0    0    0  501  0.00000000000E+00  0.00000000000E+00 -0.10530259039E+04  0.10530259040E+04  0.50400001928E-02 0. -1.
    10030    2    1    2    0    0  0.00000000000E+00  0.00000000000E+00  0.74197529842E+02  0.21802493377E+04  0.21789864390E+04 0.  0.
        2    1    3    3  502    0 -0.21421935305E+03  0.13396437658E+03 -0.10233074733E+04  0.10540372718E+04  0.25500000920E-02 0. -1.
       -2    1    3    3    0  502  0.21421935305E+03 -0.13396437658E+03  0.10975050032E+04  0.11262120659E+04  0.25500000920E-02 0.  1.
</event>
<event>
 5   0  0.1433375E-05  0.2239867E+04  0.7818609E-02  0.8502015E-01
       -3   -1    0    0    0  501  0.00000000000E+00  0.00000000000E+00  0.13990409534E+04  0.13990409570E+04  0.10100000352E+00 0. -1.
        3   -1    0    0  501    0  0.00000000000E+00  0.00000000000E+00 -0.89650776795E+03  0.89650777364E+03  0.10100000352E+00 0.  1.
    10030    2    1    2    0    0  0.00000000000E+00  0.00000000000E+00  0.50253318544E+03  0.22955487307E+04  0.22398670435E+04 0.  0.
        4    1    3    3  502    0  0.85638492855E+03 -0.64663301698E+03  0.57973374267E+03  0.12196812001E+04  0.12699999809E+01 0. -1.
       -4    1    3    3    0  502 -0.85638492855E+03  0.64663301698E+03 -0.77200557230E+02  0.10758675306E+04  0.12699999809E+01 0.  1.
</event>
<event>
 5   0  0.3963414E-05  0.2193965E+04  0.7818609E-02  0.8520944E-01
        2   -1    0    0  501    0  0.00000000000E+00  0.00000000000E+00  0.12007715845E+04  0.12007715845E+04  0.25500000920E-02 0.  1.
       -2   -1    0    0    0  501  0.00000000000E+00  0.00000000000E+00 -0.10021642979E+04  0.10021642979E+04  0.25500000920E-02 0. -1.
    10030    2    1    2    0    0  0.00000000000E+00  0.00000000000E+00  0.19860728667E+03  0.22029358824E+04  0.21939648237E+04 0.  0.
        1    1    3    3  502    0 -0.71989288619E+03  0.47563727262E+03 -0.58088332283E+03  0.10401451906E+04  0.50400001928E-02 0. -1.
       -1    1    3    3    0  502  0.71989288619E+03 -0.47563727262E+03  0.77949060951E+03  0.11627906918E+04  0.50400001928E-02 0.  1.
</event>
<event>
 5   0  0.4132460E-05  0.2182466E+04  0.7818609E-02  0.8525762E-01
       -2   -1    0    0    0  501  0.00000000000E+00  0.00000000000E+00  0.64156980434E+03  0.64156980434E+03  0.25500000920E-02 0.  1.
        2   -1    0    0  501    0  0.00000000000E+00  0.00000000000E+00 -0.18560552530E+04  0.18560552530E+04  0.25500000920E-02 0. -1.
    10030    2    1    2    0    0  0.00000000000E+00  0.00000000000E+00 -0.12144854487E+04  0.24976250574E+04  0.21824655833E+04 0.  0.
        4    1    3    3  502    0 -0.84139945927E+03 -0.51597509562E+03 -0.11398573875E+04  0.15077996638E+04  0.12699999809E+01 0. -1.
       -4    1    3    3    0  502  0.84139945927E+03  0.51597509562E+03 -0.74628061173E+02  0.98982539358E+03  0.12699999809E+01 0.  1.
</event>
<event>
 5   0  0.4132460E-05  0.2210734E+04  0.7818609E-02  0.8513974E-01
       -2   -1    0    0    0  501  0.00000000000E+00  0.00000000000E+00  0.20351054900E+04  0.20351054900E+04  0.25500000920E-02 0.  1.
        2   -1    0    0  501    0  0.00000000000E+00  0.00000000000E+00 -0.60037974218E+03  0.60037974219E+03  0.25500000920E-02 0. -1.
    10030    2    1    2    0    0  0.00000000000E+00  0.00000000000E+00  0.14347257479E+04  0.26354852322E+04  0.22107339138E+04 0.  0.
        4    1    3    3  502    0  0.10717821615E+04  0.21643312983E+03  0.91059922292E+03  0.14229381080E+04  0.12699999809E+01 0.  1.
       -4    1    3    3    0  502 -0.10717821615E+04 -0.21643312983E+03  0.52412652494E+03  0.12125471242E+04  0.12699999809E+01 0. -1.
</event>
<event>
 5   0  0.4143281E-05  0.2190260E+04  0.7818609E-02  0.8522493E-01
       -2   -1    0    0    0  501  0.00000000000E+00  0.00000000000E+00  0.75299142935E+03  0.75299142936E+03  0.25500000920E-02 0. -1.
        2   -1    0    0  501    0  0.00000000000E+00  0.00000000000E+00 -0.15927262964E+04  0.15927262964E+04  0.25500000920E-02 0.  1.
    10030    2    1    2    0    0  0.00000000000E+00  0.00000000000E+00 -0.83973486706E+03  0.23457177258E+04  0.21902595741E+04 0.  0.
        2    1    3    3  502    0 -0.91202809670E+02 -0.73523832296E+03  0.44385806162E+03  0.86365694747E+03  0.25500000920E-02 0. -1.
       -2    1    3    3    0  502  0.91202809670E+02  0.73523832296E+03 -0.12835929287E+04  0.14820607783E+04  0.25500000920E-02 0.  1.
</event>
<event>
 5   0  0.4029532E-05  0.2203722E+04  0.7818609E-02  0.8516881E-01
        2   -1    0    0  501    0  0.00000000000E+00  0.00000000000E+00  0.14750965882E+04  0.14750965882E+04  0.25500000920E-02 0.  1.
       -2   -1    0    0    0  501  0.00000000000E+00  0.00000000000E+00 -0.82306309044E+03  0.82306309045E+03  0.25500000920E-02 0. -1.
    10030    2    1    2    0    0  0.00000000000E+00  0.00000000000E+00  0.65203349772E+03  0.22981596786E+04  0.22037219031E+04 0.  0.
        3    1    3    3  502    0  0.46061499934E+02  0.10603563005E+04  0.63470921450E+03  0.12366620165E+04  0.10100000352E+00 0.  1.
       -3    1    3    3    0  502 -0.46061499934E+02 -0.10603563005E+04  0.17324283215E+02  0.10614976622E+04  0.10100000352E+00 0. -1.
</event>
<event>
 5   0  0.1884407E-05  0.2206805E+04  0.7818609E-02  0.8515601E-01
        1   -1    0    0  501    0  0.00000000000E+00  0.00000000000E+00  0.13605812789E+04  0.13605812789E+04  0.50400001928E-02 0.  1.
       -1   -1    0    0    0  501  0.00000000000E+00  0.00000000000E+00 -0.89483605356E+03  0.89483605357E+03  0.50400001928E-02 0. -1.
    10030    2    1    2    0    0  0.00000000000E+00  0.00000000000E+00  0.46574522537E+03  0.22554173325E+04  0.22068050953E+04 0.  0.
        3    1    3    3  502    0  0.27967821352E+03 -0.10455853167E+04  0.13603789073E+02  0.10824295039E+04  0.10100000352E+00 0. -1.
       -3    1    3    3    0  502 -0.27967821352E+03  0.10455853167E+04  0.45214143630E+03  0.11729878287E+04  0.10100000352E+00 0.  1.
</event>
<event>
 5   0  0.1866935E-05  0.2208136E+04  0.7818609E-02  0.8515049E-01
        1   -1    0    0  501    0  0.00000000000E+00  0.00000000000E+00  0.17190305105E+04  0.17190305105E+04  0.50400001928E-02 0. -1.
       -1   -1    0    0    0  501  0.00000000000E+00  0.00000000000E+00 -0.70910074132E+03  0.70910074134E+03  0.50400001928E-02 0.  1.
    10030    2    1    2    0    0  0.00000000000E+00  0.00000000000E+00  0.10099297692E+04  0.24281312519E+04  0.22081356927E+04 0.  0.
        4    1    3    3  502    0 -0.15306833916E+03  0.35901706625E+03 -0.63071397829E+03  0.74170405528E+03  0.12699999809E+01 0.  1.
       -4    1    3    3    0  502  0.15306833916E+03 -0.35901706625E+03  0.16406437475E+04  0.16864271966E+04  0.12699999809E+01 0. -1.
</event>
<event>
 5   0  0.4029532E-05  0.2168211E+04  0.7818609E-02  0.8531777E-01
       -2   -1    0    0    0  501  0.00000000000E+00  0.00000000000E+00  0.83597849605E+03  0.83597849605E+03  0.25500000920E-02 0.  1.
        2   -1    0    0  501    0  0.00000000000E+00  0.00000000000E+00 -0.14058795037E+04  0.14058795037E+04  0.25500000920E-02 0. -1.
    10030    2    1    2    0    0  0.00000000000E+00  0.00000000000E+00 -0.56990100762E+03  0.22418579997E+04  0.21682112749E+04 0.  0.
        3    1    3    3  502    0  0.47265417404E+03 -0.96741684769E+03 -0.41568778921E+03  0.11541636252E+04  0.10100000352E+00 0. -1.
       -3    1    3    3    0  502 -0.47265417404E+03  0.96741684769E+03 -0.15421321842E+03  0.10876943745E+04  0.10100000352E+00 0.  1.
</event>
<event>
 5   0  0.4143281E-05  0.2193916E+04  0.7818609E-02  0.8520965E-01
       -2   -1    0    0    0  501  0.00000000000E+00  0.00000000000E+00  0.11077061915E+04  0.11077061915E+04  0.25500000920E-02 0.  1.
        2   -1    0    0  501    0  0.00000000000E+00  0.00000000000E+00 -0.10863144588E+04  0.10863144588E+04  0.25500000920E-02 0. -1.
    10030    2    1    2    0    0  0.00000000000E+00  0.00000000000E+00  0.21391732713E+02  0.21940206503E+04  0.21939163630E+04 0.  0.
        2    1    3    3  502    0 -0.72060742376E+03  0.48069584203E+03  0.68376106767E+03  0.11035727205E+04  0.25500000920E-02 0.  1.
       -2    1    3    3    0  502  0.72060742376E+03 -0.48069584203E+03 -0.66236933495E+03  0.10904479298E+04  0.25500000920E-02 0. -1.
</event>
<event>
 5   0  0.1788413E-05  0.2199348E+04  0.7818609E-02  0.8518700E-01
       -1   -1    0    0    0  501  0.00000000000E+00  0.00000000000E+00  0.12500242348E+04  0.12500242348E+04  0.50400001928E-02 0. -1.
        1   -1    0    0  501    0  0.00000000000E+00  0.00000000000E+00 -0.96740722431E+03  0.96740722433E+03  0.50400001928E-02 0.  1.
    10030    2    1    2    0    0  0.00000000000E+00  0.00000000000E+00  0.28261701052E+03  0.22174314592E+04  0.21993476081E+04 0.  0.
        1    1    3    3  502    0  0.78324977379E+03 -0.73148465807E+03  0.38977439383E+03  0.11403833089E+04  0.50400001928E-02 0. -1.
       -1    1    3    3    0  502 -0.78324977379E+03  0.73148465807E+03 -0.10715738331E+03  0.10770481503E+04  0.50400001928E-02 0.  1.
</event>
<event>
 5   0  0.3963414E-05  0.2214555E+04  0.7818609E-02  0.8512395E-01
       -2   -1    0    0    0  501  0.00000000000E+00  0.00000000000E+00  0.95627386949E+03  0.95627386949E+03  0.25500000920E-02 0. -1.
        2   -1    0    0  501    0  0.00000000000E+00  0.00000000000E+00 -0.12821253829E+04  0.12821253829E+04  0.25500000920E-02 0.  1.
    10030    2    1    2    0    0  0.00000000000E+00  0.00000000000E+00 -0.32585151338E+03  0.22383992524E+04  0.22145545837E+04 0.  0.
        1    1    3    3  502    0 -0.59818977116E+03 -0.87768215306E+03 -0.47919422741E+03  0.11652399203E+04  0.50400001928E-02 0.  1.
       -1    1    3    3    0  502  0.59818977116E+03  0.87768215306E+03  0.15334271403E+03  0.10731593321E+04  0.50400001928E-02 0. -1.
</event>
<event>
 5   0  0.1815681E-05  0.2153839E+04  0.7818609E-02  0.8537891E-01
        1   -1    0    0  501    0  0.00000000000E+00  0.00000000000E+00  0.11990635975E+04  0.11990635975E+04  0.50400001928E-02 0. -1.
       -1   -1    0    0    0  501  0.00000000000E+00  0.00000000000E+00 -0.96721782957E+03  0.96721782959E+03  0.50400001928E-02 0.  1.
    10030    2    1    2    0    0  0.00000000000E+00  0.00000000000E+00  0.23184576788E+03  0.21662814271E+04  0.21538390750E+04 0.  0.
        2    1    3    3  502    0  0.73176850749E+03 -0.74537583748E+03  0.37951586927E+03  0.11113516917E+04  0.25500000920E-02 0.  1.
       -2    1    3    3    0  502 -0.73176850749E+03  0.74537583748E+03 -0.14767010139E+03  0.10549297353E+04  0.25500000920E-02 0. -1.
</event>
<event>
 5   0  0.4027923E-05  0.2186940E+04  0.7818609E-02  0.8523884E-01
        2   -1    0    0  501    0  0.00000000000E+00  0.00000000000E+00  0.13349398461E+04  0.13349398461E+04  0.25500000920E-02 0.  1.
       -2   -1    0    0    0  501  0.00000000000E+00  0.00000000000E+00 -0.89567795570E+03  0.89567795570E+03  0.25500000920E-02 0. -1.
    10030    2    1    2    0    0  0.00000000000E+00  0.00000000000E+00  0.43926189045E+03  0.22306178019E+04  0.21869395898E+04 0.  0.
        5    1    3    3  502    0 -0.90767486149E+03  0.43358407458E+03  0.65689498339E+03  0.12014166276E+04  0.46999998093E+01 0. -1.
       -5    1    3    3    0  502  0.90767486149E+03 -0.43358407458E+03 -0.21763309295E+03  0.10292011742E+04  0.46999998093E+01 0.  1.
</event>
<event>
 5   0  0.1815681E-05  0.2173295E+04  0.7818609E-02  0.8529626E-01
        1   -1    0    0  501    0  0.00000000000E+00  0.00000000000E+00  0.20064489265E+04  0.20064489265E+04  0.50400001928E-02 0. -1.
       -1   -1    0    0    0  501  0.00000000000E+00  0.00000000000E+00 -0.58850358167E+03  0.58850358169E+03  0.50400001928E-02 0.  1.
    10030    2    1    2    0    0  0.00000000000E+00  0.00000000000E+00  0.14179453448E+04  0.25949525082E+04  0.21732946231E+04 0.  0.
        2    1    3    3  502    0 -0.94281200411E+03  0.37747485838E+03  0.24742549582E+03  0.10452756191E+04  0.25500000920E-02 0.  1.
       -2    1    3    3    0  502  0.94281200411E+03 -0.37747485838E+03  0.11705198490E+04  0.15496768892E+04  0.25500000920E-02 0. -1.
</event>
<event>
 5   0  0.1884407E-05  0.2203805E+04  0.7818609E-02  0.8516846E-01
        1   -1    0    0  501    0  0.00000000000E+00  0.00000000000E+00  0.94077112729E+03  0.94077112730E+03  0.50400001928E-02 0. -1.
       -1   -1    0    0    0  501  0.00000000000E+00  0.00000000000E+00 -0.12906315703E+04  0.12906315703E+04  0.50400001928E-02 0.  1.
    10030    2    1    2    0    0  0.00000000000E+00  0.00000000000E+00 -0.34986044298E+03  0.22314026976E+04  0.22038048165E+04 0.  0.
        3    1    3    3  502    0 -0.40160951014E+03  0.86948035128E+02 -0.12101518816E+04  0.12780132027E+04  0.10100000352E+00 0.  1.
       -3    1    3    3    0  502  0.40160951014E+03 -0.86948035128E+02  0.86029143862E+03  0.95338949491E+03  0.10100000352E+00 0. -1.
</event>
<event>
 5   0  0.1786228E-05  0.2193793E+04  0.7818609E-02  0.8521016E-01
        1   -1    0    0  501    0  0.00000000000E+00  0.00000000000E+00  0.11985114716E+04  0.11985114716E+04  0.50400001928E-02 0.  1.
       -1   -1    0    0    0  501  0.00000000000E+00  0.00000000000E+00 -0.10038971811E+04  0.10038971812E+04  0.50400001928E-02 0. -1.
    10030    2    1    2    0    0  0.00000000000E+00  0.00000000000E+00  0.19461429049E+03  0.22024086528E+04  0.21937933248E+04 0.  0.
        5    1    3    3  502    0  0.73141725609E+03 -0.77308230081E+03 -0.16931585269E+03  0.10776443728E+04  0.46999998093E+01 0. -1.
       -5    1    3    3    0  502 -0.73141725609E+03  0.77308230081E+03  0.36393014318E+03  0.11247642800E+04  0.46999998093E+01 0.  1.
</event>
<event>
 5   0  0.3963414E-05  0.2216213E+04  0.7818609E-02  0.8511710E-01
       -2   -1    0    0    0  501  0.00000000000E+00  0.00000000000E+00  0.11669634667E+04  0.11669634667E+04  0.25500000920E-02 0.  1.
        2   -1    0    0  501    0  0.00000000000E+00  0.00000000000E+00 -0.10522175800E+04  0.10522175800E+04  0.25500000920E-02 0. -1.
    10030    2    1    2    0    0  0.00000000000E+00  0.00000000000E+00  0.11474588672E+03  0.22191810468E+04  0.22162125123E+04 0.  0.
        1    1    3    3  502    0  0.36917944227E+03  0.49737143337E+03  0.97742229507E+03  0.11571629731E+04  0.50400001928E-02 0.  1.
       -1    1    3    3    0  502 -0.36917944227E+03 -0.49737143337E+03 -0.86267640835E+03  0.10620180737E+04  0.50400001928E-02 0. -1.
</event>
<event>
 5   0  0.1884407E-05  0.2203948E+04  0.7818609E-02  0.8516787E-01
       -1   -1    0    0    0  501  0.00000000000E+00  0.00000000000E+00  0.57545208118E+03  0.57545208121E+03  0.50400001928E-02 0. -1.
        1   -1    0    0  501    0  0.00000000000E+00  0.00000000000E+00 -0.21102480260E+04  0.21102480260E+04  0.50400001928E-02 0.  1.
    10030    2    1    2    0    0  0.00000000000E+00  0.00000000000E+00 -0.15347959448E+04  0.26857001072E+04  0.22039479290E+04 0.  0.
        3    1    3    3  502    0  0.25441288629E+03  0.45503703196E+03  0.41567395240E+03  0.66676042329E+03  0.10100000352E+00 0. -1.
       -3    1    3    3    0  502 -0.25441288629E+03 -0.45503703196E+03 -0.19504698972E+04  0.20189396839E+04  0.10100000352E+00 0.  1.
</event>
<event>
 5   0  0.4143281E-05  0.2187203E+04  0.7818609E-02  0.8523773E-01
        2   -1    0    0  501    0  0.00000000000E+00  0.00000000000E+00  0.11773583614E+04  0.11773583614E+04  0.25500000920E-02 0. -1.
       -2   -1    0    0    0  501  0.00000000000E+00  0.00000000000E+00 -0.10158031351E+04  0.10158031351E+04  0.25500000920E-02 0.  1.
    10030    2    1    2    0    0  0.00000000000E+00  0.00000000000E+00  0.16155522627E+03  0.21931614965E+04  0.21872030675E+04 0.  0.
        2    1    3    3  502    0 -0.10076974308E+04 -0.22496605673E+03  0.44217655574E+03  0.11232025397E+04  0.25500000920E-02 0.  1.
       -2    1    3    3    0  502  0.10076974308E+04  0.22496605673E+03 -0.28062132947E+03  0.10699589568E+04  0.25500000920E-02 0. -1.
</event>
<event>
 5   0  0.1866935E-05  0.2202900E+04  0.7818609E-02  0.8517222E-01
       -1   -1    0    0    0  501  0.00000000000E+00  0.00000000000E+00  0.12867140671E+04  0.12867140671E+04  0.50400001928E-02 0.  1.
        1   -1    0    0  501    0  0.00000000000E+00  0.00000000000E+00 -0.94286091779E+03  0.94286091780E+03  0.50400001928E-02 0. -1.
    10030    2    1    2    0    0  0.00000000000E+00  0.00000000000E+00  0.34385314931E+03  0.22295749849E+04  0.22029002758E+04 0.  0.
        4    1    3    3  502    0  0.16138341175E+03 -0.85147423578E+03  0.85996548352E+03  0.12208993511E+04  0.12699999809E+01 0.  1.
       -4    1    3    3    0  502 -0.16138341175E+03  0.85147423578E+03 -0.51611233421E+03  0.10086756338E+04  0.12699999809E+01 0. -1.
</event>
<event>
 5   0  0.1786228E-05  0.2253145E+04  0.7818609E-02  0.8496628E-01
       -1   -1    0    0    0  501  0.00000000000E+00  0.00000000000E+00  0.12365215205E+04  0.12365215205E+04  0.50400001928E-02 0. -1.
        1   -1    0    0  501    0  0.00000000000E+00  0.00000000000E+00 -0.10263995832E+04  0.10263995832E+04  0.50400001928E-02 0.  1.
    10030    2    1    2    0    0  0.00000000000E+00  0.00000000000E+00  0.21012193729E+03  0.22629211037E+04  0.22531446232E+04 0.  0.
        5    1    3    3  502    0  0.95850314658E+03 -0.18533165116E+03 -0.45957677756E+03  0.10790315136E+04  0.46999998093E+01 0.  1.
       -5    1    3    3    0  502 -0.95850314658E+03  0.18533165116E+03  0.66969871485E+03  0.11838895901E+04  0.46999998093E+01 0. -1.
</event>
<event>
 5   0  0.4027923E-05  0.2186279E+04  0.7818609E-02  0.8524161E-01
        2   -1    0    0  501    0  0.00000000000E+00  0.00000000000E+00  0.11386404250E+04  0.11386404250E+04  0.25500000920E-02 0. -1.
       -2   -1    0    0    0  501  0.00000000000E+00  0.00000000000E+00 -0.10494571425E+04  0.10494571425E+04  0.25500000920E-02 0.  1.
    10030    2    1    2    0    0  0.00000000000E+00  0.00000000000E+00  0.89183282530E+02  0.21880975675E+04  0.21862793296E+04 0.  0.
        5    1    3    3  502    0 -0.87499080906E+03  0.38322787404E+03 -0.48731975436E+03  0.10723689441E+04  0.46999998093E+01 0.  1.
       -5    1    3    3    0  502  0.87499080906E+03 -0.38322787404E+03  0.57650303689E+03  0.11157286233E+04  0.46999998093E+01 0. -1.
</event>
<event>
 5   0  0.1786228E-05  0.2178652E+04  0.7818609E-02  0.8527366E-01
        1   -1    0    0  501    0  0.00000000000E+00  0.00000000000E+00  0.16536585212E+04  0.16536585212E+04  0.50400001928E-02 0. -1.
       -1   -1    0    0    0  501  0.00000000000E+00  0.00000000000E+00 -0.71757960067E+03  0.71757960069E+03  0.50400001928E-02 0.  1.
    10030    2    1    2    0    0  0.00000000000E+00  0.00000000000E+00  0.93607892049E+03  0.23712381219E+04  0.21786524471E+04 0.  0.
        5    1    3    3  502    0  0.62785428175E+03  0.24146761515E+03  0.14005750061E+04  0.15537503165E+04  0.46999998093E+01 0. -1.
       -5    1    3    3    0  502 -0.62785428175E+03 -0.24146761515E+03 -0.46449608566E+03  0.81748780533E+03  0.46999998093E+01 0.  1.
</event>
<event>
 5   0  0.1815681E-05  0.2204629E+04  0.7818609E-02  0.8516504E-01
       -1   -1    0    0    0  501  0.00000000000E+00  0.00000000000E+00  0.12296309192E+04  0.12296309192E+04  0.50400001928E-02 0.  1.
        1   -1    0    0  501    0  0.00000000000E+00  0.00000000000E+00 -0.98818059595E+03  0.98818059596E+03  0.50400001928E-02 0. -1.
    10030    2    1    2    0    0  0.00000000000E+00  0.00000000000E+00  0.24145032323E+03  0.22178115151E+04  0.22046291430E+04 0.  0.
        2    1    3    3  502    0  0.63854114249E+02  0.69560382622E+02  0.12255550313E+04  0.12291871824E+04  0.25500000920E-02 0.  1.
       -2    1    3    3    0  502 -0.63854114249E+02 -0.69560382622E+02 -0.98410470808E+03  0.98862433270E+03  0.25500000920E-02 0. -1.
</event>
<event>
 5   0  0.3963414E-05  0.2180278E+04  0.7818609E-02  0.8526682E-01
        2   -1    0    0  501    0  0.00000000000E+00  0.00000000000E+00  0.20218548103E+04  0.20218548103E+04  0.25500000920E-02 0. -1.
       -2   -1    0    0    0  501  0.00000000000E+00  0.00000000000E+00 -0.58777855016E+03  0.58777855017E+03  0.25500000920E-02 0.  1.
    10030    2    1    2    0    0  0.00000000000E+00  0.00000000000E+00  0.14340762602E+04  0.26096333605E+04  0.21802778622E+04 0.  0.
        1    1    3    3  502    0  0.93504877422E+03  0.85431883446E+02  0.13799974581E+04  0.16691338476E+04  0.50400001928E-02 0. -1.
       -1    1    3    3    0  502 -0.93504877422E+03 -0.85431883446E+02  0.54078802064E+02  0.94049951288E+03  0.50400001928E-02 0.  1.
</event>
<event>
 5   0  0.1866935E-05  0.2188928E+04  0.7818609E-02  0.8523051E-01
        1   -1    0    0  501    0  0.00000000000E+00  0.00000000000E+00  0.15256714851E+04  0.15256714851E+04  0.50400001928E-02 0. -1.
       -1   -1    0    0    0  501  0.00000000000E+00  0.00000000000E+00 -0.78513080370E+03  0.78513080372E+03  0.50400001928E-02 0.  1.
    10030    2    1    2    0    0  0.00000000000E+00  0.00000000000E+00  0.74054068144E+03  0.23108022889E+04  0.21889282120E+04 0.  0.
        4    1    3    3  502    0 -0.12590855965E+03 -0.10511888856E+04  0.77333569085E+02  0.10615239670E+04  0.12699999809E+01 0. -1.
       -4    1    3    3    0  502  0.12590855965E+03  0.10511888856E+04  0.66320711236E+03  0.12492783219E+04  0.12699999809E+01 0.  1.
</event>
<event>
 5   0  0.3963414E-05  0.2207469E+04  0.7818609E-02  0.8515326E-01
        2   -1    0    0  501    0  0.00000000000E+00  0.00000000000E+00  0.99386273491E+03  0.99386273492E+03  0.25500000920E-02 0. -1.
       -2   -1    0    0    0  501  0.00000000000E+00  0.00000000000E+00 -0.12257523760E+04  0.12257523760E+04  0.25500000920E-02 0.  1.
    10030    2    1    2    0    0  0.00000000000E+00  0.00000000000E+00 -0.23188964111E+03  0.22196151109E+04  0.22074687846E+04 0.  0.
        1    1    3    3  502    0  0.92412382646E+03  0.43738458676E+03  0.30217915298E+03  0.10661249288E+04  0.50400001928E-02 0.  1.
       -1    1    3    3    0  502 -0.92412382646E+03 -0.43738458676E+03 -0.53406879409E+03  0.11534901821E+04  0.50400001928E-02 0. -1.
</event>
<event>
 5   0  0.3963414E-05  0.2201130E+04  0.7818609E-02  0.8517958E-01
        2   -1    0    0  501    0  0.00000000000E+00  0.00000000000E+00  0.15822010714E+04  0.15822010714E+04  0.25500000920E-02 0. -1.
       -2   -1    0    0    0  501  0.00000000000E+00  0.00000000000E+00 -0.76554295187E+03  0.76554295187E+03  0.25500000920E-02 0.  1.
    10030    2    1    2    0    0  0.00000000000E+00  0.00000000000E+00  0.81665811951E+03  0.23477440233E+04  0.22011295997E+04 0.  0.
        1    1    3    3  502    0 -0.50655677073E+03  0.95598148430E+03  0.19303647870E+03  0.10989829127E+04  0.50400001928E-02 0.  1.
       -1    1    3    3    0  502  0.50655677073E+03 -0.95598148430E+03  0.62362164081E+03  0.12487611105E+04  0.50400001928E-02 0. -1.
</event>
<event>
 5   0  0.1866935E-05  0.2181436E+04  0.7818609E-02  0.8526195E-01
        1   -1    0    0  501    0  0.00000000000E+00  0.00000000000E+00  0.17410037729E+04  0.17410037729E+04  0.50400001928E-02 0. -1.
       -1   -1    0    0    0  501  0.00000000000E+00  0.00000000000E+00 -0.68332179482E+03  0.68332179484E+03  0.50400001928E-02 0.  1.
    10030    2    1    2    0    0  0.00000000000E+00  0.00000000000E+00  0.10576819781E+04  0.24243255677E+04  0.21814360618E+04 0.  0.
        4    1    3    3  502    0  0.26703629250E+03  0.10474722133E+04  0.69049393164E+03  0.12826885443E+04  0.12699999809E+01 0. -1.
       -4    1    3    3    0  502 -0.26703629250E+03 -0.10474722133E+04  0.36718804645E+03  0.11416370235E+04  0.12699999809E+01 0.  1.
</event>
<event>
 5   0  0.1884407E-05  0.2199465E+04  0.7818609E-02  0.8518651E-01
       -1   -1    0    0    0  501  0.00000000000E+00  0.00000000000E+00  0.12392472092E+04  0.12392472092E+04  0.50400001928E-02 0.  1.
        1   -1    0    0  501    0  0.00000000000E+00  0.00000000000E+00 -0.97592417344E+03  0.97592417345E+03  0.50400001928E-02 0. -1.
    10030    2    1    2    0    0  0.00000000000E+00  0.00000000000E+00  0.26332303579E+03  0.22151713827E+04  0.21994647607E+04 0.  0.
        3    1    3    3  502    0  0.91345741115E+03  0.63624509396E+02 -0.48175172849E+03  0.10346677043E+04  0.10100000352E+00 0. -1.
       -3    1    3    3    0  502 -0.91345741115E+03 -0.63624509396E+02  0.74507476427E+03  0.11805036784E+04  0.10100000352E+00 0.  1.
</event>
<event>
 5   0  0.4132460E-05  0.2207683E+04  0.7818609E-02  0.8515237E-01
        2   -1    0    0  501    0  0.00000000000E+00  0.00000000000E+00  0.20547573718E+04  0.20547573718E+04  0.25500000920E-02 0. -1.
       -2   -1    0    0    0  501  0.00000000000E+00  0.00000000000E+00 -0.59299726764E+03  0.59299726765E+03  0.25500000920E-02 0.  1.
    10030    2    1    2    0    0  0.00000000000E+00  0.00000000000E+00  0.14617601041E+04  0.26477546394E+04  0.22076825018E+04 0.  0.
        4    1    3    3  502    0  0.49427421875E+03  0.18131107518E+03 -0.43271341039E+03  0.68148603635E+03  0.12699999809E+01 0.  1.
       -4    1    3    3    0  502 -0.49427421875E+03 -0.18131107518E+03  0.18944735145E+04  0.19662686031E+04  0.12699999809E+01 0. -1.
</event>
<event>
 5   0  0.1866935E-05  0.2164473E+04  0.7818609E-02  0.8533362E-01
       -1   -1    0    0    0  501  0.00000000000E+00  0.00000000000E+00  0.90983149252E+03  0.90983149253E+03  0.50400001928E-02 0. -1.
        1   -1    0    0  501    0  0.00000000000E+00  0.00000000000E+00 -0.12873106510E+04  0.12873106510E+04  0.50400001928E-02 0.  1.
    10030    2    1    2    0    0  0.00000000000E+00  0.00000000000E+00 -0.37747915850E+03  0.21971421436E+04  0.21644729344E+04 0.  0.
        4    1    3    3  502    0  0.44991646141E+02  0.65245126628E+03 -0.10640286803E+04  0.12489497782E+04  0.12699999809E+01 0.  1.
       -4    1    3    3    0  502 -0.44991646141E+02 -0.65245126628E+03  0.68654952175E+03  0.94819236540E+03  0.12699999809E+01 0. -1.
</event>
<event>
 5   0  0.1788413E-05  0.2214702E+04  0.7818609E-02  0.8512334E-01
       -1   -1    0    0    0  501  0.00000000000E+00  0.00000000000E+00  0.86207620037E+03  0.86207620038E+03  0.50400001928E-02 0.  1.
        1   -1    0    0  501    0  0.00000000000E+00  0.00000000000E+00 -0.14224107023E+04  0.14224107023E+04  0.50400001928E-02 0. -1.
    10030    2    1    2    0    0  0.00000000000E+00  0.00000000000E+00 -0.56033450188E+03  0.22844869026E+04  0.22147021593E+04 0.  0.
        1    1    3    3  502    0  0.30510321610E+03 -0.66028146630E+03 -0.11414419714E+04  0.13534952387E+04  0.50400001928E-02 0. -1.
       -1    1    3    3    0  502 -0.30510321610E+03  0.66028146630E+03  0.58110746948E+03  0.93099166393E+03  0.50400001928E-02 0.  1.
</event>
<event>
 5   0  0.1786228E-05  0.2200205E+04  0.7818609E-02  0.8518343E-01
        1   -1    0    0  501    0  0.00000000000E+00  0.00000000000E+00  0.16378908579E+04  0.16378908579E+04  0.50400001928E-02 0. -1.
       -1   -1    0    0    0  501  0.00000000000E+00  0.00000000000E+00 -0.73889252779E+03  0.73889252781E+03  0.50400001928E-02 0.  1.
    10030    2    1    2    0    0  0.00000000000E+00  0.00000000000E+00  0.89899833012E+03  0.23767833857E+04  0.22002048234E+04 0.  0.
        5    1    3    3  502    0 -0.29393914082E+03 -0.61385579846E+03  0.13831449904E+04  0.15415353756E+04  0.46999998093E+01 0. -1.
       -5    1    3    3    0  502  0.29393914082E+03  0.61385579846E+03 -0.48414666025E+03  0.83524801014E+03  0.46999998093E+01 0.  1.
</event>
<event>
 5   0  0.4132460E-05  0.2186204E+04  0.7818609E-02  0.8524192E-01
       -2   -1    0    0    0  501  0.00000000000E+00  0.00000000000E+00  0.10548274396E+04  0.10548274396E+04  0.25500000920E-02 0.  1.
        2   -1    0    0  501    0  0.00000000000E+00  0.00000000000E+00 -0.11327650344E+04  0.11327650344E+04  0.25500000920E-02 0. -1.
    10030    2    1    2    0    0  0.00000000000E+00  0.00000000000E+00 -0.77937594879E+02  0.21875924740E+04  0.21862036876E+04 0.  0.
        4    1    3    3  502    0 -0.52596800157E+03  0.28695015531E+03  0.87588071491E+03  0.10612027940E+04  0.12699999809E+01 0.  1.
       -4    1    3    3    0  502  0.52596800157E+03 -0.28695015531E+03 -0.95381830979E+03  0.11263896800E+04  0.12699999809E+01 0. -1.
</event>
<event>
 5   0  0.4143281E-05  0.2211040E+04  0.7818609E-02  0.8513847E-01
        2   -1    0    0  501    0  0.00000000000E+00  0.00000000000E+00  0.85580061568E+03  0.85580061569E+03  0.25500000920E-02 0.  1.
       -2   -1    0    0    0  501  0.00000000000E+00  0.00000000000E+00 -0.14281070549E+04  0.14281070549E+04  0.25500000920E-02 0. -1.
    10030    2    1    2    0    0  0.00000000000E+00  0.00000000000E+00 -0.57230643926E+03  0.22839076706E+04  0.22110403858E+04 0.  0.
        2    1    3    3  502    0 -0.92261179709E+03  0.25317326478E+02  0.34244228909E+03  0.98443903647E+03  0.25500000920E-02 0.  1.
       -2    1    3    3    0  502  0.92261179709E+03 -0.25317326478E+02 -0.91474872834E+03  0.12994686342E+04  0.25500000920E-02 0. -1.
</event>
<event>
 5   0  0.1786228E-05  0.2192190E+04  0.7818609E-02  0.8521686E-01
       -1   -1    0    0    0  501  0.00000000000E+00  0.00000000000E+00  0.71202067719E+03  0.71202067721E+03  0.50400001928E-02 0.  1.
        1   -1    0    0  501    0  0.00000000000E+00  0.00000000000E+00 -0.16873452551E+04  0.16873452551E+04  0.50400001928E-02 0. -1.
    10030    2    1    2    0    0  0.00000000000E+00  0.00000000000E+00 -0.97532457790E+03  0.23993659323E+04  0.21921904217E+04 0.  0.
        5    1    3    3  502    0  0.90762104272E+02 -0.10523428825E+04 -0.16717690512E+03  0.10694080183E+04  0.46999998093E+01 0.  1.
       -5    1    3    3    0  502 -0.90762104272E+02  0.10523428825E+04 -0.80814767278E+03  0.13299579140E+04  0.46999998093E+01 0. -1.
</event>
<event>
 5   0  0.1788413E-05  0.2156906E+04  0.7818609E-02  0.8536582E-01
        1   -1    0    0  501    0  0.00000000000E+00  0.00000000000E+00  0.10629505084E+04  0.10629505084E+04  0.50400001928E-02 0.  1.
       -1   -1    0    0    0  501  0.00000000000E+00  0.00000000000E+00 -0.10941814753E+04  0.10941814753E+04  0.50400001928E-02 0. -1.
    10030    2    1    2    0    0  0.00000000000E+00  0.00000000000E+00 -0.31230966939E+02  0.21571319838E+04  0.21569058909E+04 0.  0.
        1    1    3    3  502    0  0.53051755407E+03 -0.80972747399E+03  0.45977979498E+03  0.10716832168E+04  0.50400001928E-02 0.  1.
       -1    1    3    3    0  502 -0.53051755407E+03  0.80972747399E+03 -0.49101076192E+03  0.10854487669E+04  0.50400001928E-02 0. -1.
</event>
<event>
 5   0  0.4029532E-05  0.2198475E+04  0.7818609E-02  0.8519063E-01
        2   -1    0    0  501    0  0.00000000000E+00  0.00000000000E+00  0.14584162728E+04  0.14584162728E+04  0.25500000920E-02 0.  1.
       -2   -1    0    0    0  501  0.00000000000E+00  0.00000000000E+00 -0.82851746420E+03  0.82851746420E+03  0.25500000920E-02 0. -1.
    10030    2    1    2    0    0  0.00000000000E+00  0.00000000000E+00  0.62989880858E+03  0.22869337370E+04  0.21984752462E+04 0.  0.
        3    1    3    3  502    0  0.64996047861E+02  0.73521980108E+03  0.11623115464E+04  0.13768590281E+04  0.10100000352E+00 0.  1.
       -3    1    3    3    0  502 -0.64996047861E+02 -0.73521980108E+03 -0.53241273784E+03  0.91007470888E+03  0.10100000352E+00 0. -1.
</event>
<event>
 5   0  0.4132460E-05  0.2201434E+04  0.7818609E-02  0.8517832E-01
        2   -1    0    0  501    0  0.00000000000E+00  0.00000000000E+00  0.92845986451E+03  0.92845986452E+03  0.25500000920E-02 0. -1.
       -2   -1    0    0    0  501  0.00000000000E+00  0.00000000000E+00 -0.13049329051E+04  0.13049329051E+04  0.25500000920E-02 0.  1.
    10030    2    1    2    0    0  0.00000000000E+00  0.00000000000E+00 -0.37647304058E+03  0.22333927696E+04  0.22014339220E+04 0.  0.
        4    1    3    3  502    0 -0.31904407241E+02  0.10880759276E+04 -0.35385192266E+03  0.11446134332E+04  0.12699999809E+01 0.  1.
       -4    1    3    3    0  502  0.31904407241E+02 -0.10880759276E+04 -0.22621117919E+02  0.10887793364E+04  0.12699999809E+01 0. -1.
</event>
<event>
 5   0  0.4132460E-05  0.2201506E+04  0.7818609E-02  0.8517802E-01
       -2   -1    0    0    0  501  0.00000000000E+00  0.00000000000E+00  0.92048667131E+03  0.92048667132E+03  0.25500000920E-02 0. -1.
        2   -1    0    0  501    0  0.00000000000E+00  0.00000000000E+00 -0.13163220409E+04  0.13163220409E+04  0.25500000920E-02 0.  1.
    10030    2    1    2    0    0  0.00000000000E+00  0.00000000000E+00 -0.39583536961E+03  0.22368087122E+04  0.22015057518E+04 0.  0.
        4    1    3    3  502    0  0.25210536200E+03  0.10078457865E+04 -0.56754397445E+03  0.11838150272E+04  0.12699999809E+01 0.  1.
       -4    1    3    3    0  502 -0.25210536200E+03 -0.10078457865E+04  0.17170860484E+03  0.10529936850E+04  0.12699999809E+01 0. -1.
</event>
<event>
 5   0  0.1884407E-05  0.2204835E+04  0.7818609E-02  0.8516418E-01
       -1   -1    0    0    0  501  0.00000000000E+00  0.00000000000E+00  0.85088815345E+03  0.85088815347E+03  0.50400001928E-02 0.  1.
        1   -1    0    0  501    0  0.00000000000E+00  0.00000000000E+00 -0.14283015311E+04  0.14283015311E+04  0.50400001928E-02 0. -1.
    10030    2    1    2    0    0  0.00000000000E+00  0.00000000000E+00 -0.57741337762E+03  0.22791896846E+04  0.22048354609E+04 0.  0.
        3    1    3    3  502    0 -0.95340163770E+03 -0.31492537964E+03 -0.75921791226E+03  0.12587948705E+04  0.10100000352E+00 0. -1.
       -3    1    3    3    0  502  0.95340163770E+03  0.31492537964E+03  0.18180453464E+03  0.10203948140E+04  0.10100000352E+00 0.  1.
</event>
<event>
 5   0  0.1884407E-05  0.2262032E+04  0.7818609E-02  0.8493044E-01
        1   -1    0    0  501    0  0.00000000000E+00  0.00000000000E+00  0.22711826954E+04  0.22711826955E+04  0.50400001928E-02 0.  1.
       -1   -1    0    0    0  501  0.00000000000E+00  0.00000000000E+00 -0.56322951654E+03  0.56322951656E+03  0.50400001928E-02 0. -1.
    10030    2    1    2    0    0  0.00000000000E+00  0.00000000000E+00  0.17079531789E+04  0.28344122120E+04  0.22620319463E+04 0.  0.
        3    1    3    3  502    0  0.99001970539E+03  0.27623122043E+03  0.26258187498E+03  0.10608449253E+04  0.10100000352E+00 0. -1.
       -3    1    3    3    0  502 -0.99001970539E+03 -0.27623122043E+03  0.14453713039E+04  0.17735672867E+04  0.10100000352E+00 0.  1.
</event>
<event>
 5   0  0.1788413E-05  0.2201624E+04  0.7818609E-02  0.8517752E-01
        1   -1    0    0  501    0  0.00000000000E+00  0.00000000000E+00  0.96761176581E+03  0.96761176582E+03  0.50400001928E-02 0.  1.
       -1   -1    0    0    0  501  0.00000000000E+00  0.00000000000E+00 -0.12523485271E+04  0.12523485272E+04  0.50400001928E-02 0. -1.
    10030    2    1    2    0    0  0.00000000000E+00  0.00000000000E+00 -0.28473676133E+03  0.22199602930E+04  0.22016241003E+04 0.  0.
        1    1    3    3  502    0 -0.78064789189E+03  0.15520708376E+03 -0.90915349882E+03  0.12083296133E+04  0.50400001928E-02 0. -1.
       -1    1    3    3    0  502  0.78064789189E+03 -0.15520708376E+03  0.62441673748E+03  0.10116306797E+04  0.50400001928E-02 0.  1.
</event>
<event>
 5   0  0.1815681E-05  0.2187630E+04  0.7818609E-02  0.8523595E-01
        1   -1    0    0  501    0  0.00000000000E+00  0.00000000000E+00  0.11263496862E+04  0.11263496862E+04  0.50400001928E-02 0.  1.
       -1   -1    0    0    0  501  0.00000000000E+00  0.00000000000E+00 -0.10622199069E+04  0.10622199069E+04  0.50400001928E-02 0. -1.
    10030    2    1    2    0    0  0.00000000000E+00  0.00000000000E+00  0.64129779312E+02  0.21885695931E+04  0.21876298214E+04 0.  0.
        2    1    3    3  502    0  0.29505277672E+03  0.22261448479E+03 -0.99785183850E+03  0.10641060293E+04  0.25500000920E-02 0. -1.
       -2    1    3    3    0  502 -0.29505277672E+03 -0.22261448479E+03  0.10619816178E+04  0.11244635639E+04  0.25500000920E-02 0.  1.
</event>
<event>
 5   0  0.4029532E-05  0.2210636E+04  0.7818609E-02  0.8514014E-01
       -2   -1    0    0    0  501  0.00000000000E+00  0.00000000000E+00  0.61256549859E+03  0.61256549859E+03  0.25500000920E-02 0.  1.
        2   -1    0    0  501    0  0.00000000000E+00  0.00000000000E+00 -0.19944452756E+04  0.19944452756E+04  0.25500000920E-02 0. -1.
    10030    2    1    2    0    0  0.00000000000E+00  0.00000000000E+00 -0.13818797770E+04  0.26070107742E+04  0.22106364375E+04 0.  0.
        3    1    3    3  502    0  0.40489914635E+03  0.78115703530E+03  0.98029617362E+02  0.88530189686E+03  0.10100000352E+00 0.  1.
       -3    1    3    3    0  502 -0.40489914635E+03 -0.78115703530E+03 -0.14799093944E+04  0.17217088773E+04  0.10100000352E+00 0. -1.
</event>
<event>
 5   0  0.4029532E-05  0.2224596E+04  0.7818609E-02  0.8508260E-01
        2   -1    0    0  501    0  0.00000000000E+00  0.00000000000E+00  0.14745869859E+04  0.14745869859E+04  0.25500000920E-02 0. -1.
       -2   -1    0    0    0  501  0.00000000000E+00  0.00000000000E+00 -0.83901920718E+03  0.83901920718E+03  0.25500000920E-02 0.  1.
    10030    2    1    2    0    0  0.00000000000E+00  0.00000000000E+00  0.63556777875E+03  0.23136061931E+04  0.22245959668E+04 0.  0.
        3    1    3    3  502    0 -0.45906808613E+03  0.98894910628E+03  0.54668799845E+03  0.12196850497E+04  0.10100000352E+00 0. -1.
       -3    1    3    3    0  502  0.45906808613E+03 -0.98894910628E+03  0.88879780299E+02  0.10939211434E+04  0.10100000352E+00 0.  1.
</event>
<event>
 5   0  0.1884407E-05  0.2209098E+04  0.7818609E-02  0.8514651E-01
        1   -1    0    0  501    0  0.00000000000E+00  0.00000000000E+00  0.19758540509E+04  0.19758540510E+04  0.50400001928E-02 0.  1.
       -1   -1    0    0    0  501  0.00000000000E+00  0.00000000000E+00 -0.61746884331E+03  0.61746884333E+03  0.50400001928E-02 0. -1.
    10030    2    1    2    0    0  0.00000000000E+00  0.00000000000E+00  0.13583852076E+04  0.25933228943E+04  0.22090978389E+04 0.  0.
        3    1    3    3  502    0  0.61568562094E+03 -0.45549622733E+03  0.16135413899E+04  0.17860743053E+04  0.10100000352E+00 0.  1.
       -3    1    3    3    0  502 -0.61568562094E+03  0.45549622733E+03 -0.25515618222E+03  0.80724858902E+03  0.10100000352E+00 0. -1.
</event>
<event>
 5   0  0.4143281E-05  0.2198122E+04  0.7818609E-02  0.8519210E-01
       -2   -1    0    0    0  501  0.00000000000E+00  0.00000000000E+00  0.64263120910E+03  0.64263120910E+03  0.25500000920E-02 0. -1.
        2   -1    0    0  501    0  0.00000000000E+00  0.00000000000E+00 -0.18796707617E+04  0.18796707617E+04  0.25500000920E-02 0.  1.
    10030    2    1    2    0    0  0.00000000000E+00  0.00000000000E+00 -0.12370395526E+04  0.25223019708E+04  0.21981220115E+04 0.  0.
        2    1    3    3  502    0  0.63148627917E+02  0.10537317481E+04 -0.26746437107E+03  0.10889791256E+04  0.25500000920E-02 0. -1.
       -2    1    3    3    0  502 -0.63148627917E+02 -0.10537317481E+04 -0.96957518157E+03  0.14333228453E+04  0.25500000920E-02 0.  1.
</event>
<event>
 5   0  0.3963414E-05  0.2194514E+04  0.7818609E-02  0.8520715E-01
       -2   -1    0    0    0  501  0.00000000000E+00  0.00000000000E+00  0.76048664323E+03  0.76048664323E+03  0.25500000920E-02 0. -1.
        2   -1    0    0  501    0  0.00000000000E+00  0.00000000000E+00 -0.15831605841E+04  0.15831605841E+04  0.25500000920E-02 0.  1.
    10030    2    1    2    0    0  0.00000000000E+00  0.00000000000E+00 -0.82267394091E+03  0.23436472274E+04  0.21945135938E+04 0.  0.
        1    1    3    3  502    0 -0.99520592024E+03  0.26801346849E+03 -0.81335798228E+03  0.13129422113E+04  0.50400001928E-02 0.  1.
       -1    1    3    3    0  502  0.99520592024E+03 -0.26801346849E+03 -0.93159586363E+01  0.10307050160E+04  0.50400001928E-02 0. -1.
</event>
<event>
 5   0  0.4132460E-05  0.2201944E+04  0.7818609E-02  0.8517619E-01
       -2   -1    0    0    0  501  0.00000000000E+00  0.00000000000E+00  0.59345414858E+03  0.59345414859E+03  0.25500000920E-02 0. -1.
        2   -1    0    0  501    0  0.00000000000E+00  0.00000000000E+00 -0.20425164354E+04  0.20425164354E+04  0.25500000920E-02 0.  1.
    10030    2    1    2    0    0  0.00000000000E+00  0.00000000000E+00 -0.14490622868E+04  0.26359705840E+04  0.22019444608E+04 0.  0.
        4    1    3    3  502    0  0.83271720991E+03  0.67576828772E+03 -0.10227474366E+04  0.14819226236E+04  0.12699999809E+01 0. -1.
       -4    1    3    3    0  502 -0.83271720991E+03 -0.67576828772E+03 -0.42631485014E+03  0.11540479603E+04  0.12699999809E+01 0.  1.
</event>
<event>
 5   0  0.1786228E-05  0.2196078E+04  0.7818609E-02  0.8520062E-01
       -1   -1    0    0    0  501  0.00000000000E+00  0.00000000000E+00  0.53951817591E+03  0.53951817593E+03  0.50400001928E-02 0.  1.
        1   -1    0    0  501    0  0.00000000000E+00  0.00000000000E+00 -0.22347530681E+04  0.22347530681E+04  0.50400001928E-02 0. -1.
    10030    2    1    2    0    0  0.00000000000E+00  0.00000000000E+00 -0.16952348922E+04  0.27742712440E+04  0.21960782308E+04 0.  0.
        5    1    3    3  502    0  0.88575748035E+03  0.32209653270E+03 -0.13595507385E+03  0.95227011004E+03  0.46999998093E+01 0.  1.
       -5    1    3    3    0  502 -0.88575748035E+03 -0.32209653270E+03 -0.15592798183E+04  0.18220011340E+04  0.46999998093E+01 0. -1.
</event>
<event>
 5   0  0.3963414E-05  0.2187070E+04  0.7818609E-02  0.8523829E-01
        2   -1    0    0  501    0  0.00000000000E+00  0.00000000000E+00  0.10099951074E+04  0.10099951074E+04  0.25500000920E-02 0. -1.
       -2   -1    0    0    0  501  0.00000000000E+00  0.00000000000E+00 -0.11839848743E+04  0.11839848743E+04  0.25500000920E-02 0.  1.
    10030    2    1    2    0    0  0.00000000000E+00  0.00000000000E+00 -0.17398976692E+03  0.21939799817E+04  0.21870701226E+04 0.  0.
        1    1    3    3  502    0 -0.80930650143E+03  0.18755710725E+03 -0.80034227499E+03  0.11535607652E+04  0.50400001928E-02 0.  1.
       -1    1    3    3    0  502  0.80930650143E+03 -0.18755710725E+03  0.62635250807E+03  0.10404192165E+04  0.50400001928E-02 0. -1.
</event>
<event>
 5   0  0.4029532E-05  0.1940558E+04  0.7818609E-02  0.8634927E-01
        2   -1    0    0  501    0  0.00000000000E+00  0.00000000000E+00  0.65360400391E+03  0.65360400392E+03  0.25500000920E-02 0. -1.
       -2   -1    0    0    0  501  0.00000000000E+00  0.00000000000E+00 -0.14403851541E+04  0.14403851541E+04  0.25500000920E-02 0.  1.
    10030    2    1    2    0    0  0.00000000000E+00  0.00000000000E+00 -0.78678115014E+03  0.20939891580E+04  0.19405581711E+04 0.  0.
        3    1    3    3  502    0  0.24512845980E+03 -0.89669647278E+03 -0.69338039399E+03  0.11597106997E+04  0.10100000352E+00 0.  1.
       -3    1    3    3    0  502 -0.24512845980E+03  0.89669647278E+03 -0.93400756150E+02  0.93427845825E+03  0.10100000352E+00 0. -1.
</event>
<event>
 5   0  0.1866935E-05  0.2185004E+04  0.7818609E-02  0.8524696E-01
        1   -1    0    0  501    0  0.00000000000E+00  0.00000000000E+00  0.96057317607E+03  0.96057317608E+03  0.50400001928E-02 0.  1.
       -1   -1    0    0    0  501  0.00000000000E+00  0.00000000000E+00 -0.12425507949E+04  0.12425507949E+04  0.50400001928E-02 0. -1.
    10030    2    1    2    0    0  0.00000000000E+00  0.00000000000E+00 -0.28197761879E+03  0.22031239710E+04  0.21850043144E+04 0.  0.
        4    1    3    3  502    0  0.72725144663E+03 -0.26544821452E+03 -0.91822616550E+03  0.12010405177E+04  0.12699999809E+01 0. -1.
       -4    1    3    3    0  502 -0.72725144663E+03  0.26544821452E+03  0.63624854671E+03  0.10020834533E+04  0.12699999809E+01 0.  1.
</event>
<event>
 5   0  0.4027923E-05  0.2201503E+04  0.7818609E-02  0.8517803E-01
       -2   -1    0    0    0  501  0.00000000000E+00  0.00000000000E+00  0.12995055657E+04  0.12995055657E+04  0.25500000920E-02 0.  1.
        2   -1    0    0  501    0  0.00000000000E+00  0.00000000000E+00 -0.93239614510E+03  0.93239614511E+03  0.25500000920E-02 0. -1.
    10030    2    1    2    0    0  0.00000000000E+00  0.00000000000E+00  0.36710942056E+03  0.22319017108E+04  0.22015031047E+04 0.  0.
        5    1    3    3  502    0  0.65819295777E+03 -0.55792396229E+03 -0.50935534082E+03  0.10019790769E+04  0.46999998093E+01 0. -1.
       -5    1    3    3    0  502 -0.65819295777E+03  0.55792396229E+03  0.87646476138E+03  0.12299226339E+04  0.46999998093E+01 0.  1.
</event>
<event>
 5   0  0.4143281E-05  0.2191024E+04  0.7818609E-02  0.8522173E-01
        2   -1    0    0  501    0  0.00000000000E+00  0.00000000000E+00  0.12375097876E+04  0.12375097876E+04  0.25500000920E-02 0. -1.
       -2   -1    0    0    0  501  0.00000000000E+00  0.00000000000E+00 -0.96980797123E+03  0.96980797124E+03  0.25500000920E-02 0.  1.
    10030    2    1    2    0    0  0.00000000000E+00  0.00000000000E+00  0.26770181637E+03  0.22073177588E+04  0.21910242870E+04 0.  0.
        2    1    3    3  502    0 -0.62894610587E+03  0.36736207924E+03  0.95823854542E+03  0.12036399841E+04  0.25500000920E-02 0. -1.
       -2    1    3    3    0  502  0.62894610587E+03 -0.36736207924E+03 -0.69053672905E+03  0.10036777748E+04  0.25500000920E-02 0.  1.
</event>
<event>
 5   0  0.4143281E-05  0.2092417E+04  0.7818609E-02  0.8564591E-01
       -2   -1    0    0    0  501  0.00000000000E+00  0.00000000000E+00  0.11509567239E+04  0.11509567239E+04  0.25500000920E-02 0.  1.
        2   -1    0    0  501    0  0.00000000000E+00  0.00000000000E+00 -0.95099365668E+03  0.95099365668E+03  0.25500000920E-02 0. -1.
    10030    2    1    2    0    0  0.00000000000E+00  0.00000000000E+00  0.19996306727E+03  0.21019503806E+04  0.20924173041E+04 0.  0.
        2    1    3    3  502    0  0.10452137647E+04  0.42884403493E+02  0.11559769891E+03  0.10524607898E+04  0.25500000920E-02 0.  1.
       -2    1    3    3    0  502 -0.10452137647E+04 -0.42884403493E+02  0.84365368356E+02  0.10494895909E+04  0.25500000920E-02 0. -1.
</event>
<event>
 5   0  0.1884407E-05  0.2232387E+04  0.7818609E-02  0.8505067E-01
        1   -1    0    0  501    0  0.00000000000E+00  0.00000000000E+00  0.17524521158E+04  0.17524521158E+04  0.50400001928E-02 0.  1.
       -1   -1    0    0    0  501  0.00000000000E+00  0.00000000000E+00 -0.71094007248E+03  0.71094007250E+03  0.50400001928E-02 0. -1.
    10030    2    1    2    0    0  0.00000000000E+00  0.00000000000E+00  0.10415120433E+04  0.24633921883E+04  0.22323874522E+04 0.  0.
        3    1    3    3  502    0  0.23498674052E+03  0.54909660029E+03  0.15612859487E+04  0.16716278498E+04  0.10100000352E+00 0.  1.
       -3    1    3    3    0  502 -0.23498674052E+03 -0.54909660029E+03 -0.51977390539E+03  0.79176433842E+03  0.10100000352E+00 0. -1.
</event>
<event>
 5   0  0.1815681E-05  0.2197860E+04  0.7818609E-02  0.8519319E-01
        1   -1    0    0  501    0  0.00000000000E+00  0.00000000000E+00  0.17943994690E+04  0.17943994690E+04  0.50400001928E-02 0.  1.
       -1   -1    0    0    0  501  0.00000000000E+00  0.00000000000E+00 -0.67300935311E+03  0.67300935313E+03  0.50400001928E-02 0. -1.
    10030    2    1    2    0    0  0.00000000000E+00  0.00000000000E+00  0.11213901159E+04  0.24674088222E+04  0.21978604377E+04 0.  0.
        2    1    3    3  502    0 -0.53213066644E+03 -0.47377597270E+03 -0.37858803946E+03  0.80681820883E+03  0.25500000920E-02 0. -1.
       -2    1    3    3    0  502  0.53213066644E+03  0.47377597270E+03  0.14999781554E+04  0.16605906133E+04  0.25500000920E-02 0.  1.
</event>
<event>
 5   0  0.3963414E-05  0.2202344E+04  0.7818609E-02  0.8517453E-01
        2   -1    0    0  501    0  0.00000000000E+00  0.00000000000E+00  0.96255792971E+03  0.96255792971E+03  0.25500000920E-02 0. -1.
       -2   -1    0    0    0  501  0.00000000000E+00  0.00000000000E+00 -0.12597470788E+04  0.12597470788E+04  0.25500000920E-02 0.  1.
    10030    2    1    2    0    0  0.00000000000E+00  0.00000000000E+00 -0.29718914906E+03  0.22223050085E+04  0.22023437880E+04 0.  0.
        1    1    3    3  502    0 -0.90317676486E+03  0.65686000000E+02  0.48361146609E+03  0.10266075050E+04  0.50400001928E-02 0. -1.
       -1    1    3    3    0  502  0.90317676486E+03 -0.65686000000E+02 -0.78080061516E+03  0.11956975035E+04  0.50400001928E-02 0.  1.
</event>
<event>
 5   0  0.1815681E-05  0.2185632E+04  0.7818609E-02  0.8524432E-01
        1   -1    0    0  501    0  0.00000000000E+00  0.00000000000E+00  0.87011149273E+03  0.87011149275E+03  0.50400001928E-02 0. -1.
       -1   -1    0    0    0  501  0.00000000000E+00  0.00000000000E+00 -0.13725219752E+04  0.13725219752E+04  0.50400001928E-02 0.  1.
    10030    2    1    2    0    0  0.00000000000E+00  0.00000000000E+00 -0.50241048247E+03  0.22426334680E+04  0.21856323064E+04 0.  0.
        2    1    3    3  502    0 -0.40669346326E+03 -0.36930607839E+03  0.71813383783E+03  0.90415859318E+03  0.25500000920E-02 0. -1.
       -2    1    3    3    0  502  0.40669346326E+03  0.36930607839E+03 -0.12205443203E+04  0.13384748748E+04  0.25500000920E-02 0.  1.
</event>
<event>
 5   0  0.1786228E-05  0.1983844E+04  0.7818609E-02  0.8614212E-01
        1   -1    0    0  501    0  0.00000000000E+00  0.00000000000E+00  0.14027924537E+04  0.14027924537E+04  0.50400001928E-02 0. -1.
       -1   -1    0    0    0  501  0.00000000000E+00  0.00000000000E+00 -0.70139317299E+03  0.70139317301E+03  0.50400001928E-02 0.  1.
    10030    2    1    2    0    0  0.00000000000E+00  0.00000000000E+00  0.70139928069E+03  0.21041856267E+04  0.19838437944E+04 0.  0.
        5    1    3    3  502    0 -0.31012526782E+03  0.32267036289E+03  0.12896051383E+04  0.13650631295E+04  0.46999998093E+01 0. -1.
       -5    1    3    3    0  502  0.31012526782E+03 -0.32267036289E+03 -0.58820585765E+03  0.73912249715E+03  0.46999998093E+01 0.  1.
</event>
<event>
 5   0  0.4027923E-05  0.2211428E+04  0.7818609E-02  0.8513687E-01
       -2   -1    0    0    0  501  0.00000000000E+00  0.00000000000E+00  0.93004419321E+03  0.93004419322E+03  0.25500000920E-02 0. -1.
        2   -1    0    0  501    0  0.00000000000E+00  0.00000000000E+00 -0.13145645625E+04  0.13145645625E+04  0.25500000920E-02 0.  1.
    10030    2    1    2    0    0  0.00000000000E+00  0.00000000000E+00 -0.38452036929E+03  0.22446087557E+04  0.22114277180E+04 0.  0.
        5    1    3    3  502    0  0.26207355946E+03 -0.32355833951E+03  0.84741769452E+03  0.94419880778E+03  0.46999998093E+01 0. -1.
       -5    1    3    3    0  502 -0.26207355946E+03  0.32355833951E+03 -0.12319380638E+04  0.13004099479E+04  0.46999998093E+01 0.  1.
</event>
<event>
 5   0  0.1815681E-05  0.2185870E+04  0.7818609E-02  0.8524332E-01
        1   -1    0    0  501    0  0.00000000000E+00  0.00000000000E+00  0.99075211790E+03  0.99075211791E+03  0.50400001928E-02 0. -1.
       -1   -1    0    0    0  501  0.00000000000E+00  0.00000000000E+00 -0.12056571923E+04  0.12056571923E+04  0.50400001928E-02 0.  1.
    10030    2    1    2    0    0  0.00000000000E+00  0.00000000000E+00 -0.21490507441E+03  0.21964093102E+04  0.21858704598E+04 0.  0.
        2    1    3    3  502    0 -0.23359620930E+03  0.56032698649E+02 -0.11788016030E+04  0.12030295389E+04  0.25500000920E-02 0.  1.
       -2    1    3    3    0  502  0.23359620930E+03 -0.56032698649E+02  0.96389652855E+03  0.99337977133E+03  0.25500000920E-02 0. -1.
</event>
<event>
 5   0  0.1884407E-05  0.2196466E+04  0.7818609E-02  0.8519900E-01
        1   -1    0    0  501    0  0.00000000000E+00  0.00000000000E+00  0.14055183141E+04  0.14055183141E+04  0.50400001928E-02 0.  1.
       -1   -1    0    0    0  501  0.00000000000E+00  0.00000000000E+00 -0.85812898462E+03  0.85812898463E+03  0.50400001928E-02 0. -1.
    10030    2    1    2    0    0  0.00000000000E+00  0.00000000000E+00  0.54738932945E+03  0.22636472987E+04  0.21964662563E+04 0.  0.
        3    1    3    3  502    0  0.73008923769E+02 -0.10486337139E+04 -0.54078701087E+02  0.10525623426E+04  0.10100000352E+00 0. -1.
       -3    1    3    3    0  502 -0.73008923769E+02  0.10486337139E+04  0.60146803054E+03  0.12110849561E+04  0.10100000352E+00 0.  1.
</event>
<event>
 5   0  0.1786228E-05  0.2200976E+04  0.7818609E-02  0.8518022E-01
       -1   -1    0    0    0  501  0.00000000000E+00  0.00000000000E+00  0.90796927242E+03  0.90796927244E+03  0.50400001928E-02 0.  1.
        1   -1    0    0  501    0  0.00000000000E+00  0.00000000000E+00 -0.13338274583E+04  0.13338274583E+04  0.50400001928E-02 0. -1.
    10030    2    1    2    0    0  0.00000000000E+00  0.00000000000E+00 -0.42585818588E+03  0.22417967308E+04  0.22009764623E+04 0.  0.
        5    1    3    3  502    0 -0.30154335888E+03  0.46139092400E+03 -0.11830871008E+04  0.13051923844E+04  0.46999998093E+01 0. -1.
       -5    1    3    3    0  502  0.30154335888E+03 -0.46139092400E+03  0.75722891496E+03  0.93660434639E+03  0.46999998093E+01 0.  1.
</event>
<event>
 5   0  0.4143281E-05  0.2202143E+04  0.7818609E-02  0.8517537E-01
       -2   -1    0    0    0  501  0.00000000000E+00  0.00000000000E+00  0.12009101169E+04  0.12009101169E+04  0.25500000920E-02 0.  1.
        2   -1    0    0  501    0  0.00000000000E+00  0.00000000000E+00 -0.10095331069E+04  0.10095331069E+04  0.25500000920E-02 0. -1.
    10030    2    1    2    0    0  0.00000000000E+00  0.00000000000E+00  0.19137701001E+03  0.22104432238E+04  0.22021430666E+04 0.  0.
        2    1    3    3  502    0 -0.19278614420E+03  0.72286627690E+03 -0.71522797117E+03  0.10350136243E+04  0.25500000920E-02 0. -1.
       -2    1    3    3    0  502  0.19278614420E+03 -0.72286627690E+03  0.90660498118E+03  0.11754295996E+04  0.25500000920E-02 0.  1.
</event>
<event>
 5   0  0.3963414E-05  0.2176011E+04  0.7818609E-02  0.8528480E-01
        2   -1    0    0  501    0  0.00000000000E+00  0.00000000000E+00  0.14754169367E+04  0.14754169367E+04  0.25500000920E-02 0.  1.
       -2   -1    0    0    0  501  0.00000000000E+00  0.00000000000E+00 -0.80231969249E+03  0.80231969250E+03  0.25500000920E-02 0. -1.
    10030    2    1    2    0    0  0.00000000000E+00  0.00000000000E+00  0.67309724424E+03  0.22777366292E+04  0.21760110873E+04 0.  0.
        1    1    3    3  502    0  0.56328098684E+03 -0.27782943723E+03 -0.59339867258E+03  0.86405824513E+03  0.50400001928E-02 0. -1.
       -1    1    3    3    0  502 -0.56328098684E+03  0.27782943723E+03  0.12664959168E+04  0.14136783841E+04  0.50400001928E-02 0.  1.
</event>
<event>
 5   0  0.1884407E-05  0.2202367E+04  0.7818609E-02  0.8517443E-01
       -1   -1    0    0    0  501  0.00000000000E+00  0.00000000000E+00  0.99160373750E+03  0.99160373751E+03  0.50400001928E-02 0. -1.
        1   -1    0    0  501    0  0.00000000000E+00  0.00000000000E+00 -0.12228731066E+04  0.12228731066E+04  0.50400001928E-02 0.  1.
    10030    2    1    2    0    0  0.00000000000E+00  0.00000000000E+00 -0.23126936914E+03  0.22144768442E+04  0.22023674017E+04 0.  0.
        3    1    3    3  502    0  0.18091239678E+03 -0.42290478766E+01 -0.12078199391E+04  0.12213010258E+04  0.10100000352E+00 0.  1.
       -3    1    3    3    0  502 -0.18091239678E+03  0.42290478766E+01  0.97655056999E+03  0.99317581832E+03  0.10100000352E+00 0. -1.
</event>
<event>
 5   0  0.3963414E-05  0.2193007E+04  0.7818609E-02  0.8521344E-01
       -2   -1    0    0    0  501  0.00000000000E+00  0.00000000000E+00  0.81982409071E+03  0.81982409071E+03  0.25500000920E-02 0. -1.
        2   -1    0    0  501    0  0.00000000000E+00  0.00000000000E+00 -0.14665581727E+04  0.14665581727E+04  0.25500000920E-02 0.  1.
    10030    2    1    2    0    0  0.00000000000E+00  0.00000000000E+00 -0.64673408204E+03  0.22863822635E+04  0.21930068130E+04 0.  0.
        1    1    3    3  502    0  0.23541645834E+03  0.70328121094E+03 -0.11654030612E+04  0.13813723848E+04  0.50400001928E-02 0.  1.
       -1    1    3    3    0  502 -0.23541645834E+03 -0.70328121094E+03  0.51866897913E+03  0.90500987865E+03  0.50400001928E-02 0. -1.
</event>
<event>
 5   0  0.3963414E-05  0.2205461E+04  0.7818609E-02  0.8516159E-01
        2   -1    0    0  501    0  0.00000000000E+00  0.00000000000E+00  0.19459393166E+04  0.19459393166E+04  0.25500000920E-02 0.  1.
       -2   -1    0    0    0  501  0.00000000000E+00  0.00000000000E+00 -0.62489845134E+03  0.62489845135E+03  0.25500000920E-02 0. -1.
    10030    2    1    2    0    0  0.00000000000E+00  0.00000000000E+00  0.13210408652E+04  0.25708377679E+04  0.22054609181E+04 0.  0.
        1    1    3    3  502    0  0.63683711940E+03 -0.16955883232E+03 -0.37009377551E+03  0.75583140776E+03  0.50400001928E-02 0. -1.
       -1    1    3    3    0  502 -0.63683711940E+03  0.16955883232E+03  0.16911346408E+04  0.18150063602E+04  0.50400001928E-02 0.  1.
</event>
<event>
 5   0  0.4027923E-05  0.1994767E+04  0.7818609E-02  0.8609071E-01
        2   -1    0    0  501    0  0.00000000000E+00  0.00000000000E+00  0.10372852937E+04  0.10372852937E+04  0.25500000920E-02 0. -1.
       -2   -1    0    0    0  501  0.00000000000E+00  0.00000000000E+00 -0.95901682027E+03  0.95901682027E+03  0.25500000920E-02 0.  1.
    10030    2    1    2    0    0  0.00000000000E+00  0.00000000000E+00  0.78268473390E+02  0.19963021139E+04  0.19947671985E+04 0.  0.
        5    1    3    3  502    0 -0.59335273035E+03 -0.14500686989E+01 -0.76315736873E+03  0.96669582846E+03  0.46999998093E+01 0.  1.
       -5    1    3    3    0  502  0.59335273035E+03  0.14500686989E+01  0.84142584212E+03  0.10296062855E+04  0.46999998093E+01 0. -1.
</event>
<event>
 5   0  0.4029532E-05  0.2193670E+04  0.7818609E-02  0.8521067E-01
        2   -1    0    0  501    0  0.00000000000E+00  0.00000000000E+00  0.14184062092E+04  0.14184062092E+04  0.25500000920E-02 0. -1.
       -2   -1    0    0    0  501  0.00000000000E+00  0.00000000000E+00 -0.84816804161E+03  0.84816804161E+03  0.25500000920E-02 0.  1.
    10030    2    1    2    0    0  0.00000000000E+00  0.00000000000E+00  0.57023816761E+03  0.22665742508E+04  0.21936698172E+04 0.  0.
        3    1    3    3  502    0  0.19280950402E+03  0.14144842763E+03 -0.82090646990E+03  0.85502666920E+03  0.10100000352E+00 0.  1.
       -3    1    3    3    0  502 -0.19280950402E+03 -0.14144842763E+03  0.13911446375E+04  0.14115475816E+04  0.10100000352E+00 0. -1.
</event>
<event>
 5   0  0.1788413E-05  0.2161689E+04  0.7818609E-02  0.8534545E-01
       -1   -1    0    0    0  501  0.00000000000E+00  0.00000000000E+00  0.10274555122E+04  0.10274555122E+04  0.50400001928E-02 0.  1.
        1   -1    0    0  501    0  0.00000000000E+00  0.00000000000E+00 -0.11370082177E+04  0.11370082177E+04  0.50400001928E-02 0. -1.
    10030    2    1    2    0    0  0.00000000000E+00  0.00000000000E+00 -0.10955270546E+03  0.21644637299E+04  0.21616894880E+04 0.  0.
        1    1    3    3  502    0 -0.50516196092E+03 -0.26805566837E+03  0.86356094449E+03  0.10357509126E+04  0.50400001928E-02 0.  1.
       -1    1    3    3    0  502  0.50516196092E+03  0.26805566837E+03 -0.97311364995E+03  0.11287128173E+04  0.50400001928E-02 0. -1.
</event>
<event>
 5   0  0.1788413E-05  0.2205303E+04  0.7818609E-02  0.8516224E-01
        1   -1    0    0  501    0  0.00000000000E+00  0.00000000000E+00  0.62644538959E+03  0.62644538961E+03  0.50400001928E-02 0.  1.
       -1   -1    0    0    0  501  0.00000000000E+00  0.00000000000E+00 -0.19408566337E+04  0.19408566337E+04  0.50400001928E-02 0. -1.
    10030    2    1    2    0    0  0.00000000000E+00  0.00000000000E+00 -0.13144112441E+04  0.25673020233E+04  0.22053033262E+04 0.  0.
        1    1    3    3  502    0  0.67951899234E+03 -0.44446216720E+03  0.21127463082E+03  0.83900515414E+03  0.50400001928E-02 0.  1.
       -1    1    3    3    0  502 -0.67951899234E+03  0.44446216720E+03 -0.15256858750E+04  0.17282968692E+04  0.50400001928E-02 0. -1.
</event>
<event>
 5   0  0.1788413E-05  0.2234459E+04  0.7818609E-02  0.8504221E-01
       -1   -1    0    0    0  501  0.00000000000E+00  0.00000000000E+00  0.84436806313E+03  0.84436806315E+03  0.50400001928E-02 0. -1.
        1   -1    0    0  501    0  0.00000000000E+00  0.00000000000E+00 -0.14782669669E+04  0.14782669669E+04  0.50400001928E-02 0.  1.
    10030    2    1    2    0    0  0.00000000000E+00  0.00000000000E+00 -0.63389890374E+03  0.23226350300E+04  0.22344586956E+04 0.  0.
        1    1    3    3  502    0  0.72763452415E+01  0.97821752667E+03 -0.87791134784E+03  0.13144165281E+04  0.50400001928E-02 0.  1.
       -1    1    3    3    0  502 -0.72763452415E+01 -0.97821752667E+03  0.24401244411E+03  0.10082185019E+04  0.50400001928E-02 0. -1.
</event>
<event>
 5   0  0.4027923E-05  0.2197233E+04  0.7818609E-02  0.8519581E-01
        2   -1    0    0  501    0  0.00000000000E+00  0.00000000000E+00  0.11337280614E+04  0.11337280614E+04  0.25500000920E-02 0. -1.
       -2   -1    0    0    0  501  0.00000000000E+00  0.00000000000E+00 -0.10645920440E+04  0.10645920440E+04  0.25500000920E-02 0.  1.
    10030    2    1    2    0    0  0.00000000000E+00  0.00000000000E+00  0.69136017351E+02  0.21983201054E+04  0.21972326907E+04 0.  0.
        5    1    3    3  502    0 -0.22743258922E+02  0.22797300832E+03  0.11095516340E+04  0.11329677254E+04  0.46999998093E+01 0. -1.
       -5    1    3    3    0  502  0.22743258922E+02 -0.22797300832E+03 -0.10404156166E+04  0.10653523800E+04  0.46999998093E+01 0.  1.
</event>
<event>
 5   0  0.3963414E-05  0.2196829E+04  0.7818609E-02  0.8519749E-01
        2   -1    0    0  501    0  0.00000000000E+00  0.00000000000E+00  0.14397439965E+04  0.14397439966E+04  0.25500000920E-02 0. -1.
       -2   -1    0    0    0  501  0.00000000000E+00  0.00000000000E+00 -0.83800593859E+03  0.83800593860E+03  0.25500000920E-02 0.  1.
    10030    2    1    2    0    0  0.00000000000E+00  0.00000000000E+00  0.60173805796E+03  0.22777499351E+04  0.21968286407E+04 0.  0.
        1    1    3    3  502    0  0.42451215476E+03  0.92214679979E+03 -0.13404451068E+03  0.10239791115E+04  0.50400001928E-02 0.  1.
       -1    1    3    3    0  502 -0.42451215476E+03 -0.92214679979E+03  0.73578256864E+03  0.12537708237E+04  0.50400001928E-02 0. -1.
</event>
<event>
 5   0  0.1786228E-05  0.2227792E+04  0.7818609E-02  0.8506949E-01
        1   -1    0    0  501    0  0.00000000000E+00  0.00000000000E+00  0.95882084329E+03  0.95882084330E+03  0.50400001928E-02 0. -1.
       -1   -1    0    0    0  501  0.00000000000E+00  0.00000000000E+00 -0.12940527433E+04  0.12940527433E+04  0.50400001928E-02 0.  1.
    10030    2    1    2    0    0  0.00000000000E+00  0.00000000000E+00 -0.33523190000E+03  0.22528735866E+04  0.22277923984E+04 0.  0.
        5    1    3    3  502    0  0.70599572718E+03 -0.77620357552E+03  0.21051988298E+03  0.10701694579E+04  0.46999998093E+01 0. -1.
       -5    1    3    3    0  502 -0.70599572718E+03  0.77620357552E+03 -0.54575178298E+03  0.11827041287E+04  0.46999998093E+01 0.  1.
</event>
<event>
 5   0  0.1884407E-05  0.2210183E+04  0.7818609E-02  0.8514202E-01
       -1   -1    0    0    0  501  0.00000000000E+00  0.00000000000E+00  0.77759483346E+03  0.77759483347E+03  0.50400001928E-02 0. -1.
        1   -1    0    0  501    0  0.00000000000E+00  0.00000000000E+00 -0.15705189380E+04  0.15705189380E+04  0.50400001928E-02 0.  1.
    10030    2    1    2    0    0  0.00000000000E+00  0.00000000000E+00 -0.79292410454E+03  0.23481137715E+04  0.22101831707E+04 0.  0.
        3    1    3    3  502    0 -0.14221577053E+03  0.91553855826E+03  0.24344847498E+03  0.95796834354E+03  0.10100000352E+00 0. -1.
       -3    1    3    3    0  502  0.14221577053E+03 -0.91553855826E+03 -0.10363725795E+04  0.13901454279E+04  0.10100000352E+00 0.  1.
</event>
<event>
 5   0  0.3963414E-05  0.2205377E+04  0.7818609E-02  0.8516193E-01
        2   -1    0    0  501    0  0.00000000000E+00  0.00000000000E+00  0.71708627414E+03  0.71708627414E+03  0.25500000920E-02 0.  1.
       -2   -1    0    0    0  501  0.00000000000E+00  0.00000000000E+00 -0.16956428066E+04  0.16956428066E+04  0.25500000920E-02 0. -1.
    10030    2    1    2    0    0  0.00000000000E+00  0.00000000000E+00 -0.97855653242E+03  0.24127290807E+04  0.22053772307E+04 0.  0.
        1    1    3    3  502    0 -0.26637512323E+03  0.25691220485E+03  0.64711556341E+03  0.74546504929E+03  0.50400001928E-02 0.  1.
       -1    1    3    3    0  502  0.26637512323E+03 -0.25691220485E+03 -0.16256720958E+04  0.16672640314E+04  0.50400001928E-02 0. -1.
</event>
<event>
 5   0  0.1788413E-05  0.1979058E+04  0.7818609E-02  0.8616475E-01
       -1   -1    0    0    0  501  0.00000000000E+00  0.00000000000E+00  0.50396774870E+03  0.50396774872E+03  0.50400001928E-02 0.  1.
        1   -1    0    0  501    0  0.00000000000E+00  0.00000000000E+00 -0.19429178495E+04  0.19429178495E+04  0.50400001928E-02 0. -1.
    10030    2    1    2    0    0  0.00000000000E+00  0.00000000000E+00 -0.14389501008E+04  0.24468855982E+04  0.19790582958E+04 0.  0.
        1    1    3    3  502    0  0.64469826202E+03  0.32565109194E+03 -0.15557378390E+04  0.17152273046E+04  0.50400001928E-02 0. -1.
       -1    1    3    3    0  502 -0.64469826202E+03 -0.32565109194E+03  0.11678773824E+03  0.73165829358E+03  0.50400001928E-02 0.  1.
</event>
<event>
 5   0  0.1815681E-05  0.2199522E+04  0.7818609E-02  0.8518627E-01
        1   -1    0    0  501    0  0.00000000000E+00  0.00000000000E+00  0.10906406096E+04  0.10906406096E+04  0.50400001928E-02 0. -1.
       -1   -1    0    0    0  501  0.00000000000E+00  0.00000000000E+00 -0.11089575111E+04  0.11089575111E+04  0.50400001928E-02 0.  1.
    10030    2    1    2    0    0  0.00000000000E+00  0.00000000000E+00 -0.18316901498E+02  0.21995981208E+04  0.21995218535E+04 0.  0.
        2    1    3    3  502    0  0.26894540582E+03 -0.63367485315E+03 -0.86685866590E+03  0.11069414607E+04  0.25500000920E-02 0.  1.
       -2    1    3    3    0  502 -0.26894540582E+03  0.63367485315E+03  0.84854176440E+03  0.10926566601E+04  0.25500000920E-02 0. -1.
</event>
<event>
 5   0  0.1866935E-05  0.2195648E+04  0.7818609E-02  0.8520242E-01
       -1   -1    0    0    0  501  0.00000000000E+00  0.00000000000E+00  0.60870576901E+03  0.60870576903E+03  0.50400001928E-02 0.  1.
        1   -1    0    0  501    0  0.00000000000E+00  0.00000000000E+00 -0.19799673926E+04  0.19799673926E+04  0.50400001928E-02 0. -1.
    10030    2    1    2    0    0  0.00000000000E+00  0.00000000000E+00 -0.13712616236E+04  0.25886731617E+04  0.21956480359E+04 0.  0.
        4    1    3    3  502    0 -0.62269629504E+03 -0.79481362494E+03 -0.11937472303E+04  0.15634939837E+04  0.12699999809E+01 0. -1.
       -4    1    3    3    0  502  0.62269629504E+03  0.79481362494E+03 -0.17751439332E+03  0.10251791780E+04  0.12699999809E+01 0.  1.
</event>
<event>
 5   0  0.1866935E-05  0.2244526E+04  0.7818609E-02  0.8500121E-01
       -1   -1    0    0    0  501  0.00000000000E+00  0.00000000000E+00  0.11279016310E+04  0.11279016310E+04  0.50400001928E-02 0.  1.
        1   -1    0    0  501    0  0.00000000000E+00  0.00000000000E+00 -0.11166521592E+04  0.11166521592E+04  0.50400001928E-02 0. -1.
    10030    2    1    2    0    0  0.00000000000E+00  0.00000000000E+00  0.11249471757E+02  0.22445537902E+04  0.22445255994E+04 0.  0.
        4    1    3    3  502    0 -0.76033489953E+03 -0.67219250987E+03  0.48471346926E+03  0.11246780384E+04  0.12699999809E+01 0.  1.
       -4    1    3    3    0  502  0.76033489953E+03  0.67219250987E+03 -0.47346399751E+03  0.11198757519E+04  0.12699999809E+01 0. -1.
</event>
<event>
 5   0  0.1788413E-05  0.2191035E+04  0.7818609E-02  0.8522169E-01
        1   -1    0    0  501    0  0.00000000000E+00  0.00000000000E+00  0.15358242143E+04  0.15358242143E+04  0.50400001928E-02 0.  1.
       -1   -1    0    0    0  501  0.00000000000E+00  0.00000000000E+00 -0.78144239754E+03  0.78144239756E+03  0.50400001928E-02 0. -1.
    10030    2    1    2    0    0  0.00000000000E+00  0.00000000000E+00  0.75438181676E+03  0.23172666119E+04  0.21910346015E+04 0.  0.
        1    1    3    3  502    0  0.73835061173E+03 -0.76896228243E+03  0.11027500124E+03  0.10717393310E+04  0.50400001928E-02 0. -1.
       -1    1    3    3    0  502 -0.73835061173E+03  0.76896228243E+03  0.64410681552E+03  0.12455272809E+04  0.50400001928E-02 0.  1.
</event>
<event>
 5   0  0.1884407E-05  0.2213270E+04  0.7818609E-02  0.8512925E-01
        1   -1    0    0  501    0  0.00000000000E+00  0.00000000000E+00  0.96465487430E+03  0.96465487432E+03  0.50400001928E-02 0. -1.
       -1   -1    0    0    0  501  0.00000000000E+00  0.00000000000E+00 -0.12695119855E+04  0.12695119855E+04  0.50400001928E-02 0.  1.
    10030    2    1    2    0    0  0.00000000000E+00  0.00000000000E+00 -0.30485711122E+03  0.22341668598E+04  0.22132699111E+04 0.  0.
        3    1    3    3  502    0  0.61973207076E+03 -0.71977512047E+03 -0.72567842544E+03  0.11953046687E+04  0.10100000352E+00 0.  1.
       -3    1    3    3    0  502 -0.61973207076E+03  0.71977512047E+03  0.42082131422E+03  0.10388621912E+04  0.10100000352E+00 0. -1.
</event>
<event>
 5   0  0.1866935E-05  0.2222422E+04  0.7818609E-02  0.8509153E-01
       -1   -1    0    0    0  501  0.00000000000E+00  0.00000000000E+00  0.63340971647E+03  0.63340971649E+03  0.50400001928E-02 0. -1.
        1   -1    0    0  501    0  0.00000000000E+00  0.00000000000E+00 -0.19494328372E+04  0.19494328372E+04  0.50400001928E-02 0.  1.
    10030    2    1    2    0    0  0.00000000000E+00  0.00000000000E+00 -0.13160231208E+04  0.25828425537E+04  0.22224218328E+04 0.  0.
        4    1    3    3  502    0  0.27249429575E+03 -0.72070516188E+03 -0.15885638189E+04  0.17655610131E+04  0.12699999809E+01 0.  1.
       -4    1    3    3    0  502 -0.27249429575E+03  0.72070516188E+03  0.27254069811E+03  0.81728154060E+03  0.12699999809E+01 0. -1.
</event>
<event>
 5   0  0.4029532E-05  0.2195567E+04  0.7818609E-02  0.8520276E-01
       -2   -1    0    0    0  501  0.00000000000E+00  0.00000000000E+00  0.57872022801E+03  0.57872022801E+03  0.25500000920E-02 0.  1.
        2   -1    0    0  501    0  0.00000000000E+00  0.00000000000E+00 -0.20824019865E+04  0.20824019865E+04  0.25500000920E-02 0. -1.
    10030    2    1    2    0    0  0.00000000000E+00  0.00000000000E+00 -0.15036817585E+04  0.26611222146E+04  0.21955665806E+04 0.  0.
        3    1    3    3  502    0 -0.68915215400E+03  0.51181747533E+03  0.77537317266E+02  0.86191639106E+03  0.10100000352E+00 0.  1.
       -3    1    3    3    0  502  0.68915215400E+03 -0.51181747533E+03 -0.15812190758E+04  0.17992058235E+04  0.10100000352E+00 0. -1.
</event>
<event>
 5   0  0.1815681E-05  0.2200001E+04  0.7818609E-02  0.8518428E-01
       -1   -1    0    0    0  501  0.00000000000E+00  0.00000000000E+00  0.86481222766E+03  0.86481222768E+03  0.50400001928E-02 0. -1.
        1   -1    0    0  501    0  0.00000000000E+00  0.00000000000E+00 -0.13991494952E+04  0.13991494952E+04  0.50400001928E-02 0.  1.
    10030    2    1    2    0    0  0.00000000000E+00  0.00000000000E+00 -0.53433726749E+03  0.22639617228E+04  0.22000014471E+04 0.  0.
        2    1    3    3  502    0 -0.10400182779E+04  0.90991179245E+02  0.89437664523E+02  0.10478151120E+04  0.25500000920E-02 0. -1.
       -2    1    3    3    0  502  0.10400182779E+04 -0.90991179245E+02 -0.62377493201E+03  0.12161466108E+04  0.25500000920E-02 0.  1.
</event>
<event>
 5   0  0.1884407E-05  0.2199866E+04  0.7818609E-02  0.8518484E-01
        1   -1    0    0  501    0  0.00000000000E+00  0.00000000000E+00  0.78355143746E+03  0.78355143747E+03  0.50400001928E-02 0. -1.
       -1   -1    0    0    0  501  0.00000000000E+00  0.00000000000E+00 -0.15440628420E+04  0.15440628420E+04  0.50400001928E-02 0.  1.
    10030    2    1    2    0    0  0.00000000000E+00  0.00000000000E+00 -0.76051140452E+03  0.23276142795E+04  0.21998660499E+04 0.  0.
        3    1    3    3  502    0  0.10185809950E+04 -0.14704579570E+03  0.30519722761E+02  0.10295927219E+04  0.10100000352E+00 0.  1.
       -3    1    3    3    0  502 -0.10185809950E+04  0.14704579570E+03 -0.79103112728E+03  0.12980215575E+04  0.10100000352E+00 0. -1.
</event>
<event>
 5   0  0.1815681E-05  0.2190996E+04  0.7818609E-02  0.8522185E-01
        1   -1    0    0  501    0  0.00000000000E+00  0.00000000000E+00  0.87577612452E+03  0.87577612454E+03  0.50400001928E-02 0. -1.
       -1   -1    0    0    0  501  0.00000000000E+00  0.00000000000E+00 -0.13703459685E+04  0.13703459685E+04  0.50400001928E-02 0.  1.
    10030    2    1    2    0    0  0.00000000000E+00  0.00000000000E+00 -0.49456984396E+03  0.22461220930E+04  0.21909963775E+04 0.  0.
        2    1    3    3  502    0  0.71478733468E+03 -0.77249187393E+03 -0.55899370468E+03  0.11916956788E+04  0.25500000920E-02 0.  1.
       -2    1    3    3    0  502 -0.71478733468E+03  0.77249187393E+03  0.64423860722E+02  0.10544264142E+04  0.25500000920E-02 0. -1.
</event>
<event>
 5   0  0.3963414E-05  0.2187121E+04  0.7818609E-02  0.8523808E-01
       -2   -1    0    0    0  501  0.00000000000E+00  0.00000000000E+00  0.45226638464E+03  0.45226638465E+03  0.25500000920E-02 0.  1.
        2   -1    0    0  501    0  0.00000000000E+00  0.00000000000E+00 -0.26441813069E+04  0.26441813069E+04  0.25500000920E-02 0. -1.
    10030    2    1    2    0    0  0.00000000000E+00  0.00000000000E+00 -0.21919149223E+04  0.30964476916E+04  0.21871207740E+04 0.  0.
        1    1    3    3  502    0  0.86421639616E+02 -0.61448861700E+03  0.17886691438E+03  0.64580053678E+03  0.50400001928E-02 0.  1.
       -1    1    3    3    0  502 -0.86421639616E+02  0.61448861700E+03 -0.23707818367E+04  0.24506471548E+04  0.50400001928E-02 0. -1.
</event>
<event>
 5   0  0.1788413E-05  0.2220866E+04  0.7818609E-02  0.8509793E-01
       -1   -1    0    0    0  501  0.00000000000E+00  0.00000000000E+00  0.22727718903E+04  0.22727718903E+04  0.50400001928E-02 0. -1.
        1   -1    0    0  501    0  0.00000000000E+00  0.00000000000E+00 -0.54253648792E+03  0.54253648794E+03  0.50400001928E-02 0.  1.
    10030    2    1    2    0    0  0.00000000000E+00  0.00000000000E+00  0.17302354023E+04  0.28153083782E+04  0.22208662087E+04 0.  0.
        1    1    3    3  502    0 -0.39416094699E+03 -0.48539400905E+03  0.20283948956E+04  0.21225824009E+04  0.50400001928E-02 0. -1.
       -1    1    3    3    0  502  0.39416094699E+03  0.48539400905E+03 -0.29815949327E+03  0.69272597729E+03  0.50400001928E-02 0.  1.
</event>
<event>
 5   0  0.4143281E-05  0.2231403E+04  0.7818609E-02  0.8505470E-01
       -2   -1    0    0    0  501  0.00000000000E+00  0.00000000000E+00  0.62356515820E+03  0.62356515820E+03  0.25500000920E-02 0.  1.
        2   -1    0    0  501    0  0.00000000000E+00  0.00000000000E+00 -0.19962471998E+04  0.19962471998E+04  0.25500000920E-02 0. -1.
    10030    2    1    2    0    0  0.00000000000E+00  0.00000000000E+00 -0.13726820416E+04  0.26198123580E+04  0.22314033261E+04 0.  0.
        2    1    3    3  502    0  0.89717497656E+03  0.65236990850E+03 -0.82664430734E+03  0.13834197653E+04  0.25500000920E-02 0.  1.
       -2    1    3    3    0  502 -0.89717497656E+03 -0.65236990850E+03 -0.54603773425E+03  0.12363925927E+04  0.25500000920E-02 0. -1.
</event>
<event>
 5   0  0.1786228E-05  0.2217652E+04  0.7818609E-02  0.8511117E-01
        1   -1    0    0  501    0  0.00000000000E+00  0.00000000000E+00  0.97968703964E+03  0.97968703965E+03  0.50400001928E-02 0. -1.
       -1   -1    0    0    0  501  0.00000000000E+00  0.00000000000E+00 -0.12549876330E+04  0.12549876330E+04  0.50400001928E-02 0.  1.
    10030    2    1    2    0    0  0.00000000000E+00  0.00000000000E+00 -0.27530059333E+03  0.22346746726E+04  0.22176520186E+04 0.  0.
        5    1    3    3  502    0 -0.50397843060E+03  0.38302973819E+03  0.77970406255E+03  0.10043239288E+04  0.46999998093E+01 0. -1.
       -5    1    3    3    0  502  0.50397843060E+03 -0.38302973819E+03 -0.10550046559E+04  0.12303507438E+04  0.46999998093E+01 0.  1.
</event>
<event>
 5   0  0.1866935E-05  0.2210377E+04  0.7818609E-02  0.8514121E-01
        1   -1    0    0  501    0  0.00000000000E+00  0.00000000000E+00  0.30071115822E+04  0.30071115822E+04  0.50400001928E-02 0. -1.
       -1   -1    0    0    0  501  0.00000000000E+00  0.00000000000E+00 -0.40618446119E+03  0.40618446122E+03  0.50400001928E-02 0.  1.
    10030    2    1    2    0    0  0.00000000000E+00  0.00000000000E+00  0.26009271210E+04  0.34132960434E+04  0.22103773414E+04 0.  0.
        4    1    3    3  502    0  0.10717363103E+04  0.12853631690E+03  0.16668691149E+04  0.19858485750E+04  0.12699999809E+01 0. -1.
       -4    1    3    3    0  502 -0.10717363103E+04 -0.12853631690E+03  0.93405800605E+03  0.14274474684E+04  0.12699999809E+01 0.  1.
</event>
<event>
 5   0  0.1884407E-05  0.2230293E+04  0.7818609E-02  0.8505924E-01
        1   -1    0    0  501    0  0.00000000000E+00  0.00000000000E+00  0.10734647396E+04  0.10734647396E+04  0.50400001928E-02 0.  1.
       -1   -1    0    0    0  501  0.00000000000E+00  0.00000000000E+00 -0.11584464027E+04  0.11584464027E+04  0.50400001928E-02 0. -1.
    10030    2    1    2    0    0  0.00000000000E+00  0.00000000000E+00 -0.84981663176E+02  0.22319111423E+04  0.22302926857E+04 0.  0.
        3    1    3    3  502    0 -0.23642456870E+03  0.21590650494E+02 -0.11328633654E+04  0.11574723097E+04  0.10100000352E+00 0. -1.
       -3    1    3    3    0  502  0.23642456870E+03 -0.21590650494E+02  0.10478817022E+04  0.10744388326E+04  0.10100000352E+00 0.  1.
</event>
<event>
 5   0  0.4029532E-05  0.2189684E+04  0.7818609E-02  0.8522734E-01
       -2   -1    0    0    0  501  0.00000000000E+00  0.00000000000E+00  0.67745210076E+03  0.67745210077E+03  0.25500000920E-02 0.  1.
        2   -1    0    0  501    0  0.00000000000E+00  0.00000000000E+00 -0.17693931545E+04  0.17693931545E+04  0.25500000920E-02 0. -1.
    10030    2    1    2    0    0  0.00000000000E+00  0.00000000000E+00 -0.10919410537E+04  0.24468452553E+04  0.21896840956E+04 0.  0.
        3    1    3    3  502    0 -0.10973075845E+03  0.91270545816E+03  0.11851491634E+03  0.92688612477E+03  0.10100000352E+00 0.  1.
       -3    1    3    3    0  502  0.10973075845E+03 -0.91270545816E+03 -0.12104559701E+04  0.15199591305E+04  0.10100000352E+00 0. -1.
</event>
<event>
 5   0  0.4132460E-05  0.2201408E+04  0.7818609E-02  0.8517842E-01
        2   -1    0    0  501    0  0.00000000000E+00  0.00000000000E+00  0.22556503984E+04  0.22556503984E+04  0.25500000920E-02 0. -1.
       -2   -1    0    0    0  501  0.00000000000E+00  0.00000000000E+00 -0.53711752112E+03  0.53711752113E+03  0.25500000920E-02 0.  1.
    10030    2    1    2    0    0  0.00000000000E+00  0.00000000000E+00  0.17185328772E+04  0.27927679195E+04  0.22014080499E+04 0.  0.
        4    1    3    3  502    0  0.86535930417E+03  0.42364081122E+02 -0.20061347517E+01  0.86639891399E+03  0.12699999809E+01 0.  1.
       -4    1    3    3    0  502 -0.86535930417E+03 -0.42364081122E+02  0.17205390120E+04  0.19263690055E+04  0.12699999809E+01 0. -1.
</event>
<event>
 5   0  0.1788413E-05  0.2261491E+04  0.7818609E-02  0.8493261E-01
       -1   -1    0    0    0  501  0.00000000000E+00  0.00000000000E+00  0.59309842862E+03  0.59309842864E+03  0.50400001928E-02 0.  1.
        1   -1    0    0  501    0  0.00000000000E+00  0.00000000000E+00 -0.21557735099E+04  0.21557735099E+04  0.50400001928E-02 0. -1.
    10030    2    1    2    0    0  0.00000000000E+00  0.00000000000E+00 -0.15626750813E+04  0.27488719386E+04  0.22614914382E+04 0.  0.
        1    1    3    3  502    0  0.95644934881E+03  0.49644652462E+03 -0.11976952740E+04  0.16111264625E+04  0.50400001928E-02 0. -1.
       -1    1    3    3    0  502 -0.95644934881E+03 -0.49644652462E+03 -0.36497980729E+03  0.11377454761E+04  0.50400001928E-02 0.  1.
</event>
<event>
 5   0  0.1786228E-05  0.2199510E+04  0.7818609E-02  0.8518632E-01
       -1   -1    0    0    0  501  0.00000000000E+00  0.00000000000E+00  0.75639406122E+03  0.75639406123E+03  0.50400001928E-02 0. -1.
        1   -1    0    0  501    0  0.00000000000E+00  0.00000000000E+00 -0.15989834655E+04  0.15989834655E+04  0.50400001928E-02 0.  1.
    10030    2    1    2    0    0  0.00000000000E+00  0.00000000000E+00 -0.84258940429E+03  0.23553775267E+04  0.21995104886E+04 0.  0.
        5    1    3    3  502    0  0.71260889557E+02 -0.58316584171E+03 -0.14168410159E+04  0.15338256314E+04  0.46999998093E+01 0.  1.
       -5    1    3    3    0  502 -0.71260889557E+02  0.58316584171E+03  0.57425161159E+03  0.82155189533E+03  0.46999998093E+01 0. -1.
</event>
<event>
 5   0  0.4029532E-05  0.2219676E+04  0.7818609E-02  0.8510283E-01
        2   -1    0    0  501    0  0.00000000000E+00  0.00000000000E+00  0.15019535634E+04  0.15019535634E+04  0.25500000920E-02 0. -1.
       -2   -1    0    0    0  501  0.00000000000E+00  0.00000000000E+00 -0.82009189848E+03  0.82009189848E+03  0.25500000920E-02 0.  1.
    10030    2    1    2    0    0  0.00000000000E+00  0.00000000000E+00  0.68186166492E+03  0.23220454619E+04  0.22196756062E+04 0.  0.
        3    1    3    3  502    0 -0.50954467147E+03  0.61778225881E+03  0.11447761674E+04  0.13970694955E+04  0.10100000352E+00 0. -1.
       -3    1    3    3    0  502  0.50954467147E+03 -0.61778225881E+03 -0.46291450252E+03  0.92497596638E+03  0.10100000352E+00 0.  1.
</event>
<event>
 5   0  0.1866935E-05  0.2169887E+04  0.7818609E-02  0.8531067E-01
       -1   -1    0    0    0  501  0.00000000000E+00  0.00000000000E+00  0.75954633130E+03  0.75954633132E+03  0.50400001928E-02 0.  1.
        1   -1    0    0  501    0  0.00000000000E+00  0.00000000000E+00 -0.15497435895E+04  0.15497435895E+04  0.50400001928E-02 0. -1.
    10030    2    1    2    0    0  0.00000000000E+00  0.00000000000E+00 -0.79019725816E+03  0.23092899208E+04  0.21698866863E+04 0.  0.
        4    1    3    3  502    0 -0.52028395537E+03 -0.79106617417E+03  0.16866910820E+03  0.96173383381E+03  0.12699999809E+01 0.  1.
       -4    1    3    3    0  502  0.52028395537E+03  0.79106617417E+03 -0.95886636636E+03  0.13475560870E+04  0.12699999809E+01 0. -1.
</event>
<event>
 5   0  0.4029532E-05  0.2210870E+04  0.7818609E-02  0.8513918E-01
        2   -1    0    0  501    0  0.00000000000E+00  0.00000000000E+00  0.19436182660E+04  0.19436182660E+04  0.25500000920E-02 0. -1.
       -2   -1    0    0    0  501  0.00000000000E+00  0.00000000000E+00 -0.62871716520E+03  0.62871716521E+03  0.25500000920E-02 0.  1.
    10030    2    1    2    0    0  0.00000000000E+00  0.00000000000E+00  0.13149011008E+04  0.25723354312E+04  0.22108696627E+04 0.  0.
        3    1    3    3  502    0 -0.57276936601E+02  0.91616848107E+03  0.13740545873E+04  0.16524743121E+04  0.10100000352E+00 0. -1.
       -3    1    3    3    0  502  0.57276936601E+02 -0.91616848107E+03 -0.59153486520E+02  0.91986111905E+03  0.10100000352E+00 0.  1.
</event>
<event>
 5   0  0.1786228E-05  0.2253212E+04  0.7818609E-02  0.8496601E-01
        1   -1    0    0  501    0  0.00000000000E+00  0.00000000000E+00  0.16275573940E+04  0.16275573940E+04  0.50400001928E-02 0.  1.
       -1   -1    0    0    0  501  0.00000000000E+00  0.00000000000E+00 -0.77984441784E+03  0.77984441785E+03  0.50400001928E-02 0. -1.
    10030    2    1    2    0    0  0.00000000000E+00  0.00000000000E+00  0.84771297614E+03  0.24074018118E+04  0.22532124165E+04 0.  0.
        5    1    3    3  502    0 -0.52337555824E+03  0.92938869764E+02 -0.63742398905E+03  0.82999460257E+03  0.46999998093E+01 0. -1.
       -5    1    3    3    0  502  0.52337555824E+03 -0.92938869764E+02  0.14851369652E+04  0.15774072093E+04  0.46999998093E+01 0.  1.
</event>
<event>
 5   0  0.1815681E-05  0.2203956E+04  0.7818609E-02  0.8516783E-01
       -1   -1    0    0    0  501  0.00000000000E+00  0.00000000000E+00  0.64579160106E+03  0.64579160108E+03  0.50400001928E-02 0. -1.
        1   -1    0    0  501    0  0.00000000000E+00  0.00000000000E+00 -0.18804133635E+04  0.18804133635E+04  0.50400001928E-02 0.  1.
    10030    2    1    2    0    0  0.00000000000E+00  0.00000000000E+00 -0.12346217625E+04  0.25262049646E+04  0.22039556772E+04 0.  0.
        2    1    3    3  502    0 -0.35266820858E+03 -0.82387001212E+03 -0.13523357739E+04  0.16223281751E+04  0.25500000920E-02 0.  1.
       -2    1    3    3    0  502  0.35266820858E+03  0.82387001212E+03  0.11771401144E+03  0.90387678956E+03  0.25500000920E-02 0. -1.
</event>
<event>
 5   0  0.4027923E-05  0.2198005E+04  0.7818609E-02  0.8519259E-01
        2   -1    0    0  501    0  0.00000000000E+00  0.00000000000E+00  0.14525151283E+04  0.14525151283E+04  0.25500000920E-02 0. -1.
       -2   -1    0    0    0  501  0.00000000000E+00  0.00000000000E+00 -0.83152781972E+03  0.83152781972E+03  0.25500000920E-02 0.  1.
    10030    2    1    2    0    0  0.00000000000E+00  0.00000000000E+00  0.62098730858E+03  0.22840429480E+04  0.21980052209E+04 0.  0.
        5    1    3    3  502    0  0.65754984467E+03  0.45921994571E+03  0.10912562825E+04  0.13542958025E+04  0.46999998093E+01 0. -1.
       -5    1    3    3    0  502 -0.65754984467E+03 -0.45921994571E+03 -0.47026897387E+03  0.92974714549E+03  0.46999998093E+01 0.  1.
</event>
<event>
 5   0  0.1788413E-05  0.2208224E+04  0.7818609E-02  0.8515013E-01
        1   -1    0    0  501    0  0.00000000000E+00  0.00000000000E+00  0.17318350158E+04  0.17318350158E+04  0.50400001928E-02 0. -1.
       -1   -1    0    0    0  501  0.00000000000E+00  0.00000000000E+00 -0.70391449579E+03  0.70391449581E+03  0.50400001928E-02 0.  1.
    10030    2    1    2    0    0  0.00000000000E+00  0.00000000000E+00  0.10279205200E+04  0.24357495116E+04  0.22082244197E+04 0.  0.
        1    1    3    3  502    0 -0.69764776396E+03  0.18174397173E+03  0.14363777840E+04  0.16071479123E+04  0.50400001928E-02 0. -1.
       -1    1    3    3    0  502  0.69764776396E+03 -0.18174397173E+03 -0.40845726396E+03  0.82860159928E+03  0.50400001928E-02 0.  1.
</event>
<event>
 5   0  0.1788413E-05  0.2196766E+04  0.7818609E-02  0.8519775E-01
        1   -1    0    0  501    0  0.00000000000E+00  0.00000000000E+00  0.96836422735E+03  0.96836422736E+03  0.50400001928E-02 0. -1.
       -1   -1    0    0    0  501  0.00000000000E+00  0.00000000000E+00 -0.12458594477E+04  0.12458594477E+04  0.50400001928E-02 0.  1.
    10030    2    1    2    0    0  0.00000000000E+00  0.00000000000E+00 -0.27749522036E+03  0.22142236751E+04  0.21967664614E+04 0.  0.
        1    1    3    3  502    0  0.42394210617E+03 -0.74745172658E+03 -0.82831488096E+03  0.11935311202E+04  0.50400001928E-02 0.  1.
       -1    1    3    3    0  502 -0.42394210617E+03  0.74745172658E+03  0.55081966061E+03  0.10206925548E+04  0.50400001928E-02 0. -1.
</event>
<event>
 5   0  0.4029532E-05  0.2185345E+04  0.7818609E-02  0.8524553E-01
        2   -1    0    0  501    0  0.00000000000E+00  0.00000000000E+00  0.17864984380E+04  0.17864984380E+04  0.25500000920E-02 0.  1.
       -2   -1    0    0    0  501  0.00000000000E+00  0.00000000000E+00 -0.66830896411E+03  0.66830896411E+03  0.25500000920E-02 0. -1.
    10030    2    1    2    0    0  0.00000000000E+00  0.00000000000E+00  0.11181894739E+04  0.24548074021E+04  0.21853447513E+04 0.  0.
        3    1    3    3  502    0 -0.74281600244E+02 -0.34695246899E+03 -0.60179520585E+03  0.69860665031E+03  0.10100000352E+00 0. -1.
       -3    1    3    3    0  502  0.74281600244E+02  0.34695246899E+03  0.17199846798E+04  0.17562007518E+04  0.10100000352E+00 0.  1.
</event>
<event>
 5   0  0.1866935E-05  0.2191335E+04  0.7818609E-02  0.8522043E-01
        1   -1    0    0  501    0  0.00000000000E+00  0.00000000000E+00  0.10321559531E+04  0.10321559531E+04  0.50400001928E-02 0. -1.
       -1   -1    0    0    0  501  0.00000000000E+00  0.00000000000E+00 -0.11630872230E+04  0.11630872230E+04  0.50400001928E-02 0.  1.
    10030    2    1    2    0    0  0.00000000000E+00  0.00000000000E+00 -0.13093126989E+03  0.21952431761E+04  0.21913351192E+04 0.  0.
        4    1    3    3  502    0  0.30271411700E+03 -0.23442297669E+03 -0.10938907591E+04  0.11589601263E+04  0.12699999809E+01 0.  1.
       -4    1    3    3    0  502 -0.30271411700E+03  0.23442297669E+03  0.96295948916E+03  0.10362830498E+04  0.12699999809E+01 0. -1.
</event>
<event>
 5   0  0.1788413E-05  0.2255541E+04  0.7818609E-02  0.8495660E-01
        1   -1    0    0  501    0  0.00000000000E+00  0.00000000000E+00  0.11621115948E+04  0.11621115948E+04  0.50400001928E-02 0. -1.
       -1   -1    0    0    0  501  0.00000000000E+00  0.00000000000E+00 -0.10944440130E+04  0.10944440130E+04  0.50400001928E-02 0.  1.
    10030    2    1    2    0    0  0.00000000000E+00  0.00000000000E+00  0.67667581790E+02  0.22565556078E+04  0.22555408020E+04 0.  0.
        1    1    3    3  502    0 -0.11078139564E+03  0.96005949614E+03  0.61536919585E+03  0.11457163702E+04  0.50400001928E-02 0. -1.
       -1    1    3    3    0  502  0.11078139564E+03 -0.96005949614E+03 -0.54770161406E+03  0.11108392376E+04  0.50400001928E-02 0.  1.
</event>
<event>
 5   0  0.4027923E-05  0.2210392E+04  0.7818609E-02  0.8514115E-01
       -2   -1    0    0    0  501  0.00000000000E+00  0.00000000000E+00  0.66757709792E+03  0.66757709793E+03  0.25500000920E-02 0. -1.
        2   -1    0    0  501    0  0.00000000000E+00  0.00000000000E+00 -0.18296890674E+04  0.18296890674E+04  0.25500000920E-02 0.  1.
    10030    2    1    2    0    0  0.00000000000E+00  0.00000000000E+00 -0.11621119695E+04  0.24972661653E+04  0.22103922889E+04 0.  0.
        5    1    3    3  502    0 -0.25474114510E+03  0.46843141480E+03 -0.16747403671E+04  0.17575831214E+04  0.46999998093E+01 0.  1.
       -5    1    3    3    0  502  0.25474114510E+03 -0.46843141480E+03  0.51262839766E+03  0.73968304392E+03  0.46999998093E+01 0. -1.
</event>
<event>
 5   0  0.1786228E-05  0.2181991E+04  0.7818609E-02  0.8525962E-01
        1   -1    0    0  501    0  0.00000000000E+00  0.00000000000E+00  0.19897139777E+04  0.19897139778E+04  0.50400001928E-02 0.  1.
       -1   -1    0    0    0  501  0.00000000000E+00  0.00000000000E+00 -0.59821200257E+03  0.59821200259E+03  0.50400001928E-02 0. -1.
    10030    2    1    2    0    0  0.00000000000E+00  0.00000000000E+00  0.13915019752E+04  0.25879259803E+04  0.21819906354E+04 0.  0.
        5    1    3    3  502    0 -0.75738554804E+03 -0.41211975705E+03  0.14885123792E+04  0.17202228796E+04  0.46999998093E+01 0.  1.
       -5    1    3    3    0  502  0.75738554804E+03  0.41211975705E+03 -0.97010404014E+02  0.86770310073E+03  0.46999998093E+01 0. -1.
</event>
<event>
 5   0  0.4029532E-05  0.2205811E+04  0.7818609E-02  0.8516013E-01
        2   -1    0    0  501    0  0.00000000000E+00  0.00000000000E+00  0.23605684915E+04  0.23605684915E+04  0.25500000920E-02 0.  1.
       -2   -1    0    0    0  501  0.00000000000E+00  0.00000000000E+00 -0.51529972674E+03  0.51529972675E+03  0.25500000920E-02 0. -1.
    10030    2    1    2    0    0  0.00000000000E+00  0.00000000000E+00  0.18452687647E+04  0.28758682182E+04  0.22058107794E+04 0.  0.
        3    1    3    3  502    0  0.66218348684E+03 -0.45677224781E+03 -0.61061385658E+02  0.80675669172E+03  0.10100000352E+00 0. -1.
       -3    1    3    3    0  502 -0.66218348684E+03  0.45677224781E+03  0.19063301504E+04  0.20691115265E+04  0.10100000352E+00 0.  1.
</event>
<event>
 5   0  0.1815681E-05  0.2197559E+04  0.7818609E-02  0.8519445E-01
       -1   -1    0    0    0  501  0.00000000000E+00  0.00000000000E+00  0.64229201674E+03  0.64229201676E+03  0.50400001928E-02 0.  1.
        1   -1    0    0  501    0  0.00000000000E+00  0.00000000000E+00 -0.18797006108E+04  0.18797006108E+04  0.50400001928E-02 0. -1.
    10030    2    1    2    0    0  0.00000000000E+00  0.00000000000E+00 -0.12374085941E+04  0.25219926276E+04  0.21975592790E+04 0.  0.
        2    1    3    3  502    0 -0.34170373102E+03 -0.77963915730E+03  0.17864750266E+03  0.86977789441E+03  0.25500000920E-02 0.  1.
       -2    1    3    3    0  502  0.34170373102E+03  0.77963915730E+03 -0.14160560967E+04  0.16522147332E+04  0.25500000920E-02 0. -1.
</event>
<event>
 5   0  0.1866935E-05  0.2212058E+04  0.7818609E-02  0.8513426E-01
        1   -1    0    0  501    0  0.00000000000E+00  0.00000000000E+00  0.17477774653E+04  0.17477774653E+04  0.50400001928E-02 0.  1.
       -1   -1    0    0    0  501  0.00000000000E+00  0.00000000000E+00 -0.69991735504E+03  0.69991735506E+03  0.50400001928E-02 0. -1.
    10030    2    1    2    0    0  0.00000000000E+00  0.00000000000E+00  0.10478601103E+04  0.24476948204E+04  0.22120576672E+04 0.  0.
        4    1    3    3  502    0  0.11197658016E+03 -0.57071770316E+03  0.15649102088E+04  0.16694918466E+04  0.12699999809E+01 0.  1.
       -4    1    3    3    0  502 -0.11197658016E+03  0.57071770316E+03 -0.51705009852E+03  0.77820297383E+03  0.12699999809E+01 0. -1.
</event>
<event>
 5   0  0.1788413E-05  0.2199852E+04  0.7818609E-02  0.8518490E-01
       -1   -1    0    0    0  501  0.00000000000E+00  0.00000000000E+00  0.10074592769E+04  0.10074592769E+04  0.50400001928E-02 0.  1.
        1   -1    0    0  501    0  0.00000000000E+00  0.00000000000E+00 -0.12008798364E+04  0.12008798364E+04  0.50400001928E-02 0. -1.
    10030    2    1    2    0    0  0.00000000000E+00  0.00000000000E+00 -0.19342055952E+03  0.22083391133E+04  0.21998522965E+04 0.  0.
        1    1    3    3  502    0 -0.64395289675E+03  0.59535332855E+03 -0.76313631150E+03  0.11625394398E+04  0.50400001928E-02 0. -1.
       -1    1    3    3    0  502  0.64395289675E+03 -0.59535332855E+03  0.56971575198E+03  0.10457996735E+04  0.50400001928E-02 0.  1.
</event>
<event>
 5   0  0.1866935E-05  0.2200579E+04  0.7818609E-02  0.8518187E-01
        1   -1    0    0  501    0  0.00000000000E+00  0.00000000000E+00  0.10114664340E+04  0.10114664340E+04  0.50400001928E-02 0.  1.
       -1   -1    0    0    0  501  0.00000000000E+00  0.00000000000E+00 -0.11969124799E+04  0.11969124799E+04  0.50400001928E-02 0. -1.
    10030    2    1    2    0    0  0.00000000000E+00  0.00000000000E+00 -0.18544604590E+03  0.22083789139E+04  0.22005788310E+04 0.  0.
        4    1    3    3  502    0  0.10539453930E+03 -0.50568250855E+03 -0.10676666280E+04  0.11860592101E+04  0.12699999809E+01 0. -1.
       -4    1    3    3    0  502 -0.10539453930E+03  0.50568250855E+03  0.88222058215E+03  0.10223197038E+04  0.12699999809E+01 0.  1.
</event>
<event>
 5   0  0.4143281E-05  0.2214613E+04  0.7818609E-02  0.8512371E-01
       -2   -1    0    0    0  501  0.00000000000E+00  0.00000000000E+00  0.76697107757E+03  0.76697107758E+03  0.25500000920E-02 0.  1.
        2   -1    0    0  501    0  0.00000000000E+00  0.00000000000E+00 -0.15986617273E+04  0.15986617273E+04  0.25500000920E-02 0. -1.
    10030    2    1    2    0    0  0.00000000000E+00  0.00000000000E+00 -0.83169064973E+03  0.23656328049E+04  0.22146126593E+04 0.  0.
        2    1    3    3  502    0  0.78860989804E+03 -0.16263606223E+03 -0.12277920206E+04  0.14682742611E+04  0.25500000920E-02 0. -1.
       -2    1    3    3    0  502 -0.78860989804E+03  0.16263606223E+03  0.39610137088E+03  0.89735854375E+03  0.25500000920E-02 0.  1.
</event>
<event>
 5   0  0.3963414E-05  0.2043244E+04  0.7818609E-02  0.8586665E-01
       -2   -1    0    0    0  501  0.00000000000E+00  0.00000000000E+00  0.58432499928E+03  0.58432499928E+03  0.25500000920E-02 0.  1.
        2   -1    0    0  501    0  0.00000000000E+00  0.00000000000E+00 -0.17861831831E+04  0.17861831831E+04  0.25500000920E-02 0. -1.
    10030    2    1    2    0    0  0.00000000000E+00  0.00000000000E+00 -0.12018581838E+04  0.23705081823E+04  0.20432439768E+04 0.  0.
        1    1    3    3  502    0 -0.51355119833E+03 -0.86791370073E+03 -0.79051099711E+03  0.12813729597E+04  0.50400001928E-02 0.  1.
       -1    1    3    3    0  502  0.51355119833E+03  0.86791370073E+03 -0.41134718668E+03  0.10891352227E+04  0.50400001928E-02 0. -1.
</event>
<event>
 5   0  0.4029532E-05  0.2199617E+04  0.7818609E-02  0.8518587E-01
       -2   -1    0    0    0  501  0.00000000000E+00  0.00000000000E+00  0.96752587147E+03  0.96752587147E+03  0.25500000920E-02 0. -1.
        2   -1    0    0  501    0  0.00000000000E+00  0.00000000000E+00 -0.12501772824E+04  0.12501772824E+04  0.25500000920E-02 0.  1.
    10030    2    1    2    0    0  0.00000000000E+00  0.00000000000E+00 -0.28265141093E+03  0.22177031539E+04  0.21996171164E+04 0.  0.
        3    1    3    3  502    0  0.94541878109E+03 -0.50073121449E+03 -0.39843314814E+03  0.11416205169E+04  0.10100000352E+00 0.  1.
       -3    1    3    3    0  502 -0.94541878109E+03  0.50073121449E+03  0.11578173722E+03  0.10760826370E+04  0.10100000352E+00 0. -1.
</event>
<event>
 5   0  0.3963414E-05  0.2200866E+04  0.7818609E-02  0.8518068E-01
        2   -1    0    0  501    0  0.00000000000E+00  0.00000000000E+00  0.18824203933E+04  0.18824203933E+04  0.25500000920E-02 0.  1.
       -2   -1    0    0    0  501  0.00000000000E+00  0.00000000000E+00 -0.64329571198E+03  0.64329571198E+03  0.25500000920E-02 0. -1.
    10030    2    1    2    0    0  0.00000000000E+00  0.00000000000E+00  0.12391246813E+04  0.25257161053E+04  0.22008661633E+04 0.  0.
        1    1    3    3  502    0  0.55230612771E+02  0.31745741227E+03  0.18270672437E+04  0.18552639549E+04  0.50400001928E-02 0.  1.
       -1    1    3    3    0  502 -0.55230612771E+02 -0.31745741227E+03 -0.58794256243E+03  0.67045215037E+03  0.50400001928E-02 0. -1.
</event>
<event>
 5   0  0.4132460E-05  0.2200138E+04  0.7818609E-02  0.8518371E-01
       -2   -1    0    0    0  501  0.00000000000E+00  0.00000000000E+00  0.55073256723E+03  0.55073256724E+03  0.25500000920E-02 0.  1.
        2   -1    0    0  501    0  0.00000000000E+00  0.00000000000E+00 -0.21973487091E+04  0.21973487091E+04  0.25500000920E-02 0. -1.
    10030    2    1    2    0    0  0.00000000000E+00  0.00000000000E+00 -0.16466161419E+04  0.27480812764E+04  0.22001377190E+04 0.  0.
        4    1    3    3  502    0 -0.53695172674E+03 -0.25334517074E+03  0.33342855447E+03  0.68093843057E+03  0.12699999809E+01 0.  1.
       -4    1    3    3    0  502  0.53695172674E+03  0.25334517074E+03 -0.19800446964E+04  0.20671428458E+04  0.12699999809E+01 0. -1.
</event>
<event>
 5   0  0.1884407E-05  0.2185838E+04  0.7818609E-02  0.8524346E-01
        1   -1    0    0  501    0  0.00000000000E+00  0.00000000000E+00  0.19213903431E+04  0.19213903431E+04  0.50400001928E-02 0.  1.
       -1   -1    0    0    0  501  0.00000000000E+00  0.00000000000E+00 -0.62167075993E+03  0.62167075995E+03  0.50400001928E-02 0. -1.
    10030    2    1    2    0    0  0.00000000000E+00  0.00000000000E+00  0.12997195832E+04  0.25430611031E+04  0.21858382326E+04 0.  0.
        3    1    3    3  502    0 -0.41978830341E+03  0.80221541143E+03 -0.62305583515E+02  0.90755373503E+03  0.10100000352E+00 0. -1.
       -3    1    3    3    0  502  0.41978830341E+03 -0.80221541143E+03  0.13620251667E+04  0.16355073681E+04  0.10100000352E+00 0.  1.
</event>
<event>
 5   0  0.1788413E-05  0.2185232E+04  0.7818609E-02  0.8524600E-01
       -1   -1    0    0    0  501  0.00000000000E+00  0.00000000000E+00  0.70479342850E+03  0.70479342852E+03  0.50400001928E-02 0.  1.
        1   -1    0    0  501    0  0.00000000000E+00  0.00000000000E+00 -0.16938434969E+04  0.16938434969E+04  0.50400001928E-02 0. -1.
    10030    2    1    2    0    0  0.00000000000E+00  0.00000000000E+00 -0.98905006837E+03  0.23986369254E+04  0.21852320385E+04 0.  0.
        1    1    3    3  502    0 -0.70056691091E+03 -0.68805758246E+03  0.31426631282E+02  0.98244840405E+03  0.50400001928E-02 0.  1.
       -1    1    3    3    0  502  0.70056691091E+03  0.68805758246E+03 -0.10204766997E+04  0.14161885214E+04  0.50400001928E-02 0. -1.
</event>
<event>
 5   0  0.1786228E-05  0.2206748E+04  0.7818609E-02  0.8515625E-01
        1   -1    0    0  501    0  0.00000000000E+00  0.00000000000E+00  0.16441971459E+04  0.16441971459E+04  0.50400001928E-02 0. -1.
       -1   -1    0    0    0  501  0.00000000000E+00  0.00000000000E+00 -0.74044319695E+03  0.74044319697E+03  0.50400001928E-02 0.  1.
    10030    2    1    2    0    0  0.00000000000E+00  0.00000000000E+00  0.90375394896E+03  0.23846403429E+04  0.22067483691E+04 0.  0.
        5    1    3    3  502    0  0.19204027534E+03  0.66321129786E+03  0.13818845755E+04  0.15447834033E+04  0.46999998093E+01 0. -1.
       -5    1    3    3    0  502 -0.19204027534E+03 -0.66321129786E+03 -0.47813062657E+03  0.83985693962E+03  0.46999998093E+01 0.  1.
</event>
<event>
 5   0  0.1788413E-05  0.2194280E+04  0.7818609E-02  0.8520813E-01
        1   -1    0    0  501    0  0.00000000000E+00  0.00000000000E+00  0.67531560040E+03  0.67531560041E+03  0.50400001928E-02 0.  1.
       -1   -1    0    0    0  501  0.00000000000E+00  0.00000000000E+00 -0.17824500264E+04  0.17824500264E+04  0.50400001928E-02 0. -1.
    10030    2    1    2    0    0  0.00000000000E+00  0.00000000000E+00 -0.11071344260E+04  0.24577656268E+04  0.21942801187E+04 0.  0.
        1    1    3    3  502    0  0.10183333058E+04 -0.32330726095E+03 -0.83288250952E+03  0.13547042413E+04  0.50400001928E-02 0. -1.
       -1    1    3    3    0  502 -0.10183333058E+04  0.32330726095E+03 -0.27425191649E+03  0.11030613856E+04  0.50400001928E-02 0.  1.
</event>
<event>
 5   0  0.1866935E-05  0.2151159E+04  0.7818609E-02  0.8539037E-01
        1   -1    0    0  501    0  0.00000000000E+00  0.00000000000E+00  0.10379216803E+04  0.10379216803E+04  0.50400001928E-02 0.  1.
       -1   -1    0    0    0  501  0.00000000000E+00  0.00000000000E+00 -0.11146031248E+04  0.11146031248E+04  0.50400001928E-02 0. -1.
    10030    2    1    2    0    0  0.00000000000E+00  0.00000000000E+00 -0.76681444479E+02  0.21525248051E+04  0.21511585234E+04 0.  0.
        4    1    3    3  502    0  0.55921644901E+03 -0.87685556443E+03 -0.31286952236E+03  0.10860422039E+04  0.12699999809E+01 0. -1.
       -4    1    3    3    0  502 -0.55921644901E+03  0.87685556443E+03  0.23618807788E+03  0.10664826012E+04  0.12699999809E+01 0.  1.
</event>
<event>
 5   0  0.1884407E-05  0.2190252E+04  0.7818609E-02  0.8522496E-01
       -1   -1    0    0    0  501  0.00000000000E+00  0.00000000000E+00  0.87133919689E+03  0.87133919690E+03  0.50400001928E-02 0. -1.
        1   -1    0    0  501    0  0.00000000000E+00  0.00000000000E+00 -0.13763880105E+04  0.13763880105E+04  0.50400001928E-02 0.  1.
    10030    2    1    2    0    0  0.00000000000E+00  0.00000000000E+00 -0.50504881362E+03  0.22477272074E+04  0.21902518793E+04 0.  0.
        3    1    3    3  502    0  0.53580852115E+03 -0.29021190402E+03 -0.11863404356E+04  0.13336856301E+04  0.10100000352E+00 0.  1.
       -3    1    3    3    0  502 -0.53580852115E+03  0.29021190402E+03  0.68129162202E+03  0.91404157729E+03  0.10100000352E+00 0. -1.
</event>
<event>
 5   0  0.4132460E-05  0.2194002E+04  0.7818609E-02  0.8520929E-01
        2   -1    0    0  501    0  0.00000000000E+00  0.00000000000E+00  0.86739990654E+03  0.86739990655E+03  0.25500000920E-02 0. -1.
       -2   -1    0    0    0  501  0.00000000000E+00  0.00000000000E+00 -0.13873778926E+04  0.13873778926E+04  0.25500000920E-02 0.  1.
    10030    2    1    2    0    0  0.00000000000E+00  0.00000000000E+00 -0.51997798602E+03  0.22547777991E+04  0.21940022373E+04 0.  0.
        4    1    3    3  502    0 -0.73427062359E+02 -0.96779691367E+03  0.26543396267E+03  0.10062202547E+04  0.12699999809E+01 0.  1.
       -4    1    3    3    0  502  0.73427062359E+02  0.96779691367E+03 -0.78541194869E+03  0.12485575444E+04  0.12699999809E+01 0. -1.
</event>
<event>
 5   0  0.1815681E-05  0.2228276E+04  0.7818609E-02  0.8506751E-01
       -1   -1    0    0    0  501  0.00000000000E+00  0.00000000000E+00  0.10433952530E+04  0.10433952530E+04  0.50400001928E-02 0. -1.
        1   -1    0    0  501    0  0.00000000000E+00  0.00000000000E+00 -0.11896766254E+04  0.11896766255E+04  0.50400001928E-02 0.  1.
    10030    2    1    2    0    0  0.00000000000E+00  0.00000000000E+00 -0.14628137241E+03  0.22330718785E+04  0.22282755159E+04 0.  0.
        2    1    3    3  502    0  0.39257926515E+03 -0.65183380117E+03 -0.88870884245E+03  0.11699611918E+04  0.25500000920E-02 0.  1.
       -2    1    3    3    0  502 -0.39257926515E+03  0.65183380117E+03  0.74242747004E+03  0.10631106866E+04  0.25500000920E-02 0. -1.
</event>
<event>
 5   0  0.1884407E-05  0.2203040E+04  0.7818609E-02  0.8517164E-01
       -1   -1    0    0    0  501  0.00000000000E+00  0.00000000000E+00  0.68884941495E+03  0.68884941497E+03  0.50400001928E-02 0. -1.
        1   -1    0    0  501    0  0.00000000000E+00  0.00000000000E+00 -0.17614094461E+04  0.17614094461E+04  0.50400001928E-02 0.  1.
    10030    2    1    2    0    0  0.00000000000E+00  0.00000000000E+00 -0.10725600311E+04  0.24502588610E+04  0.22030395970E+04 0.  0.
        3    1    3    3  502    0 -0.87333899546E+03 -0.63779632826E+03 -0.76915798190E+03  0.13270678840E+04  0.10100000352E+00 0.  1.
       -3    1    3    3    0  502  0.87333899546E+03  0.63779632826E+03 -0.30340204922E+03  0.11231909771E+04  0.10100000352E+00 0. -1.
</event>
<event>
 5   0  0.4027923E-05  0.2198194E+04  0.7818609E-02  0.8519180E-01
        2   -1    0    0  501    0  0.00000000000E+00  0.00000000000E+00  0.19252895162E+04  0.19252895162E+04  0.25500000920E-02 0. -1.
       -2   -1    0    0    0  501  0.00000000000E+00  0.00000000000E+00 -0.62744569542E+03  0.62744569543E+03  0.25500000920E-02 0.  1.
    10030    2    1    2    0    0  0.00000000000E+00  0.00000000000E+00  0.12978438208E+04  0.25527352116E+04  0.21981943676E+04 0.  0.
        5    1    3    3  502    0  0.79395562125E+02  0.94878570571E+03  0.11276236603E+02  0.95218024247E+03  0.46999998093E+01 0.  1.
       -5    1    3    3    0  502 -0.79395562125E+02 -0.94878570571E+03  0.12865675842E+04  0.16005549692E+04  0.46999998093E+01 0. -1.
</event>
<event>
 5   0  0.1815681E-05  0.2111324E+04  0.7818609E-02  0.8556271E-01
       -1   -1    0    0    0  501  0.00000000000E+00  0.00000000000E+00  0.10592879332E+04  0.10592879332E+04  0.50400001928E-02 0.  1.
        1   -1    0    0  501    0  0.00000000000E+00  0.00000000000E+00 -0.10520483761E+04  0.10520483761E+04  0.50400001928E-02 0. -1.
    10030    2    1    2    0    0  0.00000000000E+00  0.00000000000E+00  0.72395571169E+01  0.21113363093E+04  0.21113238974E+04 0.  0.
        2    1    3    3  502    0 -0.56716434917E+03 -0.83494069961E+03 -0.30560813631E+03  0.10546078436E+04  0.25500000920E-02 0. -1.
       -2    1    3    3    0  502  0.56716434917E+03  0.83494069961E+03  0.31284769343E+03  0.10567284657E+04  0.25500000920E-02 0.  1.
</event>
<event>
 5   0  0.1786228E-05  0.2102043E+04  0.7818609E-02  0.8560344E-01
       -1   -1    0    0    0  501  0.00000000000E+00  0.00000000000E+00  0.84473134881E+03  0.84473134882E+03  0.50400001928E-02 0.  1.
        1   -1    0    0  501    0  0.00000000000E+00  0.00000000000E+00 -0.13076890820E+04  0.13076890820E+04  0.50400001928E-02 0. -1.
    10030    2    1    2    0    0  0.00000000000E+00  0.00000000000E+00 -0.46295773318E+03  0.21524204308E+04  0.21020427798E+04 0.  0.
        5    1    3    3  502    0 -0.83255878934E+03  0.10578443567E+03 -0.87931798536E+03  0.12155520120E+04  0.46999998093E+01 0. -1.
       -5    1    3    3    0  502  0.83255878934E+03 -0.10578443567E+03  0.41636025218E+03  0.93686841880E+03  0.46999998093E+01 0.  1.
</event>
<event>
 5   0  0.1786228E-05  0.2267409E+04  0.7818609E-02  0.8490883E-01
        1   -1    0    0  501    0  0.00000000000E+00  0.00000000000E+00  0.11059802399E+04  0.11059802399E+04  0.50400001928E-02 0.  1.
       -1   -1    0    0    0  501  0.00000000000E+00  0.00000000000E+00 -0.11621238248E+04  0.11621238248E+04  0.50400001928E-02 0. -1.
    10030    2    1    2    0    0  0.00000000000E+00  0.00000000000E+00 -0.56143584827E+02  0.22681040647E+04  0.22674090822E+04 0.  0.
        5    1    3    3  502    0  0.51196769595E+03  0.50026403072E+03  0.85133865933E+03  0.11122835183E+04  0.46999998093E+01 0.  1.
       -5    1    3    3    0  502 -0.51196769595E+03 -0.50026403072E+03 -0.90748224415E+03  0.11558205464E+04  0.46999998093E+01 0. -1.
</event>
<event>
 5   0  0.4143281E-05  0.2186867E+04  0.7818609E-02  0.8523914E-01
       -2   -1    0    0    0  501  0.00000000000E+00  0.00000000000E+00  0.94218149927E+03  0.94218149927E+03  0.25500000920E-02 0. -1.
        2   -1    0    0  501    0  0.00000000000E+00  0.00000000000E+00 -0.12689670510E+04  0.12689670510E+04  0.25500000920E-02 0.  1.
    10030    2    1    2    0    0  0.00000000000E+00  0.00000000000E+00 -0.32678555177E+03  0.22111485503E+04  0.21868674205E+04 0.  0.
        2    1    3    3  502    0 -0.99229036585E+02 -0.39116714456E+03 -0.11909139608E+04  0.12574315881E+04  0.25500000920E-02 0.  1.
       -2    1    3    3    0  502  0.99229036585E+02  0.39116714456E+03  0.86412840904E+03  0.95371696221E+03  0.25500000920E-02 0. -1.
</event>
<event>
 5   0  0.4143281E-05  0.2283928E+04  0.7818609E-02  0.8484285E-01
       -2   -1    0    0    0  501  0.00000000000E+00  0.00000000000E+00  0.19121932837E+04  0.19121932837E+04  0.25500000920E-02 0. -1.
        2   -1    0    0  501    0  0.00000000000E+00  0.00000000000E+00 -0.68198246494E+03  0.68198246494E+03  0.25500000920E-02 0.  1.
    10030    2    1    2    0    0  0.00000000000E+00  0.00000000000E+00  0.12302108187E+04  0.25941757486E+04  0.22839284481E+04 0.  0.
        2    1    3    3  502    0 -0.93252805798E+03  0.65503535169E+03  0.69859074444E+03  0.13366783155E+04  0.25500000920E-02 0. -1.
       -2    1    3    3    0  502  0.93252805798E+03 -0.65503535169E+03  0.53162007429E+03  0.12574974331E+04  0.25500000920E-02 0.  1.
</event>
<event>
 5   0  0.4029532E-05  0.2195072E+04  0.7818609E-02  0.8520482E-01
       -2   -1    0    0    0  501  0.00000000000E+00  0.00000000000E+00  0.49101282448E+03  0.49101282448E+03  0.25500000920E-02 0. -1.
        2   -1    0    0  501    0  0.00000000000E+00  0.00000000000E+00 -0.24532666414E+04  0.24532666414E+04  0.25500000920E-02 0.  1.
    10030    2    1    2    0    0  0.00000000000E+00  0.00000000000E+00 -0.19622538169E+04  0.29442794659E+04  0.21950721016E+04 0.  0.
        3    1    3    3  502    0  0.22865676235E+03  0.35798491944E+03  0.37628499938E+03  0.56747469412E+03  0.10100000352E+00 0. -1.
       -3    1    3    3    0  502 -0.22865676235E+03 -0.35798491944E+03 -0.23385388163E+04  0.23768047718E+04  0.10100000352E+00 0.  1.
</event>
<event>
 5   0  0.4132460E-05  0.2211737E+04  0.7818609E-02  0.8513559E-01
        2   -1    0    0  501    0  0.00000000000E+00  0.00000000000E+00  0.16520728890E+04  0.16520728890E+04  0.25500000920E-02 0. -1.
       -2   -1    0    0    0  501  0.00000000000E+00  0.00000000000E+00 -0.74024878993E+03  0.74024878994E+03  0.25500000920E-02 0.  1.
    10030    2    1    2    0    0  0.00000000000E+00  0.00000000000E+00  0.91182409911E+03  0.23923216790E+04  0.22117368352E+04 0.  0.
        4    1    3    3  502    0  0.82407174535E+03 -0.27674874971E+03 -0.28346347551E+03  0.91435073512E+03  0.12699999809E+01 0. -1.
       -4    1    3    3    0  502 -0.82407174535E+03  0.27674874971E+03  0.11952875746E+04  0.14779709439E+04  0.12699999809E+01 0.  1.
</event>
<event>
 5   0  0.1788413E-05  0.2217236E+04  0.7818609E-02  0.8511288E-01
       -1   -1    0    0    0  501  0.00000000000E+00  0.00000000000E+00  0.66533918673E+03  0.66533918674E+03  0.50400001928E-02 0.  1.
        1   -1    0    0  501    0  0.00000000000E+00  0.00000000000E+00 -0.18472296170E+04  0.18472296170E+04  0.50400001928E-02 0. -1.
    10030    2    1    2    0    0  0.00000000000E+00  0.00000000000E+00 -0.11818904303E+04  0.25125688038E+04  0.22172363438E+04 0.  0.
        1    1    3    3  502    0  0.10070016361E+04 -0.25732450871E+03 -0.10280221564E+04  0.14618815793E+04  0.50400001928E-02 0. -1.
       -1    1    3    3    0  502 -0.10070016361E+04  0.25732450871E+03 -0.15386827393E+03  0.10506872245E+04  0.50400001928E-02 0.  1.
</event>
<event>
 5   0  0.4132460E-05  0.2197007E+04  0.7818609E-02  0.8519675E-01
        2   -1    0    0  501    0  0.00000000000E+00  0.00000000000E+00  0.17995024842E+04  0.17995024842E+04  0.25500000920E-02 0.  1.
       -2   -1    0    0    0  501  0.00000000000E+00  0.00000000000E+00 -0.67057971260E+03  0.67057971261E+03  0.25500000920E-02 0. -1.
    10030    2    1    2    0    0  0.00000000000E+00  0.00000000000E+00  0.11289227716E+04  0.24700821968E+04  0.21970069264E+04 0.  0.
        4    1    3    3  502    0 -0.50388162447E+03 -0.55955795884E+03 -0.33476769315E+03  0.82405874915E+03  0.12699999809E+01 0. -1.
       -4    1    3    3    0  502  0.50388162447E+03  0.55955795884E+03  0.14636904648E+04  0.16460234477E+04  0.12699999809E+01 0.  1.
</event>
<event>
 5   0  0.1866935E-05  0.2090939E+04  0.7818609E-02  0.8565245E-01
        1   -1    0    0  501    0  0.00000000000E+00  0.00000000000E+00  0.11164959928E+04  0.11164959928E+04  0.50400001928E-02 0.  1.
       -1   -1    0    0    0  501  0.00000000000E+00  0.00000000000E+00 -0.97896116702E+03  0.97896116703E+03  0.50400001928E-02 0. -1.
    10030    2    1    2    0    0  0.00000000000E+00  0.00000000000E+00  0.13753482580E+03  0.20954571599E+04  0.20909387558E+04 0.  0.
        4    1    3    3  502    0 -0.75291871473E+03 -0.61274561015E+03 -0.32022188851E+03  0.10221973609E+04  0.12699999809E+01 0.  1.
       -4    1    3    3    0  502  0.75291871473E+03  0.61274561015E+03  0.45775671432E+03  0.10732597990E+04  0.12699999809E+01 0. -1.
</event>
<event>
 5   0  0.3963414E-05  0.2108608E+04  0.7818609E-02  0.8557461E-01
        2   -1    0    0  501    0  0.00000000000E+00  0.00000000000E+00  0.11262135965E+04  0.11262135965E+04  0.25500000920E-02 0. -1.
       -2   -1    0    0    0  501  0.00000000000E+00  0.00000000000E+00 -0.98698590620E+03  0.98698590621E+03  0.25500000920E-02 0.  1.
    10030    2    1    2    0    0  0.00000000000E+00  0.00000000000E+00  0.13922769031E+03  0.21131995027E+04  0.21086080216E+04 0.  0.
        1    1    3    3  502    0  0.82805698046E+03 -0.60353472541E+03  0.31839705449E+03  0.10729907791E+04  0.50400001928E-02 0. -1.
       -1    1    3    3    0  502 -0.82805698046E+03  0.60353472541E+03 -0.17916936418E+03  0.10402087236E+04  0.50400001928E-02 0.  1.
</event>
<event>
 5   0  0.1884407E-05  0.2193810E+04  0.7818609E-02  0.8521009E-01
        1   -1    0    0  501    0  0.00000000000E+00  0.00000000000E+00  0.10217207497E+04  0.10217207497E+04  0.50400001928E-02 0. -1.
       -1   -1    0    0    0  501  0.00000000000E+00  0.00000000000E+00 -0.11776218557E+04  0.11776218557E+04  0.50400001928E-02 0.  1.
    10030    2    1    2    0    0  0.00000000000E+00  0.00000000000E+00 -0.15590110607E+03  0.21993426054E+04  0.21938100969E+04 0.  0.
        3    1    3    3  502    0  0.28616288898E+03 -0.83623852069E+03 -0.72921688903E+03  0.11458365258E+04  0.10100000352E+00 0.  1.
       -3    1    3    3    0  502 -0.28616288898E+03  0.83623852069E+03  0.57331578296E+03  0.10535060796E+04  0.10100000352E+00 0. -1.
</event>
<event>
 5   0  0.4029532E-05  0.2262764E+04  0.7818609E-02  0.8492749E-01
        2   -1    0    0  501    0  0.00000000000E+00  0.00000000000E+00  0.11643652236E+04  0.11643652236E+04  0.25500000920E-02 0. -1.
       -2   -1    0    0    0  501  0.00000000000E+00  0.00000000000E+00 -0.10993326406E+04  0.10993326406E+04  0.25500000920E-02 0.  1.
    10030    2    1    2    0    0  0.00000000000E+00  0.00000000000E+00  0.65032582986E+02  0.22636978642E+04  0.22627635280E+04 0.  0.
        3    1    3    3  502    0  0.46905168249E+03  0.14376127601E+02 -0.99737882012E+03  0.11022616182E+04  0.10100000352E+00 0.  1.
       -3    1    3    3    0  502 -0.46905168249E+03 -0.14376127601E+02  0.10624114031E+04  0.11614362460E+04  0.10100000352E+00 0. -1.
</event>
<event>
 5   0  0.1786228E-05  0.2197431E+04  0.7818609E-02  0.8519498E-01
       -1   -1    0    0    0  501  0.00000000000E+00  0.00000000000E+00  0.75754493991E+03  0.75754493993E+03  0.50400001928E-02 0.  1.
        1   -1    0    0  501    0  0.00000000000E+00  0.00000000000E+00 -0.15935371067E+04  0.15935371067E+04  0.50400001928E-02 0. -1.
    10030    2    1    2    0    0  0.00000000000E+00  0.00000000000E+00 -0.83599216679E+03  0.23510820466E+04  0.21974312019E+04 0.  0.
        5    1    3    3  502    0 -0.82487411287E+03  0.66277207822E+03 -0.73442884821E+03  0.12880574338E+04  0.46999998093E+01 0.  1.
       -5    1    3    3    0  502  0.82487411287E+03 -0.66277207822E+03 -0.10156331858E+03  0.10630246128E+04  0.46999998093E+01 0. -1.
</event>
<event>
 5   0  0.3963414E-05  0.2177257E+04  0.7818609E-02  0.8527954E-01
       -2   -1    0    0    0  501  0.00000000000E+00  0.00000000000E+00  0.64205094292E+03  0.64205094292E+03  0.25500000920E-02 0.  1.
        2   -1    0    0  501    0  0.00000000000E+00  0.00000000000E+00 -0.18458231143E+04  0.18458231143E+04  0.25500000920E-02 0. -1.
    10030    2    1    2    0    0  0.00000000000E+00  0.00000000000E+00 -0.12037721713E+04  0.24878740572E+04  0.21772574225E+04 0.  0.
        1    1    3    3  502    0 -0.64336787846E+02  0.35595715208E+03 -0.17751455694E+04  0.18116253777E+04  0.50400001928E-02 0. -1.
       -1    1    3    3    0  502  0.64336787846E+02 -0.35595715208E+03  0.57137339812E+03  0.67624867947E+03  0.50400001928E-02 0.  1.
</event>
<event>
 5   0  0.4029532E-05  0.2207820E+04  0.7818609E-02  0.8515180E-01
        2   -1    0    0  501    0  0.00000000000E+00  0.00000000000E+00  0.12326160411E+04  0.12326160411E+04  0.25500000920E-02 0.  1.
       -2   -1    0    0    0  501  0.00000000000E+00  0.00000000000E+00 -0.98864290453E+03  0.98864290454E+03  0.25500000920E-02 0. -1.
    10030    2    1    2    0    0  0.00000000000E+00  0.00000000000E+00  0.24397313655E+03  0.22212589456E+04  0.22078198324E+04 0.  0.
        3    1    3    3  502    0  0.55104025951E+03  0.14209342365E+03 -0.82970009040E+03  0.10061004715E+04  0.10100000352E+00 0. -1.
       -3    1    3    3    0  502 -0.55104025951E+03 -0.14209342365E+03  0.10736732269E+04  0.12151584741E+04  0.10100000352E+00 0.  1.
</event>
<event>
 5   0  0.1786228E-05  0.2203390E+04  0.7818609E-02  0.8517018E-01
        1   -1    0    0  501    0  0.00000000000E+00  0.00000000000E+00  0.20704515414E+04  0.20704515414E+04  0.50400001928E-02 0.  1.
       -1   -1    0    0    0  501  0.00000000000E+00  0.00000000000E+00 -0.58621616860E+03  0.58621616862E+03  0.50400001928E-02 0. -1.
    10030    2    1    2    0    0  0.00000000000E+00  0.00000000000E+00  0.14842353728E+04  0.26566677100E+04  0.22033902695E+04 0.  0.
        5    1    3    3  502    0 -0.39416342173E+03 -0.71113936881E+03  0.16384344034E+04  0.18290908641E+04  0.46999998093E+01 0.  1.
       -5    1    3    3    0  502  0.39416342173E+03  0.71113936881E+03 -0.15419903059E+03  0.82757684594E+03  0.46999998093E+01 0. -1.
</event>
<event>
 5   0  0.1866935E-05  0.2208380E+04  0.7818609E-02  0.8514948E-01
       -1   -1    0    0    0  501  0.00000000000E+00  0.00000000000E+00  0.94930429366E+03  0.94930429368E+03  0.50400001928E-02 0.  1.
        1   -1    0    0  501    0  0.00000000000E+00  0.00000000000E+00 -0.12843460596E+04  0.12843460596E+04  0.50400001928E-02 0. -1.
    10030    2    1    2    0    0  0.00000000000E+00  0.00000000000E+00 -0.33504176595E+03  0.22336503533E+04  0.22083797037E+04 0.  0.
        4    1    3    3  502    0  0.74502940546E+03 -0.56124974600E+03  0.43014143950E+03  0.10271773767E+04  0.12699999809E+01 0.  1.
       -4    1    3    3    0  502 -0.74502940546E+03  0.56124974600E+03 -0.76518320545E+03  0.12064729766E+04  0.12699999809E+01 0. -1.
</event>
<event>
 5   0  0.1815681E-05  0.2182596E+04  0.7818609E-02  0.8525707E-01
        1   -1    0    0  501    0  0.00000000000E+00  0.00000000000E+00  0.13834461731E+04  0.13834461731E+04  0.50400001928E-02 0. -1.
       -1   -1    0    0    0  501  0.00000000000E+00  0.00000000000E+00 -0.86084368777E+03  0.86084368778E+03  0.50400001928E-02 0.  1.
    10030    2    1    2    0    0  0.00000000000E+00  0.00000000000E+00  0.52260248531E+03  0.22442898609E+04  0.21825956158E+04 0.  0.
        2    1    3    3  502    0 -0.63514971744E+03 -0.77726065161E+03  0.70163661412E+03  0.12246808655E+04  0.25500000920E-02 0. -1.
       -2    1    3    3    0  502  0.63514971744E+03  0.77726065161E+03 -0.17903412881E+03  0.10196089953E+04  0.25500000920E-02 0.  1.
</event>
<event>
 5   0  0.4132460E-05  0.2229197E+04  0.7818609E-02  0.8506373E-01
        2   -1    0    0  501    0  0.00000000000E+00  0.00000000000E+00  0.20248093293E+04  0.20248093293E+04  0.25500000920E-02 0. -1.
       -2   -1    0    0    0  501  0.00000000000E+00  0.00000000000E+00 -0.61355379009E+03  0.61355379010E+03  0.25500000920E-02 0.  1.
    10030    2    1    2    0    0  0.00000000000E+00  0.00000000000E+00  0.14112555392E+04  0.26383631194E+04  0.22291966609E+04 0.  0.
        4    1    3    3  502    0 -0.74534842128E+03 -0.26443798021E+03  0.16351892509E+04  0.18164022720E+04  0.12699999809E+01 0. -1.
       -4    1    3    3    0  502  0.74534842128E+03  0.26443798021E+03 -0.22393371173E+03  0.82196084739E+03  0.12699999809E+01 0.  1.
</event>
<event>
 5   0  0.3963414E-05  0.2251253E+04  0.7818609E-02  0.8497393E-01
       -2   -1    0    0    0  501  0.00000000000E+00  0.00000000000E+00  0.89335053860E+03  0.89335053860E+03  0.25500000920E-02 0.  1.
        2   -1    0    0  501    0  0.00000000000E+00  0.00000000000E+00 -0.14182950961E+04  0.14182950961E+04  0.25500000920E-02 0. -1.
    10030    2    1    2    0    0  0.00000000000E+00  0.00000000000E+00 -0.52494455754E+03  0.23116456347E+04  0.22512527073E+04 0.  0.
        1    1    3    3  502    0 -0.11058119940E+04 -0.20890651788E+03 -0.28704302926E+03  0.11614025142E+04  0.50400001928E-02 0.  1.
       -1    1    3    3    0  502  0.11058119940E+04  0.20890651788E+03 -0.23790152828E+03  0.11502431206E+04  0.50400001928E-02 0. -1.
</event>
<event>
 5   0  0.1788413E-05  0.2203552E+04  0.7818609E-02  0.8516951E-01
        1   -1    0    0  501    0  0.00000000000E+00  0.00000000000E+00  0.19117273770E+04  0.19117273770E+04  0.50400001928E-02 0. -1.
       -1   -1    0    0    0  501  0.00000000000E+00  0.00000000000E+00 -0.63498090096E+03  0.63498090098E+03  0.50400001928E-02 0.  1.
    10030    2    1    2    0    0  0.00000000000E+00  0.00000000000E+00  0.12767464761E+04  0.25467082780E+04  0.22035520164E+04 0.  0.
        1    1    3    3  502    0 -0.56249510515E+03 -0.49873613234E+03 -0.29252435741E+03  0.80666534122E+03  0.50400001928E-02 0.  1.
       -1    1    3    3    0  502  0.56249510515E+03  0.49873613234E+03  0.15692708335E+04  0.17400429368E+04  0.50400001928E-02 0. -1.
</event>
<event>
 5   0  0.4027923E-05  0.2191478E+04  0.7818609E-02  0.8521983E-01
       -2   -1    0    0    0  501  0.00000000000E+00  0.00000000000E+00  0.11486525559E+04  0.11486525559E+04  0.25500000920E-02 0. -1.
        2   -1    0    0  501    0  0.00000000000E+00  0.00000000000E+00 -0.10452633992E+04  0.10452633992E+04  0.25500000920E-02 0.  1.
    10030    2    1    2    0    0  0.00000000000E+00  0.00000000000E+00  0.10338915675E+03  0.21939159551E+04  0.21914784737E+04 0.  0.
        5    1    3    3  502    0 -0.61406702428E+03  0.10715466190E+03 -0.85045252535E+03  0.10544439386E+04  0.46999998093E+01 0.  1.
       -5    1    3    3    0  502  0.61406702428E+03 -0.10715466190E+03  0.95384168209E+03  0.11394720165E+04  0.46999998093E+01 0. -1.
</event>
<event>
 5   0  0.1866935E-05  0.2206424E+04  0.7818609E-02  0.8515759E-01
       -1   -1    0    0    0  501  0.00000000000E+00  0.00000000000E+00  0.19969351915E+04  0.19969351915E+04  0.50400001928E-02 0. -1.
        1   -1    0    0  501    0  0.00000000000E+00  0.00000000000E+00 -0.60947232035E+03  0.60947232037E+03  0.50400001928E-02 0.  1.
    10030    2    1    2    0    0  0.00000000000E+00  0.00000000000E+00  0.13874628712E+04  0.26064075119E+04  0.22064240071E+04 0.  0.
        4    1    3    3  502    0 -0.53067334805E+03 -0.93401899693E+03  0.39706885305E+03  0.11452820508E+04  0.12699999809E+01 0. -1.
       -4    1    3    3    0  502  0.53067334805E+03  0.93401899693E+03  0.99039401812E+03  0.14611254611E+04  0.12699999809E+01 0.  1.
</event>
<event>
 5   0  0.1884407E-05  0.2232640E+04  0.7818609E-02  0.8504964E-01
        1   -1    0    0  501    0  0.00000000000E+00  0.00000000000E+00  0.11823010003E+04  0.11823010003E+04  0.50400001928E-02 0.  1.
       -1   -1    0    0    0  501  0.00000000000E+00  0.00000000000E+00 -0.10540208495E+04  0.10540208495E+04  0.50400001928E-02 0. -1.
    10030    2    1    2    0    0  0.00000000000E+00  0.00000000000E+00  0.12828015077E+03  0.22363218498E+04  0.22326396079E+04 0.  0.
        3    1    3    3  502    0 -0.24222375118E+03  0.10894872318E+04  0.86873778109E+02  0.11194649782E+04  0.10100000352E+00 0.  1.
       -3    1    3    3    0  502  0.24222375118E+03 -0.10894872318E+04  0.41406372659E+02  0.11168568716E+04  0.10100000352E+00 0. -1.
</event>
<event>
 5   0  0.1815681E-05  0.2201782E+04  0.7818609E-02  0.8517687E-01
       -1   -1    0    0    0  501  0.00000000000E+00  0.00000000000E+00  0.13281146131E+04  0.13281146131E+04  0.50400001928E-02 0. -1.
        1   -1    0    0  501    0  0.00000000000E+00  0.00000000000E+00 -0.91254288296E+03  0.91254288298E+03  0.50400001928E-02 0.  1.
    10030    2    1    2    0    0  0.00000000000E+00  0.00000000000E+00  0.41557173009E+03  0.22406574960E+04  0.22017824942E+04 0.  0.
        2    1    3    3  502    0  0.25982746319E+03  0.39083062188E+03  0.12212112973E+04  0.13082873990E+04  0.25500000920E-02 0. -1.
       -2    1    3    3    0  502 -0.25982746319E+03 -0.39083062188E+03 -0.80563956722E+03  0.93237009706E+03  0.25500000920E-02 0.  1.
</event>
<event>
 5   0  0.4132460E-05  0.2199450E+04  0.7818609E-02  0.8518657E-01
       -2   -1    0    0    0  501  0.00000000000E+00  0.00000000000E+00  0.60940645052E+03  0.60940645053E+03  0.25500000920E-02 0. -1.
        2   -1    0    0  501    0  0.00000000000E+00  0.00000000000E+00 -0.19845450536E+04  0.19845450536E+04  0.25500000920E-02 0.  1.
    10030    2    1    2    0    0  0.00000000000E+00  0.00000000000E+00 -0.13751386031E+04  0.25939515041E+04  0.21994495284E+04 0.  0.
        4    1    3    3  502    0  0.40008091971E+02  0.38942095153E+03  0.52444945734E+03  0.65444493361E+03  0.12699999809E+01 0. -1.
       -4    1    3    3    0  502 -0.40008091971E+02 -0.38942095153E+03 -0.18995880604E+04  0.19395065705E+04  0.12699999809E+01 0.  1.
</event>
<event>
 5   0  0.1788413E-05  0.2196859E+04  0.7818609E-02  0.8519736E-01
        1   -1    0    0  501    0  0.00000000000E+00  0.00000000000E+00  0.10111857170E+04  0.10111857170E+04  0.50400001928E-02 0.  1.
       -1   -1    0    0    0  501  0.00000000000E+00  0.00000000000E+00 -0.11932010392E+04  0.11932010392E+04  0.50400001928E-02 0. -1.
    10030    2    1    2    0    0  0.00000000000E+00  0.00000000000E+00 -0.18201532224E+03  0.22043867562E+04  0.21968594387E+04 0.  0.
        1    1    3    3  502    0 -0.12011242053E+03  0.39172413705E+03 -0.11136527934E+04  0.11866327727E+04  0.50400001928E-02 0. -1.
       -1    1    3    3    0  502  0.12011242053E+03 -0.39172413705E+03  0.93163747114E+03  0.10177539834E+04  0.50400001928E-02 0.  1.
</event>
<event>
 5   0  0.1884407E-05  0.2215790E+04  0.7818609E-02  0.8511885E-01
       -1   -1    0    0    0  501  0.00000000000E+00  0.00000000000E+00  0.65886139342E+03  0.65886139344E+03  0.50400001928E-02 0.  1.
        1   -1    0    0  501    0  0.00000000000E+00  0.00000000000E+00 -0.18629578527E+04  0.18629578527E+04  0.50400001928E-02 0. -1.
    10030    2    1    2    0    0  0.00000000000E+00  0.00000000000E+00 -0.12040964592E+04  0.25218192461E+04  0.22157897073E+04 0.  0.
        3    1    3    3  502    0 -0.32002253554E+03  0.32451877927E+03  0.54722291942E+03  0.71216556719E+03  0.10100000352E+00 0.  1.
       -3    1    3    3    0  502  0.32002253554E+03 -0.32451877927E+03 -0.17513193787E+04  0.18096536789E+04  0.10100000352E+00 0. -1.
</event>
<event>
 5   0  0.4143281E-05  0.2184569E+04  0.7818609E-02  0.8524879E-01
        2   -1    0    0  501    0  0.00000000000E+00  0.00000000000E+00  0.14297546513E+04  0.14297546513E+04  0.25500000920E-02 0.  1.
       -2   -1    0    0    0  501  0.00000000000E+00  0.00000000000E+00 -0.83446827150E+03  0.83446827151E+03  0.25500000920E-02 0. -1.
    10030    2    1    2    0    0  0.00000000000E+00  0.00000000000E+00  0.59528637982E+03  0.22642229228E+04  0.21845685089E+04 0.  0.
        2    1    3    3  502    0 -0.35878382024E+03 -0.53406272370E+03  0.12125148383E+04  0.13726401771E+04  0.25500000920E-02 0.  1.
       -2    1    3    3    0  502  0.35878382024E+03  0.53406272370E+03 -0.61722845853E+03  0.89158274576E+03  0.25500000920E-02 0. -1.
</event>
<event>
 5   0  0.4132460E-05  0.2193133E+04  0.7818609E-02  0.8521292E-01
       -2   -1    0    0    0  501  0.00000000000E+00  0.00000000000E+00  0.10811906310E+04  0.10811906310E+04  0.25500000920E-02 0.  1.
        2   -1    0    0  501    0  0.00000000000E+00  0.00000000000E+00 -0.11121606831E+04  0.11121606831E+04  0.25500000920E-02 0. -1.
    10030    2    1    2    0    0  0.00000000000E+00  0.00000000000E+00 -0.30970052044E+02  0.21933513141E+04  0.21931326552E+04 0.  0.
        4    1    3    3  502    0 -0.68269293109E+03 -0.34203792256E+03 -0.80258097643E+03  0.11077894273E+04  0.12699999809E+01 0. -1.
       -4    1    3    3    0  502  0.68269293109E+03  0.34203792256E+03  0.77161092438E+03  0.10855618868E+04  0.12699999809E+01 0.  1.
</event>
<event>
 5   0  0.1786228E-05  0.2198573E+04  0.7818609E-02  0.8519022E-01
       -1   -1    0    0    0  501  0.00000000000E+00  0.00000000000E+00  0.44003042375E+03  0.44003042378E+03  0.50400001928E-02 0.  1.
        1   -1    0    0  501    0  0.00000000000E+00  0.00000000000E+00 -0.27462435138E+04  0.27462435138E+04  0.50400001928E-02 0. -1.
    10030    2    1    2    0    0  0.00000000000E+00  0.00000000000E+00 -0.23062130901E+04  0.31862739376E+04  0.21985728982E+04 0.  0.
        5    1    3    3  502    0 -0.17315637113E+03  0.10529867408E+04 -0.15355659526E+04  0.18699596493E+04  0.46999998093E+01 0. -1.
       -5    1    3    3    0  502  0.17315637113E+03 -0.10529867408E+04 -0.77064713745E+03  0.13163142883E+04  0.46999998093E+01 0.  1.
</event>
<event>
 5   0  0.4132460E-05  0.2197920E+04  0.7818609E-02  0.8519294E-01
        2   -1    0    0  501    0  0.00000000000E+00  0.00000000000E+00  0.10356289825E+04  0.10356289825E+04  0.25500000920E-02 0. -1.
       -2   -1    0    0    0  501  0.00000000000E+00  0.00000000000E+00 -0.11661641378E+04  0.11661641378E+04  0.25500000920E-02 0.  1.
    10030    2    1    2    0    0  0.00000000000E+00  0.00000000000E+00 -0.13053515530E+03  0.22017931203E+04  0.21979202710E+04 0.  0.
        4    1    3    3  502    0 -0.36006911865E+03  0.29365404588E+03  0.93239353027E+03  0.10417493830E+04  0.12699999809E+01 0. -1.
       -4    1    3    3    0  502  0.36006911865E+03 -0.29365404588E+03 -0.10629286856E+04  0.11600437373E+04  0.12699999809E+01 0.  1.
</event>
<event>
 5   0  0.1815681E-05  0.2199076E+04  0.7818609E-02  0.8518813E-01
       -1   -1    0    0    0  501  0.00000000000E+00  0.00000000000E+00  0.10938066874E+04  0.10938066874E+04  0.50400001928E-02 0.  1.
        1   -1    0    0  501    0  0.00000000000E+00  0.00000000000E+00 -0.11052994967E+04  0.11052994967E+04  0.50400001928E-02 0. -1.
    10030    2    1    2    0    0  0.00000000000E+00  0.00000000000E+00 -0.11492809339E+02  0.21991061841E+04  0.21990761525E+04 0.  0.
        2    1    3    3  502    0  0.20295739818E+03  0.89358282191E+03  0.60196413731E+03  0.10963771193E+04  0.25500000920E-02 0.  1.
       -2    1    3    3    0  502 -0.20295739818E+03 -0.89358282191E+03 -0.61345694665E+03  0.11027290649E+04  0.25500000920E-02 0. -1.
</event>
<event>
 5   0  0.4027923E-05  0.2202771E+04  0.7818609E-02  0.8517275E-01
       -2   -1    0    0    0  501  0.00000000000E+00  0.00000000000E+00  0.75194337100E+03  0.75194337101E+03  0.25500000920E-02 0.  1.
        2   -1    0    0  501    0  0.00000000000E+00  0.00000000000E+00 -0.16132205385E+04  0.16132205385E+04  0.25500000920E-02 0. -1.
    10030    2    1    2    0    0  0.00000000000E+00  0.00000000000E+00 -0.86127716754E+03  0.23651639096E+04  0.22027714270E+04 0.  0.
        5    1    3    3  502    0 -0.10454268234E+04  0.20726644409E+03 -0.72887782006E+03  0.12911861169E+04  0.46999998093E+01 0. -1.
       -5    1    3    3    0  502  0.10454268234E+04 -0.20726644409E+03 -0.13239934748E+03  0.10739777927E+04  0.46999998093E+01 0.  1.
</event>
<event>
 5   0  0.1866935E-05  0.2202720E+04  0.7818609E-02  0.8517297E-01
        1   -1    0    0  501    0  0.00000000000E+00  0.00000000000E+00  0.13022900866E+04  0.13022900866E+04  0.50400001928E-02 0. -1.
       -1   -1    0    0    0  501  0.00000000000E+00  0.00000000000E+00 -0.93143105289E+03  0.93143105291E+03  0.50400001928E-02 0.  1.
    10030    2    1    2    0    0  0.00000000000E+00  0.00000000000E+00  0.37085903368E+03  0.22337211395E+04  0.22027196159E+04 0.  0.
        4    1    3    3  502    0 -0.21284226442E+03  0.35541958119E+03 -0.84940670291E+03  0.94504934690E+03  0.12699999809E+01 0.  1.
       -4    1    3    3    0  502  0.21284226442E+03 -0.35541958119E+03  0.12202657366E+04  0.12886717926E+04  0.12699999809E+01 0. -1.
</event>
<event>
 5   0  0.4029532E-05  0.2241057E+04  0.7818609E-02  0.8501531E-01
        2   -1    0    0  501    0  0.00000000000E+00  0.00000000000E+00  0.10403508032E+04  0.10403508032E+04  0.25500000920E-02 0. -1.
       -2   -1    0    0    0  501  0.00000000000E+00  0.00000000000E+00 -0.12068855683E+04  0.12068855683E+04  0.25500000920E-02 0.  1.
    10030    2    1    2    0    0  0.00000000000E+00  0.00000000000E+00 -0.16653476515E+03  0.22472363715E+04  0.22410572240E+04 0.  0.
        3    1    3    3  502    0 -0.88957866244E+02  0.10643065069E+04 -0.42320433356E+03  0.11488097148E+04  0.10100000352E+00 0.  1.
       -3    1    3    3    0  502  0.88957866244E+02 -0.10643065069E+04  0.25666956841E+03  0.10984266567E+04  0.10100000352E+00 0. -1.
</event>
<event>
 5   0  0.1433375E-05  0.2214784E+04  0.7818609E-02  0.8512300E-01
       -4   -1    0    0    0  501  0.00000000000E+00  0.00000000000E+00  0.92623093838E+03  0.92623180906E+03  0.12699999809E+01 0. -1.
        4   -1    0    0  501    0  0.00000000000E+00  0.00000000000E+00 -0.13239843779E+04  0.13239849870E+04  0.12699999809E+01 0.  1.
    10030    2    1    2    0    0  0.00000000000E+00  0.00000000000E+00 -0.39775343950E+03  0.22502167961E+04  0.22147839241E+04 0.  0.
        4    1    3    3  502    0  0.99706931674E+03  0.21447628388E+03  0.23949806912E+03  0.10476202732E+04  0.12699999809E+01 0. -1.
       -4    1    3    3    0  502 -0.99706931674E+03 -0.21447628388E+03 -0.63725150862E+03  0.12025965229E+04  0.12699999809E+01 0.  1.
</event>
<event>
 5   0  0.4143281E-05  0.2178702E+04  0.7818609E-02  0.8527345E-01
       -2   -1    0    0    0  501  0.00000000000E+00  0.00000000000E+00  0.42123206669E+03  0.42123206670E+03  0.25500000920E-02 0. -1.
        2   -1    0    0  501    0  0.00000000000E+00  0.00000000000E+00 -0.28171777815E+04  0.28171777815E+04  0.25500000920E-02 0.  1.
    10030    2    1    2    0    0  0.00000000000E+00  0.00000000000E+00 -0.23959457148E+04  0.32384098482E+04  0.21787020165E+04 0.  0.
        2    1    3    3  502    0 -0.83357979172E+03 -0.56361209783E+02 -0.22370184401E+04  0.23879454258E+04  0.25500000920E-02 0.  1.
       -2    1    3    3    0  502  0.83357979172E+03  0.56361209783E+02 -0.15892727469E+03  0.85046442241E+03  0.25500000920E-02 0. -1.
</event>
<event>
 5   0  0.1433375E-05  0.2185669E+04  0.7818609E-02  0.8524417E-01
       -3   -1    0    0    0  501  0.00000000000E+00  0.00000000000E+00  0.48491442263E+03  0.48491443315E+03  0.10100000352E+00 0. -1.
        3   -1    0    0  501    0  0.00000000000E+00  0.00000000000E+00 -0.24628820677E+04  0.24628820698E+04  0.10100000352E+00 0.  1.
    10030    2    1    2    0    0  0.00000000000E+00  0.00000000000E+00 -0.19779676451E+04  0.29477965029E+04  0.21856688262E+04 0.  0.
        4    1    3    3  502    0 -0.12623804914E+03  0.12693333748E+03 -0.24429709126E+04  0.24495217104E+04  0.12699999809E+01 0.  1.
       -4    1    3    3    0  502  0.12623804914E+03 -0.12693333748E+03  0.46500326748E+03  0.49827479254E+03  0.12699999809E+01 0. -1.
</event>
<event>
 5   0  0.4132460E-05  0.2177440E+04  0.7818609E-02  0.8527877E-01
       -2   -1    0    0    0  501  0.00000000000E+00  0.00000000000E+00  0.10501259058E+04  0.10501259058E+04  0.25500000920E-02 0. -1.
        2   -1    0    0  501    0  0.00000000000E+00  0.00000000000E+00 -0.11287322174E+04  0.11287322174E+04  0.25500000920E-02 0.  1.
    10030    2    1    2    0    0  0.00000000000E+00  0.00000000000E+00 -0.78606311568E+02  0.21788581231E+04  0.21774397279E+04 0.  0.
        4    1    3    3  502    0  0.40633460468E+03  0.88924520529E+03 -0.51861881701E+03  0.11067212550E+04  0.12699999809E+01 0.  1.
       -4    1    3    3    0  502 -0.40633460468E+03 -0.88924520529E+03  0.44001250544E+03  0.10721368681E+04  0.12699999809E+01 0. -1.
</event>
<event>
 5   0  0.4027923E-05  0.2199210E+04  0.7818609E-02  0.8518757E-01
       -2   -1    0    0    0  501  0.00000000000E+00  0.00000000000E+00  0.83672889503E+03  0.83672889503E+03  0.25500000920E-02 0. -1.
        2   -1    0    0  501    0  0.00000000000E+00  0.00000000000E+00 -0.14450693169E+04  0.14450693169E+04  0.25500000920E-02 0.  1.
    10030    2    1    2    0    0  0.00000000000E+00  0.00000000000E+00 -0.60834042191E+03  0.22817982120E+04  0.21992100880E+04 0.  0.
        5    1    3    3  502    0  0.10300587080E+04 -0.38471916802E+03 -0.29492592614E+03  0.11384345269E+04  0.46999998093E+01 0.  1.
       -5    1    3    3    0  502 -0.10300587080E+04  0.38471916802E+03 -0.31341449577E+03  0.11433636851E+04  0.46999998093E+01 0. -1.
</event>
<event>
 5   0  0.1866935E-05  0.2135351E+04  0.7818609E-02  0.8545829E-01
       -1   -1    0    0    0  501  0.00000000000E+00  0.00000000000E+00  0.55561176291E+03  0.55561176293E+03  0.50400001928E-02 0. -1.
        1   -1    0    0  501    0  0.00000000000E+00  0.00000000000E+00 -0.20516677414E+04  0.20516677414E+04  0.50400001928E-02 0.  1.
    10030    2    1    2    0    0  0.00000000000E+00  0.00000000000E+00 -0.14960559784E+04  0.26072795043E+04  0.21353507728E+04 0.  0.
        4    1    3    3  502    0  0.24698534922E+02  0.30123257743E+03  0.50228499752E+03  0.58621064044E+03  0.12699999809E+01 0. -1.
       -4    1    3    3    0  502 -0.24698534922E+02 -0.30123257743E+03 -0.19983409760E+04  0.20210688639E+04  0.12699999809E+01 0.  1.
</event>
<event>
 5   0  0.1433375E-05  0.2208946E+04  0.7818609E-02  0.8514714E-01
        4   -1    0    0  501    0  0.00000000000E+00  0.00000000000E+00  0.12551454200E+04  0.12551460625E+04  0.12699999809E+01 0. -1.
       -4   -1    0    0    0  501  0.00000000000E+00  0.00000000000E+00 -0.97188627815E+03  0.97188710793E+03  0.12699999809E+01 0.  1.
    10030    2    1    2    0    0  0.00000000000E+00  0.00000000000E+00  0.28325914181E+03  0.22270331704E+04  0.22089456763E+04 0.  0.
        5    1    3    3  502    0  0.98240395339E+03  0.57422818649E+02 -0.36389744554E+03  0.10492179700E+04  0.46999998093E+01 0. -1.
       -5    1    3    3    0  502 -0.98240395339E+03 -0.57422818649E+02  0.64715658735E+03  0.11778152004E+04  0.46999998093E+01 0.  1.
</event>
<event>
 5   0  0.4027923E-05  0.2202744E+04  0.7818609E-02  0.8517287E-01
       -2   -1    0    0    0  501  0.00000000000E+00  0.00000000000E+00  0.59219922880E+03  0.59219922881E+03  0.25500000920E-02 0.  1.
        2   -1    0    0  501    0  0.00000000000E+00  0.00000000000E+00 -0.20483315542E+04  0.20483315542E+04  0.25500000920E-02 0. -1.
    10030    2    1    2    0    0  0.00000000000E+00  0.00000000000E+00 -0.14561323254E+04  0.26405307830E+04  0.22027440766E+04 0.  0.
        5    1    3    3  502    0 -0.41041234997E+03  0.10205319689E+04 -0.66159809583E+03  0.12836112834E+04  0.46999998093E+01 0.  1.
       -5    1    3    3    0  502  0.41041234997E+03 -0.10205319689E+04 -0.79453422956E+03  0.13569194996E+04  0.46999998093E+01 0. -1.
</event>
<event>
 5   0  0.1884407E-05  0.2204210E+04  0.7818609E-02  0.8516678E-01
        1   -1    0    0  501    0  0.00000000000E+00  0.00000000000E+00  0.95883789670E+03  0.95883789671E+03  0.50400001928E-02 0. -1.
       -1   -1    0    0    0  501  0.00000000000E+00  0.00000000000E+00 -0.12667792064E+04  0.12667792064E+04  0.50400001928E-02 0.  1.
    10030    2    1    2    0    0  0.00000000000E+00  0.00000000000E+00 -0.30794130965E+03  0.22256171031E+04  0.22042104344E+04 0.  0.
        3    1    3    3  502    0  0.79925046965E+03 -0.42598372086E+03  0.48011902319E+03  0.10250744999E+04  0.10100000352E+00 0. -1.
       -3    1    3    3    0  502 -0.79925046965E+03  0.42598372086E+03 -0.78806033284E+03  0.12005426032E+04  0.10100000352E+00 0.  1.
</event>
<event>
 5   0  0.3963414E-05  0.2188579E+04  0.7818609E-02  0.8523197E-01
       -2   -1    0    0    0  501  0.00000000000E+00  0.00000000000E+00  0.76819755548E+03  0.76819755549E+03  0.25500000920E-02 0. -1.
        2   -1    0    0  501    0  0.00000000000E+00  0.00000000000E+00 -0.15588038611E+04  0.15588038611E+04  0.25500000920E-02 0.  1.
    10030    2    1    2    0    0  0.00000000000E+00  0.00000000000E+00 -0.79060630565E+03  0.23270014166E+04  0.21885788225E+04 0.  0.
        1    1    3    3  502    0  0.73619961844E+03 -0.42961381413E+03  0.33432916310E+03  0.91560575403E+03  0.50400001928E-02 0.  1.
       -1    1    3    3    0  502 -0.73619961844E+03  0.42961381413E+03 -0.11249354687E+04  0.14113956626E+04  0.50400001928E-02 0. -1.
</event>
<event>
 5   0  0.1788413E-05  0.2223674E+04  0.7818609E-02  0.8508639E-01
        1   -1    0    0  501    0  0.00000000000E+00  0.00000000000E+00  0.13575223148E+04  0.13575223148E+04  0.50400001928E-02 0.  1.
       -1   -1    0    0    0  501  0.00000000000E+00  0.00000000000E+00 -0.91061593562E+03  0.91061593563E+03  0.50400001928E-02 0. -1.
    10030    2    1    2    0    0  0.00000000000E+00  0.00000000000E+00  0.44690637920E+03  0.22681382505E+04  0.22236739445E+04 0.  0.
        1    1    3    3  502    0 -0.21041731750E+03 -0.71326614159E+03 -0.61960744125E+03  0.96795527661E+03  0.50400001928E-02 0. -1.
       -1    1    3    3    0  502  0.21041731750E+03  0.71326614159E+03  0.10665138205E+04  0.13001829738E+04  0.50400001928E-02 0.  1.
</event>
<event>
 5   0  0.3963414E-05  0.2201959E+04  0.7818609E-02  0.8517613E-01
        2   -1    0    0  501    0  0.00000000000E+00  0.00000000000E+00  0.14008791094E+04  0.14008791094E+04  0.25500000920E-02 0. -1.
       -2   -1    0    0    0  501  0.00000000000E+00  0.00000000000E+00 -0.86528219845E+03  0.86528219845E+03  0.25500000920E-02 0.  1.
    10030    2    1    2    0    0  0.00000000000E+00  0.00000000000E+00  0.53559691092E+03  0.22661613078E+04  0.22019589056E+04 0.  0.
        1    1    3    3  502    0  0.44701637078E+03  0.63842838418E+03 -0.53252663358E+03  0.94392746171E+03  0.50400001928E-02 0.  1.
       -1    1    3    3    0  502 -0.44701637078E+03 -0.63842838418E+03  0.10681235445E+04  0.13222338461E+04  0.50400001928E-02 0. -1.
</event>
<event>
 5   0  0.3963414E-05  0.2200747E+04  0.7818609E-02  0.8518117E-01
       -2   -1    0    0    0  501  0.00000000000E+00  0.00000000000E+00  0.10611926523E+04  0.10611926523E+04  0.25500000920E-02 0. -1.
        2   -1    0    0  501    0  0.00000000000E+00  0.00000000000E+00 -0.11410014027E+04  0.11410014027E+04  0.25500000920E-02 0.  1.
    10030    2    1    2    0    0  0.00000000000E+00  0.00000000000E+00 -0.79808750385E+02  0.22021940551E+04  0.22007474229E+04 0.  0.
        1    1    3    3  502    0  0.10040110995E+04 -0.23904570752E+03  0.34197610372E+03  0.10872574643E+04  0.50400001928E-02 0. -1.
       -1    1    3    3    0  502 -0.10040110995E+04  0.23904570752E+03 -0.42178485411E+03  0.11149365907E+04  0.50400001928E-02 0.  1.
</event>
<event>
 5   0  0.4027923E-05  0.2193325E+04  0.7818609E-02  0.8521212E-01
        2   -1    0    0  501    0  0.00000000000E+00  0.00000000000E+00  0.16620496168E+04  0.16620496168E+04  0.25500000920E-02 0. -1.
       -2   -1    0    0    0  501  0.00000000000E+00  0.00000000000E+00 -0.72360544208E+03  0.72360544209E+03  0.25500000920E-02 0.  1.
    10030    2    1    2    0    0  0.00000000000E+00  0.00000000000E+00  0.93844417468E+03  0.23856550589E+04  0.21933245521E+04 0.  0.
        5    1    3    3  502    0  0.47438925525E+03 -0.52476784848E+03  0.13806896592E+04  0.15513711630E+04  0.46999998093E+01 0. -1.
       -5    1    3    3    0  502 -0.47438925525E+03  0.52476784848E+03 -0.44224548454E+03  0.83428389586E+03  0.46999998093E+01 0.  1.
</event>
<event>
 5   0  0.4029532E-05  0.2182290E+04  0.7818609E-02  0.8525836E-01
        2   -1    0    0  501    0  0.00000000000E+00  0.00000000000E+00  0.77205349223E+03  0.77205349223E+03  0.25500000920E-02 0.  1.
       -2   -1    0    0    0  501  0.00000000000E+00  0.00000000000E+00 -0.15421180540E+04  0.15421180540E+04  0.25500000920E-02 0. -1.
    10030    2    1    2    0    0  0.00000000000E+00  0.00000000000E+00 -0.77006456174E+03  0.23141715462E+04  0.21822901998E+04 0.  0.
        3    1    3    3  502    0  0.10549775619E+03  0.72931290947E+03  0.46831652035E+03  0.87312511699E+03  0.10100000352E+00 0.  1.
       -3    1    3    3    0  502 -0.10549775619E+03 -0.72931290947E+03 -0.12383810821E+04  0.14410464292E+04  0.10100000352E+00 0. -1.
</event>
<event>
 5   0  0.1815681E-05  0.2202208E+04  0.7818609E-02  0.8517509E-01
       -1   -1    0    0    0  501  0.00000000000E+00  0.00000000000E+00  0.97918765820E+03  0.97918765821E+03  0.50400001928E-02 0.  1.
        1   -1    0    0  501    0  0.00000000000E+00  0.00000000000E+00 -0.12382004066E+04  0.12382004066E+04  0.50400001928E-02 0. -1.
    10030    2    1    2    0    0  0.00000000000E+00  0.00000000000E+00 -0.25901274836E+03  0.22173880648E+04  0.22022084883E+04 0.  0.
        2    1    3    3  502    0  0.50546857065E+03  0.82347845050E+03 -0.66117568378E+03  0.11707982402E+04  0.25500000920E-02 0. -1.
       -2    1    3    3    0  502 -0.50546857065E+03 -0.82347845050E+03  0.40216293542E+03  0.10465898246E+04  0.25500000920E-02 0.  1.
</event>
<event>
 5   0  0.1884407E-05  0.2208884E+04  0.7818609E-02  0.8514739E-01
       -1   -1    0    0    0  501  0.00000000000E+00  0.00000000000E+00  0.11061467822E+04  0.11061467822E+04  0.50400001928E-02 0. -1.
        1   -1    0    0  501    0  0.00000000000E+00  0.00000000000E+00 -0.11027399918E+04  0.11027399918E+04  0.50400001928E-02 0.  1.
    10030    2    1    2    0    0  0.00000000000E+00  0.00000000000E+00  0.34067904230E+01  0.22088867740E+04  0.22088841468E+04 0.  0.
        3    1    3    3  502    0  0.36402460813E+03  0.14856980725E+01  0.10444299879E+04  0.11060515957E+04  0.10100000352E+00 0. -1.
       -3    1    3    3    0  502 -0.36402460813E+03 -0.14856980725E+01 -0.10410231975E+04  0.11028351783E+04  0.10100000352E+00 0.  1.
</event>
<event>
 5   0  0.1433375E-05  0.2256279E+04  0.7818609E-02  0.8495362E-01
        3   -1    0    0  501    0  0.00000000000E+00  0.00000000000E+00  0.11930711039E+04  0.11930711082E+04  0.10100000352E+00 0.  1.
       -3   -1    0    0    0  501  0.00000000000E+00  0.00000000000E+00 -0.10667414413E+04  0.10667414461E+04  0.10100000352E+00 0. -1.
    10030    2    1    2    0    0  0.00000000000E+00  0.00000000000E+00  0.12632966263E+03  0.22598125542E+04  0.22562787054E+04 0.  0.
        3    1    3    3  502    0 -0.11156191616E+03  0.42407324237E+03  0.11042225699E+04  0.11881042337E+04  0.10100000352E+00 0.  1.
       -3    1    3    3    0  502  0.11156191616E+03 -0.42407324237E+03 -0.97789290727E+03  0.10717083205E+04  0.10100000352E+00 0. -1.
</event>
<event>
 5   0  0.1815681E-05  0.2196256E+04  0.7818609E-02  0.8519988E-01
       -1   -1    0    0    0  501  0.00000000000E+00  0.00000000000E+00  0.99256493100E+03  0.99256493101E+03  0.50400001928E-02 0. -1.
        1   -1    0    0  501    0  0.00000000000E+00  0.00000000000E+00 -0.12149185159E+04  0.12149185159E+04  0.50400001928E-02 0.  1.
    10030    2    1    2    0    0  0.00000000000E+00  0.00000000000E+00 -0.22235358490E+03  0.22074834469E+04  0.21962563720E+04 0.  0.
        2    1    3    3  502    0  0.15826226272E+03 -0.64294433188E+03  0.76935009637E+03  0.10150487321E+04  0.25500000920E-02 0. -1.
       -2    1    3    3    0  502 -0.15826226272E+03  0.64294433188E+03 -0.99170368127E+03  0.11924347148E+04  0.25500000920E-02 0.  1.
</event>
<event>
 5   0  0.1788413E-05  0.2197114E+04  0.7818609E-02  0.8519630E-01
       -1   -1    0    0    0  501  0.00000000000E+00  0.00000000000E+00  0.17934517135E+04  0.17934517135E+04  0.50400001928E-02 0.  1.
        1   -1    0    0  501    0  0.00000000000E+00  0.00000000000E+00 -0.67290780598E+03  0.67290780600E+03  0.50400001928E-02 0. -1.
    10030    2    1    2    0    0  0.00000000000E+00  0.00000000000E+00  0.11205439075E+04  0.24663595195E+04  0.21971141597E+04 0.  0.
        1    1    3    3  502    0 -0.31019158095E+03  0.69508449781E+03 -0.32892709984E+03  0.82918894892E+03  0.50400001928E-02 0. -1.
       -1    1    3    3    0  502  0.31019158095E+03 -0.69508449781E+03  0.14494710073E+04  0.16371705706E+04  0.50400001928E-02 0.  1.
</event>
<event>
 5   0  0.3963414E-05  0.2208653E+04  0.7818609E-02  0.8514835E-01
        2   -1    0    0  501    0  0.00000000000E+00  0.00000000000E+00  0.11740397487E+04  0.11740397487E+04  0.25500000920E-02 0.  1.
       -2   -1    0    0    0  501  0.00000000000E+00  0.00000000000E+00 -0.10387530606E+04  0.10387530606E+04  0.25500000920E-02 0. -1.
    10030    2    1    2    0    0  0.00000000000E+00  0.00000000000E+00  0.13528668808E+03  0.22127928094E+04  0.22086533294E+04 0.  0.
        1    1    3    3  502    0  0.52120235837E+03  0.41115987444E+02 -0.90690527925E+03  0.10468140276E+04  0.50400001928E-02 0. -1.
       -1    1    3    3    0  502 -0.52120235837E+03 -0.41115987444E+02  0.10421919673E+04  0.11659787818E+04  0.50400001928E-02 0.  1.
</event>
<event>
 5   0  0.1884407E-05  0.2195288E+04  0.7818609E-02  0.8520392E-01
        1   -1    0    0  501    0  0.00000000000E+00  0.00000000000E+00  0.29636545677E+04  0.29636545677E+04  0.50400001928E-02 0.  1.
       -1   -1    0    0    0  501  0.00000000000E+00  0.00000000000E+00 -0.40653251846E+03  0.40653251849E+03  0.50400001928E-02 0. -1.
    10030    2    1    2    0    0  0.00000000000E+00  0.00000000000E+00  0.25571220493E+04  0.33701870862E+04  0.21952876398E+04 0.  0.
        3    1    3    3  502    0  0.31836180441E+02 -0.10941630505E+04  0.11536939582E+04  0.15903509307E+04  0.10100000352E+00 0. -1.
       -3    1    3    3    0  502 -0.31836180441E+02  0.10941630505E+04  0.14034280911E+04  0.17798361555E+04  0.10100000352E+00 0.  1.
</event>
<event>
 5   0  0.4143281E-05  0.2196103E+04  0.7818609E-02  0.8520052E-01
       -2   -1    0    0    0  501  0.00000000000E+00  0.00000000000E+00  0.63820922932E+03  0.63820922932E+03  0.25500000920E-02 0.  1.
        2   -1    0    0  501    0  0.00000000000E+00  0.00000000000E+00 -0.18892192158E+04  0.18892192158E+04  0.25500000920E-02 0. -1.
    10030    2    1    2    0    0  0.00000000000E+00  0.00000000000E+00 -0.12510099865E+04  0.25274284451E+04  0.21961030392E+04 0.  0.
        2    1    3    3  502    0  0.55108410016E+03 -0.67549588727E+03  0.14284923386E+03  0.88339927710E+03  0.25500000920E-02 0.  1.
       -2    1    3    3    0  502 -0.55108410016E+03  0.67549588727E+03 -0.13938592203E+04  0.16440291680E+04  0.25500000920E-02 0. -1.
</event>
<event>
 5   0  0.1786228E-05  0.2205339E+04  0.7818609E-02  0.8516209E-01
       -1   -1    0    0    0  501  0.00000000000E+00  0.00000000000E+00  0.84022755814E+03  0.84022755815E+03  0.50400001928E-02 0. -1.
        1   -1    0    0  501    0  0.00000000000E+00  0.00000000000E+00 -0.14470836158E+04  0.14470836158E+04  0.50400001928E-02 0.  1.
    10030    2    1    2    0    0  0.00000000000E+00  0.00000000000E+00 -0.60685605766E+03  0.22873111740E+04  0.22053385527E+04 0.  0.
        5    1    3    3  502    0 -0.70068812527E+03  0.40164546251E+03 -0.10820482090E+04  0.13502345511E+04  0.46999998093E+01 0.  1.
       -5    1    3    3    0  502  0.70068812527E+03 -0.40164546251E+03  0.47519215131E+03  0.93707662286E+03  0.46999998093E+01 0. -1.
</event>
<event>
 5   0  0.4132460E-05  0.2271955E+04  0.7818609E-02  0.8489062E-01
       -2   -1    0    0    0  501  0.00000000000E+00  0.00000000000E+00  0.11944324768E+04  0.11944324768E+04  0.25500000920E-02 0.  1.
        2   -1    0    0  501    0  0.00000000000E+00  0.00000000000E+00 -0.10803832014E+04  0.10803832014E+04  0.25500000920E-02 0. -1.
    10030    2    1    2    0    0  0.00000000000E+00  0.00000000000E+00  0.11404927539E+03  0.22748156783E+04  0.22719549143E+04 0.  0.
        4    1    3    3  502    0  0.98307481482E+03 -0.35498351214E+03  0.50254984698E+03  0.11597445180E+04  0.12699999809E+01 0. -1.
       -4    1    3    3    0  502 -0.98307481482E+03  0.35498351214E+03 -0.38850057159E+03  0.11150711603E+04  0.12699999809E+01 0.  1.
</event>
<event>
 5   0  0.3963414E-05  0.2225778E+04  0.7818609E-02  0.8507775E-01
       -2   -1    0    0    0  501  0.00000000000E+00  0.00000000000E+00  0.64816661820E+03  0.64816661821E+03  0.25500000920E-02 0. -1.
        2   -1    0    0  501    0  0.00000000000E+00  0.00000000000E+00 -0.19108085927E+04  0.19108085927E+04  0.25500000920E-02 0.  1.
    10030    2    1    2    0    0  0.00000000000E+00  0.00000000000E+00 -0.12626419745E+04  0.25589752110E+04  0.22257783749E+04 0.  0.
        1    1    3    3  502    0 -0.43638098742E+03  0.57748373656E+03  0.34057020150E+03  0.79993993171E+03  0.50400001928E-02 0. -1.
       -1    1    3    3    0  502  0.43638098742E+03 -0.57748373656E+03 -0.16032121760E+04  0.17590352792E+04  0.50400001928E-02 0.  1.
</event>
<event>
 5   0  0.3963414E-05  0.2238107E+04  0.7818609E-02  0.8502732E-01
       -2   -1    0    0    0  501  0.00000000000E+00  0.00000000000E+00  0.16106076794E+04  0.16106076794E+04  0.25500000920E-02 0. -1.
        2   -1    0    0  501    0  0.00000000000E+00  0.00000000000E+00 -0.77752092017E+03  0.77752092018E+03  0.25500000920E-02 0.  1.
    10030    2    1    2    0    0  0.00000000000E+00  0.00000000000E+00  0.83308675921E+03  0.23881285996E+04  0.22381073834E+04 0.  0.
        1    1    3    3  502    0 -0.10550571813E+04 -0.50283702389E+02  0.22164762902E+02  0.10564872850E+04  0.50400001928E-02 0.  1.
       -1    1    3    3    0  502  0.10550571813E+04  0.50283702389E+02  0.81092199631E+03  0.13316413146E+04  0.50400001928E-02 0. -1.
</event>
<event>
 5   0  0.1866935E-05  0.2231018E+04  0.7818609E-02  0.8505628E-01
        1   -1    0    0  501    0  0.00000000000E+00  0.00000000000E+00  0.20793397866E+04  0.20793397866E+04  0.50400001928E-02 0. -1.
       -1   -1    0    0    0  501  0.00000000000E+00  0.00000000000E+00 -0.59844012248E+03  0.59844012250E+03  0.50400001928E-02 0.  1.
    10030    2    1    2    0    0  0.00000000000E+00  0.00000000000E+00  0.14808996641E+04  0.26777799091E+04  0.22310180247E+04 0.  0.
        4    1    3    3  502    0 -0.15284207549E+03 -0.10589440219E+04  0.36158955291E+03  0.11293678582E+04  0.12699999809E+01 0.  1.
       -4    1    3    3    0  502  0.15284207549E+03  0.10589440219E+04  0.11193101112E+04  0.15484120509E+04  0.12699999809E+01 0. -1.
</event>
<event>
 5   0  0.4132460E-05  0.2215568E+04  0.7818609E-02  0.8511976E-01
        2   -1    0    0  501    0  0.00000000000E+00  0.00000000000E+00  0.11522785158E+04  0.11522785158E+04  0.25500000920E-02 0. -1.
       -2   -1    0    0    0  501  0.00000000000E+00  0.00000000000E+00 -0.10650073093E+04  0.10650073093E+04  0.25500000920E-02 0.  1.
    10030    2    1    2    0    0  0.00000000000E+00  0.00000000000E+00  0.87271206479E+02  0.22172858250E+04  0.22155676849E+04 0.  0.
        4    1    3    3  502    0  0.73545829605E+03 -0.15096884991E+03 -0.77154682227E+03  0.10765577600E+04  0.12699999809E+01 0.  1.
       -4    1    3    3    0  502 -0.73545829605E+03  0.15096884991E+03  0.85881802875E+03  0.11407280650E+04  0.12699999809E+01 0. -1.
</event>
<event>
 5   0  0.4132460E-05  0.2198091E+04  0.7818609E-02  0.8519223E-01
        2   -1    0    0  501    0  0.00000000000E+00  0.00000000000E+00  0.22774767322E+04  0.22774767322E+04  0.25500000920E-02 0. -1.
       -2   -1    0    0    0  501  0.00000000000E+00  0.00000000000E+00 -0.53036800343E+03  0.53036800344E+03  0.25500000920E-02 0.  1.
    10030    2    1    2    0    0  0.00000000000E+00  0.00000000000E+00  0.17471087287E+04  0.28078447356E+04  0.21980907964E+04 0.  0.
        4    1    3    3  502    0  0.38537876309E+03  0.10211038746E+04  0.70833314014E+03  0.13011177364E+04  0.12699999809E+01 0.  1.
       -4    1    3    3    0  502 -0.38537876309E+03 -0.10211038746E+04  0.10387755886E+04  0.15067269992E+04  0.12699999809E+01 0. -1.
</event>
<event>
 5   0  0.1815681E-05  0.2193829E+04  0.7818609E-02  0.8521001E-01
       -1   -1    0    0    0  501  0.00000000000E+00  0.00000000000E+00  0.80596806346E+03  0.80596806347E+03  0.50400001928E-02 0.  1.
        1   -1    0    0  501    0  0.00000000000E+00  0.00000000000E+00 -0.14928903119E+04  0.14928903119E+04  0.50400001928E-02 0. -1.
    10030    2    1    2    0    0  0.00000000000E+00  0.00000000000E+00 -0.68692224847E+03  0.22988583754E+04  0.21938294498E+04 0.  0.
        2    1    3    3  502    0 -0.13617518716E+03 -0.14471639977E+03 -0.14738723886E+04  0.14872075631E+04  0.25500000920E-02 0. -1.
       -2    1    3    3    0  502  0.13617518716E+03  0.14471639977E+03  0.78695014014E+03  0.81165081226E+03  0.25500000920E-02 0.  1.
</event>
<event>
 5   0  0.3963414E-05  0.2197651E+04  0.7818609E-02  0.8519406E-01
        2   -1    0    0  501    0  0.00000000000E+00  0.00000000000E+00  0.15437052475E+04  0.15437052475E+04  0.25500000920E-02 0.  1.
       -2   -1    0    0    0  501  0.00000000000E+00  0.00000000000E+00 -0.78215537576E+03  0.78215537577E+03  0.25500000920E-02 0. -1.
    10030    2    1    2    0    0  0.00000000000E+00  0.00000000000E+00  0.76154987174E+03  0.23258606233E+04  0.21976508894E+04 0.  0.
        1    1    3    3  502    0 -0.54141406342E+03 -0.76888731933E+03  0.98235546474E+03  0.13599040985E+04  0.50400001928E-02 0.  1.
       -1    1    3    3    0  502  0.54141406342E+03  0.76888731933E+03 -0.22080559300E+03  0.96595652481E+03  0.50400001928E-02 0. -1.
</event>
<event>
 5   0  0.1786228E-05  0.2202588E+04  0.7818609E-02  0.8517352E-01
        1   -1    0    0  501    0  0.00000000000E+00  0.00000000000E+00  0.16174035104E+04  0.16174035104E+04  0.50400001928E-02 0.  1.
       -1   -1    0    0    0  501  0.00000000000E+00  0.00000000000E+00 -0.74987363413E+03  0.74987363414E+03  0.50400001928E-02 0. -1.
    10030    2    1    2    0    0  0.00000000000E+00  0.00000000000E+00  0.86752987628E+03  0.23672771446E+04  0.22025877946E+04 0.  0.
        5    1    3    3  502    0  0.29502729267E+03  0.58456620832E+03 -0.51791864178E+03  0.83487757476E+03  0.46999998093E+01 0. -1.
       -5    1    3    3    0  502 -0.29502729267E+03 -0.58456620832E+03  0.13854485181E+04  0.15323995698E+04  0.46999998093E+01 0.  1.
</event>
<event>
 5   0  0.1786228E-05  0.2195468E+04  0.7818609E-02  0.8520317E-01
       -1   -1    0    0    0  501  0.00000000000E+00  0.00000000000E+00  0.10077257674E+04  0.10077257674E+04  0.50400001928E-02 0.  1.
        1   -1    0    0  501    0  0.00000000000E+00  0.00000000000E+00 -0.11957815698E+04  0.11957815698E+04  0.50400001928E-02 0. -1.
    10030    2    1    2    0    0  0.00000000000E+00  0.00000000000E+00 -0.18805580243E+03  0.22035073372E+04  0.21954679684E+04 0.  0.
        5    1    3    3  502    0 -0.67945302722E+03 -0.86128149076E+03 -0.13335796799E+03  0.11051102480E+04  0.46999998093E+01 0. -1.
       -5    1    3    3    0  502  0.67945302722E+03  0.86128149076E+03 -0.54697834441E+02  0.10983970892E+04  0.46999998093E+01 0.  1.
</event>
<event>
 5   0  0.1786228E-05  0.2307320E+04  0.7818609E-02  0.8475040E-01
        1   -1    0    0  501    0  0.00000000000E+00  0.00000000000E+00  0.90483079693E+03  0.90483079694E+03  0.50400001928E-02 0.  1.
       -1   -1    0    0    0  501  0.00000000000E+00  0.00000000000E+00 -0.14709179740E+04  0.14709179740E+04  0.50400001928E-02 0. -1.
    10030    2    1    2    0    0  0.00000000000E+00  0.00000000000E+00 -0.56608717707E+03  0.23757487709E+04  0.23073204222E+04 0.  0.
        5    1    3    3  502    0  0.89369296163E+03 -0.71321997378E+03 -0.44102114406E+03  0.12255168625E+04  0.46999998093E+01 0. -1.
       -5    1    3    3    0  502 -0.89369296163E+03  0.71321997378E+03 -0.12506603300E+03  0.11502319085E+04  0.46999998093E+01 0.  1.
</event>
<event>
 5   0  0.1815681E-05  0.2197082E+04  0.7818609E-02  0.8519643E-01
        1   -1    0    0  501    0  0.00000000000E+00  0.00000000000E+00  0.22329243778E+04  0.22329243778E+04  0.50400001928E-02 0. -1.
       -1   -1    0    0    0  501  0.00000000000E+00  0.00000000000E+00 -0.54045397178E+03  0.54045397181E+03  0.50400001928E-02 0.  1.
    10030    2    1    2    0    0  0.00000000000E+00  0.00000000000E+00  0.16924704060E+04  0.27733783496E+04  0.21970824734E+04 0.  0.
        2    1    3    3  502    0 -0.56301568467E+03 -0.25621490021E+03  0.19921928241E+04  0.20860165351E+04  0.25500000920E-02 0. -1.
       -2    1    3    3    0  502  0.56301568467E+03  0.25621490021E+03 -0.29972241802E+03  0.68736181458E+03  0.25500000920E-02 0.  1.
</event>
<event>
 5   0  0.4029532E-05  0.2218850E+04  0.7818609E-02  0.8510623E-01
       -2   -1    0    0    0  501  0.00000000000E+00  0.00000000000E+00  0.44419708155E+03  0.44419708155E+03  0.25500000920E-02 0.  1.
        2   -1    0    0  501    0  0.00000000000E+00  0.00000000000E+00 -0.27708955128E+04  0.27708955128E+04  0.25500000920E-02 0. -1.
    10030    2    1    2    0    0  0.00000000000E+00  0.00000000000E+00 -0.23266984313E+04  0.32150925944E+04  0.22188498823E+04 0.  0.
        3    1    3    3  502    0 -0.94768865634E+03  0.57620600103E+03 -0.12015911741E+04  0.16352212403E+04  0.10100000352E+00 0. -1.
       -3    1    3    3    0  502  0.94768865634E+03 -0.57620600103E+03 -0.11251072572E+04  0.15798713541E+04  0.10100000352E+00 0.  1.
</event>
<event>
 5   0  0.4027923E-05  0.2141715E+04  0.7818609E-02  0.8543087E-01
        2   -1    0    0  501    0  0.00000000000E+00  0.00000000000E+00  0.69898298992E+03  0.69898298993E+03  0.25500000920E-02 0.  1.
       -2   -1    0    0    0  501  0.00000000000E+00  0.00000000000E+00 -0.16405780214E+04  0.16405780214E+04  0.25500000920E-02 0. -1.
    10030    2    1    2    0    0  0.00000000000E+00  0.00000000000E+00 -0.94159503144E+03  0.23395610113E+04  0.21417153224E+04 0.  0.
        5    1    3    3  502    0  0.82273550014E+03 -0.25404786094E+03  0.22462737249E+03  0.88989525524E+03  0.46999998093E+01 0.  1.
       -5    1    3    3    0  502 -0.82273550014E+03  0.25404786094E+03 -0.11662224039E+04  0.14496657560E+04  0.46999998093E+01 0. -1.
</event>
<event>
 5   0  0.4143281E-05  0.2176691E+04  0.7818609E-02  0.8528193E-01
       -2   -1    0    0    0  501  0.00000000000E+00  0.00000000000E+00  0.17482507488E+04  0.17482507488E+04  0.25500000920E-02 0. -1.
        2   -1    0    0  501    0  0.00000000000E+00  0.00000000000E+00 -0.67753185229E+03  0.67753185230E+03  0.25500000920E-02 0.  1.
    10030    2    1    2    0    0  0.00000000000E+00  0.00000000000E+00  0.10707188965E+04  0.24257826011E+04  0.21766906699E+04 0.  0.
        2    1    3    3  502    0  0.81109744425E+03 -0.11299262028E+03 -0.26350481097E+03  0.86027971132E+03  0.25500000920E-02 0.  1.
       -2    1    3    3    0  502 -0.81109744425E+03  0.11299262028E+03  0.13342237075E+04  0.15655028898E+04  0.25500000920E-02 0. -1.
</event>
<event>
 5   0  0.1815681E-05  0.2156298E+04  0.7818609E-02  0.8536841E-01
        1   -1    0    0  501    0  0.00000000000E+00  0.00000000000E+00  0.17390904241E+04  0.17390904241E+04  0.50400001928E-02 0.  1.
       -1   -1    0    0    0  501  0.00000000000E+00  0.00000000000E+00 -0.66839843962E+03  0.66839843963E+03  0.50400001928E-02 0. -1.
    10030    2    1    2    0    0  0.00000000000E+00  0.00000000000E+00  0.10706919844E+04  0.24074888637E+04  0.21562980553E+04 0.  0.
        2    1    3    3  502    0 -0.70288362105E+03 -0.68661596284E+03  0.10307947134E+04  0.14240872888E+04  0.25500000920E-02 0. -1.
       -2    1    3    3    0  502  0.70288362105E+03  0.68661596284E+03  0.39897271094E+02  0.98340157485E+03  0.25500000920E-02 0.  1.
</event>
<event>
 5   0  0.3963414E-05  0.2194754E+04  0.7818609E-02  0.8520615E-01
       -2   -1    0    0    0  501  0.00000000000E+00  0.00000000000E+00  0.10566523989E+04  0.10566523989E+04  0.25500000920E-02 0.  1.
        2   -1    0    0  501    0  0.00000000000E+00  0.00000000000E+00 -0.11396715705E+04  0.11396715705E+04  0.25500000920E-02 0. -1.
    10030    2    1    2    0    0  0.00000000000E+00  0.00000000000E+00 -0.83019171534E+02  0.21963239694E+04  0.21947543817E+04 0.  0.
        1    1    3    3  502    0  0.34972672613E+03 -0.98463481880E+03 -0.37704355642E+03  0.11108448824E+04  0.50400001928E-02 0. -1.
       -1    1    3    3    0  502 -0.34972672613E+03  0.98463481880E+03  0.29402438488E+03  0.10854790870E+04  0.50400001928E-02 0.  1.
</event>
<event>
 5   0  0.1433375E-05  0.2196106E+04  0.7818609E-02  0.8520051E-01
        3   -1    0    0  501    0  0.00000000000E+00  0.00000000000E+00  0.85866227248E+03  0.85866227842E+03  0.10100000352E+00 0. -1.
       -3   -1    0    0    0  501  0.00000000000E+00  0.00000000000E+00 -0.14041847929E+04  0.14041847965E+04  0.10100000352E+00 0.  1.
    10030    2    1    2    0    0  0.00000000000E+00  0.00000000000E+00 -0.54552252040E+03  0.22628470749E+04  0.21961061141E+04 0.  0.
        5    1    3    3  502    0  0.34343101778E+03 -0.82257958814E+03 -0.93343078760E+03  0.12906963888E+04  0.46999998093E+01 0.  1.
       -5    1    3    3    0  502 -0.34343101778E+03  0.82257958814E+03  0.38790826720E+03  0.97215068614E+03  0.46999998093E+01 0. -1.
</event>
<event>
 5   0  0.1433375E-05  0.2217505E+04  0.7818609E-02  0.8511177E-01
        4   -1    0    0  501    0  0.00000000000E+00  0.00000000000E+00  0.83826454250E+03  0.83826550455E+03  0.12699999809E+01 0.  1.
       -4   -1    0    0    0  501  0.00000000000E+00  0.00000000000E+00 -0.14665187883E+04  0.14665193382E+04  0.12699999809E+01 0. -1.
    10030    2    1    2    0    0  0.00000000000E+00  0.00000000000E+00 -0.62825424578E+03  0.23047848427E+04  0.22175053042E+04 0.  0.
        5    1    3    3  502    0  0.91203133601E+03 -0.26699717033E+03 -0.90776574664E+03  0.13142105568E+04  0.46999998093E+01 0. -1.
       -5    1    3    3    0  502 -0.91203133601E+03  0.26699717033E+03  0.27951150086E+03  0.99057428593E+03  0.46999998093E+01 0.  1.
</event>
<event>
 5   0  0.1788413E-05  0.2197369E+04  0.7818609E-02  0.8519524E-01
        1   -1    0    0  501    0  0.00000000000E+00  0.00000000000E+00  0.15073688596E+04  0.15073688597E+04  0.50400001928E-02 0. -1.
       -1   -1    0    0    0  501  0.00000000000E+00  0.00000000000E+00 -0.80080444319E+03  0.80080444321E+03  0.50400001928E-02 0.  1.
    10030    2    1    2    0    0  0.00000000000E+00  0.00000000000E+00  0.70656441646E+03  0.23081733029E+04  0.21973690453E+04 0.  0.
        1    1    3    3  502    0  0.88582058588E+02 -0.10760647669E+04  0.13969284422E+03  0.10887039333E+04  0.50400001928E-02 0. -1.
       -1    1    3    3    0  502 -0.88582058588E+02  0.10760647669E+04  0.56687157224E+03  0.12194693695E+04  0.50400001928E-02 0.  1.
</event>
<event>
 5   0  0.1884407E-05  0.2063986E+04  0.7818609E-02  0.8577276E-01
        1   -1    0    0  501    0  0.00000000000E+00  0.00000000000E+00  0.12545535770E+04  0.12545535770E+04  0.50400001928E-02 0.  1.
       -1   -1    0    0    0  501  0.00000000000E+00  0.00000000000E+00 -0.84891509280E+03  0.84891509281E+03  0.50400001928E-02 0. -1.
    10030    2    1    2    0    0  0.00000000000E+00  0.00000000000E+00  0.40563848420E+03  0.21034686698E+04  0.20639859169E+04 0.  0.
        3    1    3    3  502    0 -0.77001558725E+03 -0.18980017396E+03  0.87580072280E+03  0.11815138708E+04  0.10100000352E+00 0.  1.
       -3    1    3    3    0  502  0.77001558725E+03  0.18980017396E+03 -0.47016223860E+03  0.92195479902E+03  0.10100000352E+00 0. -1.
</event>
<event>
 5   0  0.1815681E-05  0.2191546E+04  0.7818609E-02  0.8521955E-01
        1   -1    0    0  501    0  0.00000000000E+00  0.00000000000E+00  0.19406085645E+04  0.19406085645E+04  0.50400001928E-02 0.  1.
       -1   -1    0    0    0  501  0.00000000000E+00  0.00000000000E+00 -0.61873322357E+03  0.61873322360E+03  0.50400001928E-02 0. -1.
    10030    2    1    2    0    0  0.00000000000E+00  0.00000000000E+00  0.13218753409E+04  0.25593417881E+04  0.21915464794E+04 0.  0.
        2    1    3    3  502    0  0.10801486453E+04  0.25192057024E+01  0.87624711931E+03  0.13908761471E+04  0.25500000920E-02 0. -1.
       -2    1    3    3    0  502 -0.10801486453E+04 -0.25192057024E+01  0.44562822163E+03  0.11684656410E+04  0.25500000920E-02 0.  1.
</event>
<event>
 5   0  0.1884407E-05  0.2202042E+04  0.7818609E-02  0.8517578E-01
        1   -1    0    0  501    0  0.00000000000E+00  0.00000000000E+00  0.13774772503E+04  0.13774772503E+04  0.50400001928E-02 0. -1.
       -1   -1    0    0    0  501  0.00000000000E+00  0.00000000000E+00 -0.88004922860E+03  0.88004922861E+03  0.50400001928E-02 0.  1.
    10030    2    1    2    0    0  0.00000000000E+00  0.00000000000E+00  0.49742802171E+03  0.22575264789E+04  0.22020424988E+04 0.  0.
        3    1    3    3  502    0  0.28004955851E+03 -0.10213096662E+04  0.55754602803E+03  0.11968119205E+04  0.10100000352E+00 0. -1.
       -3    1    3    3    0  502 -0.28004955851E+03  0.10213096662E+04 -0.60118006316E+02  0.10607145584E+04  0.10100000352E+00 0.  1.
</event>
<event>
 5   0  0.1866935E-05  0.2192127E+04  0.7818609E-02  0.8521712E-01
       -1   -1    0    0    0  501  0.00000000000E+00  0.00000000000E+00  0.60628521848E+03  0.60628521850E+03  0.50400001928E-02 0.  1.
        1   -1    0    0  501    0  0.00000000000E+00  0.00000000000E+00 -0.19815016760E+04  0.19815016760E+04  0.50400001928E-02 0. -1.
    10030    2    1    2    0    0  0.00000000000E+00  0.00000000000E+00 -0.13752164575E+04  0.25877868945E+04  0.21921269822E+04 0.  0.
        4    1    3    3  502    0  0.89331429344E+03  0.20858618909E+03  0.20524171964E+02  0.91757369169E+03  0.12699999809E+01 0.  1.
       -4    1    3    3    0  502 -0.89331429344E+03 -0.20858618909E+03 -0.13957406295E+04  0.16702132028E+04  0.12699999809E+01 0. -1.
</event>
<event>
 5   0  0.1815681E-05  0.2241469E+04  0.7818609E-02  0.8501363E-01
       -1   -1    0    0    0  501  0.00000000000E+00  0.00000000000E+00  0.94199233564E+03  0.94199233565E+03  0.50400001928E-02 0. -1.
        1   -1    0    0  501    0  0.00000000000E+00  0.00000000000E+00 -0.13333929459E+04  0.13333929459E+04  0.50400001928E-02 0.  1.
    10030    2    1    2    0    0  0.00000000000E+00  0.00000000000E+00 -0.39140061024E+03  0.22753852815E+04  0.22414691035E+04 0.  0.
        2    1    3    3  502    0  0.34710041126E+03 -0.74311323999E+03 -0.97103063088E+03  0.12710611587E+04  0.25500000920E-02 0.  1.
       -2    1    3    3    0  502 -0.34710041126E+03  0.74311323999E+03  0.57963002064E+03  0.10043241229E+04  0.25500000920E-02 0. -1.
</event>
<event>
 5   0  0.4143281E-05  0.2184391E+04  0.7818609E-02  0.8524953E-01
        2   -1    0    0  501    0  0.00000000000E+00  0.00000000000E+00  0.98626840906E+03  0.98626840906E+03  0.25500000920E-02 0. -1.
       -2   -1    0    0    0  501  0.00000000000E+00  0.00000000000E+00 -0.12094996125E+04  0.12094996125E+04  0.25500000920E-02 0.  1.
    10030    2    1    2    0    0  0.00000000000E+00  0.00000000000E+00 -0.22323120347E+03  0.21957680216E+04  0.21843912274E+04 0.  0.
        2    1    3    3  502    0 -0.73646115683E+03 -0.72659210326E+03  0.24032233704E+03  0.10621044891E+04  0.25500000920E-02 0. -1.
       -2    1    3    3    0  502  0.73646115683E+03  0.72659210326E+03 -0.46355354051E+03  0.11336635325E+04  0.25500000920E-02 0.  1.
</event>
<event>
 5   0  0.1815681E-05  0.2174646E+04  0.7818609E-02  0.8529056E-01
       -1   -1    0    0    0  501  0.00000000000E+00  0.00000000000E+00  0.74206727721E+03  0.74206727723E+03  0.50400001928E-02 0.  1.
        1   -1    0    0  501    0  0.00000000000E+00  0.00000000000E+00 -0.15932136762E+04  0.15932136762E+04  0.50400001928E-02 0. -1.
    10030    2    1    2    0    0  0.00000000000E+00  0.00000000000E+00 -0.85114639897E+03  0.23352809534E+04  0.21746463940E+04 0.  0.
        2    1    3    3  502    0  0.29941551529E+03  0.30349750112E+03  0.64856830572E+03  0.77614510961E+03  0.25500000920E-02 0.  1.
       -2    1    3    3    0  502 -0.29941551529E+03 -0.30349750112E+03 -0.14997147047E+04  0.15591358438E+04  0.25500000920E-02 0. -1.
</event>
<event>
 5   0  0.1786228E-05  0.2212399E+04  0.7818609E-02  0.8513285E-01
        1   -1    0    0  501    0  0.00000000000E+00  0.00000000000E+00  0.99952979002E+03  0.99952979003E+03  0.50400001928E-02 0.  1.
       -1   -1    0    0    0  501  0.00000000000E+00  0.00000000000E+00 -0.12242525738E+04  0.12242525738E+04  0.50400001928E-02 0. -1.
    10030    2    1    2    0    0  0.00000000000E+00  0.00000000000E+00 -0.22472278375E+03  0.22237823638E+04  0.22123986241E+04 0.  0.
        5    1    3    3  502    0 -0.54410848860E+03 -0.66361875865E+03  0.58923510272E+03  0.10409918350E+04  0.46999998093E+01 0.  1.
       -5    1    3    3    0  502  0.54410848860E+03  0.66361875865E+03 -0.81395788647E+03  0.11827905288E+04  0.46999998093E+01 0. -1.
</event>
<event>
 5   0  0.1433375E-05  0.2197188E+04  0.7818609E-02  0.8519600E-01
        3   -1    0    0  501    0  0.00000000000E+00  0.00000000000E+00  0.21078070638E+04  0.21078070662E+04  0.10100000352E+00 0.  1.
       -3   -1    0    0    0  501  0.00000000000E+00  0.00000000000E+00 -0.57258955424E+03  0.57258956315E+03  0.10100000352E+00 0. -1.
    10030    2    1    2    0    0  0.00000000000E+00  0.00000000000E+00  0.15352175095E+04  0.26803966293E+04  0.21971875862E+04 0.  0.
        1    1    3    3  502    0 -0.18927249891E+02  0.56100053138E+03 -0.38444460903E+03  0.68035100825E+03  0.50400001928E-02 0. -1.
       -1    1    3    3    0  502  0.18927249891E+02 -0.56100053138E+03  0.19196621186E+04  0.20000456211E+04  0.50400001928E-02 0.  1.
</event>
<event>
 5   0  0.4029532E-05  0.2204909E+04  0.7818609E-02  0.8516388E-01
       -2   -1    0    0    0  501  0.00000000000E+00  0.00000000000E+00  0.87805027633E+03  0.87805027633E+03  0.25500000920E-02 0.  1.
        2   -1    0    0  501    0  0.00000000000E+00  0.00000000000E+00 -0.13842095334E+04  0.13842095334E+04  0.25500000920E-02 0. -1.
    10030    2    1    2    0    0  0.00000000000E+00  0.00000000000E+00 -0.50615925706E+03  0.22622598097E+04  0.22049086723E+04 0.  0.
        3    1    3    3  502    0 -0.10827712480E+04  0.14893545708E+03 -0.10499885640E+03  0.10979982313E+04  0.10100000352E+00 0. -1.
       -3    1    3    3    0  502  0.10827712480E+04 -0.14893545708E+03 -0.40116040066E+03  0.11642615785E+04  0.10100000352E+00 0.  1.
</event>
<event>
 5   0  0.4029532E-05  0.2213219E+04  0.7818609E-02  0.8512946E-01
        2   -1    0    0  501    0  0.00000000000E+00  0.00000000000E+00  0.15019561908E+04  0.15019561908E+04  0.25500000920E-02 0. -1.
       -2   -1    0    0    0  501  0.00000000000E+00  0.00000000000E+00 -0.81532669920E+03  0.81532669921E+03  0.25500000920E-02 0.  1.
    10030    2    1    2    0    0  0.00000000000E+00  0.00000000000E+00  0.68662949159E+03  0.23172828900E+04  0.22132193596E+04 0.  0.
        3    1    3    3  502    0 -0.91909456602E+03 -0.46281827129E+03  0.76945202401E+03  0.12849093357E+04  0.10100000352E+00 0. -1.
       -3    1    3    3    0  502  0.91909456602E+03  0.46281827129E+03 -0.82822532417E+02  0.10323735543E+04  0.10100000352E+00 0.  1.
</event>
<event>
 5   0  0.4132460E-05  0.2226211E+04  0.7818609E-02  0.8507597E-01
       -2   -1    0    0    0  501  0.00000000000E+00  0.00000000000E+00  0.89821296282E+03  0.89821296282E+03  0.25500000920E-02 0.  1.
        2   -1    0    0  501    0  0.00000000000E+00  0.00000000000E+00 -0.13794103136E+04  0.13794103137E+04  0.25500000920E-02 0. -1.
    10030    2    1    2    0    0  0.00000000000E+00  0.00000000000E+00 -0.48119735083E+03  0.22776232765E+04  0.22262113330E+04 0.  0.
        4    1    3    3  502    0 -0.40475753849E+03 -0.86913106481E+03  0.33795631230E+03  0.10165793401E+04  0.12699999809E+01 0.  1.
       -4    1    3    3    0  502  0.40475753849E+03  0.86913106481E+03 -0.81915366313E+03  0.12610439364E+04  0.12699999809E+01 0. -1.
</event>
<event>
 5   0  0.4029532E-05  0.2205337E+04  0.7818609E-02  0.8516210E-01
       -2   -1    0    0    0  501  0.00000000000E+00  0.00000000000E+00  0.79085090821E+03  0.79085090821E+03  0.25500000920E-02 0. -1.
        2   -1    0    0  501    0  0.00000000000E+00  0.00000000000E+00 -0.15374299653E+04  0.15374299653E+04  0.25500000920E-02 0.  1.
    10030    2    1    2    0    0  0.00000000000E+00  0.00000000000E+00 -0.74657905712E+03  0.23282808735E+04  0.22053370576E+04 0.  0.
        3    1    3    3  502    0 -0.44396116129E+03 -0.21310543521E+03 -0.14148816494E+04  0.14981340165E+04  0.10100000352E+00 0.  1.
       -3    1    3    3    0  502  0.44396116129E+03  0.21310543521E+03  0.66830259229E+03  0.83014685708E+03  0.10100000352E+00 0. -1.
</event>
<event>
 5   0  0.3963414E-05  0.2173684E+04  0.7818609E-02  0.8529462E-01
       -2   -1    0    0    0  501  0.00000000000E+00  0.00000000000E+00  0.90314808250E+03  0.90314808250E+03  0.25500000920E-02 0. -1.
        2   -1    0    0  501    0  0.00000000000E+00  0.00000000000E+00 -0.13078985457E+04  0.13078985457E+04  0.25500000920E-02 0.  1.
    10030    2    1    2    0    0  0.00000000000E+00  0.00000000000E+00 -0.40475046319E+03  0.22110466282E+04  0.21736844883E+04 0.  0.
        1    1    3    3  502    0  0.21295892980E+03  0.69787411156E+03 -0.10217306037E+04  0.12555131253E+04  0.50400001928E-02 0.  1.
       -1    1    3    3    0  502 -0.21295892980E+03 -0.69787411156E+03  0.61698014047E+03  0.95553350288E+03  0.50400001928E-02 0. -1.
</event>
<event>
 5   0  0.4029532E-05  0.2166987E+04  0.7818609E-02  0.8532296E-01
       -2   -1    0    0    0  501  0.00000000000E+00  0.00000000000E+00  0.13036539260E+04  0.13036539260E+04  0.25500000920E-02 0.  1.
        2   -1    0    0  501    0  0.00000000000E+00  0.00000000000E+00 -0.90051389919E+03  0.90051389919E+03  0.25500000920E-02 0. -1.
    10030    2    1    2    0    0  0.00000000000E+00  0.00000000000E+00  0.40314002680E+03  0.22041678252E+04  0.21669872912E+04 0.  0.
        3    1    3    3  502    0 -0.70237833983E+03 -0.81623076574E+03  0.32358856184E+03  0.11244009795E+04  0.10100000352E+00 0. -1.
       -3    1    3    3    0  502  0.70237833983E+03  0.81623076574E+03  0.79551464957E+02  0.10797668457E+04  0.10100000352E+00 0.  1.
</event>
<event>
 5   0  0.4027923E-05  0.2171093E+04  0.7818609E-02  0.8530557E-01
        2   -1    0    0  501    0  0.00000000000E+00  0.00000000000E+00  0.11589395467E+04  0.11589395467E+04  0.25500000920E-02 0.  1.
       -2   -1    0    0    0  501  0.00000000000E+00  0.00000000000E+00 -0.10168008048E+04  0.10168008048E+04  0.25500000920E-02 0. -1.
    10030    2    1    2    0    0  0.00000000000E+00  0.00000000000E+00  0.14213874191E+03  0.21757403514E+04  0.21710925026E+04 0.  0.
        5    1    3    3  502    0  0.51318819376E+03  0.51840446037E+03 -0.73456909625E+03  0.10352386942E+04  0.46999998093E+01 0. -1.
       -5    1    3    3    0  502 -0.51318819376E+03 -0.51840446037E+03  0.87670783816E+03  0.11405016573E+04  0.46999998093E+01 0.  1.
</event>
<event>
 5   0  0.1884407E-05  0.2198118E+04  0.7818609E-02  0.8519212E-01
       -1   -1    0    0    0  501  0.00000000000E+00  0.00000000000E+00  0.16812763865E+04  0.16812763865E+04  0.50400001928E-02 0. -1.
        1   -1    0    0  501    0  0.00000000000E+00  0.00000000000E+00 -0.71846033575E+03  0.71846033577E+03  0.50400001928E-02 0.  1.
    10030    2    1    2    0    0  0.00000000000E+00  0.00000000000E+00  0.96281605073E+03  0.23997367223E+04  0.21981177377E+04 0.  0.
        3    1    3    3  502    0 -0.62761106038E+03  0.52701393119E+03 -0.31808177095E+03  0.87909916960E+03  0.10100000352E+00 0.  1.
       -3    1    3    3    0  502  0.62761106038E+03 -0.52701393119E+03  0.12808978217E+04  0.15206375527E+04  0.10100000352E+00 0. -1.
</event>
<event>
 5   0  0.1788413E-05  0.2219739E+04  0.7818609E-02  0.8510257E-01
       -1   -1    0    0    0  501  0.00000000000E+00  0.00000000000E+00  0.70633109953E+03  0.70633109955E+03  0.50400001928E-02 0. -1.
        1   -1    0    0  501    0  0.00000000000E+00  0.00000000000E+00 -0.17439563452E+04  0.17439563452E+04  0.50400001928E-02 0.  1.
    10030    2    1    2    0    0  0.00000000000E+00  0.00000000000E+00 -0.10376252457E+04  0.24502874447E+04  0.22197392665E+04 0.  0.
        1    1    3    3  502    0  0.64202557717E+03  0.84278683822E+03 -0.88379596034E+03  0.13797035174E+04  0.50400001928E-02 0.  1.
       -1    1    3    3    0  502 -0.64202557717E+03 -0.84278683822E+03 -0.15382928532E+03  0.10705839273E+04  0.50400001928E-02 0. -1.
</event>
<event>
 5   0  0.1884407E-05  0.2198411E+04  0.7818609E-02  0.8519090E-01
        1   -1    0    0  501    0  0.00000000000E+00  0.00000000000E+00  0.12664413649E+04  0.12664413649E+04  0.50400001928E-02 0. -1.
       -1   -1    0    0    0  501  0.00000000000E+00  0.00000000000E+00 -0.95405355435E+03  0.95405355437E+03  0.50400001928E-02 0.  1.
    10030    2    1    2    0    0  0.00000000000E+00  0.00000000000E+00  0.31238781058E+03  0.22204949193E+04  0.21984111405E+04 0.  0.
        3    1    3    3  502    0  0.69154433602E+03  0.80824194952E+03  0.43604073751E+03  0.11496173940E+04  0.10100000352E+00 0.  1.
       -3    1    3    3    0  502 -0.69154433602E+03 -0.80824194952E+03 -0.12365292693E+03  0.10708775253E+04  0.10100000352E+00 0. -1.
</event>
<event>
 5   0  0.1788413E-05  0.2174488E+04  0.7818609E-02  0.8529122E-01
        1   -1    0    0  501    0  0.00000000000E+00  0.00000000000E+00  0.18176771900E+04  0.18176771901E+04  0.50400001928E-02 0. -1.
       -1   -1    0    0    0  501  0.00000000000E+00  0.00000000000E+00 -0.65033515628E+03  0.65033515630E+03  0.50400001928E-02 0.  1.
    10030    2    1    2    0    0  0.00000000000E+00  0.00000000000E+00  0.11673420338E+04  0.24680123464E+04  0.21744878749E+04 0.  0.
        1    1    3    3  502    0 -0.22181178392E+03  0.78271994719E+03  0.14023162035E+04  0.16212161231E+04  0.50400001928E-02 0. -1.
       -1    1    3    3    0  502  0.22181178392E+03 -0.78271994719E+03 -0.23497416974E+03  0.84679622323E+03  0.50400001928E-02 0.  1.
</event>
<event>
 5   0  0.1866935E-05  0.1980903E+04  0.7818609E-02  0.8615601E-01
        1   -1    0    0  501    0  0.00000000000E+00  0.00000000000E+00  0.10221023543E+04  0.10221023544E+04  0.50400001928E-02 0.  1.
       -1   -1    0    0    0  501  0.00000000000E+00  0.00000000000E+00 -0.95978096145E+03  0.95978096146E+03  0.50400001928E-02 0. -1.
    10030    2    1    2    0    0  0.00000000000E+00  0.00000000000E+00  0.62321392890E+02  0.19818833158E+04  0.19809032085E+04 0.  0.
        4    1    3    3  502    0 -0.22810846664E+03 -0.11583131748E+02  0.99539328136E+03  0.10212624731E+04  0.12699999809E+01 0.  1.
       -4    1    3    3    0  502  0.22810846664E+03  0.11583131748E+02 -0.93307188847E+03  0.96062084271E+03  0.12699999809E+01 0. -1.
</event>
<event>
 5   0  0.4132460E-05  0.2190847E+04  0.7818609E-02  0.8522247E-01
       -2   -1    0    0    0  501  0.00000000000E+00  0.00000000000E+00  0.40891224906E+03  0.40891224907E+03  0.25500000920E-02 0.  1.
        2   -1    0    0  501    0  0.00000000000E+00  0.00000000000E+00 -0.29345004733E+04  0.29345004733E+04  0.25500000920E-02 0. -1.
    10030    2    1    2    0    0  0.00000000000E+00  0.00000000000E+00 -0.25255882243E+04  0.33434127224E+04  0.21908474967E+04 0.  0.
        4    1    3    3  502    0  0.19611749583E+03 -0.34476307495E+02  0.38105955665E+03  0.42995195844E+03  0.12699999809E+01 0.  1.
       -4    1    3    3    0  502 -0.19611749583E+03  0.34476307495E+02 -0.29066477809E+04  0.29134607640E+04  0.12699999809E+01 0. -1.
</event>
<event>
 5   0  0.4027923E-05  0.2193444E+04  0.7818609E-02  0.8521162E-01
        2   -1    0    0  501    0  0.00000000000E+00  0.00000000000E+00  0.10622868597E+04  0.10622868597E+04  0.25500000920E-02 0.  1.
       -2   -1    0    0    0  501  0.00000000000E+00  0.00000000000E+00 -0.11322730074E+04  0.11322730074E+04  0.25500000920E-02 0. -1.
    10030    2    1    2    0    0  0.00000000000E+00  0.00000000000E+00 -0.69986147686E+02  0.21945598671E+04  0.21934436281E+04 0.  0.
        5    1    3    3  502    0 -0.43515736303E+03 -0.70423796009E+03  0.68472243855E+03  0.10743276702E+04  0.46999998093E+01 0.  1.
       -5    1    3    3    0  502  0.43515736303E+03  0.70423796009E+03 -0.75470858623E+03  0.11202321970E+04  0.46999998093E+01 0. -1.
</event>
<event>
 5   0  0.1788413E-05  0.2217163E+04  0.7818609E-02  0.8511318E-01
       -1   -1    0    0    0  501  0.00000000000E+00  0.00000000000E+00  0.11502006044E+04  0.11502006044E+04  0.50400001928E-02 0.  1.
        1   -1    0    0  501    0  0.00000000000E+00  0.00000000000E+00 -0.10684680665E+04  0.10684680665E+04  0.50400001928E-02 0. -1.
    10030    2    1    2    0    0  0.00000000000E+00  0.00000000000E+00  0.81732537898E+02  0.22186686708E+04  0.22171627056E+04 0.  0.
        1    1    3    3  502    0 -0.86369770216E+03 -0.64400902155E+03  0.30225486137E+03  0.11189635123E+04  0.50400001928E-02 0.  1.
       -1    1    3    3    0  502  0.86369770216E+03  0.64400902155E+03 -0.22052232347E+03  0.10997051585E+04  0.50400001928E-02 0. -1.
</event>
<event>
 5   0  0.4029532E-05  0.2208074E+04  0.7818609E-02  0.8515075E-01
        2   -1    0    0  501    0  0.00000000000E+00  0.00000000000E+00  0.24669491147E+04  0.24669491147E+04  0.25500000920E-02 0.  1.
       -2   -1    0    0    0  501  0.00000000000E+00  0.00000000000E+00 -0.49409093921E+03  0.49409093922E+03  0.25500000920E-02 0. -1.
    10030    2    1    2    0    0  0.00000000000E+00  0.00000000000E+00  0.19728581755E+04  0.29610400540E+04  0.22080735541E+04 0.  0.
        3    1    3    3  502    0 -0.35216279876E+03  0.25125794253E+03 -0.37569779631E+03  0.57297297918E+03  0.10100000352E+00 0. -1.
       -3    1    3    3    0  502  0.35216279876E+03 -0.25125794253E+03  0.23485559718E+04  0.23880670748E+04  0.10100000352E+00 0.  1.
</event>
<event>
 5   0  0.3963414E-05  0.2193830E+04  0.7818609E-02  0.8521001E-01
       -2   -1    0    0    0  501  0.00000000000E+00  0.00000000000E+00  0.14997855649E+04  0.14997855649E+04  0.25500000920E-02 0. -1.
        2   -1    0    0  501    0  0.00000000000E+00  0.00000000000E+00 -0.80226267426E+03  0.80226267426E+03  0.25500000920E-02 0.  1.
    10030    2    1    2    0    0  0.00000000000E+00  0.00000000000E+00  0.69752289069E+03  0.23020482392E+04  0.21938295086E+04 0.  0.
        1    1    3    3  502    0 -0.39388588638E+03  0.10010594606E+04  0.12381356015E+03  0.10828646882E+04  0.50400001928E-02 0.  1.
       -1    1    3    3    0  502  0.39388588638E+03 -0.10010594606E+04  0.57370933053E+03  0.12191835510E+04  0.50400001928E-02 0. -1.
</event>
<event>
 5   0  0.4143281E-05  0.2198533E+04  0.7818609E-02  0.8519039E-01
       -2   -1    0    0    0  501  0.00000000000E+00  0.00000000000E+00  0.10619956546E+04  0.10619956547E+04  0.25500000920E-02 0. -1.
        2   -1    0    0  501    0  0.00000000000E+00  0.00000000000E+00 -0.11378449280E+04  0.11378449280E+04  0.25500000920E-02 0.  1.
    10030    2    1    2    0    0  0.00000000000E+00  0.00000000000E+00 -0.75849273307E+02  0.21998405826E+04  0.21985325735E+04 0.  0.
        2    1    3    3  502    0 -0.50619238270E+03  0.81118060666E+03 -0.58059559166E+03  0.11186312824E+04  0.25500000920E-02 0.  1.
       -2    1    3    3    0  502  0.50619238270E+03 -0.81118060666E+03  0.50474631836E+03  0.10812093002E+04  0.25500000920E-02 0. -1.
</event>
<event>
 5   0  0.1815681E-05  0.2193160E+04  0.7818609E-02  0.8521280E-01
       -1   -1    0    0    0  501  0.00000000000E+00  0.00000000000E+00  0.76381519308E+03  0.76381519310E+03  0.50400001928E-02 0. -1.
        1   -1    0    0  501    0  0.00000000000E+00  0.00000000000E+00 -0.15743178255E+04  0.15743178255E+04  0.50400001928E-02 0.  1.
    10030    2    1    2    0    0  0.00000000000E+00  0.00000000000E+00 -0.81050263243E+03  0.23381330186E+04  0.21931601619E+04 0.  0.
        2    1    3    3  502    0  0.37441163001E+03 -0.98120604578E+03 -0.68899006396E+02  0.10524715892E+04  0.25500000920E-02 0. -1.
       -2    1    3    3    0  502 -0.37441163001E+03  0.98120604578E+03 -0.74160362604E+03  0.12856614294E+04  0.25500000920E-02 0.  1.
</event>
<event>
 5   0  0.1866935E-05  0.2194900E+04  0.7818609E-02  0.8520554E-01
       -1   -1    0    0    0  501  0.00000000000E+00  0.00000000000E+00  0.88937484273E+03  0.88937484274E+03  0.50400001928E-02 0. -1.
        1   -1    0    0  501    0  0.00000000000E+00  0.00000000000E+00 -0.13542060467E+04  0.13542060467E+04  0.50400001928E-02 0.  1.
    10030    2    1    2    0    0  0.00000000000E+00  0.00000000000E+00 -0.46483120399E+03  0.22435808895E+04  0.21949002618E+04 0.  0.
        4    1    3    3  502    0  0.77102479481E+03 -0.66367358986E+03  0.18836137443E+03  0.10346127239E+04  0.12699999809E+01 0. -1.
       -4    1    3    3    0  502 -0.77102479481E+03  0.66367358986E+03 -0.65319257842E+03  0.12089681656E+04  0.12699999809E+01 0.  1.
</event>
<event>
 5   0  0.4027923E-05  0.2209157E+04  0.7818609E-02  0.8514626E-01
       -2   -1    0    0    0  501  0.00000000000E+00  0.00000000000E+00  0.11446264225E+04  0.11446264225E+04  0.25500000920E-02 0.  1.
        2   -1    0    0  501    0  0.00000000000E+00  0.00000000000E+00 -0.10659317053E+04  0.10659317053E+04  0.25500000920E-02 0. -1.
    10030    2    1    2    0    0  0.00000000000E+00  0.00000000000E+00  0.78694717180E+02  0.22105581279E+04  0.22091569383E+04 0.  0.
        5    1    3    3  502    0 -0.24363159712E+03  0.40552800392E+02  0.11166316296E+04  0.11436298225E+04  0.46999998093E+01 0.  1.
       -5    1    3    3    0  502  0.24363159712E+03 -0.40552800392E+02 -0.10379369124E+04  0.10669283054E+04  0.46999998093E+01 0. -1.
</event>
<event>
 5   0  0.1433375E-05  0.2055877E+04  0.7818609E-02  0.8580933E-01
        4   -1    0    0  501    0  0.00000000000E+00  0.00000000000E+00  0.93364800506E+03  0.93364886882E+03  0.12699999809E+01 0.  1.
       -4   -1    0    0    0  501  0.00000000000E+00  0.00000000000E+00 -0.11317497948E+04  0.11317505074E+04  0.12699999809E+01 0. -1.
    10030    2    1    2    0    0  0.00000000000E+00  0.00000000000E+00 -0.19810178975E+03  0.20653993762E+04  0.20558770061E+04 0.  0.
        4    1    3    3  502    0 -0.77856153249E+03  0.64951280026E+03 -0.26904164436E+03  0.10490042692E+04  0.12699999809E+01 0.  1.
       -4    1    3    3    0  502  0.77856153249E+03 -0.64951280026E+03  0.70939854608E+02  0.10163951070E+04  0.12699999809E+01 0. -1.
</event>
<event>
 5   0  0.1786228E-05  0.2223765E+04  0.7818609E-02  0.8508601E-01
        1   -1    0    0  501    0  0.00000000000E+00  0.00000000000E+00  0.76183104955E+03  0.76183104956E+03  0.50400001928E-02 0. -1.
       -1   -1    0    0    0  501  0.00000000000E+00  0.00000000000E+00 -0.16227783248E+04  0.16227783248E+04  0.50400001928E-02 0.  1.
    10030    2    1    2    0    0  0.00000000000E+00  0.00000000000E+00 -0.86094727528E+03  0.23846093744E+04  0.22237651984E+04 0.  0.
        5    1    3    3  502    0  0.16796745236E+03  0.28123858885E+03 -0.15698472961E+04  0.16036679307E+04  0.46999998093E+01 0.  1.
       -5    1    3    3    0  502 -0.16796745236E+03 -0.28123858885E+03  0.70890002083E+03  0.78094144367E+03  0.46999998093E+01 0. -1.
</event>
<event>
 5   0  0.1866935E-05  0.2205747E+04  0.7818609E-02  0.8516040E-01
       -1   -1    0    0    0  501  0.00000000000E+00  0.00000000000E+00  0.12009086440E+04  0.12009086440E+04  0.50400001928E-02 0.  1.
        1   -1    0    0  501    0  0.00000000000E+00  0.00000000000E+00 -0.10128416087E+04  0.10128416087E+04  0.50400001928E-02 0. -1.
    10030    2    1    2    0    0  0.00000000000E+00  0.00000000000E+00  0.18806703529E+03  0.22137502527E+04  0.22057472592E+04 0.  0.
        4    1    3    3  502    0  0.56167363922E+03  0.35467595373E+03 -0.78953352206E+03  0.10318125336E+04  0.12699999809E+01 0. -1.
       -4    1    3    3    0  502 -0.56167363922E+03 -0.35467595373E+03  0.97760055735E+03  0.11819377191E+04  0.12699999809E+01 0.  1.
</event>
<event>
 5   0  0.1884407E-05  0.2184974E+04  0.7818609E-02  0.8524708E-01
       -1   -1    0    0    0  501  0.00000000000E+00  0.00000000000E+00  0.12103130001E+04  0.12103130001E+04  0.50400001928E-02 0.  1.
        1   -1    0    0  501    0  0.00000000000E+00  0.00000000000E+00 -0.98613191549E+03  0.98613191550E+03  0.50400001928E-02 0. -1.
    10030    2    1    2    0    0  0.00000000000E+00  0.00000000000E+00  0.22418108462E+03  0.21964449156E+04  0.21849743954E+04 0.  0.
        3    1    3    3  502    0  0.34404361458E+03  0.81093131743E+03  0.76166597256E+03  0.11645216504E+04  0.10100000352E+00 0. -1.
       -3    1    3    3    0  502 -0.34404361458E+03 -0.81093131743E+03 -0.53748488793E+03  0.10319232652E+04  0.10100000352E+00 0.  1.
</event>
<event>
 5   0  0.1786228E-05  0.2213733E+04  0.7818609E-02  0.8512734E-01
       -1   -1    0    0    0  501  0.00000000000E+00  0.00000000000E+00  0.11198043750E+04  0.11198043750E+04  0.50400001928E-02 0. -1.
        1   -1    0    0  501    0  0.00000000000E+00  0.00000000000E+00 -0.10940778582E+04  0.10940778583E+04  0.50400001928E-02 0.  1.
    10030    2    1    2    0    0  0.00000000000E+00  0.00000000000E+00  0.25726516794E+02  0.22138822333E+04  0.22137327502E+04 0.  0.
        5    1    3    3  502    0 -0.10056240462E+04  0.94229340166E+02  0.46563237626E+03  0.11122025403E+04  0.46999998093E+01 0. -1.
       -5    1    3    3    0  502  0.10056240462E+04 -0.94229340166E+02 -0.43990585947E+03  0.11016796930E+04  0.46999998093E+01 0.  1.
</event>
<event>
 5   0  0.1788413E-05  0.2199152E+04  0.7818609E-02  0.8518781E-01
        1   -1    0    0  501    0  0.00000000000E+00  0.00000000000E+00  0.95795562857E+03  0.95795562858E+03  0.50400001928E-02 0. -1.
       -1   -1    0    0    0  501  0.00000000000E+00  0.00000000000E+00 -0.12621327070E+04  0.12621327070E+04  0.50400001928E-02 0.  1.
    10030    2    1    2    0    0  0.00000000000E+00  0.00000000000E+00 -0.30417707845E+03  0.22200883356E+04  0.21991517735E+04 0.  0.
        1    1    3    3  502    0  0.36489012169E+03 -0.53200556022E+03 -0.10510108992E+04  0.12332066442E+04  0.50400001928E-02 0.  1.
       -1    1    3    3    0  502 -0.36489012169E+03  0.53200556022E+03  0.74683382075E+03  0.98688169142E+03  0.50400001928E-02 0. -1.
</event>
<event>
 5   0  0.1433375E-05  0.2203577E+04  0.7818609E-02  0.8516941E-01
        3   -1    0    0  501    0  0.00000000000E+00  0.00000000000E+00  0.18965978868E+04  0.18965978895E+04  0.10100000352E+00 0.  1.
       -3   -1    0    0    0  501  0.00000000000E+00  0.00000000000E+00 -0.64006083417E+03  0.64006084214E+03  0.10100000352E+00 0. -1.
    10030    2    1    2    0    0  0.00000000000E+00  0.00000000000E+00  0.12565370526E+04  0.25366587316E+04  0.22035771273E+04 0.  0.
        1    1    3    3  502    0 -0.15377468734E+03 -0.18915260630E+03 -0.60862734679E+03  0.65563145915E+03  0.50400001928E-02 0. -1.
       -1    1    3    3    0  502  0.15377468734E+03  0.18915260630E+03  0.18651643994E+04  0.18810272725E+04  0.50400001928E-02 0.  1.
</event>
<event>
 5   0  0.3963414E-05  0.2198543E+04  0.7818609E-02  0.8519035E-01
       -2   -1    0    0    0  501  0.00000000000E+00  0.00000000000E+00  0.56892522402E+03  0.56892522403E+03  0.25500000920E-02 0.  1.
        2   -1    0    0  501    0  0.00000000000E+00  0.00000000000E+00 -0.21240012903E+04  0.21240012903E+04  0.25500000920E-02 0. -1.
    10030    2    1    2    0    0  0.00000000000E+00  0.00000000000E+00 -0.15550760663E+04  0.26929265143E+04  0.21985430720E+04 0.  0.
        1    1    3    3  502    0 -0.89050706775E+03 -0.64016819682E+03 -0.68604311545E+03  0.12936279659E+04  0.50400001928E-02 0.  1.
       -1    1    3    3    0  502  0.89050706775E+03  0.64016819682E+03 -0.86903295083E+03  0.13992985484E+04  0.50400001928E-02 0. -1.
</event>
<event>
 5   0  0.1788413E-05  0.2195303E+04  0.7818609E-02  0.8520385E-01
       -1   -1    0    0    0  501  0.00000000000E+00  0.00000000000E+00  0.13297742686E+04  0.13297742686E+04  0.50400001928E-02 0.  1.
        1   -1    0    0  501    0  0.00000000000E+00  0.00000000000E+00 -0.90604794966E+03  0.90604794967E+03  0.50400001928E-02 0. -1.
    10030    2    1    2    0    0  0.00000000000E+00  0.00000000000E+00  0.42372631896E+03  0.22358222183E+04  0.21953033955E+04 0.  0.
        1    1    3    3  502    0 -0.64570669719E+03  0.56192223796E+02  0.11140715696E+04  0.12888949403E+04  0.50400001928E-02 0.  1.
       -1    1    3    3    0  502  0.64570669719E+03 -0.56192223796E+02 -0.69034525063E+03  0.94692727804E+03  0.50400001928E-02 0. -1.
</event>
<event>
 5   0  0.4132460E-05  0.2213800E+04  0.7818609E-02  0.8512706E-01
       -2   -1    0    0    0  501  0.00000000000E+00  0.00000000000E+00  0.12238593210E+04  0.12238593210E+04  0.25500000920E-02 0. -1.
        2   -1    0    0  501    0  0.00000000000E+00  0.00000000000E+00 -0.10011179444E+04  0.10011179444E+04  0.25500000920E-02 0.  1.
    10030    2    1    2    0    0  0.00000000000E+00  0.00000000000E+00  0.22274137661E+03  0.22249772654E+04  0.22137999256E+04 0.  0.
        4    1    3    3  502    0  0.44630007303E+03 -0.10073870962E+04  0.21779867050E+03  0.11231430855E+04  0.12699999809E+01 0.  1.
       -4    1    3    3    0  502 -0.44630007303E+03  0.10073870962E+04  0.49427061085E+01  0.11018341799E+04  0.12699999809E+01 0. -1.
</event>
<event>
 5   0  0.4027923E-05  0.2198997E+04  0.7818609E-02  0.8518846E-01
        2   -1    0    0  501    0  0.00000000000E+00  0.00000000000E+00  0.88251024398E+03  0.88251024399E+03  0.25500000920E-02 0.  1.
       -2   -1    0    0    0  501  0.00000000000E+00  0.00000000000E+00 -0.13698388923E+04  0.13698388923E+04  0.25500000920E-02 0. -1.
    10030    2    1    2    0    0  0.00000000000E+00  0.00000000000E+00 -0.48732864830E+03  0.22523491363E+04  0.21989969123E+04 0.  0.
        5    1    3    3  502    0  0.16900005961E+03  0.68140081977E+03  0.62303732929E+03  0.93865100065E+03  0.46999998093E+01 0.  1.
       -5    1    3    3    0  502 -0.16900005961E+03 -0.68140081977E+03 -0.11103659776E+04  0.13136981356E+04  0.46999998093E+01 0. -1.
</event>
<event>
 5   0  0.1815681E-05  0.2199969E+04  0.7818609E-02  0.8518441E-01
       -1   -1    0    0    0  501  0.00000000000E+00  0.00000000000E+00  0.91582085091E+03  0.91582085092E+03  0.50400001928E-02 0. -1.
        1   -1    0    0  501    0  0.00000000000E+00  0.00000000000E+00 -0.13211817261E+04  0.13211817261E+04  0.50400001928E-02 0.  1.
    10030    2    1    2    0    0  0.00000000000E+00  0.00000000000E+00 -0.40536087515E+03  0.22370025770E+04  0.21999688839E+04 0.  0.
        2    1    3    3  502    0 -0.29726223633E+03  0.20680845898E+03  0.85347221565E+03  0.92711886980E+03  0.25500000920E-02 0. -1.
       -2    1    3    3    0  502  0.29726223633E+03 -0.20680845898E+03 -0.12588330908E+04  0.13098837072E+04  0.25500000920E-02 0.  1.
</event>
<event>
 5   0  0.1788413E-05  0.2210056E+04  0.7818609E-02  0.8514254E-01
        1   -1    0    0  501    0  0.00000000000E+00  0.00000000000E+00  0.12105181631E+04  0.12105181631E+04  0.50400001928E-02 0. -1.
       -1   -1    0    0    0  501  0.00000000000E+00  0.00000000000E+00 -0.10087308943E+04  0.10087308943E+04  0.50400001928E-02 0.  1.
    10030    2    1    2    0    0  0.00000000000E+00  0.00000000000E+00  0.20178726887E+03  0.22192490574E+04  0.22100561705E+04 0.  0.
        1    1    3    3  502    0 -0.34303475394E+03 -0.53549346975E+03 -0.80655830375E+03  0.10271136237E+04  0.50400001928E-02 0.  1.
       -1    1    3    3    0  502  0.34303475394E+03  0.53549346975E+03  0.10083455726E+04  0.11921354337E+04  0.50400001928E-02 0. -1.
</event>
<event>
 5   0  0.4143281E-05  0.2190988E+04  0.7818609E-02  0.8522188E-01
       -2   -1    0    0    0  501  0.00000000000E+00  0.00000000000E+00  0.16759320240E+04  0.16759320240E+04  0.25500000920E-02 0. -1.
        2   -1    0    0  501    0  0.00000000000E+00  0.00000000000E+00 -0.71608336493E+03  0.71608336494E+03  0.25500000920E-02 0.  1.
    10030    2    1    2    0    0  0.00000000000E+00  0.00000000000E+00  0.95984865904E+03  0.23920153889E+04  0.21909879444E+04 0.  0.
        2    1    3    3  502    0  0.28880250101E+03 -0.39019018082E+03  0.15520957860E+04  0.16262400164E+04  0.25500000920E-02 0. -1.
       -2    1    3    3    0  502 -0.28880250101E+03  0.39019018082E+03 -0.59224712698E+03  0.76577537256E+03  0.25500000920E-02 0.  1.
</event>
<event>
 5   0  0.1884407E-05  0.2130414E+04  0.7818609E-02  0.8547963E-01
       -1   -1    0    0    0  501  0.00000000000E+00  0.00000000000E+00  0.71557233807E+03  0.71557233808E+03  0.50400001928E-02 0.  1.
        1   -1    0    0  501    0  0.00000000000E+00  0.00000000000E+00 -0.15856765246E+04  0.15856765246E+04  0.50400001928E-02 0. -1.
    10030    2    1    2    0    0  0.00000000000E+00  0.00000000000E+00 -0.87010418654E+03  0.23012488627E+04  0.21304142866E+04 0.  0.
        3    1    3    3  502    0 -0.31050406878E+03  0.49311445472E+03  0.52812934646E+03  0.78644469543E+03  0.10100000352E+00 0.  1.
       -3    1    3    3    0  502  0.31050406878E+03 -0.49311445472E+03 -0.13982335330E+04  0.15148041673E+04  0.10100000352E+00 0. -1.
</event>
<event>
 5   0  0.1884407E-05  0.2179345E+04  0.7818609E-02  0.8527075E-01
        1   -1    0    0  501    0  0.00000000000E+00  0.00000000000E+00  0.10812206113E+04  0.10812206113E+04  0.50400001928E-02 0.  1.
       -1   -1    0    0    0  501  0.00000000000E+00  0.00000000000E+00 -0.10981905237E+04  0.10981905237E+04  0.50400001928E-02 0. -1.
    10030    2    1    2    0    0  0.00000000000E+00  0.00000000000E+00 -0.16969912391E+02  0.21794111350E+04  0.21793450662E+04 0.  0.
        3    1    3    3  502    0 -0.78780589682E+03  0.55979114915E+02  0.74228038686E+03  0.10838597581E+04  0.10100000352E+00 0.  1.
       -3    1    3    3    0  502  0.78780589682E+03 -0.55979114915E+02 -0.75925029925E+03  0.10955513769E+04  0.10100000352E+00 0. -1.
</event>
<event>
 5   0  0.4143281E-05  0.2221795E+04  0.7818609E-02  0.8509411E-01
        2   -1    0    0  501    0  0.00000000000E+00  0.00000000000E+00  0.14054744504E+04  0.14054744504E+04  0.25500000920E-02 0. -1.
       -2   -1    0    0    0  501  0.00000000000E+00  0.00000000000E+00 -0.87806168975E+03  0.87806168976E+03  0.25500000920E-02 0.  1.
    10030    2    1    2    0    0  0.00000000000E+00  0.00000000000E+00  0.52741276066E+03  0.22835361402E+04  0.22217950138E+04 0.  0.
        2    1    3    3  502    0  0.61423243813E+03 -0.43849290780E+03  0.11015502130E+04  0.13352791431E+04  0.25500000920E-02 0. -1.
       -2    1    3    3    0  502 -0.61423243813E+03  0.43849290780E+03 -0.57413745236E+03  0.94825699705E+03  0.25500000920E-02 0.  1.
</event>
<event>
 5   0  0.1786228E-05  0.2189210E+04  0.7818609E-02  0.8522933E-01
       -1   -1    0    0    0  501  0.00000000000E+00  0.00000000000E+00  0.64954391208E+03  0.64954391210E+03  0.50400001928E-02 0. -1.
        1   -1    0    0  501    0  0.00000000000E+00  0.00000000000E+00 -0.18446173676E+04  0.18446173676E+04  0.50400001928E-02 0.  1.
    10030    2    1    2    0    0  0.00000000000E+00  0.00000000000E+00 -0.11950734555E+04  0.24941612797E+04  0.21892098860E+04 0.  0.
        5    1    3    3  502    0 -0.38758775249E+03  0.73465012411E+03  0.21464958748E+03  0.85792284393E+03  0.46999998093E+01 0. -1.
       -5    1    3    3    0  502  0.38758775249E+03 -0.73465012411E+03 -0.14097230430E+04  0.16362384358E+04  0.46999998093E+01 0.  1.
</event>
<event>
 5   0  0.4029532E-05  0.2205878E+04  0.7818609E-02  0.8515986E-01
       -2   -1    0    0    0  501  0.00000000000E+00  0.00000000000E+00  0.50163309989E+03  0.50163309990E+03  0.25500000920E-02 0. -1.
        2   -1    0    0  501    0  0.00000000000E+00  0.00000000000E+00 -0.24250278823E+04  0.24250278823E+04  0.25500000920E-02 0.  1.
    10030    2    1    2    0    0  0.00000000000E+00  0.00000000000E+00 -0.19233947824E+04  0.29266609822E+04  0.22058778334E+04 0.  0.
        3    1    3    3  502    0 -0.10701264101E+03  0.66193226938E+03  0.20015599551E+03  0.69976315087E+03  0.10100000352E+00 0. -1.
       -3    1    3    3    0  502  0.10701264101E+03 -0.66193226938E+03 -0.21235507779E+04  0.22268978313E+04  0.10100000352E+00 0.  1.
</event>
<event>
 5   0  0.4029532E-05  0.2187972E+04  0.7818609E-02  0.8523451E-01
       -2   -1    0    0    0  501  0.00000000000E+00  0.00000000000E+00  0.85724936722E+03  0.85724936723E+03  0.25500000920E-02 0. -1.
        2   -1    0    0  501    0  0.00000000000E+00  0.00000000000E+00 -0.13960997481E+04  0.13960997481E+04  0.25500000920E-02 0.  1.
    10030    2    1    2    0    0  0.00000000000E+00  0.00000000000E+00 -0.53885038083E+03  0.22533491153E+04  0.21879722353E+04 0.  0.
        3    1    3    3  502    0  0.51204481807E+01 -0.61344317376E+03  0.66343637592E+03  0.90359647051E+03  0.10100000352E+00 0. -1.
       -3    1    3    3    0  502 -0.51204481807E+01  0.61344317376E+03 -0.12022867567E+04  0.13497526448E+04  0.10100000352E+00 0.  1.
</event>
<event>
 5   0  0.4143281E-05  0.2162157E+04  0.7818609E-02  0.8534346E-01
        2   -1    0    0  501    0  0.00000000000E+00  0.00000000000E+00  0.99619523020E+03  0.99619523021E+03  0.25500000920E-02 0.  1.
       -2   -1    0    0    0  501  0.00000000000E+00  0.00000000000E+00 -0.11731944244E+04  0.11731944244E+04  0.25500000920E-02 0. -1.
    10030    2    1    2    0    0  0.00000000000E+00  0.00000000000E+00 -0.17699919419E+03  0.21693896546E+04  0.21621569690E+04 0.  0.
        2    1    3    3  502    0 -0.97025630878E+03  0.45114063334E+03 -0.24330607346E+03  0.10973253944E+04  0.25500000920E-02 0. -1.
       -2    1    3    3    0  502  0.97025630878E+03 -0.45114063334E+03  0.66306879269E+02  0.10720642602E+04  0.25500000920E-02 0.  1.
</event>
<event>
 5   0  0.1866935E-05  0.2203195E+04  0.7818609E-02  0.8517099E-01
        1   -1    0    0  501    0  0.00000000000E+00  0.00000000000E+00  0.14487333788E+04  0.14487333788E+04  0.50400001928E-02 0. -1.
       -1   -1    0    0    0  501  0.00000000000E+00  0.00000000000E+00 -0.83764006787E+03  0.83764006789E+03  0.50400001928E-02 0.  1.
    10030    2    1    2    0    0  0.00000000000E+00  0.00000000000E+00  0.61109331097E+03  0.22863734467E+04  0.22031950670E+04 0.  0.
        4    1    3    3  502    0  0.25101806140E+03 -0.80067812522E+01  0.14186268527E+04  0.14406866196E+04  0.12699999809E+01 0. -1.
       -4    1    3    3    0  502 -0.25101806140E+03  0.80067812522E+01 -0.80753354174E+03  0.84568682716E+03  0.12699999809E+01 0.  1.
</event>
<event>
 5   0  0.3963414E-05  0.2207778E+04  0.7818609E-02  0.8515198E-01
       -2   -1    0    0    0  501  0.00000000000E+00  0.00000000000E+00  0.13867124719E+04  0.13867124719E+04  0.25500000920E-02 0.  1.
        2   -1    0    0  501    0  0.00000000000E+00  0.00000000000E+00 -0.87874773996E+03  0.87874773996E+03  0.25500000920E-02 0. -1.
    10030    2    1    2    0    0  0.00000000000E+00  0.00000000000E+00  0.50796473189E+03  0.22654602118E+04  0.22077775709E+04 0.  0.
        1    1    3    3  502    0 -0.42333394101E+03  0.79273293875E+03 -0.40380692203E+03  0.98523965008E+03  0.50400001928E-02 0. -1.
       -1    1    3    3    0  502  0.42333394101E+03 -0.79273293875E+03  0.91177165393E+03  0.12802205617E+04  0.50400001928E-02 0.  1.
</event>
<event>
 5   0  0.4143281E-05  0.2258529E+04  0.7818609E-02  0.8494454E-01
        2   -1    0    0  501    0  0.00000000000E+00  0.00000000000E+00  0.19594667854E+04  0.19594667854E+04  0.25500000920E-02 0. -1.
       -2   -1    0    0    0  501  0.00000000000E+00  0.00000000000E+00 -0.65080868069E+03  0.65080868070E+03  0.25500000920E-02 0.  1.
    10030    2    1    2    0    0  0.00000000000E+00  0.00000000000E+00  0.13086581048E+04  0.26102754661E+04  0.22585287189E+04 0.  0.
        2    1    3    3  502    0  0.86353494412E+03 -0.90288216113E+02  0.14888620282E+04  0.17235297215E+04  0.25500000920E-02 0. -1.
       -2    1    3    3    0  502 -0.86353494412E+03  0.90288216113E+02 -0.18020392346E+03  0.88674574469E+03  0.25500000920E-02 0.  1.
</event>
<event>
 5   0  0.3963414E-05  0.2203322E+04  0.7818609E-02  0.8517047E-01
       -2   -1    0    0    0  501  0.00000000000E+00  0.00000000000E+00  0.12866931076E+04  0.12866931076E+04  0.25500000920E-02 0. -1.
        2   -1    0    0  501    0  0.00000000000E+00  0.00000000000E+00 -0.94323690337E+03  0.94323690337E+03  0.25500000920E-02 0.  1.
    10030    2    1    2    0    0  0.00000000000E+00  0.00000000000E+00  0.34345620418E+03  0.22299300109E+04  0.22033215130E+04 0.  0.
        1    1    3    3  502    0  0.23630629153E+03 -0.75085589280E+03 -0.60831388641E+03  0.99482210449E+03  0.50400001928E-02 0.  1.
       -1    1    3    3    0  502 -0.23630629153E+03  0.75085589280E+03  0.95177009059E+03  0.12351079064E+04  0.50400001928E-02 0. -1.
</event>
<event>
 5   0  0.4029532E-05  0.2195362E+04  0.7818609E-02  0.8520361E-01
        2   -1    0    0  501    0  0.00000000000E+00  0.00000000000E+00  0.18417373647E+04  0.18417373647E+04  0.25500000920E-02 0. -1.
       -2   -1    0    0    0  501  0.00000000000E+00  0.00000000000E+00 -0.65422117659E+03  0.65422117660E+03  0.25500000920E-02 0.  1.
    10030    2    1    2    0    0  0.00000000000E+00  0.00000000000E+00  0.11875161881E+04  0.24959585413E+04  0.21953620073E+04 0.  0.
        3    1    3    3  502    0 -0.24666815076E+02  0.89562737830E+03  0.13147385468E+04  0.15910041826E+04  0.10100000352E+00 0. -1.
       -3    1    3    3    0  502  0.24666815076E+02 -0.89562737830E+03 -0.12722235868E+03  0.90495435867E+03  0.10100000352E+00 0.  1.
</event>
<event>
 5   0  0.1815681E-05  0.2175252E+04  0.7818609E-02  0.8528800E-01
        1   -1    0    0  501    0  0.00000000000E+00  0.00000000000E+00  0.10990001943E+04  0.10990001943E+04  0.50400001928E-02 0.  1.
       -1   -1    0    0    0  501  0.00000000000E+00  0.00000000000E+00 -0.10763691187E+04  0.10763691187E+04  0.50400001928E-02 0. -1.
    10030    2    1    2    0    0  0.00000000000E+00  0.00000000000E+00  0.22631075609E+02  0.21753693129E+04  0.21752515905E+04 0.  0.
        2    1    3    3  502    0  0.88694212455E+03  0.22291983532E+03  0.60004960198E+03  0.10938094487E+04  0.25500000920E-02 0.  1.
       -2    1    3    3    0  502 -0.88694212455E+03 -0.22291983532E+03 -0.57741852637E+03  0.10815598642E+04  0.25500000920E-02 0. -1.
</event>
<event>
 5   0  0.3963414E-05  0.2228102E+04  0.7818609E-02  0.8506822E-01
        2   -1    0    0  501    0  0.00000000000E+00  0.00000000000E+00  0.20480247411E+04  0.20480247411E+04  0.25500000920E-02 0.  1.
       -2   -1    0    0    0  501  0.00000000000E+00  0.00000000000E+00 -0.60600322943E+03  0.60600322944E+03  0.25500000920E-02 0. -1.
    10030    2    1    2    0    0  0.00000000000E+00  0.00000000000E+00  0.14420215117E+04  0.26540279706E+04  0.22281019789E+04 0.  0.
        1    1    3    3  502    0 -0.14633827479E+03 -0.10103701746E+04  0.12521761389E+04  0.16156137729E+04  0.50400001928E-02 0.  1.
       -1    1    3    3    0  502  0.14633827479E+03  0.10103701746E+04  0.18984537283E+03  0.10384141977E+04  0.50400001928E-02 0. -1.
</event>
<event>
 5   0  0.4132460E-05  0.2206871E+04  0.7818609E-02  0.8515574E-01
       -2   -1    0    0    0  501  0.00000000000E+00  0.00000000000E+00  0.90100541706E+03  0.90100541706E+03  0.25500000920E-02 0.  1.
        2   -1    0    0  501    0  0.00000000000E+00  0.00000000000E+00 -0.13513455850E+04  0.13513455850E+04  0.25500000920E-02 0. -1.
    10030    2    1    2    0    0  0.00000000000E+00  0.00000000000E+00 -0.45034016797E+03  0.22523510021E+04  0.22068708095E+04 0.  0.
        4    1    3    3  502    0  0.48248060330E+03  0.53409889562E+03 -0.10787789014E+04  0.12968479841E+04  0.12699999809E+01 0. -1.
       -4    1    3    3    0  502 -0.48248060330E+03 -0.53409889562E+03  0.62843873342E+03  0.95550301801E+03  0.12699999809E+01 0.  1.
</event>
<event>
 5   0  0.1788413E-05  0.2213146E+04  0.7818609E-02  0.8512976E-01
        1   -1    0    0  501    0  0.00000000000E+00  0.00000000000E+00  0.10602890516E+04  0.10602890516E+04  0.50400001928E-02 0. -1.
       -1   -1    0    0    0  501  0.00000000000E+00  0.00000000000E+00 -0.11548769224E+04  0.11548769225E+04  0.50400001928E-02 0.  1.
    10030    2    1    2    0    0  0.00000000000E+00  0.00000000000E+00 -0.94587870824E+02  0.22151659741E+04  0.22131455956E+04 0.  0.
        1    1    3    3  502    0 -0.17648943075E+03 -0.16778691750E+03  0.10331368968E+04  0.10614484521E+04  0.50400001928E-02 0. -1.
       -1    1    3    3    0  502  0.17648943075E+03  0.16778691750E+03 -0.11277247677E+04  0.11537175220E+04  0.50400001928E-02 0.  1.
</event>
<event>
 5   0  0.1815681E-05  0.2211179E+04  0.7818609E-02  0.8513789E-01
       -1   -1    0    0    0  501  0.00000000000E+00  0.00000000000E+00  0.10392205575E+04  0.10392205575E+04  0.50400001928E-02 0. -1.
        1   -1    0    0  501    0  0.00000000000E+00  0.00000000000E+00 -0.11761972606E+04  0.11761972606E+04  0.50400001928E-02 0.  1.
    10030    2    1    2    0    0  0.00000000000E+00  0.00000000000E+00 -0.13697670307E+03  0.22154178181E+04  0.22111792083E+04 0.  0.
        2    1    3    3  502    0  0.84597242785E+03  0.71025238218E+03 -0.11548859027E+03  0.11106148790E+04  0.25500000920E-02 0.  1.
       -2    1    3    3    0  502 -0.84597242785E+03 -0.71025238218E+03 -0.21488112800E+02  0.11048029390E+04  0.25500000920E-02 0. -1.
</event>
<event>
 5   0  0.1786228E-05  0.2197882E+04  0.7818609E-02  0.8519310E-01
        1   -1    0    0  501    0  0.00000000000E+00  0.00000000000E+00  0.10719696876E+04  0.10719696876E+04  0.50400001928E-02 0.  1.
       -1   -1    0    0    0  501  0.00000000000E+00  0.00000000000E+00 -0.11265909549E+04  0.11265909549E+04  0.50400001928E-02 0. -1.
    10030    2    1    2    0    0  0.00000000000E+00  0.00000000000E+00 -0.54621267244E+02  0.21985606425E+04  0.21978820296E+04 0.  0.
        5    1    3    3  502    0  0.56552987457E+02  0.10268267622E+04  0.36020777079E+03  0.10896527741E+04  0.46999998093E+01 0.  1.
       -5    1    3    3    0  502 -0.56552987457E+02 -0.10268267622E+04 -0.41482903803E+03  0.11089078684E+04  0.46999998093E+01 0. -1.
</event>
<event>
 5   0  0.1433375E-05  0.2187574E+04  0.7818609E-02  0.8523618E-01
       -3   -1    0    0    0  501  0.00000000000E+00  0.00000000000E+00  0.13786620205E+04  0.13786620242E+04  0.10100000352E+00 0.  1.
        3   -1    0    0  501    0  0.00000000000E+00  0.00000000000E+00 -0.86777582940E+03  0.86777583527E+03  0.10100000352E+00 0. -1.
    10030    2    1    2    0    0  0.00000000000E+00  0.00000000000E+00  0.51088619109E+03  0.22464378595E+04  0.21875736230E+04 0.  0.
        4    1    3    3  502    0 -0.33435667876E+03 -0.66763484489E+03 -0.56533709224E+03  0.93655662697E+03  0.12699999809E+01 0. -1.
       -4    1    3    3    0  502  0.33435667876E+03  0.66763484489E+03  0.10762232833E+04  0.13098812325E+04  0.12699999809E+01 0.  1.
</event>
<event>
 5   0  0.1884407E-05  0.2226075E+04  0.7818609E-02  0.8507653E-01
       -1   -1    0    0    0  501  0.00000000000E+00  0.00000000000E+00  0.20624655747E+04  0.20624655747E+04  0.50400001928E-02 0. -1.
        1   -1    0    0  501    0  0.00000000000E+00  0.00000000000E+00 -0.60066571945E+03  0.60066571947E+03  0.50400001928E-02 0.  1.
    10030    2    1    2    0    0  0.00000000000E+00  0.00000000000E+00  0.14617998552E+04  0.26631312941E+04  0.22260749029E+04 0.  0.
        3    1    3    3  502    0  0.95993169942E+03 -0.50779095141E+03  0.10227954669E+04  0.14917878855E+04  0.10100000352E+00 0. -1.
       -3    1    3    3    0  502 -0.95993169942E+03  0.50779095141E+03  0.43900438830E+03  0.11713434087E+04  0.10100000352E+00 0.  1.
</event>
<event>
 5   0  0.4132460E-05  0.2199409E+04  0.7818609E-02  0.8518674E-01
       -2   -1    0    0    0  501  0.00000000000E+00  0.00000000000E+00  0.14533339509E+04  0.14533339509E+04  0.25500000920E-02 0. -1.
        2   -1    0    0  501    0  0.00000000000E+00  0.00000000000E+00 -0.83212145970E+03  0.83212145970E+03  0.25500000920E-02 0.  1.
    10030    2    1    2    0    0  0.00000000000E+00  0.00000000000E+00  0.62121249120E+03  0.22854554106E+04  0.21994093468E+04 0.  0.
        4    1    3    3  502    0 -0.43013418029E+03 -0.22815904308E+02 -0.74081550968E+03  0.85693944408E+03  0.12699999809E+01 0.  1.
       -4    1    3    3    0  502  0.43013418029E+03  0.22815904308E+02  0.13620280009E+04  0.14285159665E+04  0.12699999809E+01 0. -1.
</event>
<event>
 5   0  0.1788413E-05  0.2260660E+04  0.7818609E-02  0.8493596E-01
        1   -1    0    0  501    0  0.00000000000E+00  0.00000000000E+00  0.15349721548E+04  0.15349721548E+04  0.50400001928E-02 0.  1.
       -1   -1    0    0    0  501  0.00000000000E+00  0.00000000000E+00 -0.83235767582E+03  0.83235767584E+03  0.50400001928E-02 0. -1.
    10030    2    1    2    0    0  0.00000000000E+00  0.00000000000E+00  0.70261447896E+03  0.23673298306E+04  0.22606599525E+04 0.  0.
        1    1    3    3  502    0 -0.17370484012E+02  0.80208223860E+03  0.11851246681E+04  0.14311387530E+04  0.50400001928E-02 0.  1.
       -1    1    3    3    0  502  0.17370484012E+02 -0.80208223860E+03 -0.48251018918E+03  0.93619107766E+03  0.50400001928E-02 0. -1.
</event>
<event>
 5   0  0.4027923E-05  0.2220332E+04  0.7818609E-02  0.8510013E-01
        2   -1    0    0  501    0  0.00000000000E+00  0.00000000000E+00  0.17348943433E+04  0.17348943433E+04  0.25500000920E-02 0. -1.
       -2   -1    0    0    0  501  0.00000000000E+00  0.00000000000E+00 -0.71039971309E+03  0.71039971310E+03  0.25500000920E-02 0.  1.
    10030    2    1    2    0    0  0.00000000000E+00  0.00000000000E+00  0.10244946302E+04  0.24452940564E+04  0.22203319065E+04 0.  0.
        5    1    3    3  502    0 -0.56878507353E+02 -0.73117291601E+03  0.14301143137E+04  0.16072019282E+04  0.46999998093E+01 0. -1.
       -5    1    3    3    0  502  0.56878507353E+02  0.73117291601E+03 -0.40561968351E+03  0.83809212820E+03  0.46999998093E+01 0.  1.
</event>
<event>
 5   0  0.4027923E-05  0.2198978E+04  0.7818609E-02  0.8518853E-01
        2   -1    0    0  501    0  0.00000000000E+00  0.00000000000E+00  0.16531849771E+04  0.16531849771E+04  0.25500000920E-02 0.  1.
       -2   -1    0    0    0  501  0.00000000000E+00  0.00000000000E+00 -0.73124094308E+03  0.73124094309E+03  0.25500000920E-02 0. -1.
    10030    2    1    2    0    0  0.00000000000E+00  0.00000000000E+00  0.92194403397E+03  0.23844259201E+04  0.21989784371E+04 0.  0.
        5    1    3    3  502    0 -0.53784146317E+03  0.48564845112E+03 -0.43563905951E+03  0.84553612445E+03  0.46999998093E+01 0. -1.
       -5    1    3    3    0  502  0.53784146317E+03 -0.48564845112E+03  0.13575830935E+04  0.15388897957E+04  0.46999998093E+01 0.  1.
</event>
<event>
 5   0  0.4027923E-05  0.2195469E+04  0.7818609E-02  0.8520316E-01
       -2   -1    0    0    0  501  0.00000000000E+00  0.00000000000E+00  0.10772967541E+04  0.10772967541E+04  0.25500000920E-02 0.  1.
        2   -1    0    0  501    0  0.00000000000E+00  0.00000000000E+00 -0.11185600644E+04  0.11185600644E+04  0.25500000920E-02 0. -1.
    10030    2    1    2    0    0  0.00000000000E+00  0.00000000000E+00 -0.41263310341E+02  0.21958568185E+04  0.21954690858E+04 0.  0.
        5    1    3    3  502    0 -0.46087023929E+03  0.56656102922E+03  0.79902894501E+03  0.10825258067E+04  0.46999998093E+01 0.  1.
       -5    1    3    3    0  502  0.46087023929E+03 -0.56656102922E+03 -0.84029225535E+03  0.11133310117E+04  0.46999998093E+01 0. -1.
</event>
<event>
 5   0  0.4143281E-05  0.2205343E+04  0.7818609E-02  0.8516207E-01
        2   -1    0    0  501    0  0.00000000000E+00  0.00000000000E+00  0.97643760722E+03  0.97643760722E+03  0.25500000920E-02 0. -1.
       -2   -1    0    0    0  501  0.00000000000E+00  0.00000000000E+00 -0.12452250857E+04  0.12452250857E+04  0.25500000920E-02 0.  1.
    10030    2    1    2    0    0  0.00000000000E+00  0.00000000000E+00 -0.26878747853E+03  0.22216626930E+04  0.22053431508E+04 0.  0.
        2    1    3    3  502    0 -0.85247926596E+03  0.68536416784E+03 -0.27485168060E+03  0.11278246263E+04  0.25500000920E-02 0.  1.
       -2    1    3    3    0  502  0.85247926596E+03 -0.68536416784E+03  0.60642020690E+01  0.10938380666E+04  0.25500000920E-02 0. -1.
</event>
<event>
 5   0  0.1866935E-05  0.2193297E+04  0.7818609E-02  0.8521223E-01
       -1   -1    0    0    0  501  0.00000000000E+00  0.00000000000E+00  0.66812608481E+03  0.66812608483E+03  0.50400001928E-02 0. -1.
        1   -1    0    0  501    0  0.00000000000E+00  0.00000000000E+00 -0.18000169929E+04  0.18000169929E+04  0.50400001928E-02 0.  1.
    10030    2    1    2    0    0  0.00000000000E+00  0.00000000000E+00 -0.11318909081E+04  0.24681430777E+04  0.21932973406E+04 0.  0.
        4    1    3    3  502    0 -0.51762199528E+03 -0.62718375967E+03 -0.13939062293E+04  0.16137745157E+04  0.12699999809E+01 0.  1.
       -4    1    3    3    0  502  0.51762199528E+03  0.62718375967E+03  0.26201532123E+03  0.85436856207E+03  0.12699999809E+01 0. -1.
</event>
<event>
 5   0  0.3963414E-05  0.2192650E+04  0.7818609E-02  0.8521494E-01
       -2   -1    0    0    0  501  0.00000000000E+00  0.00000000000E+00  0.10172389867E+04  0.10172389867E+04  0.25500000920E-02 0. -1.
        2   -1    0    0  501    0  0.00000000000E+00  0.00000000000E+00 -0.11815596414E+04  0.11815596414E+04  0.25500000920E-02 0.  1.
    10030    2    1    2    0    0  0.00000000000E+00  0.00000000000E+00 -0.16432065472E+03  0.21987986280E+04  0.21926500243E+04 0.  0.
        1    1    3    3  502    0  0.71146165456E+03  0.79155012799E+03 -0.34595547664E+03  0.11191132574E+04  0.50400001928E-02 0. -1.
       -1    1    3    3    0  502 -0.71146165456E+03 -0.79155012799E+03  0.18163482192E+03  0.10796853706E+04  0.50400001928E-02 0.  1.
</event>
<event>
 5   0  0.4027923E-05  0.2229684E+04  0.7818609E-02  0.8506173E-01
       -2   -1    0    0    0  501  0.00000000000E+00  0.00000000000E+00  0.10047419898E+04  0.10047419898E+04  0.25500000920E-02 0. -1.
        2   -1    0    0  501    0  0.00000000000E+00  0.00000000000E+00 -0.12370072549E+04  0.12370072549E+04  0.25500000920E-02 0.  1.
    10030    2    1    2    0    0  0.00000000000E+00  0.00000000000E+00 -0.23226526515E+03  0.22417492447E+04  0.22296843998E+04 0.  0.
        5    1    3    3  502    0  0.14896098597E+03 -0.42988216030E+03  0.90714809774E+03  0.10148535896E+04  0.46999998093E+01 0. -1.
       -5    1    3    3    0  502 -0.14896098597E+03  0.42988216030E+03 -0.11394133629E+04  0.12268956551E+04  0.46999998093E+01 0.  1.
</event>
<event>
 5   0  0.4132460E-05  0.2180501E+04  0.7818609E-02  0.8526588E-01
       -2   -1    0    0    0  501  0.00000000000E+00  0.00000000000E+00  0.62989990528E+03  0.62989990528E+03  0.25500000920E-02 0.  1.
        2   -1    0    0  501    0  0.00000000000E+00  0.00000000000E+00 -0.18870389957E+04  0.18870389957E+04  0.25500000920E-02 0. -1.
    10030    2    1    2    0    0  0.00000000000E+00  0.00000000000E+00 -0.12571390905E+04  0.25169389010E+04  0.21805005707E+04 0.  0.
        4    1    3    3  502    0  0.78155676052E+03  0.29954024104E+03  0.17785895046E+03  0.85568145070E+03  0.12699999809E+01 0.  1.
       -4    1    3    3    0  502 -0.78155676052E+03 -0.29954024104E+03 -0.14349980409E+04  0.16612574503E+04  0.12699999809E+01 0. -1.
</event>
<event>
 5   0  0.4029532E-05  0.2218073E+04  0.7818609E-02  0.8510943E-01
        2   -1    0    0  501    0  0.00000000000E+00  0.00000000000E+00  0.27032052509E+04  0.27032052509E+04  0.25500000920E-02 0. -1.
       -2   -1    0    0    0  501  0.00000000000E+00  0.00000000000E+00 -0.45500136505E+03  0.45500136506E+03  0.25500000920E-02 0.  1.
    10030    2    1    2    0    0  0.00000000000E+00  0.00000000000E+00  0.22482038858E+04  0.31582066159E+04  0.22180731090E+04 0.  0.
        3    1    3    3  502    0  0.65947472999E+03 -0.39609664380E+03 -0.13342926128E+02  0.76940075033E+03  0.10100000352E+00 0.  1.
       -3    1    3    3    0  502 -0.65947472999E+03  0.39609664380E+03  0.22615468119E+04  0.23888058656E+04  0.10100000352E+00 0. -1.
</event>
<event>
 5   0  0.4027923E-05  0.2197407E+04  0.7818609E-02  0.8519508E-01
       -2   -1    0    0    0  501  0.00000000000E+00  0.00000000000E+00  0.70618805916E+03  0.70618805917E+03  0.25500000920E-02 0. -1.
        2   -1    0    0  501    0  0.00000000000E+00  0.00000000000E+00 -0.17093884372E+04  0.17093884372E+04  0.25500000920E-02 0.  1.
    10030    2    1    2    0    0  0.00000000000E+00  0.00000000000E+00 -0.10032003781E+04  0.24155764964E+04  0.21974072930E+04 0.  0.
        5    1    3    3  502    0  0.42136166348E+02  0.35706107056E+03  0.63967748175E+03  0.73381021748E+03  0.46999998093E+01 0. -1.
       -5    1    3    3    0  502 -0.42136166348E+02 -0.35706107056E+03 -0.16428778598E+04  0.16817662789E+04  0.46999998093E+01 0.  1.
</event>
<event>
 5   0  0.1866935E-05  0.2228807E+04  0.7818609E-02  0.8506533E-01
        1   -1    0    0  501    0  0.00000000000E+00  0.00000000000E+00  0.13914751195E+04  0.13914751195E+04  0.50400001928E-02 0.  1.
       -1   -1    0    0    0  501  0.00000000000E+00  0.00000000000E+00 -0.89250250505E+03  0.89250250506E+03  0.50400001928E-02 0. -1.
    10030    2    1    2    0    0  0.00000000000E+00  0.00000000000E+00  0.49897261445E+03  0.22839776246E+04  0.22288068825E+04 0.  0.
        4    1    3    3  502    0  0.40846232437E+03 -0.97198936338E+03  0.61937636108E+03  0.12227974004E+04  0.12699999809E+01 0.  1.
       -4    1    3    3    0  502 -0.40846232437E+03  0.97198936338E+03 -0.12040374664E+03  0.10611802241E+04  0.12699999809E+01 0. -1.
</event>
<event>
 5   0  0.1884407E-05  0.2258436E+04  0.7818609E-02  0.8494492E-01
       -1   -1    0    0    0  501  0.00000000000E+00  0.00000000000E+00  0.87306411593E+03  0.87306411595E+03  0.50400001928E-02 0.  1.
        1   -1    0    0  501    0  0.00000000000E+00  0.00000000000E+00 -0.14605269211E+04  0.14605269211E+04  0.50400001928E-02 0. -1.
    10030    2    1    2    0    0  0.00000000000E+00  0.00000000000E+00 -0.58746280517E+03  0.23335910371E+04  0.22584363132E+04 0.  0.
        3    1    3    3  502    0  0.48280930733E+03 -0.99956119334E+03 -0.50776259484E+03  0.12206761525E+04  0.10100000352E+00 0. -1.
       -3    1    3    3    0  502 -0.48280930733E+03  0.99956119334E+03 -0.79700210336E+02  0.11129148845E+04  0.10100000352E+00 0.  1.
</event>
<event>
 5   0  0.1786228E-05  0.2218162E+04  0.7818609E-02  0.8510906E-01
        1   -1    0    0  501    0  0.00000000000E+00  0.00000000000E+00  0.14103958283E+04  0.14103958283E+04  0.50400001928E-02 0.  1.
       -1   -1    0    0    0  501  0.00000000000E+00  0.00000000000E+00 -0.87213891244E+03  0.87213891245E+03  0.50400001928E-02 0. -1.
    10030    2    1    2    0    0  0.00000000000E+00  0.00000000000E+00  0.53825691588E+03  0.22825347408E+04  0.22181623781E+04 0.  0.
        5    1    3    3  502    0 -0.27450569821E+03 -0.99486168852E+03  0.68703731412E+03  0.12398167278E+04  0.46999998093E+01 0. -1.
       -5    1    3    3    0  502  0.27450569821E+03  0.99486168852E+03 -0.14878039823E+03  0.10427180130E+04  0.46999998093E+01 0.  1.
</event>
<event>
 5   0  0.3963414E-05  0.2190336E+04  0.7818609E-02  0.8522461E-01
       -2   -1    0    0    0  501  0.00000000000E+00  0.00000000000E+00  0.10901303792E+04  0.10901303792E+04  0.25500000920E-02 0. -1.
        2   -1    0    0  501    0  0.00000000000E+00  0.00000000000E+00 -0.11002291613E+04  0.11002291613E+04  0.25500000920E-02 0.  1.
    10030    2    1    2    0    0  0.00000000000E+00  0.00000000000E+00 -0.10098782174E+02  0.21903595405E+04  0.21903362599E+04 0.  0.
        1    1    3    3  502    0  0.60371152389E+03 -0.85084640414E+02  0.90473290562E+03  0.10909851652E+04  0.50400001928E-02 0. -1.
       -1    1    3    3    0  502 -0.60371152389E+03  0.85084640414E+02 -0.91483168779E+03  0.10993743753E+04  0.50400001928E-02 0.  1.
</event>
<event>
 5   0  0.4027923E-05  0.2176198E+04  0.7818609E-02  0.8528401E-01
       -2   -1    0    0    0  501  0.00000000000E+00  0.00000000000E+00  0.96372407517E+03  0.96372407517E+03  0.25500000920E-02 0. -1.
        2   -1    0    0  501    0  0.00000000000E+00  0.00000000000E+00 -0.12285255835E+04  0.12285255835E+04  0.25500000920E-02 0.  1.
    10030    2    1    2    0    0  0.00000000000E+00  0.00000000000E+00 -0.26480150832E+03  0.21922496587E+04  0.21761982279E+04 0.  0.
        5    1    3    3  502    0 -0.11845267156E+03  0.81960034765E+03 -0.84341250991E+03  0.11820078329E+04  0.46999998093E+01 0.  1.
       -5    1    3    3    0  502  0.11845267156E+03 -0.81960034765E+03  0.57861100159E+03  0.10102418257E+04  0.46999998093E+01 0. -1.
</event>
<event>
 5   0  0.1786228E-05  0.2251222E+04  0.7818609E-02  0.8497406E-01
        1   -1    0    0  501    0  0.00000000000E+00  0.00000000000E+00  0.13664361162E+04  0.13664361162E+04  0.50400001928E-02 0. -1.
       -1   -1    0    0    0  501  0.00000000000E+00  0.00000000000E+00 -0.92722967497E+03  0.92722967498E+03  0.50400001928E-02 0.  1.
    10030    2    1    2    0    0  0.00000000000E+00  0.00000000000E+00  0.43920644124E+03  0.22936657912E+04  0.22512219934E+04 0.  0.
        5    1    3    3  502    0  0.20637537106E+03 -0.10151527592E+02  0.13469380710E+04  0.13627025003E+04  0.46999998093E+01 0. -1.
       -5    1    3    3    0  502 -0.20637537106E+03  0.10151527592E+02 -0.90773162976E+03  0.93096329087E+03  0.46999998093E+01 0.  1.
</event>
<event>
 5   0  0.1788413E-05  0.2198863E+04  0.7818609E-02  0.8518901E-01
        1   -1    0    0  501    0  0.00000000000E+00  0.00000000000E+00  0.16802086577E+04  0.16802086577E+04  0.50400001928E-02 0. -1.
       -1   -1    0    0    0  501  0.00000000000E+00  0.00000000000E+00 -0.71940470224E+03  0.71940470226E+03  0.50400001928E-02 0.  1.
    10030    2    1    2    0    0  0.00000000000E+00  0.00000000000E+00  0.96080395547E+03  0.23996133600E+04  0.21988633510E+04 0.  0.
        1    1    3    3  502    0 -0.62794807387E+03 -0.94927800996E+02  0.14597887150E+04  0.15919526260E+04  0.50400001928E-02 0. -1.
       -1    1    3    3    0  502  0.62794807387E+03  0.94927800996E+02 -0.49898475957E+03  0.80766073396E+03  0.50400001928E-02 0.  1.
</event>
<event>
 5   0  0.4132460E-05  0.2193780E+04  0.7818609E-02  0.8521022E-01
       -2   -1    0    0    0  501  0.00000000000E+00  0.00000000000E+00  0.11970646580E+04  0.11970646580E+04  0.25500000920E-02 0. -1.
        2   -1    0    0  501    0  0.00000000000E+00  0.00000000000E+00 -0.10050980883E+04  0.10050980883E+04  0.25500000920E-02 0.  1.
    10030    2    1    2    0    0  0.00000000000E+00  0.00000000000E+00  0.19196656973E+03  0.22021627463E+04  0.21937797514E+04 0.  0.
        4    1    3    3  502    0  0.99912280254E+02 -0.82954138457E+03  0.80936368626E+03  0.11632680525E+04  0.12699999809E+01 0. -1.
       -4    1    3    3    0  502 -0.99912280254E+02  0.82954138457E+03 -0.61739711653E+03  0.10388946938E+04  0.12699999809E+01 0.  1.
</event>
<event>
 5   0  0.1788413E-05  0.2198675E+04  0.7818609E-02  0.8518980E-01
        1   -1    0    0  501    0  0.00000000000E+00  0.00000000000E+00  0.12064514797E+04  0.12064514797E+04  0.50400001928E-02 0. -1.
       -1   -1    0    0    0  501  0.00000000000E+00  0.00000000000E+00 -0.10017334789E+04  0.10017334789E+04  0.50400001928E-02 0.  1.
    10030    2    1    2    0    0  0.00000000000E+00  0.00000000000E+00  0.20471800076E+03  0.22081849586E+04  0.21986749081E+04 0.  0.
        1    1    3    3  502    0 -0.31670278500E+03 -0.16193134275E+03 -0.94234235081E+03  0.10072395544E+04  0.50400001928E-02 0.  1.
       -1    1    3    3    0  502  0.31670278500E+03  0.16193134275E+03  0.11470603516E+04  0.12009454042E+04  0.50400001928E-02 0. -1.
</event>
<event>
 5   0  0.4132460E-05  0.2201799E+04  0.7818609E-02  0.8517680E-01
       -2   -1    0    0    0  501  0.00000000000E+00  0.00000000000E+00  0.13551967561E+04  0.13551967561E+04  0.25500000920E-02 0.  1.
        2   -1    0    0  501    0  0.00000000000E+00  0.00000000000E+00 -0.89432048344E+03  0.89432048345E+03  0.25500000920E-02 0. -1.
    10030    2    1    2    0    0  0.00000000000E+00  0.00000000000E+00  0.46087627268E+03  0.22495172396E+04  0.22017994624E+04 0.  0.
        4    1    3    3  502    0 -0.18449728226E+02  0.84986884772E+03  0.94514229718E+03  0.12711856771E+04  0.12699999809E+01 0.  1.
       -4    1    3    3    0  502  0.18449728226E+02 -0.84986884772E+03 -0.48426602450E+03  0.97833156250E+03  0.12699999809E+01 0. -1.
</event>
<event>
 5   0  0.3963414E-05  0.2195629E+04  0.7818609E-02  0.8520250E-01
        2   -1    0    0  501    0  0.00000000000E+00  0.00000000000E+00  0.11597831999E+04  0.11597831999E+04  0.25500000920E-02 0. -1.
       -2   -1    0    0    0  501  0.00000000000E+00  0.00000000000E+00 -0.10391568596E+04  0.10391568596E+04  0.25500000920E-02 0.  1.
    10030    2    1    2    0    0  0.00000000000E+00  0.00000000000E+00  0.12062634029E+03  0.21989400594E+04  0.21956289921E+04 0.  0.
        1    1    3    3  502    0  0.48840022602E+03 -0.97045129631E+03  0.21830457198E+03  0.11081368983E+04  0.50400001928E-02 0. -1.
       -1    1    3    3    0  502 -0.48840022602E+03  0.97045129631E+03 -0.97678231696E+02  0.10908031611E+04  0.50400001928E-02 0.  1.
</event>
<event>
 5   0  0.1433375E-05  0.2204302E+04  0.7818609E-02  0.8516640E-01
       -4   -1    0    0    0  501  0.00000000000E+00  0.00000000000E+00  0.12514562772E+04  0.12514569216E+04  0.12699999809E+01 0.  1.
        4   -1    0    0  501    0  0.00000000000E+00  0.00000000000E+00 -0.97065707511E+03  0.97065790593E+03  0.12699999809E+01 0. -1.
    10030    2    1    2    0    0  0.00000000000E+00  0.00000000000E+00  0.28079920205E+03  0.22221148275E+04  0.22043017295E+04 0.  0.
        2    1    3    3  502    0 -0.28723725289E+02 -0.10233604658E+04 -0.27112081170E+03  0.10590553290E+04  0.25500000920E-02 0. -1.
       -2    1    3    3    0  502  0.28723725289E+02  0.10233604658E+04  0.55192001375E+03  0.11630594985E+04  0.25500000920E-02 0.  1.
</event>
<event>
 5   0  0.1788413E-05  0.2167880E+04  0.7818609E-02  0.8531917E-01
       -1   -1    0    0    0  501  0.00000000000E+00  0.00000000000E+00  0.75303914752E+03  0.75303914753E+03  0.50400001928E-02 0.  1.
        1   -1    0    0  501    0  0.00000000000E+00  0.00000000000E+00 -0.15602448911E+04  0.15602448911E+04  0.50400001928E-02 0. -1.
    10030    2    1    2    0    0  0.00000000000E+00  0.00000000000E+00 -0.80720574360E+03  0.23132840387E+04  0.21678795933E+04 0.  0.
        1    1    3    3  502    0 -0.56656383309E+03 -0.95978086024E+02  0.57712826639E+03  0.81442213001E+03  0.50400001928E-02 0.  1.
       -1    1    3    3    0  502  0.56656383309E+03  0.95978086024E+02 -0.13843340100E+04  0.14988619086E+04  0.50400001928E-02 0. -1.
</event>
<event>
 5   0  0.1433375E-05  0.2145082E+04  0.7818609E-02  0.8541640E-01
       -3   -1    0    0    0  501  0.00000000000E+00  0.00000000000E+00  0.57512620123E+03  0.57512621010E+03  0.10100000352E+00 0. -1.
        3   -1    0    0  501    0  0.00000000000E+00  0.00000000000E+00 -0.20001595296E+04  0.20001595322E+04  0.10100000352E+00 0.  1.
    10030    2    1    2    0    0  0.00000000000E+00  0.00000000000E+00 -0.14250333284E+04  0.25752857423E+04  0.21450819722E+04 0.  0.
        2    1    3    3  502    0  0.85516975181E+03 -0.33928074111E+03 -0.13743663126E+04  0.16538771075E+04  0.25500000920E-02 0.  1.
       -2    1    3    3    0  502 -0.85516975181E+03  0.33928074111E+03 -0.50667015830E+02  0.92140863475E+03  0.25500000920E-02 0. -1.
</event>
<event>
 5   0  0.4132460E-05  0.2211236E+04  0.7818609E-02  0.8513766E-01
       -2   -1    0    0    0  501  0.00000000000E+00  0.00000000000E+00  0.69409834038E+03  0.69409834038E+03  0.25500000920E-02 0.  1.
        2   -1    0    0  501    0  0.00000000000E+00  0.00000000000E+00 -0.17611217479E+04  0.17611217479E+04  0.25500000920E-02 0. -1.
    10030    2    1    2    0    0  0.00000000000E+00  0.00000000000E+00 -0.10670234075E+04  0.24552200883E+04  0.22112364708E+04 0.  0.
        4    1    3    3  502    0  0.90625971655E+03  0.59757404872E+03 -0.30063525663E+03  0.11264033860E+04  0.12699999809E+01 0. -1.
       -4    1    3    3    0  502 -0.90625971655E+03 -0.59757404872E+03 -0.76638815088E+03  0.13288167023E+04  0.12699999809E+01 0.  1.
</event>
<event>
 5   0  0.1866935E-05  0.2197783E+04  0.7818609E-02  0.8519352E-01
       -1   -1    0    0    0  501  0.00000000000E+00  0.00000000000E+00  0.15335002607E+04  0.15335002607E+04  0.50400001928E-02 0.  1.
        1   -1    0    0  501    0  0.00000000000E+00  0.00000000000E+00 -0.78745492686E+03  0.78745492687E+03  0.50400001928E-02 0. -1.
    10030    2    1    2    0    0  0.00000000000E+00  0.00000000000E+00  0.74604533383E+03  0.23209551876E+04  0.21977828242E+04 0.  0.
        4    1    3    3  502    0 -0.75517976810E+03 -0.62715095833E+03 -0.14856673229E+03  0.99281845950E+03  0.12699999809E+01 0. -1.
       -4    1    3    3    0  502  0.75517976810E+03  0.62715095833E+03  0.89461206612E+03  0.13281367281E+04  0.12699999809E+01 0.  1.
</event>
<event>
 5   0  0.4132460E-05  0.2173844E+04  0.7818609E-02  0.8529395E-01
        2   -1    0    0  501    0  0.00000000000E+00  0.00000000000E+00  0.14107412586E+04  0.14107412586E+04  0.25500000920E-02 0. -1.
       -2   -1    0    0    0  501  0.00000000000E+00  0.00000000000E+00 -0.83743136031E+03  0.83743136031E+03  0.25500000920E-02 0.  1.
    10030    2    1    2    0    0  0.00000000000E+00  0.00000000000E+00  0.57330989831E+03  0.22481726189E+04  0.21738435742E+04 0.  0.
        4    1    3    3  502    0 -0.65704645781E+03 -0.40127254131E+03  0.10801358036E+04  0.13264330617E+04  0.12699999809E+01 0. -1.
       -4    1    3    3    0  502  0.65704645781E+03  0.40127254131E+03 -0.50682590529E+03  0.92173955720E+03  0.12699999809E+01 0.  1.
</event>
<event>
 5   0  0.1815681E-05  0.2185214E+04  0.7818609E-02  0.8524608E-01
        1   -1    0    0  501    0  0.00000000000E+00  0.00000000000E+00  0.14760965064E+04  0.14760965064E+04  0.50400001928E-02 0. -1.
       -1   -1    0    0    0  501  0.00000000000E+00  0.00000000000E+00 -0.80874763100E+03  0.80874763101E+03  0.50400001928E-02 0.  1.
    10030    2    1    2    0    0  0.00000000000E+00  0.00000000000E+00  0.66734887540E+03  0.22848441374E+04  0.21852135390E+04 0.  0.
        2    1    3    3  502    0 -0.67084650383E+03  0.19453626206E+03  0.12121656358E+04  0.13990085481E+04  0.25500000920E-02 0. -1.
       -2    1    3    3    0  502  0.67084650383E+03 -0.19453626206E+03 -0.54481676039E+03  0.88583558936E+03  0.25500000920E-02 0.  1.
</event>
<event>
 5   0  0.3963414E-05  0.2201499E+04  0.7818609E-02  0.8517804E-01
       -2   -1    0    0    0  501  0.00000000000E+00  0.00000000000E+00  0.15359708616E+04  0.15359708616E+04  0.25500000920E-02 0. -1.
        2   -1    0    0  501    0  0.00000000000E+00  0.00000000000E+00 -0.78884937749E+03  0.78884937750E+03  0.25500000920E-02 0.  1.
    10030    2    1    2    0    0  0.00000000000E+00  0.00000000000E+00  0.74712148407E+03  0.23248202391E+04  0.22014991783E+04 0.  0.
        1    1    3    3  502    0 -0.35844235744E+03 -0.69202818979E+03 -0.44732899946E+03  0.89860290054E+03  0.50400001928E-02 0.  1.
       -1    1    3    3    0  502  0.35844235744E+03  0.69202818979E+03  0.11944504835E+04  0.14262173385E+04  0.50400001928E-02 0. -1.
</event>
<event>
 5   0  0.1884407E-05  0.2140788E+04  0.7818609E-02  0.8543486E-01
        1   -1    0    0  501    0  0.00000000000E+00  0.00000000000E+00  0.19604894245E+04  0.19604894245E+04  0.50400001928E-02 0. -1.
       -1   -1    0    0    0  501  0.00000000000E+00  0.00000000000E+00 -0.58441704391E+03  0.58441704394E+03  0.50400001928E-02 0.  1.
    10030    2    1    2    0    0  0.00000000000E+00  0.00000000000E+00  0.13760723806E+04  0.25449064684E+04  0.21407881111E+04 0.  0.
        3    1    3    3  502    0 -0.85089085642E+03 -0.64726525879E+03  0.62540410763E+03  0.12385870469E+04  0.10100000352E+00 0. -1.
       -3    1    3    3    0  502  0.85089085642E+03  0.64726525879E+03  0.75066827296E+03  0.13063194215E+04  0.10100000352E+00 0.  1.
</event>
<event>
 5   0  0.1788413E-05  0.2191912E+04  0.7818609E-02  0.8521802E-01
        1   -1    0    0  501    0  0.00000000000E+00  0.00000000000E+00  0.13997365396E+04  0.13997365396E+04  0.50400001928E-02 0. -1.
       -1   -1    0    0    0  501  0.00000000000E+00  0.00000000000E+00 -0.85810403522E+03  0.85810403524E+03  0.50400001928E-02 0.  1.
    10030    2    1    2    0    0  0.00000000000E+00  0.00000000000E+00  0.54163250438E+03  0.22578405748E+04  0.21919120173E+04 0.  0.
        1    1    3    3  502    0  0.68967901155E+03 -0.52614096891E+03  0.96076723735E+03  0.12944323631E+04  0.50400001928E-02 0. -1.
       -1    1    3    3    0  502 -0.68967901155E+03  0.52614096891E+03 -0.41913473298E+03  0.96340821179E+03  0.50400001928E-02 0.  1.
</event>
<event>
 5   0  0.1884407E-05  0.2208664E+04  0.7818609E-02  0.8514831E-01
        1   -1    0    0  501    0  0.00000000000E+00  0.00000000000E+00  0.10534466543E+04  0.10534466543E+04  0.50400001928E-02 0. -1.
       -1   -1    0    0    0  501  0.00000000000E+00  0.00000000000E+00 -0.11576754336E+04  0.11576754336E+04  0.50400001928E-02 0.  1.
    10030    2    1    2    0    0  0.00000000000E+00  0.00000000000E+00 -0.10422877937E+03  0.22111220879E+04  0.22086641323E+04 0.  0.
        3    1    3    3  502    0 -0.22309860150E+03  0.87240080503E+03  0.58788819016E+03  0.10753923400E+04  0.10100000352E+00 0. -1.
       -3    1    3    3    0  502  0.22309860150E+03 -0.87240080503E+03 -0.69211696952E+03  0.11357297479E+04  0.10100000352E+00 0.  1.
</event>
<event>
 5   0  0.4029532E-05  0.2202714E+04  0.7818609E-02  0.8517299E-01
        2   -1    0    0  501    0  0.00000000000E+00  0.00000000000E+00  0.12006523849E+04  0.12006523849E+04  0.25500000920E-02 0. -1.
       -2   -1    0    0    0  501  0.00000000000E+00  0.00000000000E+00 -0.10102734120E+04  0.10102734120E+04  0.25500000920E-02 0.  1.
    10030    2    1    2    0    0  0.00000000000E+00  0.00000000000E+00  0.19037897292E+03  0.22109257969E+04  0.22027139456E+04 0.  0.
        3    1    3    3  502    0 -0.72484329872E+01 -0.15429749512E+03  0.11897257884E+04  0.11997115147E+04  0.10100000352E+00 0. -1.
       -3    1    3    3    0  502  0.72484329872E+01  0.15429749512E+03 -0.99934681546E+03  0.10112142822E+04  0.10100000352E+00 0.  1.
</event>
<event>
 5   0  0.4143281E-05  0.2199846E+04  0.7818609E-02  0.8518492E-01
       -2   -1    0    0    0  501  0.00000000000E+00  0.00000000000E+00  0.78048681977E+03  0.78048681977E+03  0.25500000920E-02 0. -1.
        2   -1    0    0  501    0  0.00000000000E+00  0.00000000000E+00 -0.15500973757E+04  0.15500973757E+04  0.25500000920E-02 0.  1.
    10030    2    1    2    0    0  0.00000000000E+00  0.00000000000E+00 -0.76961055592E+03  0.23305841955E+04  0.21998459683E+04 0.  0.
        2    1    3    3  502    0  0.12424591282E+02 -0.21283361755E+02  0.78019428654E+03  0.78058342073E+03  0.25500000920E-02 0. -1.
       -2    1    3    3    0  502 -0.12424591282E+02  0.21283361755E+02 -0.15498048425E+04  0.15500007747E+04  0.25500000920E-02 0.  1.
</event>
<event>
 5   0  0.1866935E-05  0.2280841E+04  0.7818609E-02  0.8485514E-01
       -1   -1    0    0    0  501  0.00000000000E+00  0.00000000000E+00  0.10090070899E+04  0.10090070899E+04  0.50400001928E-02 0. -1.
        1   -1    0    0  501    0  0.00000000000E+00  0.00000000000E+00 -0.12889494070E+04  0.12889494070E+04  0.50400001928E-02 0.  1.
    10030    2    1    2    0    0  0.00000000000E+00  0.00000000000E+00 -0.27994231707E+03  0.22979564969E+04  0.22808411521E+04 0.  0.
        4    1    3    3  502    0 -0.23552656196E+03  0.10259173908E+04 -0.58210153109E+03  0.12028395818E+04  0.12699999809E+01 0.  1.
       -4    1    3    3    0  502  0.23552656196E+03 -0.10259173908E+04  0.30215921402E+03  0.10951169151E+04  0.12699999809E+01 0. -1.
</event>
<event>
 5   0  0.3963414E-05  0.2206123E+04  0.7818609E-02  0.8515884E-01
        2   -1    0    0  501    0  0.00000000000E+00  0.00000000000E+00  0.11311655740E+04  0.11311655740E+04  0.25500000920E-02 0. -1.
       -2   -1    0    0    0  501  0.00000000000E+00  0.00000000000E+00 -0.10756561452E+04  0.10756561452E+04  0.25500000920E-02 0.  1.
    10030    2    1    2    0    0  0.00000000000E+00  0.00000000000E+00  0.55509428836E+02  0.22068217192E+04  0.22061234788E+04 0.  0.
        1    1    3    3  502    0 -0.89090514200E+03 -0.51440262346E+03 -0.37039534259E+03  0.10933959671E+04  0.50400001928E-02 0.  1.
       -1    1    3    3    0  502  0.89090514200E+03  0.51440262346E+03  0.42590477142E+03  0.11134257521E+04  0.50400001928E-02 0. -1.
</event>
<event>
 5   0  0.4027923E-05  0.2196962E+04  0.7818609E-02  0.8519694E-01
        2   -1    0    0  501    0  0.00000000000E+00  0.00000000000E+00  0.23216557233E+04  0.23216557233E+04  0.25500000920E-02 0. -1.
       -2   -1    0    0    0  501  0.00000000000E+00  0.00000000000E+00 -0.51974120428E+03  0.51974120429E+03  0.25500000920E-02 0.  1.
    10030    2    1    2    0    0  0.00000000000E+00  0.00000000000E+00  0.18019145191E+04  0.28413969276E+04  0.21969616670E+04 0.  0.
        5    1    3    3  502    0  0.15411392501E+03  0.66301644056E+03 -0.21408253881E+03  0.71357923580E+03  0.46999998093E+01 0.  1.
       -5    1    3    3    0  502 -0.15411392501E+03 -0.66301644056E+03  0.20159970579E+04  0.21278176918E+04  0.46999998093E+01 0. -1.
</event>
<event>
 5   0  0.1866935E-05  0.1990320E+04  0.7818609E-02  0.8611160E-01
       -1   -1    0    0    0  501  0.00000000000E+00  0.00000000000E+00  0.10277048877E+04  0.10277048878E+04  0.50400001928E-02 0.  1.
        1   -1    0    0  501    0  0.00000000000E+00  0.00000000000E+00 -0.96364620421E+03  0.96364620422E+03  0.50400001928E-02 0. -1.
    10030    2    1    2    0    0  0.00000000000E+00  0.00000000000E+00  0.64058683532E+02  0.19913510920E+04  0.19903204909E+04 0.  0.
        4    1    3    3  502    0  0.18698445040E+03  0.48325879125E+03  0.88208098599E+03  0.10230203922E+04  0.12699999809E+01 0.  1.
       -4    1    3    3    0  502 -0.18698445040E+03 -0.48325879125E+03 -0.81802230245E+03  0.96833069983E+03  0.12699999809E+01 0. -1.
</event>
<event>
 5   0  0.3963414E-05  0.2203050E+04  0.7818609E-02  0.8517160E-01
       -2   -1    0    0    0  501  0.00000000000E+00  0.00000000000E+00  0.16416609494E+04  0.16416609494E+04  0.25500000920E-02 0.  1.
        2   -1    0    0  501    0  0.00000000000E+00  0.00000000000E+00 -0.73910338747E+03  0.73910338748E+03  0.25500000920E-02 0. -1.
    10030    2    1    2    0    0  0.00000000000E+00  0.00000000000E+00  0.90255756195E+03  0.23807643369E+04  0.22030498576E+04 0.  0.
        1    1    3    3  502    0  0.52269005994E+03 -0.25875853385E+03  0.14611082115E+04  0.15732126631E+04  0.50400001928E-02 0.  1.
       -1    1    3    3    0  502 -0.52269005994E+03  0.25875853385E+03 -0.55855064960E+03  0.80755167376E+03  0.50400001928E-02 0. -1.
</event>
<event>
 5   0  0.1788413E-05  0.2204255E+04  0.7818609E-02  0.8516659E-01
        1   -1    0    0  501    0  0.00000000000E+00  0.00000000000E+00  0.12605927544E+04  0.12605927544E+04  0.50400001928E-02 0. -1.
       -1   -1    0    0    0  501  0.00000000000E+00  0.00000000000E+00 -0.96358251106E+03  0.96358251107E+03  0.50400001928E-02 0.  1.
    10030    2    1    2    0    0  0.00000000000E+00  0.00000000000E+00  0.29701024333E+03  0.22241752655E+04  0.22042550957E+04 0.  0.
        1    1    3    3  502    0 -0.51026376983E+03  0.95594199993E+03  0.35154713915E+03  0.11392013049E+04  0.50400001928E-02 0. -1.
       -1    1    3    3    0  502  0.51026376983E+03 -0.95594199993E+03 -0.54536895822E+02  0.10849739606E+04  0.50400001928E-02 0.  1.
</event>
<event>
 5   0  0.3963414E-05  0.2198076E+04  0.7818609E-02  0.8519229E-01
       -2   -1    0    0    0  501  0.00000000000E+00  0.00000000000E+00  0.67236507676E+03  0.67236507676E+03  0.25500000920E-02 0.  1.
        2   -1    0    0  501    0  0.00000000000E+00  0.00000000000E+00 -0.17964706919E+04  0.17964706919E+04  0.25500000920E-02 0. -1.
    10030    2    1    2    0    0  0.00000000000E+00  0.00000000000E+00 -0.11241056151E+04  0.24688357686E+04  0.21980756626E+04 0.  0.
        1    1    3    3  502    0  0.80018293471E+03  0.56649397433E+03 -0.42084891321E+01  0.98042126831E+03  0.50400001928E-02 0.  1.
       -1    1    3    3    0  502 -0.80018293471E+03 -0.56649397433E+03 -0.11198971260E+04  0.14884145003E+04  0.50400001928E-02 0. -1.
</event>
<event>
 5   0  0.1866935E-05  0.2069613E+04  0.7818609E-02  0.8574748E-01
       -1   -1    0    0    0  501  0.00000000000E+00  0.00000000000E+00  0.72652209190E+03  0.72652209192E+03  0.50400001928E-02 0.  1.
        1   -1    0    0  501    0  0.00000000000E+00  0.00000000000E+00 -0.14739050108E+04  0.14739050108E+04  0.50400001928E-02 0. -1.
    10030    2    1    2    0    0  0.00000000000E+00  0.00000000000E+00 -0.74738291891E+03  0.22004271027E+04  0.20696130573E+04 0.  0.
        4    1    3    3  502    0 -0.99674283208E+03  0.20360897558E+03 -0.57505638438E+03  0.11686078668E+04  0.12699999809E+01 0. -1.
       -4    1    3    3    0  502  0.99674283208E+03 -0.20360897558E+03 -0.17232653453E+03  0.10318192359E+04  0.12699999809E+01 0.  1.
</event>
<event>
 5   0  0.4143281E-05  0.2192109E+04  0.7818609E-02  0.8521720E-01
       -2   -1    0    0    0  501  0.00000000000E+00  0.00000000000E+00  0.54628611865E+03  0.54628611865E+03  0.25500000920E-02 0. -1.
        2   -1    0    0  501    0  0.00000000000E+00  0.00000000000E+00 -0.21990947281E+04  0.21990947281E+04  0.25500000920E-02 0.  1.
    10030    2    1    2    0    0  0.00000000000E+00  0.00000000000E+00 -0.16528086095E+04  0.27453808468E+04  0.21921085042E+04 0.  0.
        2    1    3    3  502    0  0.33006197143E+03 -0.36414519713E+03 -0.20533608506E+04  0.21113581914E+04  0.25500000920E-02 0.  1.
       -2    1    3    3    0  502 -0.33006197143E+03  0.36414519713E+03  0.40055224116E+03  0.63402265534E+03  0.25500000920E-02 0. -1.
</event>
<event>
 5   0  0.4143281E-05  0.2179156E+04  0.7818609E-02  0.8527154E-01
        2   -1    0    0  501    0  0.00000000000E+00  0.00000000000E+00  0.11282803177E+04  0.11282803177E+04  0.25500000920E-02 0. -1.
       -2   -1    0    0    0  501  0.00000000000E+00  0.00000000000E+00 -0.10522029272E+04  0.10522029272E+04  0.25500000920E-02 0.  1.
    10030    2    1    2    0    0  0.00000000000E+00  0.00000000000E+00  0.76077390480E+02  0.21804832449E+04  0.21791556649E+04 0.  0.
        2    1    3    3  502    0 -0.10507782698E+03  0.86081699825E+03  0.69808637618E+03  0.11132707859E+04  0.25500000920E-02 0. -1.
       -2    1    3    3    0  502  0.10507782698E+03 -0.86081699825E+03 -0.62200898570E+03  0.10672124589E+04  0.25500000920E-02 0.  1.
</event>
<event>
 5   0  0.1866935E-05  0.2318839E+04  0.7818609E-02  0.8470530E-01
       -1   -1    0    0    0  501  0.00000000000E+00  0.00000000000E+00  0.15673530648E+04  0.15673530648E+04  0.50400001928E-02 0.  1.
        1   -1    0    0  501    0  0.00000000000E+00  0.00000000000E+00 -0.85765864177E+03  0.85765864179E+03  0.50400001928E-02 0. -1.
    10030    2    1    2    0    0  0.00000000000E+00  0.00000000000E+00  0.70969442305E+03  0.24250117066E+04  0.23188392793E+04 0.  0.
        4    1    3    3  502    0  0.45797631370E+03 -0.25959172621E+03 -0.72546740533E+03  0.89634521102E+03  0.12699999809E+01 0. -1.
       -4    1    3    3    0  502 -0.45797631370E+03  0.25959172621E+03  0.14351618284E+04  0.15286664956E+04  0.12699999809E+01 0.  1.
</event>
<event>
 5   0  0.1786228E-05  0.2204370E+04  0.7818609E-02  0.8516612E-01
        1   -1    0    0  501    0  0.00000000000E+00  0.00000000000E+00  0.10696790333E+04  0.10696790333E+04  0.50400001928E-02 0. -1.
       -1   -1    0    0    0  501  0.00000000000E+00  0.00000000000E+00 -0.11356783875E+04  0.11356783875E+04  0.50400001928E-02 0.  1.
    10030    2    1    2    0    0  0.00000000000E+00  0.00000000000E+00 -0.65999354133E+02  0.22053574208E+04  0.22043696239E+04 0.  0.
        5    1    3    3  502    0  0.96907924979E+03 -0.88584850359E+02  0.48475266422E+03  0.10871840247E+04  0.46999998093E+01 0. -1.
       -5    1    3    3    0  502 -0.96907924979E+03  0.88584850359E+02 -0.55075201835E+03  0.11181733961E+04  0.46999998093E+01 0.  1.
</event>
<event>
 5   0  0.1815681E-05  0.2198184E+04  0.7818609E-02  0.8519185E-01
       -1   -1    0    0    0  501  0.00000000000E+00  0.00000000000E+00  0.53255561306E+03  0.53255561308E+03  0.50400001928E-02 0.  1.
        1   -1    0    0  501    0  0.00000000000E+00  0.00000000000E+00 -0.22683127848E+04  0.22683127848E+04  0.50400001928E-02 0. -1.
    10030    2    1    2    0    0  0.00000000000E+00  0.00000000000E+00 -0.17357571718E+04  0.28008683979E+04  0.21981835281E+04 0.  0.
        2    1    3    3  502    0  0.78351818685E+02 -0.10941784365E+04 -0.95464644531E+03  0.14542060700E+04  0.25500000920E-02 0.  1.
       -2    1    3    3    0  502 -0.78351818685E+02  0.10941784365E+04 -0.78111072647E+03  0.13466623279E+04  0.25500000920E-02 0. -1.
</event>
<event>
 5   0  0.4029532E-05  0.2214876E+04  0.7818609E-02  0.8512262E-01
        2   -1    0    0  501    0  0.00000000000E+00  0.00000000000E+00  0.19392510365E+04  0.19392510365E+04  0.25500000920E-02 0. -1.
       -2   -1    0    0    0  501  0.00000000000E+00  0.00000000000E+00 -0.63241859781E+03  0.63241859782E+03  0.25500000920E-02 0.  1.
    10030    2    1    2    0    0  0.00000000000E+00  0.00000000000E+00  0.13068324387E+04  0.25716696343E+04  0.22148755462E+04 0.  0.
        3    1    3    3  502    0 -0.88627656410E+03  0.62686519587E+03  0.90772483296E+03  0.14150655478E+04  0.10100000352E+00 0.  1.
       -3    1    3    3    0  502  0.88627656410E+03 -0.62686519587E+03  0.39910760571E+03  0.11566040865E+04  0.10100000352E+00 0. -1.
</event>
<event>
 5   0  0.1815681E-05  0.2221024E+04  0.7818609E-02  0.8509728E-01
       -1   -1    0    0    0  501  0.00000000000E+00  0.00000000000E+00  0.70958476933E+03  0.70958476935E+03  0.50400001928E-02 0. -1.
        1   -1    0    0  501    0  0.00000000000E+00  0.00000000000E+00 -0.17379692502E+04  0.17379692502E+04  0.50400001928E-02 0.  1.
    10030    2    1    2    0    0  0.00000000000E+00  0.00000000000E+00 -0.10283844808E+04  0.24475540195E+04  0.22210236464E+04 0.  0.
        2    1    3    3  502    0 -0.67818329924E+03 -0.30654661681E+03  0.39408930326E+03  0.84214594614E+03  0.25500000920E-02 0. -1.
       -2    1    3    3    0  502  0.67818329924E+03  0.30654661681E+03 -0.14224737841E+04  0.16054080734E+04  0.25500000920E-02 0.  1.
</event>
<event>
 5   0  0.1788413E-05  0.2205427E+04  0.7818609E-02  0.8516173E-01
        1   -1    0    0  501    0  0.00000000000E+00  0.00000000000E+00  0.13755609332E+04  0.13755609332E+04  0.50400001928E-02 0. -1.
       -1   -1    0    0    0  501  0.00000000000E+00  0.00000000000E+00 -0.88398605588E+03  0.88398605589E+03  0.50400001928E-02 0.  1.
    10030    2    1    2    0    0  0.00000000000E+00  0.00000000000E+00  0.49157487732E+03  0.22595469891E+04  0.22054266562E+04 0.  0.
        1    1    3    3  502    0 -0.37581020466E+03 -0.10980149664E+03 -0.81037676229E+03  0.90000009748E+03  0.50400001928E-02 0.  1.
       -1    1    3    3    0  502  0.37581020466E+03  0.10980149664E+03  0.13019516396E+04  0.13595468916E+04  0.50400001928E-02 0. -1.
</event>
<event>
 5   0  0.3963414E-05  0.2205087E+04  0.7818609E-02  0.8516314E-01
        2   -1    0    0  501    0  0.00000000000E+00  0.00000000000E+00  0.98161420599E+03  0.98161420599E+03  0.25500000920E-02 0. -1.
       -2   -1    0    0    0  501  0.00000000000E+00  0.00000000000E+00 -0.12383708576E+04  0.12383708576E+04  0.25500000920E-02 0.  1.
    10030    2    1    2    0    0  0.00000000000E+00  0.00000000000E+00 -0.25675665162E+03  0.22199850636E+04  0.22050872328E+04 0.  0.
        1    1    3    3  502    0  0.81767377905E+03  0.71882429192E+03 -0.30363387598E+03  0.11302620503E+04  0.50400001928E-02 0.  1.
       -1    1    3    3    0  502 -0.81767377905E+03 -0.71882429192E+03  0.46877224361E+02  0.10897230133E+04  0.50400001928E-02 0. -1.
</event>
<event>
 5   0  0.1786228E-05  0.2174006E+04  0.7818609E-02  0.8529326E-01
       -1   -1    0    0    0  501  0.00000000000E+00  0.00000000000E+00  0.12769652237E+04  0.12769652237E+04  0.50400001928E-02 0.  1.
        1   -1    0    0  501    0  0.00000000000E+00  0.00000000000E+00 -0.92529965132E+03  0.92529965134E+03  0.50400001928E-02 0. -1.
    10030    2    1    2    0    0  0.00000000000E+00  0.00000000000E+00  0.35166557240E+03  0.22022648751E+04  0.21740059579E+04 0.  0.
        5    1    3    3  502    0 -0.62947106085E+03 -0.47580171196E+02 -0.72057402739E+03  0.95799097496E+03  0.46999998093E+01 0. -1.
       -5    1    3    3    0  502  0.62947106085E+03  0.47580171196E+02  0.10722395998E+04  0.12442739001E+04  0.46999998093E+01 0.  1.
</event>
<event>
 5   0  0.1786228E-05  0.2191073E+04  0.7818609E-02  0.8522153E-01
        1   -1    0    0  501    0  0.00000000000E+00  0.00000000000E+00  0.13626682268E+04  0.13626682268E+04  0.50400001928E-02 0. -1.
       -1   -1    0    0    0  501  0.00000000000E+00  0.00000000000E+00 -0.88077206787E+03  0.88077206789E+03  0.50400001928E-02 0.  1.
    10030    2    1    2    0    0  0.00000000000E+00  0.00000000000E+00  0.48189615892E+03  0.22434402947E+04  0.21910728988E+04 0.  0.
        5    1    3    3  502    0 -0.94227448206E+03  0.36301976032E+02  0.81193112473E+03  0.12443686248E+04  0.46999998093E+01 0. -1.
       -5    1    3    3    0  502  0.94227448206E+03 -0.36301976032E+02 -0.33003496581E+03  0.99907166993E+03  0.46999998093E+01 0.  1.
</event>
<event>
 5   0  0.4143281E-05  0.2206456E+04  0.7818609E-02  0.8515746E-01
       -2   -1    0    0    0  501  0.00000000000E+00  0.00000000000E+00  0.61993545533E+03  0.61993545534E+03  0.25500000920E-02 0. -1.
        2   -1    0    0  501    0  0.00000000000E+00  0.00000000000E+00 -0.19632882999E+04  0.19632882999E+04  0.25500000920E-02 0.  1.
    10030    2    1    2    0    0  0.00000000000E+00  0.00000000000E+00 -0.13433528446E+04  0.25832237552E+04  0.22064560056E+04 0.  0.
        2    1    3    3  502    0  0.78411936861E+03 -0.52444176269E+03 -0.13413961574E+04  0.16398859709E+04  0.25500000920E-02 0. -1.
       -2    1    3    3    0  502 -0.78411936861E+03  0.52444176269E+03 -0.19566872138E+01  0.94333778431E+03  0.25500000920E-02 0.  1.
</event>
<event>
 5   0  0.4143281E-05  0.2185670E+04  0.7818609E-02  0.8524416E-01
       -2   -1    0    0    0  501  0.00000000000E+00  0.00000000000E+00  0.67643618118E+03  0.67643618119E+03  0.25500000920E-02 0.  1.
        2   -1    0    0  501    0  0.00000000000E+00  0.00000000000E+00 -0.17655596935E+04  0.17655596935E+04  0.25500000920E-02 0. -1.
    10030    2    1    2    0    0  0.00000000000E+00  0.00000000000E+00 -0.10891235123E+04  0.24419958747E+04  0.21856701094E+04 0.  0.
        2    1    3    3  502    0 -0.92929705473E+03 -0.57345271024E+03 -0.49653930776E+03  0.11995800561E+04  0.25500000920E-02 0. -1.
       -2    1    3    3    0  502  0.92929705473E+03  0.57345271024E+03 -0.59258420456E+03  0.12424158186E+04  0.25500000920E-02 0.  1.
</event>
<event>
 5   0  0.1884407E-05  0.2188863E+04  0.7818609E-02  0.8523078E-01
        1   -1    0    0  501    0  0.00000000000E+00  0.00000000000E+00  0.23422357884E+04  0.23422357884E+04  0.50400001928E-02 0.  1.
       -1   -1    0    0    0  501  0.00000000000E+00  0.00000000000E+00 -0.51138325314E+03  0.51138325317E+03  0.50400001928E-02 0. -1.
    10030    2    1    2    0    0  0.00000000000E+00  0.00000000000E+00  0.18308525352E+04  0.28536190415E+04  0.21888628620E+04 0.  0.
        3    1    3    3  502    0  0.12098806558E+03  0.12372004583E+03  0.23242876227E+04  0.23307204304E+04  0.10100000352E+00 0.  1.
       -3    1    3    3    0  502 -0.12098806558E+03 -0.12372004583E+03 -0.49343508746E+03  0.52289861110E+03  0.10100000352E+00 0. -1.
</event>
<event>
 5   0  0.4027923E-05  0.2188000E+04  0.7818609E-02  0.8523440E-01
        2   -1    0    0  501    0  0.00000000000E+00  0.00000000000E+00  0.13699157972E+04  0.13699157972E+04  0.25500000920E-02 0. -1.
       -2   -1    0    0    0  501  0.00000000000E+00  0.00000000000E+00 -0.87365642535E+03  0.87365642536E+03  0.25500000920E-02 0.  1.
    10030    2    1    2    0    0  0.00000000000E+00  0.00000000000E+00  0.49625937185E+03  0.22435722226E+04  0.21879997609E+04 0.  0.
        5    1    3    3  502    0  0.55336574113E+03 -0.31732127231E+03 -0.66321113686E+03  0.92020515939E+03  0.46999998093E+01 0.  1.
       -5    1    3    3    0  502 -0.55336574113E+03  0.31732127231E+03  0.11594705087E+04  0.13233670632E+04  0.46999998093E+01 0. -1.
</event>
<event>
 5   0  0.1866935E-05  0.2205206E+04  0.7818609E-02  0.8516264E-01
       -1   -1    0    0    0  501  0.00000000000E+00  0.00000000000E+00  0.16088876397E+04  0.16088876397E+04  0.50400001928E-02 0.  1.
        1   -1    0    0  501    0  0.00000000000E+00  0.00000000000E+00 -0.75563619333E+03  0.75563619335E+03  0.50400001928E-02 0. -1.
    10030    2    1    2    0    0  0.00000000000E+00  0.00000000000E+00  0.85325144636E+03  0.23645238330E+04  0.22052063228E+04 0.  0.
        4    1    3    3  502    0 -0.47065069714E+03  0.49651530703E+03  0.13537885374E+04  0.15168337238E+04  0.12699999809E+01 0.  1.
       -4    1    3    3    0  502  0.47065069714E+03 -0.49651530703E+03 -0.50053709105E+03  0.84769010921E+03  0.12699999809E+01 0. -1.
</event>
<event>
 5   0  0.4143281E-05  0.2212498E+04  0.7818609E-02  0.8513244E-01
       -2   -1    0    0    0  501  0.00000000000E+00  0.00000000000E+00  0.10762038747E+04  0.10762038747E+04  0.25500000920E-02 0. -1.
        2   -1    0    0  501    0  0.00000000000E+00  0.00000000000E+00 -0.11371332709E+04  0.11371332709E+04  0.25500000920E-02 0.  1.
    10030    2    1    2    0    0  0.00000000000E+00  0.00000000000E+00 -0.60929396157E+02  0.22133371456E+04  0.22124983455E+04 0.  0.
        2    1    3    3  502    0  0.80891183115E+03  0.52586379762E+03  0.51095777116E+03  0.10917641358E+04  0.25500000920E-02 0.  1.
       -2    1    3    3    0  502 -0.80891183115E+03 -0.52586379762E+03 -0.57188716731E+03  0.11215730098E+04  0.25500000920E-02 0. -1.
</event>
<event>
 5   0  0.1884407E-05  0.2143167E+04  0.7818609E-02  0.8542463E-01
        1   -1    0    0  501    0  0.00000000000E+00  0.00000000000E+00  0.85384309021E+03  0.85384309023E+03  0.50400001928E-02 0. -1.
       -1   -1    0    0    0  501  0.00000000000E+00  0.00000000000E+00 -0.13448499926E+04  0.13448499926E+04  0.50400001928E-02 0.  1.
    10030    2    1    2    0    0  0.00000000000E+00  0.00000000000E+00 -0.49100690240E+03  0.21986930828E+04  0.21431666978E+04 0.  0.
        3    1    3    3  502    0  0.30457408910E+03 -0.85720426122E+03 -0.82650323864E+03  0.12290940301E+04  0.10100000352E+00 0.  1.
       -3    1    3    3    0  502 -0.30457408910E+03  0.85720426122E+03  0.33549633624E+03  0.96959905272E+03  0.10100000352E+00 0. -1.
</event>
<event>
 5   0  0.1786228E-05  0.2165692E+04  0.7818609E-02  0.8532845E-01
       -1   -1    0    0    0  501  0.00000000000E+00  0.00000000000E+00  0.76602878257E+03  0.76602878259E+03  0.50400001928E-02 0. -1.
        1   -1    0    0  501    0  0.00000000000E+00  0.00000000000E+00 -0.15306944221E+04  0.15306944221E+04  0.50400001928E-02 0.  1.
    10030    2    1    2    0    0  0.00000000000E+00  0.00000000000E+00 -0.76466563951E+03  0.22967232047E+04  0.21656924848E+04 0.  0.
        5    1    3    3  502    0  0.14198224058E+03  0.86096068887E+03 -0.10623142180E+04  0.13747530150E+04  0.46999998093E+01 0.  1.
       -5    1    3    3    0  502 -0.14198224058E+03 -0.86096068887E+03  0.29764857850E+03  0.92197018970E+03  0.46999998093E+01 0. -1.
</event>
<event>
 5   0  0.1815681E-05  0.2204385E+04  0.7818609E-02  0.8516605E-01
       -1   -1    0    0    0  501  0.00000000000E+00  0.00000000000E+00  0.87446145653E+03  0.87446145655E+03  0.50400001928E-02 0. -1.
        1   -1    0    0  501    0  0.00000000000E+00  0.00000000000E+00 -0.13892302103E+04  0.13892302103E+04  0.50400001928E-02 0.  1.
    10030    2    1    2    0    0  0.00000000000E+00  0.00000000000E+00 -0.51476875378E+03  0.22636916669E+04  0.22043849693E+04 0.  0.
        2    1    3    3  502    0 -0.19493998204E+03  0.34959051990E+03 -0.13119568260E+04  0.13716580629E+04  0.25500000920E-02 0.  1.
       -2    1    3    3    0  502  0.19493998204E+03 -0.34959051990E+03  0.79718807220E+03  0.89203360400E+03  0.25500000920E-02 0. -1.
</event>
<event>
 5   0  0.1786228E-05  0.2207195E+04  0.7818609E-02  0.8515439E-01
        1   -1    0    0  501    0  0.00000000000E+00  0.00000000000E+00  0.14079926665E+04  0.14079926665E+04  0.50400001928E-02 0.  1.
       -1   -1    0    0    0  501  0.00000000000E+00  0.00000000000E+00 -0.86500984061E+03  0.86500984063E+03  0.50400001928E-02 0. -1.
    10030    2    1    2    0    0  0.00000000000E+00  0.00000000000E+00  0.54298282593E+03  0.22730025072E+04  0.22071950635E+04 0.  0.
        5    1    3    3  502    0 -0.10975113381E+04  0.11105921242E+03  0.30470412101E+03  0.11444352220E+04  0.46999998093E+01 0.  1.
       -5    1    3    3    0  502  0.10975113381E+04 -0.11105921242E+03  0.23827870492E+03  0.11285672852E+04  0.46999998093E+01 0. -1.
</event>
<event>
 5   0  0.4143281E-05  0.2193314E+04  0.7818609E-02  0.8521216E-01
        2   -1    0    0  501    0  0.00000000000E+00  0.00000000000E+00  0.89270635607E+03  0.89270635607E+03  0.25500000920E-02 0. -1.
       -2   -1    0    0    0  501  0.00000000000E+00  0.00000000000E+00 -0.13472029922E+04  0.13472029922E+04  0.25500000920E-02 0.  1.
    10030    2    1    2    0    0  0.00000000000E+00  0.00000000000E+00 -0.45449663617E+03  0.22399093483E+04  0.21933140898E+04 0.  0.
        2    1    3    3  502    0  0.39608526686E+03  0.14449946024E+03 -0.12611253468E+04  0.13297371067E+04  0.25500000920E-02 0.  1.
       -2    1    3    3    0  502 -0.39608526686E+03 -0.14449946024E+03  0.80662871061E+03  0.91017224162E+03  0.25500000920E-02 0. -1.
</event>
<event>
 5   0  0.4143281E-05  0.2200941E+04  0.7818609E-02  0.8518037E-01
        2   -1    0    0  501    0  0.00000000000E+00  0.00000000000E+00  0.11596481860E+04  0.11596481860E+04  0.25500000920E-02 0. -1.
       -2   -1    0    0    0  501  0.00000000000E+00  0.00000000000E+00 -0.10443123566E+04  0.10443123566E+04  0.25500000920E-02 0.  1.
    10030    2    1    2    0    0  0.00000000000E+00  0.00000000000E+00  0.11533582933E+03  0.22039605426E+04  0.22009406443E+04 0.  0.
        2    1    3    3  502    0  0.55195731799E+03  0.94587532386E+03  0.16597324281E+03  0.11076480156E+04  0.25500000920E-02 0.  1.
       -2    1    3    3    0  502 -0.55195731799E+03 -0.94587532386E+03 -0.50637413479E+02  0.10963125270E+04  0.25500000920E-02 0. -1.
</event>
<event>
 5   0  0.1866935E-05  0.2164577E+04  0.7818609E-02  0.8533318E-01
        1   -1    0    0  501    0  0.00000000000E+00  0.00000000000E+00  0.92478129313E+03  0.92478129314E+03  0.50400001928E-02 0. -1.
       -1   -1    0    0    0  501  0.00000000000E+00  0.00000000000E+00 -0.12666223796E+04  0.12666223796E+04  0.50400001928E-02 0.  1.
    10030    2    1    2    0    0  0.00000000000E+00  0.00000000000E+00 -0.34184108644E+03  0.21914036727E+04  0.21645772632E+04 0.  0.
        4    1    3    3  502    0 -0.84570597945E+02  0.10750878592E+03  0.91599430816E+03  0.92615199107E+03  0.12699999809E+01 0. -1.
       -4    1    3    3    0  502  0.84570597945E+02 -0.10750878592E+03 -0.12578353946E+04  0.12652516816E+04  0.12699999809E+01 0.  1.
</event>
<event>
 5   0  0.4132460E-05  0.2166781E+04  0.7818609E-02  0.8532383E-01
        2   -1    0    0  501    0  0.00000000000E+00  0.00000000000E+00  0.18518996193E+04  0.18518996193E+04  0.25500000920E-02 0.  1.
       -2   -1    0    0    0  501  0.00000000000E+00  0.00000000000E+00 -0.63380075868E+03  0.63380075868E+03  0.25500000920E-02 0. -1.
    10030    2    1    2    0    0  0.00000000000E+00  0.00000000000E+00  0.12180988607E+04  0.24857003780E+04  0.21667813768E+04 0.  0.
        4    1    3    3  502    0  0.64593411126E+02 -0.58669957325E+03 -0.43315152185E+03  0.73212741500E+03  0.12699999809E+01 0. -1.
       -4    1    3    3    0  502 -0.64593411126E+02  0.58669957325E+03  0.16512503825E+04  0.17535729630E+04  0.12699999809E+01 0.  1.
</event>
<event>
 5   0  0.1433375E-05  0.2202377E+04  0.7818609E-02  0.8517439E-01
        3   -1    0    0  501    0  0.00000000000E+00  0.00000000000E+00  0.11523554943E+04  0.11523554988E+04  0.10100000352E+00 0.  1.
       -3   -1    0    0    0  501  0.00000000000E+00  0.00000000000E+00 -0.10522938452E+04  0.10522938500E+04  0.10100000352E+00 0. -1.
    10030    2    1    2    0    0  0.00000000000E+00  0.00000000000E+00  0.10006164916E+03  0.22046493488E+04  0.22023774467E+04 0.  0.
        4    1    3    3  502    0  0.41914245284E+03  0.54292559900E+02  0.10679312468E+04  0.11485237650E+04  0.12699999809E+01 0.  1.
       -4    1    3    3    0  502 -0.41914245284E+03 -0.54292559900E+02 -0.96786959767E+03  0.10561255838E+04  0.12699999809E+01 0. -1.
</event>
<event>
 5   0  0.1786228E-05  0.2042452E+04  0.7818609E-02  0.8587026E-01
       -1   -1    0    0    0  501  0.00000000000E+00  0.00000000000E+00  0.72123073479E+03  0.72123073481E+03  0.50400001928E-02 0. -1.
        1   -1    0    0  501    0  0.00000000000E+00  0.00000000000E+00 -0.14460040366E+04  0.14460040366E+04  0.50400001928E-02 0.  1.
    10030    2    1    2    0    0  0.00000000000E+00  0.00000000000E+00 -0.72477330180E+03  0.21672347714E+04  0.20424520105E+04 0.  0.
        5    1    3    3  502    0  0.23564745134E+03  0.12372274268E+03  0.68377051072E+03  0.73375829788E+03  0.46999998093E+01 0. -1.
       -5    1    3    3    0  502 -0.23564745134E+03 -0.12372274268E+03 -0.14085438125E+04  0.14334764735E+04  0.46999998093E+01 0.  1.
</event>
<event>
 5   0  0.1884407E-05  0.2195217E+04  0.7818609E-02  0.8520422E-01
       -1   -1    0    0    0  501  0.00000000000E+00  0.00000000000E+00  0.72724385200E+03  0.72724385202E+03  0.50400001928E-02 0. -1.
        1   -1    0    0  501    0  0.00000000000E+00  0.00000000000E+00 -0.16565886645E+04  0.16565886645E+04  0.50400001928E-02 0.  1.
    10030    2    1    2    0    0  0.00000000000E+00  0.00000000000E+00 -0.92934481253E+03  0.23838325166E+04  0.21952165466E+04 0.  0.
        3    1    3    3  502    0 -0.91871706111E+03  0.52360478974E+03 -0.78412694921E+03  0.13164566445E+04  0.10100000352E+00 0.  1.
       -3    1    3    3    0  502  0.91871706111E+03 -0.52360478974E+03 -0.14521786332E+03  0.10673758721E+04  0.10100000352E+00 0. -1.
</event>
<event>
 5   0  0.4143281E-05  0.2202776E+04  0.7818609E-02  0.8517274E-01
       -2   -1    0    0    0  501  0.00000000000E+00  0.00000000000E+00  0.77450416142E+03  0.77450416143E+03  0.25500000920E-02 0. -1.
        2   -1    0    0  501    0  0.00000000000E+00  0.00000000000E+00 -0.15662345052E+04  0.15662345052E+04  0.25500000920E-02 0.  1.
    10030    2    1    2    0    0  0.00000000000E+00  0.00000000000E+00 -0.79173034373E+03  0.23407386666E+04  0.22027756509E+04 0.  0.
        2    1    3    3  502    0  0.86982126921E+02  0.39360368921E+03  0.69330115531E+03  0.80197022796E+03  0.25500000920E-02 0. -1.
       -2    1    3    3    0  502 -0.86982126921E+02 -0.39360368921E+03 -0.14850314990E+04  0.15387684386E+04  0.25500000920E-02 0.  1.
</event>
<event>
 5   0  0.1788413E-05  0.2209748E+04  0.7818609E-02  0.8514382E-01
       -1   -1    0    0    0  501  0.00000000000E+00  0.00000000000E+00  0.10268088352E+04  0.10268088352E+04  0.50400001928E-02 0.  1.
        1   -1    0    0  501    0  0.00000000000E+00  0.00000000000E+00 -0.11888741886E+04  0.11888741886E+04  0.50400001928E-02 0. -1.
    10030    2    1    2    0    0  0.00000000000E+00  0.00000000000E+00 -0.16206535335E+03  0.22156830238E+04  0.22097479682E+04 0.  0.
        1    1    3    3  502    0 -0.56270922834E+03 -0.21759523423E+03  0.84706515498E+03  0.10399561233E+04  0.50400001928E-02 0.  1.
       -1    1    3    3    0  502  0.56270922834E+03  0.21759523423E+03 -0.10091305083E+04  0.11757269005E+04  0.50400001928E-02 0. -1.
</event>
<event>
 5   0  0.4143281E-05  0.2206954E+04  0.7818609E-02  0.8515539E-01
        2   -1    0    0  501    0  0.00000000000E+00  0.00000000000E+00  0.19734491991E+04  0.19734491991E+04  0.25500000920E-02 0. -1.
       -2   -1    0    0    0  501  0.00000000000E+00  0.00000000000E+00 -0.61702197934E+03  0.61702197934E+03  0.25500000920E-02 0.  1.
    10030    2    1    2    0    0  0.00000000000E+00  0.00000000000E+00  0.13564272198E+04  0.25904711784E+04  0.22069540375E+04 0.  0.
        2    1    3    3  502    0  0.27490178176E+03 -0.65256008379E+02  0.19302720066E+04  0.19508406792E+04  0.25500000920E-02 0. -1.
       -2    1    3    3    0  502 -0.27490178176E+03  0.65256008379E+02 -0.57384478680E+03  0.63963049926E+03  0.25500000920E-02 0.  1.
</event>
<event>
 5   0  0.4143281E-05  0.2186188E+04  0.7818609E-02  0.8524199E-01
       -2   -1    0    0    0  501  0.00000000000E+00  0.00000000000E+00  0.16577657374E+04  0.16577657374E+04  0.25500000920E-02 0. -1.
        2   -1    0    0  501    0  0.00000000000E+00  0.00000000000E+00 -0.72076191897E+03  0.72076191898E+03  0.25500000920E-02 0.  1.
    10030    2    1    2    0    0  0.00000000000E+00  0.00000000000E+00  0.93700381840E+03  0.23785276563E+04  0.21861879279E+04 0.  0.
        2    1    3    3  502    0  0.25601815788E+03  0.26663933576E+03 -0.65069673171E+03  0.74836359425E+03  0.25500000920E-02 0.  1.
       -2    1    3    3    0  502 -0.25601815788E+03 -0.26663933576E+03  0.15877005501E+04  0.16301640621E+04  0.25500000920E-02 0. -1.
</event>
<event>
 5   0  0.1884407E-05  0.2206481E+04  0.7818609E-02  0.8515735E-01
        1   -1    0    0  501    0  0.00000000000E+00  0.00000000000E+00  0.13240300745E+04  0.13240300745E+04  0.50400001928E-02 0. -1.
       -1   -1    0    0    0  501  0.00000000000E+00  0.00000000000E+00 -0.91926913710E+03  0.91926913711E+03  0.50400001928E-02 0.  1.
    10030    2    1    2    0    0  0.00000000000E+00  0.00000000000E+00  0.40476093740E+03  0.22432992116E+04  0.22064813474E+04 0.  0.
        3    1    3    3  502    0  0.47460003950E+03  0.64416821563E+01 -0.81015596781E+03  0.93895654593E+03  0.10100000352E+00 0.  1.
       -3    1    3    3    0  502 -0.47460003950E+03 -0.64416821563E+01  0.12149169052E+04  0.13043426657E+04  0.10100000352E+00 0. -1.
</event>
<event>
 5   0  0.1788413E-05  0.2173924E+04  0.7818609E-02  0.8529361E-01
       -1   -1    0    0    0  501  0.00000000000E+00  0.00000000000E+00  0.10885746572E+04  0.10885746572E+04  0.50400001928E-02 0.  1.
        1   -1    0    0  501    0  0.00000000000E+00  0.00000000000E+00 -0.10853513347E+04  0.10853513347E+04  0.50400001928E-02 0. -1.
    10030    2    1    2    0    0  0.00000000000E+00  0.00000000000E+00  0.32233224831E+01  0.21739259919E+04  0.21739236023E+04 0.  0.
        1    1    3    3  502    0 -0.11359877025E+03  0.10979902450E+03 -0.10738082536E+04  0.10853684499E+04  0.50400001928E-02 0. -1.
       -1    1    3    3    0  502  0.11359877025E+03 -0.10979902450E+03  0.10770315761E+04  0.10885575421E+04  0.50400001928E-02 0.  1.
</event>
<event>
 5   0  0.1884407E-05  0.2192771E+04  0.7818609E-02  0.8521443E-01
       -1   -1    0    0    0  501  0.00000000000E+00  0.00000000000E+00  0.18739499303E+04  0.18739499303E+04  0.50400001928E-02 0.  1.
        1   -1    0    0  501    0  0.00000000000E+00  0.00000000000E+00 -0.64145867017E+03  0.64145867019E+03  0.50400001928E-02 0. -1.
    10030    2    1    2    0    0  0.00000000000E+00  0.00000000000E+00  0.12324912601E+04  0.25154086005E+04  0.21927712423E+04 0.  0.
        3    1    3    3  502    0 -0.28693143808E+03 -0.80536536409E+03 -0.17112687986E+03  0.87191022418E+03  0.10100000352E+00 0. -1.
       -3    1    3    3    0  502  0.28693143808E+03  0.80536536409E+03  0.14036181399E+04  0.16434983763E+04  0.10100000352E+00 0.  1.
</event>
<event>
 5   0  0.1433375E-05  0.2189204E+04  0.7818609E-02  0.8522935E-01
        3   -1    0    0  501    0  0.00000000000E+00  0.00000000000E+00  0.16591543532E+04  0.16591543563E+04  0.10100000352E+00 0.  1.
       -3   -1    0    0    0  501  0.00000000000E+00  0.00000000000E+00 -0.72214691444E+03  0.72214692151E+03  0.10100000352E+00 0. -1.
    10030    2    1    2    0    0  0.00000000000E+00  0.00000000000E+00  0.93700743880E+03  0.23813012778E+04  0.21892036989E+04 0.  0.
        2    1    3    3  502    0  0.95698701685E+03  0.16368572838E+03  0.10183664096E+04  0.14070136149E+04  0.25500000920E-02 0.  1.
       -2    1    3    3    0  502 -0.95698701685E+03 -0.16368572838E+03 -0.81358970840E+02  0.97428766298E+03  0.25500000920E-02 0. -1.
</event>
<event>
 5   0  0.1866935E-05  0.2208945E+04  0.7818609E-02  0.8514714E-01
       -1   -1    0    0    0  501  0.00000000000E+00  0.00000000000E+00  0.90532184920E+03  0.90532184922E+03  0.50400001928E-02 0.  1.
        1   -1    0    0  501    0  0.00000000000E+00  0.00000000000E+00 -0.13474322576E+04  0.13474322576E+04  0.50400001928E-02 0. -1.
    10030    2    1    2    0    0  0.00000000000E+00  0.00000000000E+00 -0.44211040841E+03  0.22527541068E+04  0.22089453259E+04 0.  0.
        4    1    3    3  502    0 -0.76304886443E+03 -0.12756538935E+03  0.58283010538E+03  0.96861191542E+03  0.12699999809E+01 0.  1.
       -4    1    3    3    0  502  0.76304886443E+03  0.12756538935E+03 -0.10249405138E+04  0.12841421914E+04  0.12699999809E+01 0. -1.
</event>
<event>
 5   0  0.1866935E-05  0.2190239E+04  0.7818609E-02  0.8522502E-01
       -1   -1    0    0    0  501  0.00000000000E+00  0.00000000000E+00  0.65876512702E+03  0.65876512704E+03  0.50400001928E-02 0. -1.
        1   -1    0    0  501    0  0.00000000000E+00  0.00000000000E+00 -0.18205069180E+04  0.18205069180E+04  0.50400001928E-02 0.  1.
    10030    2    1    2    0    0  0.00000000000E+00  0.00000000000E+00 -0.11617417909E+04  0.24792720450E+04  0.21902387734E+04 0.  0.
        4    1    3    3  502    0 -0.37327092002E+03 -0.73273308176E+03 -0.13995369389E+04  0.16232480418E+04  0.12699999809E+01 0.  1.
       -4    1    3    3    0  502  0.37327092002E+03  0.73273308176E+03  0.23779514796E+03  0.85602400325E+03  0.12699999809E+01 0. -1.
</event>
<event>
 5   0  0.3963414E-05  0.2196567E+04  0.7818609E-02  0.8519858E-01
       -2   -1    0    0    0  501  0.00000000000E+00  0.00000000000E+00  0.10573439406E+04  0.10573439406E+04  0.25500000920E-02 0.  1.
        2   -1    0    0  501    0  0.00000000000E+00  0.00000000000E+00 -0.11408081828E+04  0.11408081828E+04  0.25500000920E-02 0. -1.
    10030    2    1    2    0    0  0.00000000000E+00  0.00000000000E+00 -0.83464242168E+02  0.21981521234E+04  0.21965669755E+04 0.  0.
        1    1    3    3  502    0  0.36930403800E+03  0.70657447201E+03 -0.79765374071E+03  0.11277785452E+04  0.50400001928E-02 0. -1.
       -1    1    3    3    0  502 -0.36930403800E+03 -0.70657447201E+03  0.71418949854E+03  0.10703735782E+04  0.50400001928E-02 0.  1.
</event>
<event>
 5   0  0.4029532E-05  0.2222623E+04  0.7818609E-02  0.8509070E-01
        2   -1    0    0  501    0  0.00000000000E+00  0.00000000000E+00  0.17594275157E+04  0.17594275157E+04  0.25500000920E-02 0.  1.
       -2   -1    0    0    0  501  0.00000000000E+00  0.00000000000E+00 -0.70194051489E+03  0.70194051490E+03  0.25500000920E-02 0. -1.
    10030    2    1    2    0    0  0.00000000000E+00  0.00000000000E+00  0.10574870008E+04  0.24613680306E+04  0.22226231856E+04 0.  0.
        3    1    3    3  502    0  0.77736605126E+03  0.79383373393E+03  0.55456009975E+03  0.12417757000E+04  0.10100000352E+00 0.  1.
       -3    1    3    3    0  502 -0.77736605126E+03 -0.79383373393E+03  0.50292690107E+03  0.12195923306E+04  0.10100000352E+00 0. -1.
</event>
<event>
 5   0  0.1786228E-05  0.2206771E+04  0.7818609E-02  0.8515615E-01
       -1   -1    0    0    0  501  0.00000000000E+00  0.00000000000E+00  0.10142048494E+04  0.10142048494E+04  0.50400001928E-02 0. -1.
        1   -1    0    0  501    0  0.00000000000E+00  0.00000000000E+00 -0.12004076868E+04  0.12004076869E+04  0.50400001928E-02 0.  1.
    10030    2    1    2    0    0  0.00000000000E+00  0.00000000000E+00 -0.18620283748E+03  0.22146125362E+04  0.22067707604E+04 0.  0.
        5    1    3    3  502    0 -0.11310829957E+03 -0.92516580205E+03 -0.68571821127E+03  0.11571330105E+04  0.46999998093E+01 0.  1.
       -5    1    3    3    0  502  0.11310829957E+03  0.92516580205E+03  0.49951537379E+03  0.10574795257E+04  0.46999998093E+01 0. -1.
</event>
<event>
 5   0  0.4143281E-05  0.2198164E+04  0.7818609E-02  0.8519193E-01
       -2   -1    0    0    0  501  0.00000000000E+00  0.00000000000E+00  0.66817142881E+03  0.66817142881E+03  0.25500000920E-02 0.  1.
        2   -1    0    0  501    0  0.00000000000E+00  0.00000000000E+00 -0.18078907066E+04  0.18078907066E+04  0.25500000920E-02 0. -1.
    10030    2    1    2    0    0  0.00000000000E+00  0.00000000000E+00 -0.11397192778E+04  0.24760621355E+04  0.21981637033E+04 0.  0.
        2    1    3    3  502    0 -0.54774263502E+03  0.46001088416E+02  0.50222217793E+03  0.74455705648E+03  0.25500000920E-02 0.  1.
       -2    1    3    3    0  502  0.54774263502E+03 -0.46001088416E+02 -0.16419414558E+04  0.17315050790E+04  0.25500000920E-02 0. -1.
</event>
<event>
 5   0  0.4132460E-05  0.2220548E+04  0.7818609E-02  0.8509924E-01
        2   -1    0    0  501    0  0.00000000000E+00  0.00000000000E+00  0.13514795261E+04  0.13514795261E+04  0.25500000920E-02 0.  1.
       -2   -1    0    0    0  501  0.00000000000E+00  0.00000000000E+00 -0.91211738675E+03  0.91211738675E+03  0.25500000920E-02 0. -1.
    10030    2    1    2    0    0  0.00000000000E+00  0.00000000000E+00  0.43936213939E+03  0.22635969129E+04  0.22205476564E+04 0.  0.
        4    1    3    3  502    0  0.10256998950E+04 -0.41212240361E+03  0.11373735105E+03  0.11112348753E+04  0.12699999809E+01 0.  1.
       -4    1    3    3    0  502 -0.10256998950E+04  0.41212240361E+03  0.32562478834E+03  0.11523620376E+04  0.12699999809E+01 0. -1.
</event>
<event>
 5   0  0.1866935E-05  0.2225232E+04  0.7818609E-02  0.8507999E-01
       -1   -1    0    0    0  501  0.00000000000E+00  0.00000000000E+00  0.80304363836E+03  0.80304363837E+03  0.50400001928E-02 0.  1.
        1   -1    0    0  501    0  0.00000000000E+00  0.00000000000E+00 -0.15415282881E+04  0.15415282881E+04  0.50400001928E-02 0. -1.
    10030    2    1    2    0    0  0.00000000000E+00  0.00000000000E+00 -0.73848464974E+03  0.23445719265E+04  0.22252321094E+04 0.  0.
        4    1    3    3  502    0 -0.85969951323E+03 -0.38604194653E+03 -0.99240138197E+03  0.13685663131E+04  0.12699999809E+01 0. -1.
       -4    1    3    3    0  502  0.85969951323E+03  0.38604194653E+03  0.25391673223E+03  0.97600561337E+03  0.12699999809E+01 0.  1.
</event>
<event>
 5   0  0.4027923E-05  0.2169450E+04  0.7818609E-02  0.8531253E-01
        2   -1    0    0  501    0  0.00000000000E+00  0.00000000000E+00  0.13492607598E+04  0.13492607598E+04  0.25500000920E-02 0. -1.
       -2   -1    0    0    0  501  0.00000000000E+00  0.00000000000E+00 -0.87205373943E+03  0.87205373943E+03  0.25500000920E-02 0.  1.
    10030    2    1    2    0    0  0.00000000000E+00  0.00000000000E+00  0.47720702036E+03  0.22213144992E+04  0.21694495994E+04 0.  0.
        5    1    3    3  502    0 -0.39574383930E+03 -0.39409279239E+03 -0.71351074745E+03  0.90611367503E+03  0.46999998093E+01 0.  1.
       -5    1    3    3    0  502  0.39574383930E+03  0.39409279239E+03  0.11907177678E+04  0.13152008242E+04  0.46999998093E+01 0. -1.
</event>
<event>
 5   0  0.3963414E-05  0.2188159E+04  0.7818609E-02  0.8523373E-01
       -2   -1    0    0    0  501  0.00000000000E+00  0.00000000000E+00  0.64937513926E+03  0.64937513926E+03  0.25500000920E-02 0.  1.
        2   -1    0    0  501    0  0.00000000000E+00  0.00000000000E+00 -0.18433263715E+04  0.18433263715E+04  0.25500000920E-02 0. -1.
    10030    2    1    2    0    0  0.00000000000E+00  0.00000000000E+00 -0.11939512322E+04  0.24927015108E+04  0.21881593353E+04 0.  0.
        1    1    3    3  502    0  0.41056693528E+03  0.86852135777E+03 -0.11934040482E+04  0.15320273430E+04  0.50400001928E-02 0. -1.
       -1    1    3    3    0  502 -0.41056693528E+03 -0.86852135777E+03 -0.54718402535E+00  0.96067416780E+03  0.50400001928E-02 0.  1.
</event>
<event>
 5   0  0.1866935E-05  0.2201144E+04  0.7818609E-02  0.8517952E-01
        1   -1    0    0  501    0  0.00000000000E+00  0.00000000000E+00  0.10188786558E+04  0.10188786558E+04  0.50400001928E-02 0.  1.
       -1   -1    0    0    0  501  0.00000000000E+00  0.00000000000E+00 -0.11888160115E+04  0.11888160115E+04  0.50400001928E-02 0. -1.
    10030    2    1    2    0    0  0.00000000000E+00  0.00000000000E+00 -0.16993735567E+03  0.22076946673E+04  0.22011444840E+04 0.  0.
        4    1    3    3  502    0 -0.98482738589E+03  0.48342121144E+03  0.29082554797E+01  0.10970830044E+04  0.12699999809E+01 0.  1.
       -4    1    3    3    0  502  0.98482738589E+03 -0.48342121144E+03 -0.17284561115E+03  0.11106116629E+04  0.12699999809E+01 0. -1.
</event>
<event>
 5   0  0.1884407E-05  0.2205105E+04  0.7818609E-02  0.8516306E-01
        1   -1    0    0  501    0  0.00000000000E+00  0.00000000000E+00  0.14319163980E+04  0.14319163980E+04  0.50400001928E-02 0. -1.
       -1   -1    0    0    0  501  0.00000000000E+00  0.00000000000E+00 -0.84894750177E+03  0.84894750178E+03  0.50400001928E-02 0.  1.
    10030    2    1    2    0    0  0.00000000000E+00  0.00000000000E+00  0.58296889621E+03  0.22808638998E+04  0.22051048491E+04 0.  0.
        3    1    3    3  502    0 -0.55056265204E+03 -0.25328517702E+03  0.12441872899E+04  0.13839344772E+04  0.10100000352E+00 0. -1.
       -3    1    3    3    0  502  0.55056265204E+03  0.25328517702E+03 -0.66121839367E+03  0.89692942256E+03  0.10100000352E+00 0.  1.
</event>
<event>
 5   0  0.4132460E-05  0.2407756E+04  0.7818609E-02  0.8436605E-01
       -2   -1    0    0    0  501  0.00000000000E+00  0.00000000000E+00  0.14460616916E+04  0.14460616916E+04  0.25500000920E-02 0.  1.
        2   -1    0    0  501    0  0.00000000000E+00  0.00000000000E+00 -0.10022551890E+04  0.10022551890E+04  0.25500000920E-02 0. -1.
    10030    2    1    2    0    0  0.00000000000E+00  0.00000000000E+00  0.44380650256E+03  0.24483168805E+04  0.24077564943E+04 0.  0.
        4    1    3    3  502    0 -0.74170854460E+03 -0.69670859750E+03  0.87600208217E+03  0.13427269625E+04  0.12699999809E+01 0.  1.
       -4    1    3    3    0  502  0.74170854460E+03  0.69670859750E+03 -0.43219557961E+03  0.11055899180E+04  0.12699999809E+01 0. -1.
</event>
<event>
 5   0  0.4029532E-05  0.2185569E+04  0.7818609E-02  0.8524459E-01
        2   -1    0    0  501    0  0.00000000000E+00  0.00000000000E+00  0.17842026904E+04  0.17842026904E+04  0.25500000920E-02 0. -1.
       -2   -1    0    0    0  501  0.00000000000E+00  0.00000000000E+00 -0.66930637384E+03  0.66930637384E+03  0.25500000920E-02 0.  1.
    10030    2    1    2    0    0  0.00000000000E+00  0.00000000000E+00  0.11148963165E+04  0.24535090642E+04  0.21855692466E+04 0.  0.
        3    1    3    3  502    0  0.39368462761E+03  0.80933622201E+03 -0.13834841449E+03  0.91057838777E+03  0.10100000352E+00 0.  1.
       -3    1    3    3    0  502 -0.39368462761E+03 -0.80933622201E+03  0.12532447310E+04  0.15429306764E+04  0.10100000352E+00 0. -1.
</event>
<event>
 5   0  0.4143281E-05  0.2195748E+04  0.7818609E-02  0.8520200E-01
        2   -1    0    0  501    0  0.00000000000E+00  0.00000000000E+00  0.99428059105E+03  0.99428059105E+03  0.25500000920E-02 0. -1.
       -2   -1    0    0    0  501  0.00000000000E+00  0.00000000000E+00 -0.12122603383E+04  0.12122603383E+04  0.25500000920E-02 0.  1.
    10030    2    1    2    0    0  0.00000000000E+00  0.00000000000E+00 -0.21797974729E+03  0.22065409294E+04  0.21957476410E+04 0.  0.
        2    1    3    3  502    0  0.91156154309E+03 -0.67722875018E+02 -0.72008767454E+03  0.11636395893E+04  0.25500000920E-02 0.  1.
       -2    1    3    3    0  502 -0.91156154309E+03  0.67722875018E+02  0.50210792725E+03  0.10429013401E+04  0.25500000920E-02 0. -1.
</event>
<event>
 5   0  0.4143281E-05  0.2194987E+04  0.7818609E-02  0.8520517E-01
        2   -1    0    0  501    0  0.00000000000E+00  0.00000000000E+00  0.19909732530E+04  0.19909732530E+04  0.25500000920E-02 0. -1.
       -2   -1    0    0    0  501  0.00000000000E+00  0.00000000000E+00 -0.60497671377E+03  0.60497671378E+03  0.25500000920E-02 0.  1.
    10030    2    1    2    0    0  0.00000000000E+00  0.00000000000E+00  0.13859965392E+04  0.25959499667E+04  0.21949874312E+04 0.  0.
        2    1    3    3  502    0 -0.60666424209E+03  0.89318509020E+03  0.92557107651E+03  0.14221472939E+04  0.25500000920E-02 0. -1.
       -2    1    3    3    0  502  0.60666424209E+03 -0.89318509020E+03  0.46042546267E+03  0.11738026728E+04  0.25500000920E-02 0.  1.
</event>
<event>
 5   0  0.4132460E-05  0.2185011E+04  0.7818609E-02  0.8524693E-01
        2   -1    0    0  501    0  0.00000000000E+00  0.00000000000E+00  0.19332236385E+04  0.19332236385E+04  0.25500000920E-02 0. -1.
       -2   -1    0    0    0  501  0.00000000000E+00  0.00000000000E+00 -0.61739815751E+03  0.61739815752E+03  0.25500000920E-02 0.  1.
    10030    2    1    2    0    0  0.00000000000E+00  0.00000000000E+00  0.13158254810E+04  0.25506217960E+04  0.21850114073E+04 0.  0.
        4    1    3    3  502    0  0.10487622828E+04 -0.62300081984E+02  0.30813629546E+03  0.10948667570E+04  0.12699999809E+01 0.  1.
       -4    1    3    3    0  502 -0.10487622828E+04  0.62300081984E+02  0.10076891856E+04  0.14557550390E+04  0.12699999809E+01 0. -1.
</event>
<event>
 5   0  0.4027923E-05  0.2199846E+04  0.7818609E-02  0.8518492E-01
       -2   -1    0    0    0  501  0.00000000000E+00  0.00000000000E+00  0.10093117574E+04  0.10093117574E+04  0.25500000920E-02 0. -1.
        2   -1    0    0  501    0  0.00000000000E+00  0.00000000000E+00 -0.11986691300E+04  0.11986691300E+04  0.25500000920E-02 0.  1.
    10030    2    1    2    0    0  0.00000000000E+00  0.00000000000E+00 -0.18935737260E+03  0.22079808874E+04  0.21998462184E+04 0.  0.
        5    1    3    3  502    0  0.46559976470E+03  0.83455580636E+03  0.45189189909E+03  0.10571163197E+04  0.46999998093E+01 0. -1.
       -5    1    3    3    0  502 -0.46559976470E+03 -0.83455580636E+03 -0.64124927169E+03  0.11508645677E+04  0.46999998093E+01 0.  1.
</event>
<event>
 5   0  0.4027923E-05  0.2211080E+04  0.7818609E-02  0.8513830E-01
       -2   -1    0    0    0  501  0.00000000000E+00  0.00000000000E+00  0.82311998628E+03  0.82311998628E+03  0.25500000920E-02 0.  1.
        2   -1    0    0  501    0  0.00000000000E+00  0.00000000000E+00 -0.14848613038E+04  0.14848613038E+04  0.25500000920E-02 0. -1.
    10030    2    1    2    0    0  0.00000000000E+00  0.00000000000E+00 -0.66174131748E+03  0.23079812900E+04  0.22110802934E+04 0.  0.
        5    1    3    3  502    0  0.31910513161E+03  0.26973520513E+03 -0.13992560782E+04  0.14603166876E+04  0.46999998093E+01 0. -1.
       -5    1    3    3    0  502 -0.31910513161E+03 -0.26973520513E+03  0.73751476069E+03  0.84766460239E+03  0.46999998093E+01 0.  1.
</event>
<event>
 5   0  0.4029532E-05  0.2175618E+04  0.7818609E-02  0.8528645E-01
        2   -1    0    0  501    0  0.00000000000E+00  0.00000000000E+00  0.85942436687E+03  0.85942436687E+03  0.25500000920E-02 0. -1.
       -2   -1    0    0    0  501  0.00000000000E+00  0.00000000000E+00 -0.13768854944E+04  0.13768854944E+04  0.25500000920E-02 0.  1.
    10030    2    1    2    0    0  0.00000000000E+00  0.00000000000E+00 -0.51746112756E+03  0.22363098613E+04  0.21756184815E+04 0.  0.
        3    1    3    3  502    0  0.10444817500E+04  0.10593145988E+03 -0.55157334905E+03  0.11859160046E+04  0.10100000352E+00 0.  1.
       -3    1    3    3    0  502 -0.10444817500E+04 -0.10593145988E+03  0.34112221498E+02  0.10503938567E+04  0.10100000352E+00 0. -1.
</event>
<event>
 5   0  0.1788413E-05  0.2193510E+04  0.7818609E-02  0.8521134E-01
       -1   -1    0    0    0  501  0.00000000000E+00  0.00000000000E+00  0.12505772716E+04  0.12505772716E+04  0.50400001928E-02 0. -1.
        1   -1    0    0  501    0  0.00000000000E+00  0.00000000000E+00 -0.96185268904E+03  0.96185268905E+03  0.50400001928E-02 0.  1.
    10030    2    1    2    0    0  0.00000000000E+00  0.00000000000E+00  0.28872458255E+03  0.22124299607E+04  0.21935096185E+04 0.  0.
        1    1    3    3  502    0  0.54349289840E+01  0.68457191844E+03  0.10086095772E+04  0.12190002170E+04  0.50400001928E-02 0. -1.
       -1    1    3    3    0  502 -0.54349289840E+01 -0.68457191844E+03 -0.71988499463E+03  0.99342974361E+03  0.50400001928E-02 0.  1.
</event>
<event>
 5   0  0.1788413E-05  0.2232812E+04  0.7818609E-02  0.8504894E-01
        1   -1    0    0  501    0  0.00000000000E+00  0.00000000000E+00  0.16677016756E+04  0.16677016756E+04  0.50400001928E-02 0.  1.
       -1   -1    0    0    0  501  0.00000000000E+00  0.00000000000E+00 -0.74735350388E+03  0.74735350390E+03  0.50400001928E-02 0. -1.
    10030    2    1    2    0    0  0.00000000000E+00  0.00000000000E+00  0.92034817174E+03  0.24150551795E+04  0.22328122991E+04 0.  0.
        1    1    3    3  502    0  0.32043555897E+03  0.23372481543E+03 -0.66858182828E+03  0.77737243193E+03  0.50400001928E-02 0. -1.
       -1    1    3    3    0  502 -0.32043555897E+03 -0.23372481543E+03  0.15889300000E+04  0.16376827476E+04  0.50400001928E-02 0.  1.
</event>
<event>
 5   0  0.4143281E-05  0.2194616E+04  0.7818609E-02  0.8520672E-01
        2   -1    0    0  501    0  0.00000000000E+00  0.00000000000E+00  0.95490418360E+03  0.95490418360E+03  0.25500000920E-02 0. -1.
       -2   -1    0    0    0  501  0.00000000000E+00  0.00000000000E+00 -0.12609485483E+04  0.12609485483E+04  0.25500000920E-02 0.  1.
    10030    2    1    2    0    0  0.00000000000E+00  0.00000000000E+00 -0.30604436472E+03  0.22158527319E+04  0.21946161797E+04 0.  0.
        2    1    3    3  502    0  0.93548446295E+03  0.13544106419E+03 -0.71573880068E+03  0.11856464452E+04  0.25500000920E-02 0.  1.
       -2    1    3    3    0  502 -0.93548446295E+03 -0.13544106419E+03  0.40969443595E+03  0.10302062867E+04  0.25500000920E-02 0. -1.
</event>
<event>
 5   0  0.4132460E-05  0.2205917E+04  0.7818609E-02  0.8515969E-01
       -2   -1    0    0    0  501  0.00000000000E+00  0.00000000000E+00  0.17174746344E+04  0.17174746344E+04  0.25500000920E-02 0.  1.
        2   -1    0    0  501    0  0.00000000000E+00  0.00000000000E+00 -0.70831769449E+03  0.70831769450E+03  0.25500000920E-02 0. -1.
    10030    2    1    2    0    0  0.00000000000E+00  0.00000000000E+00  0.10091569399E+04  0.24257923289E+04  0.22059172001E+04 0.  0.
        4    1    3    3  502    0 -0.32324363492E+03  0.81366126199E+03 -0.23309372234E+03  0.90601622120E+03  0.12699999809E+01 0. -1.
       -4    1    3    3    0  502  0.32324363492E+03 -0.81366126199E+03  0.12422506623E+04  0.15197761077E+04  0.12699999809E+01 0.  1.
</event>
<event>
 5   0  0.1786228E-05  0.2197859E+04  0.7818609E-02  0.8519320E-01
       -1   -1    0    0    0  501  0.00000000000E+00  0.00000000000E+00  0.84103198339E+03  0.84103198341E+03  0.50400001928E-02 0.  1.
        1   -1    0    0  501    0  0.00000000000E+00  0.00000000000E+00 -0.14359102114E+04  0.14359102114E+04  0.50400001928E-02 0. -1.
    10030    2    1    2    0    0  0.00000000000E+00  0.00000000000E+00 -0.59487822801E+03  0.22769421948E+04  0.21978593341E+04 0.  0.
        5    1    3    3  502    0  0.51741077479E+03  0.76643709567E+03  0.31762753714E+03  0.97777761983E+03  0.46999998093E+01 0.  1.
       -5    1    3    3    0  502 -0.51741077479E+03 -0.76643709567E+03 -0.91250576515E+03  0.12991645750E+04  0.46999998093E+01 0. -1.
</event>
<event>
 5   0  0.1433375E-05  0.2213134E+04  0.7818609E-02  0.8512981E-01
       -3   -1    0    0    0  501  0.00000000000E+00  0.00000000000E+00  0.57699701647E+03  0.57699702531E+03  0.10100000352E+00 0. -1.
        3   -1    0    0  501    0  0.00000000000E+00  0.00000000000E+00 -0.21221782938E+04  0.21221782962E+04  0.10100000352E+00 0.  1.
    10030    2    1    2    0    0  0.00000000000E+00  0.00000000000E+00 -0.15451812773E+04  0.26991753215E+04  0.22131340304E+04 0.  0.
        5    1    3    3  502    0  0.55378760208E+03  0.72523852053E+03 -0.91681795237E+01  0.91255562318E+03  0.46999998093E+01 0.  1.
       -5    1    3    3    0  502 -0.55378760208E+03 -0.72523852053E+03 -0.15360130978E+04  0.17866196983E+04  0.46999998093E+01 0. -1.
</event>
<event>
 5   0  0.3963414E-05  0.2191598E+04  0.7818609E-02  0.8521933E-01
       -2   -1    0    0    0  501  0.00000000000E+00  0.00000000000E+00  0.95957145755E+03  0.95957145756E+03  0.25500000920E-02 0. -1.
        2   -1    0    0  501    0  0.00000000000E+00  0.00000000000E+00 -0.12513659707E+04  0.12513659707E+04  0.25500000920E-02 0.  1.
    10030    2    1    2    0    0  0.00000000000E+00  0.00000000000E+00 -0.29179451316E+03  0.22109374283E+04  0.21915976533E+04 0.  0.
        1    1    3    3  502    0 -0.37576256412E+03  0.50796189970E+03 -0.10490923089E+04  0.12246703511E+04  0.50400001928E-02 0.  1.
       -1    1    3    3    0  502  0.37576256412E+03 -0.50796189970E+03  0.75729779574E+03  0.98626707721E+03  0.50400001928E-02 0. -1.
</event>
<event>
 5   0  0.1786228E-05  0.2212983E+04  0.7818609E-02  0.8513044E-01
        1   -1    0    0  501    0  0.00000000000E+00  0.00000000000E+00  0.11013861580E+04  0.11013861580E+04  0.50400001928E-02 0. -1.
       -1   -1    0    0    0  501  0.00000000000E+00  0.00000000000E+00 -0.11116207320E+04  0.11116207320E+04  0.50400001928E-02 0.  1.
    10030    2    1    2    0    0  0.00000000000E+00  0.00000000000E+00 -0.10234574006E+02  0.22130068901E+04  0.22129832238E+04 0.  0.
        5    1    3    3  502    0  0.15212016816E+03 -0.34309352818E+03  0.10357818705E+04  0.11016895606E+04  0.46999998093E+01 0. -1.
       -5    1    3    3    0  502 -0.15212016816E+03  0.34309352818E+03 -0.10460164445E+04  0.11113173295E+04  0.46999998093E+01 0.  1.
</event>
<event>
 5   0  0.1866935E-05  0.2191375E+04  0.7818609E-02  0.8522027E-01
        1   -1    0    0  501    0  0.00000000000E+00  0.00000000000E+00  0.14462228458E+04  0.14462228458E+04  0.50400001928E-02 0. -1.
       -1   -1    0    0    0  501  0.00000000000E+00  0.00000000000E+00 -0.83011453890E+03  0.83011453892E+03  0.50400001928E-02 0.  1.
    10030    2    1    2    0    0  0.00000000000E+00  0.00000000000E+00  0.61610830693E+03  0.22763373848E+04  0.21913745557E+04 0.  0.
        4    1    3    3  502    0  0.46085423145E+03 -0.31626886162E+03 -0.67088332764E+03  0.87321169694E+03  0.12699999809E+01 0.  1.
       -4    1    3    3    0  502 -0.46085423145E+03  0.31626886162E+03  0.12869916346E+04  0.14031256878E+04  0.12699999809E+01 0. -1.
</event>
<event>
 5   0  0.1788413E-05  0.2182736E+04  0.7818609E-02  0.8525648E-01
       -1   -1    0    0    0  501  0.00000000000E+00  0.00000000000E+00  0.72439692614E+03  0.72439692615E+03  0.50400001928E-02 0. -1.
        1   -1    0    0  501    0  0.00000000000E+00  0.00000000000E+00 -0.16442428123E+04  0.16442428123E+04  0.50400001928E-02 0.  1.
    10030    2    1    2    0    0  0.00000000000E+00  0.00000000000E+00 -0.91984588612E+03  0.23686397384E+04  0.21827363002E+04 0.  0.
        1    1    3    3  502    0 -0.39327168649E+03  0.59613203291E+03  0.43562065699E+03  0.83654131809E+03  0.50400001928E-02 0. -1.
       -1    1    3    3    0  502  0.39327168649E+03 -0.59613203291E+03 -0.13554665431E+04  0.15320984203E+04  0.50400001928E-02 0.  1.
</event>
<event>
 5   0  0.1788413E-05  0.2201674E+04  0.7818609E-02  0.8517732E-01
        1   -1    0    0  501    0  0.00000000000E+00  0.00000000000E+00  0.12293123744E+04  0.12293123744E+04  0.50400001928E-02 0. -1.
       -1   -1    0    0    0  501  0.00000000000E+00  0.00000000000E+00 -0.98578830934E+03  0.98578830935E+03  0.50400001928E-02 0.  1.
    10030    2    1    2    0    0  0.00000000000E+00  0.00000000000E+00  0.24352406506E+03  0.22151006838E+04  0.22016736972E+04 0.  0.
        1    1    3    3  502    0  0.51796708637E+03  0.61219177739E+03  0.88053183472E+03  0.11909680881E+04  0.50400001928E-02 0. -1.
       -1    1    3    3    0  502 -0.51796708637E+03 -0.61219177739E+03 -0.63700776966E+03  0.10241325957E+04  0.50400001928E-02 0.  1.
</event>
<event>
 5   0  0.1788413E-05  0.2215392E+04  0.7818609E-02  0.8512049E-01
        1   -1    0    0  501    0  0.00000000000E+00  0.00000000000E+00  0.19475501175E+04  0.19475501175E+04  0.50400001928E-02 0.  1.
       -1   -1    0    0    0  501  0.00000000000E+00  0.00000000000E+00 -0.63001758891E+03  0.63001758893E+03  0.50400001928E-02 0. -1.
    10030    2    1    2    0    0  0.00000000000E+00  0.00000000000E+00  0.13175325286E+04  0.25775677065E+04  0.22153923620E+04 0.  0.
        1    1    3    3  502    0 -0.98319638221E+03  0.46490734198E+03  0.90331019178E+03  0.14137833162E+04  0.50400001928E-02 0.  1.
       -1    1    3    3    0  502  0.98319638221E+03 -0.46490734198E+03  0.41422233683E+03  0.11637843902E+04  0.50400001928E-02 0. -1.
</event>
<event>
 5   0  0.1815681E-05  0.2264814E+04  0.7818609E-02  0.8491925E-01
       -1   -1    0    0    0  501  0.00000000000E+00  0.00000000000E+00  0.11947875346E+04  0.11947875346E+04  0.50400001928E-02 0.  1.
        1   -1    0    0  501    0  0.00000000000E+00  0.00000000000E+00 -0.10732834038E+04  0.10732834038E+04  0.50400001928E-02 0. -1.
    10030    2    1    2    0    0  0.00000000000E+00  0.00000000000E+00  0.12150413084E+03  0.22680709384E+04  0.22648140162E+04 0.  0.
        2    1    3    3  502    0  0.10263921275E+04  0.34766842728E+03 -0.26834110618E+03  0.11164054299E+04  0.25500000920E-02 0. -1.
       -2    1    3    3    0  502 -0.10263921275E+04 -0.34766842728E+03  0.38984523702E+03  0.11516655085E+04  0.25500000920E-02 0.  1.
</event>
<event>
 5   0  0.1786228E-05  0.2172863E+04  0.7818609E-02  0.8529809E-01
       -1   -1    0    0    0  501  0.00000000000E+00  0.00000000000E+00  0.12837180056E+04  0.12837180056E+04  0.50400001928E-02 0.  1.
        1   -1    0    0  501    0  0.00000000000E+00  0.00000000000E+00 -0.91946494861E+03  0.91946494863E+03  0.50400001928E-02 0. -1.
    10030    2    1    2    0    0  0.00000000000E+00  0.00000000000E+00  0.36425305696E+03  0.22031829542E+04  0.21728632815E+04 0.  0.
        5    1    3    3  502    0  0.71906616942E+03 -0.81381913446E+03  0.21344244519E+03  0.11067689493E+04  0.46999998093E+01 0.  1.
       -5    1    3    3    0  502 -0.71906616942E+03  0.81381913446E+03  0.15081061177E+03  0.10964140049E+04  0.46999998093E+01 0. -1.
</event>
<event>
 5   0  0.4029532E-05  0.2221776E+04  0.7818609E-02  0.8509419E-01
       -2   -1    0    0    0  501  0.00000000000E+00  0.00000000000E+00  0.60901545658E+03  0.60901545658E+03  0.25500000920E-02 0.  1.
        2   -1    0    0  501    0  0.00000000000E+00  0.00000000000E+00 -0.20263398910E+04  0.20263398910E+04  0.25500000920E-02 0. -1.
    10030    2    1    2    0    0  0.00000000000E+00  0.00000000000E+00 -0.14173244344E+04  0.26353553476E+04  0.22217761489E+04 0.  0.
        3    1    3    3  502    0  0.80102579392E+03  0.75891113642E+03 -0.86095118727E+03  0.13995804345E+04  0.10100000352E+00 0. -1.
       -3    1    3    3    0  502 -0.80102579392E+03 -0.75891113642E+03 -0.55637324714E+03  0.12357749131E+04  0.10100000352E+00 0.  1.
</event>
<event>
 5   0  0.1884407E-05  0.2202509E+04  0.7818609E-02  0.8517385E-01
        1   -1    0    0  501    0  0.00000000000E+00  0.00000000000E+00  0.11753895470E+04  0.11753895470E+04  0.50400001928E-02 0.  1.
       -1   -1    0    0    0  501  0.00000000000E+00  0.00000000000E+00 -0.10317953038E+04  0.10317953038E+04  0.50400001928E-02 0. -1.
    10030    2    1    2    0    0  0.00000000000E+00  0.00000000000E+00  0.14359424325E+03  0.22071848508E+04  0.22025089464E+04 0.  0.
        3    1    3    3  502    0  0.39498262565E+03  0.92854252356E+03 -0.37022763108E+03  0.10748353370E+04  0.10100000352E+00 0. -1.
       -3    1    3    3    0  502 -0.39498262565E+03 -0.92854252356E+03  0.51382187433E+03  0.11323495138E+04  0.10100000352E+00 0.  1.
</event>
<event>
 5   0  0.1815681E-05  0.2205698E+04  0.7818609E-02  0.8516060E-01
        1   -1    0    0  501    0  0.00000000000E+00  0.00000000000E+00  0.15578926921E+04  0.15578926921E+04  0.50400001928E-02 0.  1.
       -1   -1    0    0    0  501  0.00000000000E+00  0.00000000000E+00 -0.78071839162E+03  0.78071839164E+03  0.50400001928E-02 0. -1.
    10030    2    1    2    0    0  0.00000000000E+00  0.00000000000E+00  0.77717430044E+03  0.23386110837E+04  0.22056976011E+04 0.  0.
        2    1    3    3  502    0  0.72114019655E+03 -0.57387438479E+03  0.10308106240E+04  0.13827311869E+04  0.25500000920E-02 0.  1.
       -2    1    3    3    0  502 -0.72114019655E+03  0.57387438479E+03 -0.25363632353E+03  0.95587989686E+03  0.25500000920E-02 0. -1.
</event>
<event>
 5   0  0.4027923E-05  0.2182844E+04  0.7818609E-02  0.8525603E-01
        2   -1    0    0  501    0  0.00000000000E+00  0.00000000000E+00  0.22052278908E+04  0.22052278908E+04  0.25500000920E-02 0.  1.
       -2   -1    0    0    0  501  0.00000000000E+00  0.00000000000E+00 -0.54017167063E+03  0.54017167064E+03  0.25500000920E-02 0. -1.
    10030    2    1    2    0    0  0.00000000000E+00  0.00000000000E+00  0.16650562201E+04  0.27453995614E+04  0.21828436810E+04 0.  0.
        5    1    3    3  502    0  0.95838080497E+03 -0.45198972001E+03  0.11614423090E+04  0.15721828142E+04  0.46999998093E+01 0. -1.
       -5    1    3    3    0  502 -0.95838080497E+03  0.45198972001E+03  0.50361391117E+03  0.11732167472E+04  0.46999998093E+01 0.  1.
</event>
<event>
 5   0  0.4029532E-05  0.2199788E+04  0.7818609E-02  0.8518517E-01
        2   -1    0    0  501    0  0.00000000000E+00  0.00000000000E+00  0.71622920867E+03  0.71622920867E+03  0.25500000920E-02 0.  1.
       -2   -1    0    0    0  501  0.00000000000E+00  0.00000000000E+00 -0.16890770807E+04  0.16890770807E+04  0.25500000920E-02 0. -1.
    10030    2    1    2    0    0  0.00000000000E+00  0.00000000000E+00 -0.97284787205E+03  0.24053062894E+04  0.21997875724E+04 0.  0.
        3    1    3    3  502    0 -0.22182203905E+03  0.73072644106E+03  0.37911159555E+03  0.85257947474E+03  0.10100000352E+00 0.  1.
       -3    1    3    3    0  502  0.22182203905E+03 -0.73072644106E+03 -0.13519594676E+04  0.15527268146E+04  0.10100000352E+00 0. -1.
</event>
<event>
 5   0  0.1788413E-05  0.2204870E+04  0.7818609E-02  0.8516404E-01
        1   -1    0    0  501    0  0.00000000000E+00  0.00000000000E+00  0.16395319123E+04  0.16395319123E+04  0.50400001928E-02 0. -1.
       -1   -1    0    0    0  501  0.00000000000E+00  0.00000000000E+00 -0.74128636533E+03  0.74128636534E+03  0.50400001928E-02 0.  1.
    10030    2    1    2    0    0  0.00000000000E+00  0.00000000000E+00  0.89824554693E+03  0.23808182776E+04  0.22048697486E+04 0.  0.
        1    1    3    3  502    0 -0.52947124998E+01  0.16468919335E+03  0.16261602535E+04  0.16344869943E+04  0.50400001928E-02 0. -1.
       -1    1    3    3    0  502  0.52947124998E+01 -0.16468919335E+03 -0.72791470658E+03  0.74633128332E+03  0.50400001928E-02 0.  1.
</event>
<event>
 5   0  0.4132460E-05  0.2127741E+04  0.7818609E-02  0.8549121E-01
       -2   -1    0    0    0  501  0.00000000000E+00  0.00000000000E+00  0.72939292480E+03  0.72939292481E+03  0.25500000920E-02 0. -1.
        2   -1    0    0  501    0  0.00000000000E+00  0.00000000000E+00 -0.15517293650E+04  0.15517293650E+04  0.25500000920E-02 0.  1.
    10030    2    1    2    0    0  0.00000000000E+00  0.00000000000E+00 -0.82233644020E+03  0.22811222898E+04  0.21277409805E+04 0.  0.
        4    1    3    3  502    0 -0.11814471011E+03 -0.66792847001E+03 -0.12898424541E+04  0.14573200687E+04  0.12699999809E+01 0.  1.
       -4    1    3    3    0  502  0.11814471011E+03  0.66792847001E+03  0.46750601385E+03  0.82380222108E+03  0.12699999809E+01 0. -1.
</event>
<event>
 5   0  0.3963414E-05  0.2206987E+04  0.7818609E-02  0.8515526E-01
        2   -1    0    0  501    0  0.00000000000E+00  0.00000000000E+00  0.69884954852E+03  0.69884954852E+03  0.25500000920E-02 0.  1.
       -2   -1    0    0    0  501  0.00000000000E+00  0.00000000000E+00 -0.17424322757E+04  0.17424322757E+04  0.25500000920E-02 0. -1.
    10030    2    1    2    0    0  0.00000000000E+00  0.00000000000E+00 -0.10435827272E+04  0.24412818242E+04  0.22069870948E+04 0.  0.
        1    1    3    3  502    0  0.43315992629E+03  0.89964868251E+03 -0.21281411346E+01  0.99849877451E+03  0.50400001928E-02 0.  1.
       -1    1    3    3    0  502 -0.43315992629E+03 -0.89964868251E+03 -0.10414545860E+04  0.14427830497E+04  0.50400001928E-02 0. -1.
</event>
<event>
 5   0  0.4029532E-05  0.2225976E+04  0.7818609E-02  0.8507693E-01
       -2   -1    0    0    0  501  0.00000000000E+00  0.00000000000E+00  0.80947464989E+03  0.80947464989E+03  0.25500000920E-02 0.  1.
        2   -1    0    0  501    0  0.00000000000E+00  0.00000000000E+00 -0.15303040866E+04  0.15303040866E+04  0.25500000920E-02 0. -1.
    10030    2    1    2    0    0  0.00000000000E+00  0.00000000000E+00 -0.72082943675E+03  0.23397787365E+04  0.22259760688E+04 0.  0.
        3    1    3    3  502    0  0.64323435375E+03 -0.19056241690E+02 -0.13149314443E+04  0.14639529663E+04  0.10100000352E+00 0. -1.
       -3    1    3    3    0  502 -0.64323435375E+03  0.19056241690E+02  0.59410200754E+03  0.87582577021E+03  0.10100000352E+00 0.  1.
</event>
<event>
 5   0  0.1786228E-05  0.2119368E+04  0.7818609E-02  0.8552759E-01
        1   -1    0    0  501    0  0.00000000000E+00  0.00000000000E+00  0.13949104040E+04  0.13949104040E+04  0.50400001928E-02 0. -1.
       -1   -1    0    0    0  501  0.00000000000E+00  0.00000000000E+00 -0.80501937632E+03  0.80501937633E+03  0.50400001928E-02 0.  1.
    10030    2    1    2    0    0  0.00000000000E+00  0.00000000000E+00  0.58989102769E+03  0.21999297803E+04  0.21193677392E+04 0.  0.
        5    1    3    3  502    0 -0.81706854648E+03  0.65585046473E+03  0.13027418871E+03  0.10558097821E+04  0.46999998093E+01 0. -1.
       -5    1    3    3    0  502  0.81706854648E+03 -0.65585046473E+03  0.45961683897E+03  0.11441199982E+04  0.46999998093E+01 0.  1.
</event>
<event>
 5   0  0.1815681E-05  0.2188025E+04  0.7818609E-02  0.8523429E-01
        1   -1    0    0  501    0  0.00000000000E+00  0.00000000000E+00  0.95464483615E+03  0.95464483616E+03  0.50400001928E-02 0. -1.
       -1   -1    0    0    0  501  0.00000000000E+00  0.00000000000E+00 -0.12537263334E+04  0.12537263334E+04  0.50400001928E-02 0.  1.
    10030    2    1    2    0    0  0.00000000000E+00  0.00000000000E+00 -0.29908149724E+03  0.22083711696E+04  0.21880250183E+04 0.  0.
        2    1    3    3  502    0 -0.89108162089E+03 -0.10666020369E+03 -0.78102680773E+03  0.11897082535E+04  0.25500000920E-02 0.  1.
       -2    1    3    3    0  502  0.89108162089E+03  0.10666020369E+03  0.48194531050E+03  0.10186629160E+04  0.25500000920E-02 0. -1.
</event>
<event>
 5   0  0.1788413E-05  0.2191632E+04  0.7818609E-02  0.8521919E-01
       -1   -1    0    0    0  501  0.00000000000E+00  0.00000000000E+00  0.53053421032E+03  0.53053421034E+03  0.50400001928E-02 0. -1.
        1   -1    0    0  501    0  0.00000000000E+00  0.00000000000E+00 -0.22634035914E+04  0.22634035914E+04  0.50400001928E-02 0.  1.
    10030    2    1    2    0    0  0.00000000000E+00  0.00000000000E+00 -0.17328693811E+04  0.27939378017E+04  0.21916323022E+04 0.  0.
        1    1    3    3  502    0  0.82193665884E+03  0.59348285068E+03 -0.13966914827E+04  0.17258472884E+04  0.50400001928E-02 0. -1.
       -1    1    3    3    0  502 -0.82193665884E+03 -0.59348285068E+03 -0.33617789839E+03  0.10680905133E+04  0.50400001928E-02 0.  1.
</event>
<event>
 5   0  0.4143281E-05  0.2197955E+04  0.7818609E-02  0.8519280E-01
       -2   -1    0    0    0  501  0.00000000000E+00  0.00000000000E+00  0.79460969321E+03  0.79460969321E+03  0.25500000920E-02 0.  1.
        2   -1    0    0  501    0  0.00000000000E+00  0.00000000000E+00 -0.15199311689E+04  0.15199311689E+04  0.25500000920E-02 0. -1.
    10030    2    1    2    0    0  0.00000000000E+00  0.00000000000E+00 -0.72532147564E+03  0.23145408621E+04  0.21979554498E+04 0.  0.
        2    1    3    3  502    0 -0.19790428312E+03  0.83365622036E+03 -0.10873524585E+04  0.13843713982E+04  0.25500000920E-02 0. -1.
       -2    1    3    3    0  502  0.19790428312E+03 -0.83365622036E+03  0.36203098286E+03  0.93016946390E+03  0.25500000920E-02 0.  1.
</event>
<event>
 5   0  0.4132460E-05  0.2197706E+04  0.7818609E-02  0.8519384E-01
       -2   -1    0    0    0  501  0.00000000000E+00  0.00000000000E+00  0.10755712809E+04  0.10755712809E+04  0.25500000920E-02 0. -1.
        2   -1    0    0  501    0  0.00000000000E+00  0.00000000000E+00 -0.11226383463E+04  0.11226383463E+04  0.25500000920E-02 0.  1.
    10030    2    1    2    0    0  0.00000000000E+00  0.00000000000E+00 -0.47067065442E+02  0.21982096272E+04  0.21977056801E+04 0.  0.
        4    1    3    3  502    0 -0.19420300186E+03 -0.17465524534E+03 -0.10911379666E+04  0.11219638745E+04  0.12699999809E+01 0.  1.
       -4    1    3    3    0  502  0.19420300186E+03  0.17465524534E+03  0.10440709012E+04  0.10762457527E+04  0.12699999809E+01 0. -1.
</event>
<event>
 5   0  0.1815681E-05  0.2197674E+04  0.7818609E-02  0.8519397E-01
        1   -1    0    0  501    0  0.00000000000E+00  0.00000000000E+00  0.97456974033E+03  0.97456974034E+03  0.50400001928E-02 0.  1.
       -1   -1    0    0    0  501  0.00000000000E+00  0.00000000000E+00 -0.12389490692E+04  0.12389490692E+04  0.50400001928E-02 0. -1.
    10030    2    1    2    0    0  0.00000000000E+00  0.00000000000E+00 -0.26437932890E+03  0.22135188096E+04  0.21976735633E+04 0.  0.
        2    1    3    3  502    0  0.53280279528E+03  0.61176324749E+03  0.61430801595E+03  0.10175988542E+04  0.25500000920E-02 0.  1.
       -2    1    3    3    0  502 -0.53280279528E+03 -0.61176324749E+03 -0.87868734485E+03  0.11959199554E+04  0.25500000920E-02 0. -1.
</event>
<event>
 5   0  0.1786228E-05  0.2208801E+04  0.7818609E-02  0.8514774E-01
       -1   -1    0    0    0  501  0.00000000000E+00  0.00000000000E+00  0.11232308277E+04  0.11232308277E+04  0.50400001928E-02 0.  1.
        1   -1    0    0  501    0  0.00000000000E+00  0.00000000000E+00 -0.10858862683E+04  0.10858862683E+04  0.50400001928E-02 0. -1.
    10030    2    1    2    0    0  0.00000000000E+00  0.00000000000E+00  0.37344559342E+02  0.22091170960E+04  0.22088014234E+04 0.  0.
        5    1    3    3  502    0 -0.99144517741E+03 -0.24204768518E+03  0.44078498804E+03  0.11116942554E+04  0.46999998093E+01 0.  1.
       -5    1    3    3    0  502  0.99144517741E+03  0.24204768518E+03 -0.40344042870E+03  0.10974228407E+04  0.46999998093E+01 0. -1.
</event>
<event>
 5   0  0.1815681E-05  0.2191383E+04  0.7818609E-02  0.8522023E-01
       -1   -1    0    0    0  501  0.00000000000E+00  0.00000000000E+00  0.93927029917E+03  0.93927029918E+03  0.50400001928E-02 0. -1.
        1   -1    0    0  501    0  0.00000000000E+00  0.00000000000E+00 -0.12781628452E+04  0.12781628452E+04  0.50400001928E-02 0.  1.
    10030    2    1    2    0    0  0.00000000000E+00  0.00000000000E+00 -0.33889254598E+03  0.22174331443E+04  0.21913834881E+04 0.  0.
        2    1    3    3  502    0 -0.87202267261E+03  0.58121587450E+03  0.15420737206E+03  0.10592522589E+04  0.25500000920E-02 0. -1.
       -2    1    3    3    0  502  0.87202267261E+03 -0.58121587450E+03 -0.49309991804E+03  0.11581808855E+04  0.25500000920E-02 0.  1.
</event>
<event>
 5   0  0.1433375E-05  0.2151956E+04  0.7818609E-02  0.8538695E-01
        3   -1    0    0  501    0  0.00000000000E+00  0.00000000000E+00  0.15035199290E+04  0.15035199324E+04  0.10100000352E+00 0. -1.
       -3   -1    0    0    0  501  0.00000000000E+00  0.00000000000E+00 -0.77001243180E+03  0.77001243842E+03  0.10100000352E+00 0.  1.
    10030    2    1    2    0    0  0.00000000000E+00  0.00000000000E+00  0.73350749725E+03  0.22735323709E+04  0.21519563641E+04 0.  0.
        3    1    3    3  502    0  0.65093807077E+03 -0.61833952154E+03  0.99326978868E+03  0.13388984350E+04  0.10100000352E+00 0.  1.
       -3    1    3    3    0  502 -0.65093807077E+03  0.61833952154E+03 -0.25976229143E+03  0.93463393589E+03  0.10100000352E+00 0. -1.
</event>
<event>
 5   0  0.4143281E-05  0.2202833E+04  0.7818609E-02  0.8517250E-01
        2   -1    0    0  501    0  0.00000000000E+00  0.00000000000E+00  0.74803813739E+03  0.74803813740E+03  0.25500000920E-02 0. -1.
       -2   -1    0    0    0  501  0.00000000000E+00  0.00000000000E+00 -0.16217330252E+04  0.16217330252E+04  0.25500000920E-02 0.  1.
    10030    2    1    2    0    0  0.00000000000E+00  0.00000000000E+00 -0.87369488780E+03  0.23697711626E+04  0.22028328593E+04 0.  0.
        2    1    3    3  502    0 -0.51258482951E+02 -0.10299766353E+03 -0.16152513398E+04  0.16193433365E+04  0.25500000920E-02 0.  1.
       -2    1    3    3    0  502  0.51258482951E+02  0.10299766353E+03  0.74155645196E+03  0.75042782612E+03  0.25500000920E-02 0. -1.
</event>
<event>
 5   0  0.4029532E-05  0.2218054E+04  0.7818609E-02  0.8510951E-01
        2   -1    0    0  501    0  0.00000000000E+00  0.00000000000E+00  0.13076232212E+04  0.13076232212E+04  0.25500000920E-02 0. -1.
       -2   -1    0    0    0  501  0.00000000000E+00  0.00000000000E+00 -0.94059248991E+03  0.94059248992E+03  0.25500000920E-02 0.  1.
    10030    2    1    2    0    0  0.00000000000E+00  0.00000000000E+00  0.36703073127E+03  0.22482157111E+04  0.22180537248E+04 0.  0.
        3    1    3    3  502    0  0.99914476938E+03  0.26754841267E+03 -0.22201032934E+03  0.10579040693E+04  0.10100000352E+00 0. -1.
       -3    1    3    3    0  502 -0.99914476938E+03 -0.26754841267E+03  0.58904106062E+03  0.11903116418E+04  0.10100000352E+00 0.  1.
</event>
<event>
 5   0  0.4143281E-05  0.2236472E+04  0.7818609E-02  0.8503399E-01
       -2   -1    0    0    0  501  0.00000000000E+00  0.00000000000E+00  0.74002671909E+03  0.74002671909E+03  0.25500000920E-02 0. -1.
        2   -1    0    0  501    0  0.00000000000E+00  0.00000000000E+00 -0.16897389397E+04  0.16897389397E+04  0.25500000920E-02 0.  1.
    10030    2    1    2    0    0  0.00000000000E+00  0.00000000000E+00 -0.94971222063E+03  0.24297656588E+04  0.22364721896E+04 0.  0.
        2    1    3    3  502    0 -0.10997853050E+04  0.19896966237E+03 -0.43515583005E+03  0.11993653489E+04  0.25500000920E-02 0. -1.
       -2    1    3    3    0  502  0.10997853050E+04 -0.19896966237E+03 -0.51455639058E+03  0.12304003099E+04  0.25500000920E-02 0.  1.
</event>
<event>
 5   0  0.1884407E-05  0.2192088E+04  0.7818609E-02  0.8521728E-01
        1   -1    0    0  501    0  0.00000000000E+00  0.00000000000E+00  0.14713465489E+04  0.14713465489E+04  0.50400001928E-02 0. -1.
       -1   -1    0    0    0  501  0.00000000000E+00  0.00000000000E+00 -0.81647156110E+03  0.81647156111E+03  0.50400001928E-02 0.  1.
    10030    2    1    2    0    0  0.00000000000E+00  0.00000000000E+00  0.65487498779E+03  0.22878181100E+04  0.21920881494E+04 0.  0.
        3    1    3    3  502    0 -0.56204995924E+03 -0.75585687822E+03 -0.25747714139E+03  0.97648055054E+03  0.10100000352E+00 0.  1.
       -3    1    3    3    0  502  0.56204995924E+03  0.75585687822E+03  0.91235212918E+03  0.13113375595E+04  0.10100000352E+00 0. -1.
</event>
<event>
 5   0  0.1786228E-05  0.2200555E+04  0.7818609E-02  0.8518197E-01
        1   -1    0    0  501    0  0.00000000000E+00  0.00000000000E+00  0.11952347645E+04  0.11952347645E+04  0.50400001928E-02 0. -1.
       -1   -1    0    0    0  501  0.00000000000E+00  0.00000000000E+00 -0.10128643645E+04  0.10128643646E+04  0.50400001928E-02 0.  1.
    10030    2    1    2    0    0  0.00000000000E+00  0.00000000000E+00  0.18237039999E+03  0.22080991291E+04  0.22005551120E+04 0.  0.
        5    1    3    3  502    0  0.12677147796E+03  0.81579155515E+03 -0.63863329907E+03  0.10437727002E+04  0.46999998093E+01 0.  1.
       -5    1    3    3    0  502 -0.12677147796E+03 -0.81579155515E+03  0.82100369906E+03  0.11643264289E+04  0.46999998093E+01 0. -1.
</event>
<event>
 5   0  0.4027923E-05  0.2207372E+04  0.7818609E-02  0.8515366E-01
        2   -1    0    0  501    0  0.00000000000E+00  0.00000000000E+00  0.76299180936E+03  0.76299180936E+03  0.25500000920E-02 0. -1.
       -2   -1    0    0    0  501  0.00000000000E+00  0.00000000000E+00 -0.15965080163E+04  0.15965080163E+04  0.25500000920E-02 0.  1.
    10030    2    1    2    0    0  0.00000000000E+00  0.00000000000E+00 -0.83351620694E+03  0.23594998257E+04  0.22073717766E+04 0.  0.
        5    1    3    3  502    0  0.13552997806E+03  0.42143353287E+02  0.75318542662E+03  0.76645600921E+03  0.46999998093E+01 0. -1.
       -5    1    3    3    0  502 -0.13552997806E+03 -0.42143353287E+02 -0.15867016336E+04  0.15930438165E+04  0.46999998093E+01 0.  1.
</event>
<event>
 5   0  0.1786228E-05  0.2182133E+04  0.7818609E-02  0.8525902E-01
       -1   -1    0    0    0  501  0.00000000000E+00  0.00000000000E+00  0.55216160595E+03  0.55216160598E+03  0.50400001928E-02 0.  1.
        1   -1    0    0  501    0  0.00000000000E+00  0.00000000000E+00 -0.21559378521E+04  0.21559378521E+04  0.50400001928E-02 0. -1.
    10030    2    1    2    0    0  0.00000000000E+00  0.00000000000E+00 -0.16037762461E+04  0.27080994581E+04  0.21821329994E+04 0.  0.
        5    1    3    3  502    0  0.90628479829E+03 -0.35646566904E+03 -0.14123756791E+04  0.17155894199E+04  0.46999998093E+01 0. -1.
       -5    1    3    3    0  502 -0.90628479829E+03  0.35646566904E+03 -0.19140056706E+03  0.99251003817E+03  0.46999998093E+01 0.  1.
</event>
<event>
 5   0  0.1815681E-05  0.2164994E+04  0.7818609E-02  0.8533141E-01
       -1   -1    0    0    0  501  0.00000000000E+00  0.00000000000E+00  0.80930483708E+03  0.80930483709E+03  0.50400001928E-02 0. -1.
        1   -1    0    0  501    0  0.00000000000E+00  0.00000000000E+00 -0.14479086679E+04  0.14479086679E+04  0.50400001928E-02 0.  1.
    10030    2    1    2    0    0  0.00000000000E+00  0.00000000000E+00 -0.63860383082E+03  0.22572135050E+04  0.21649937539E+04 0.  0.
        2    1    3    3  502    0 -0.43105788144E+02  0.47728421673E+02 -0.14459150804E+04  0.14473446483E+04  0.25500000920E-02 0.  1.
       -2    1    3    3    0  502  0.43105788144E+02 -0.47728421673E+02  0.80731124962E+03  0.80986885666E+03  0.25500000920E-02 0. -1.
</event>
<event>
 5   0  0.4027923E-05  0.2190415E+04  0.7818609E-02  0.8522428E-01
        2   -1    0    0  501    0  0.00000000000E+00  0.00000000000E+00  0.16827898004E+04  0.16827898004E+04  0.25500000920E-02 0. -1.
       -2   -1    0    0    0  501  0.00000000000E+00  0.00000000000E+00 -0.71279227379E+03  0.71279227379E+03  0.25500000920E-02 0.  1.
    10030    2    1    2    0    0  0.00000000000E+00  0.00000000000E+00  0.96999752660E+03  0.23955820742E+04  0.21904150914E+04 0.  0.
        5    1    3    3  502    0 -0.50659256371E+03 -0.38263127796E+03 -0.49101126767E+03  0.80259384215E+03  0.46999998093E+01 0.  1.
       -5    1    3    3    0  502  0.50659256371E+03  0.38263127796E+03  0.14610087943E+04  0.15929882320E+04  0.46999998093E+01 0. -1.
</event>
<event>
 5   0  0.1788413E-05  0.2188283E+04  0.7818609E-02  0.8523321E-01
        1   -1    0    0  501    0  0.00000000000E+00  0.00000000000E+00  0.26239375230E+04  0.26239375230E+04  0.50400001928E-02 0. -1.
       -1   -1    0    0    0  501  0.00000000000E+00  0.00000000000E+00 -0.45624026108E+03  0.45624026111E+03  0.50400001928E-02 0.  1.
    10030    2    1    2    0    0  0.00000000000E+00  0.00000000000E+00  0.21676972620E+04  0.30801777841E+04  0.21882832912E+04 0.  0.
        1    1    3    3  502    0  0.89988619328E+03  0.56816570864E+03  0.14414356114E+04  0.17917433006E+04  0.50400001928E-02 0. -1.
       -1    1    3    3    0  502 -0.89988619328E+03 -0.56816570864E+03  0.72626165055E+03  0.12884344836E+04  0.50400001928E-02 0.  1.
</event>
<event>
 5   0  0.4029532E-05  0.2202773E+04  0.7818609E-02  0.8517275E-01
       -2   -1    0    0    0  501  0.00000000000E+00  0.00000000000E+00  0.60798425834E+03  0.60798425834E+03  0.25500000920E-02 0. -1.
        2   -1    0    0  501    0  0.00000000000E+00  0.00000000000E+00 -0.19952028861E+04  0.19952028861E+04  0.25500000920E-02 0.  1.
    10030    2    1    2    0    0  0.00000000000E+00  0.00000000000E+00 -0.13872186277E+04  0.26031871444E+04  0.22027727499E+04 0.  0.
        3    1    3    3  502    0  0.40877409215E+03  0.75308336664E+03 -0.15113626890E+04  0.17373681254E+04  0.10100000352E+00 0.  1.
       -3    1    3    3    0  502 -0.40877409215E+03 -0.75308336664E+03  0.12414406120E+03  0.86581901899E+03  0.10100000352E+00 0. -1.
</event>
<event>
 5   0  0.3963414E-05  0.2157780E+04  0.7818609E-02  0.8536209E-01
        2   -1    0    0  501    0  0.00000000000E+00  0.00000000000E+00  0.78021098616E+03  0.78021098617E+03  0.25500000920E-02 0. -1.
       -2   -1    0    0    0  501  0.00000000000E+00  0.00000000000E+00 -0.14919088740E+04  0.14919088740E+04  0.25500000920E-02 0.  1.
    10030    2    1    2    0    0  0.00000000000E+00  0.00000000000E+00 -0.71169788783E+03  0.22721198602E+04  0.21577800572E+04 0.  0.
        1    1    3    3  502    0  0.53450681731E+03 -0.46143234474E+03  0.50308745214E+03  0.86701460832E+03  0.50400001928E-02 0. -1.
       -1    1    3    3    0  502 -0.53450681731E+03  0.46143234474E+03 -0.12147853400E+04  0.14051052518E+04  0.50400001928E-02 0.  1.
</event>
<event>
 5   0  0.4029532E-05  0.2209732E+04  0.7818609E-02  0.8514389E-01
        2   -1    0    0  501    0  0.00000000000E+00  0.00000000000E+00  0.27600919055E+04  0.27600919055E+04  0.25500000920E-02 0. -1.
       -2   -1    0    0    0  501  0.00000000000E+00  0.00000000000E+00 -0.44227817749E+03  0.44227817750E+03  0.25500000920E-02 0.  1.
    10030    2    1    2    0    0  0.00000000000E+00  0.00000000000E+00  0.23178137280E+04  0.32023700830E+04  0.22097315834E+04 0.  0.
        3    1    3    3  502    0  0.54839626997E+03  0.57559013025E+03  0.22708275983E+04  0.24059718324E+04  0.10100000352E+00 0. -1.
       -3    1    3    3    0  502 -0.54839626997E+03 -0.57559013025E+03  0.46986129715E+02  0.79639825060E+03  0.10100000352E+00 0.  1.
</event>
<event>
 5   0  0.1815681E-05  0.2202160E+04  0.7818609E-02  0.8517529E-01
       -1   -1    0    0    0  501  0.00000000000E+00  0.00000000000E+00  0.78024384073E+03  0.78024384075E+03  0.50400001928E-02 0.  1.
        1   -1    0    0  501    0  0.00000000000E+00  0.00000000000E+00 -0.15538445072E+04  0.15538445073E+04  0.50400001928E-02 0. -1.
    10030    2    1    2    0    0  0.00000000000E+00  0.00000000000E+00 -0.77360066651E+03  0.23340883480E+04  0.22021603995E+04 0.  0.
        2    1    3    3  502    0  0.42807997356E+03  0.96692563046E+03 -0.61527636422E+02  0.10592371258E+04  0.25500000920E-02 0. -1.
       -2    1    3    3    0  502 -0.42807997356E+03 -0.96692563046E+03 -0.71207303009E+03  0.12748512222E+04  0.25500000920E-02 0.  1.
</event>
<event>
 5   0  0.4132460E-05  0.2195994E+04  0.7818609E-02  0.8520097E-01
        2   -1    0    0  501    0  0.00000000000E+00  0.00000000000E+00  0.11175576535E+04  0.11175576535E+04  0.25500000920E-02 0.  1.
       -2   -1    0    0    0  501  0.00000000000E+00  0.00000000000E+00 -0.10787791588E+04  0.10787791589E+04  0.25500000920E-02 0. -1.
    10030    2    1    2    0    0  0.00000000000E+00  0.00000000000E+00  0.38778494688E+02  0.21963368124E+04  0.21959944494E+04 0.  0.
        4    1    3    3  502    0  0.19271321762E+03  0.88668629362E+03 -0.59896705851E+03  0.10872507152E+04  0.12699999809E+01 0. -1.
       -4    1    3    3    0  502 -0.19271321762E+03 -0.88668629362E+03  0.63774555320E+03  0.11090860972E+04  0.12699999809E+01 0.  1.
</event>
<event>
 5   0  0.1786228E-05  0.2164266E+04  0.7818609E-02  0.8533451E-01
       -1   -1    0    0    0  501  0.00000000000E+00  0.00000000000E+00  0.52160294756E+03  0.52160294759E+03  0.50400001928E-02 0.  1.
        1   -1    0    0  501    0  0.00000000000E+00  0.00000000000E+00 -0.22450243707E+04  0.22450243707E+04  0.50400001928E-02 0. -1.
    10030    2    1    2    0    0  0.00000000000E+00  0.00000000000E+00 -0.17234214232E+04  0.27666273183E+04  0.21642655375E+04 0.  0.
        5    1    3    3  502    0  0.27303439853E+02 -0.13403520730E+03  0.51049370603E+03  0.52852325258E+03  0.46999998093E+01 0.  1.
       -5    1    3    3    0  502 -0.27303439853E+02  0.13403520730E+03 -0.22339151292E+04  0.22381040657E+04  0.46999998093E+01 0. -1.
</event>
<event>
 5   0  0.1433375E-05  0.2180905E+04  0.7818609E-02  0.8526418E-01
       -4   -1    0    0    0  501  0.00000000000E+00  0.00000000000E+00  0.96606752121E+03  0.96606835599E+03  0.12699999809E+01 0. -1.
        4   -1    0    0  501    0  0.00000000000E+00  0.00000000000E+00 -0.12308512914E+04  0.12308519466E+04  0.12699999809E+01 0.  1.
    10030    2    1    2    0    0  0.00000000000E+00  0.00000000000E+00 -0.26478377017E+03  0.21969203026E+04  0.21809054016E+04 0.  0.
        1    1    3    3  502    0  0.65717256557E+03 -0.75216943928E+03  0.30837396057E+03  0.10453368576E+04  0.50400001928E-02 0. -1.
       -1    1    3    3    0  502 -0.65717256557E+03  0.75216943928E+03 -0.57315773074E+03  0.11515834449E+04  0.50400001928E-02 0.  1.
</event>
<event>
 5   0  0.1433375E-05  0.2179252E+04  0.7818609E-02  0.8527114E-01
       -3   -1    0    0    0  501  0.00000000000E+00  0.00000000000E+00  0.11190546591E+04  0.11190546636E+04  0.10100000352E+00 0.  1.
        3   -1    0    0  501    0  0.00000000000E+00  0.00000000000E+00 -0.10609715969E+04  0.10609716017E+04  0.10100000352E+00 0. -1.
    10030    2    1    2    0    0  0.00000000000E+00  0.00000000000E+00  0.58083062153E+02  0.21800262653E+04  0.21792523662E+04 0.  0.
        1    1    3    3  502    0 -0.94279711062E+03 -0.16966305430E+03  0.54848817332E+03  0.11038528978E+04  0.50400001928E-02 0.  1.
       -1    1    3    3    0  502  0.94279711062E+03  0.16966305430E+03 -0.49040511117E+03  0.10761733675E+04  0.50400001928E-02 0. -1.
</event>
<event>
 5   0  0.1815681E-05  0.2199343E+04  0.7818609E-02  0.8518702E-01
        1   -1    0    0  501    0  0.00000000000E+00  0.00000000000E+00  0.93031668046E+03  0.93031668047E+03  0.50400001928E-02 0.  1.
       -1   -1    0    0    0  501  0.00000000000E+00  0.00000000000E+00 -0.12998555052E+04  0.12998555052E+04  0.50400001928E-02 0. -1.
    10030    2    1    2    0    0  0.00000000000E+00  0.00000000000E+00 -0.36953882471E+03  0.22301721856E+04  0.21993428643E+04 0.  0.
        2    1    3    3  502    0 -0.80643645227E+03  0.25000857945E+03 -0.89922604635E+03  0.12334713308E+04  0.25500000920E-02 0. -1.
       -2    1    3    3    0  502  0.80643645227E+03 -0.25000857945E+03  0.52968722164E+03  0.99670085489E+03  0.25500000920E-02 0.  1.
</event>
<event>
 5   0  0.1884407E-05  0.2180075E+04  0.7818609E-02  0.8526768E-01
       -1   -1    0    0    0  501  0.00000000000E+00  0.00000000000E+00  0.82026296664E+03  0.82026296665E+03  0.50400001928E-02 0.  1.
        1   -1    0    0  501    0  0.00000000000E+00  0.00000000000E+00 -0.14485370638E+04  0.14485370638E+04  0.50400001928E-02 0. -1.
    10030    2    1    2    0    0  0.00000000000E+00  0.00000000000E+00 -0.62827409720E+03  0.22688000305E+04  0.21800745944E+04 0.  0.
        3    1    3    3  502    0 -0.39957304455E+03 -0.46677127436E+03 -0.12511397105E+04  0.13938739634E+04  0.10100000352E+00 0. -1.
       -3    1    3    3    0  502  0.39957304455E+03  0.46677127436E+03  0.62286561327E+03  0.87492606710E+03  0.10100000352E+00 0.  1.
</event>
<event>
 5   0  0.1786228E-05  0.2195724E+04  0.7818609E-02  0.8520210E-01
       -1   -1    0    0    0  501  0.00000000000E+00  0.00000000000E+00  0.48536901334E+03  0.48536901336E+03  0.50400001928E-02 0. -1.
        1   -1    0    0  501    0  0.00000000000E+00  0.00000000000E+00 -0.24832671291E+04  0.24832671291E+04  0.50400001928E-02 0.  1.
    10030    2    1    2    0    0  0.00000000000E+00  0.00000000000E+00 -0.19978981157E+04  0.29686361424E+04  0.21957239502E+04 0.  0.
        5    1    3    3  502    0 -0.51000940965E+03 -0.94491968033E+03 -0.13081306121E+04  0.16923978813E+04  0.46999998093E+01 0.  1.
       -5    1    3    3    0  502  0.51000940965E+03  0.94491968033E+03 -0.68976750360E+03  0.12762382611E+04  0.46999998093E+01 0. -1.
</event>
<event>
 5   0  0.4027923E-05  0.2184636E+04  0.7818609E-02  0.8524850E-01
        2   -1    0    0  501    0  0.00000000000E+00  0.00000000000E+00  0.17352572692E+04  0.17352572692E+04  0.25500000920E-02 0.  1.
       -2   -1    0    0    0  501  0.00000000000E+00  0.00000000000E+00 -0.68759781532E+03  0.68759781533E+03  0.25500000920E-02 0. -1.
    10030    2    1    2    0    0  0.00000000000E+00  0.00000000000E+00  0.10476594539E+04  0.24228550845E+04  0.21846364525E+04 0.  0.
        5    1    3    3  502    0  0.10318756742E+04 -0.31584952593E+03  0.71141434755E+03  0.12925404419E+04  0.46999998093E+01 0.  1.
       -5    1    3    3    0  502 -0.10318756742E+04  0.31584952593E+03  0.33624510634E+03  0.11303146427E+04  0.46999998093E+01 0. -1.
</event>
<event>
 5   0  0.1788413E-05  0.2219372E+04  0.7818609E-02  0.8510408E-01
       -1   -1    0    0    0  501  0.00000000000E+00  0.00000000000E+00  0.39336911756E+03  0.39336911760E+03  0.50400001928E-02 0.  1.
        1   -1    0    0  501    0  0.00000000000E+00  0.00000000000E+00 -0.31304020591E+04  0.31304020591E+04  0.50400001928E-02 0. -1.
    10030    2    1    2    0    0  0.00000000000E+00  0.00000000000E+00 -0.27370329415E+04  0.35237711767E+04  0.22193724299E+04 0.  0.
        1    1    3    3  502    0  0.55044543335E+03  0.76685314094E+03 -0.44224108801E+03  0.10424159893E+04  0.50400001928E-02 0.  1.
       -1    1    3    3    0  502 -0.55044543335E+03 -0.76685314094E+03 -0.22947918535E+04  0.24813551874E+04  0.50400001928E-02 0. -1.
</event>
<event>
 5   0  0.1786228E-05  0.2189696E+04  0.7818609E-02  0.8522729E-01
        1   -1    0    0  501    0  0.00000000000E+00  0.00000000000E+00  0.17991140328E+04  0.17991140328E+04  0.50400001928E-02 0. -1.
       -1   -1    0    0    0  501  0.00000000000E+00  0.00000000000E+00 -0.66626794019E+03  0.66626794021E+03  0.50400001928E-02 0.  1.
    10030    2    1    2    0    0  0.00000000000E+00  0.00000000000E+00  0.11328460926E+04  0.24653819730E+04  0.21896958701E+04 0.  0.
        5    1    3    3  502    0  0.53251898897E+03  0.92165504313E+03  0.27795173538E+03  0.11001380592E+04  0.46999998093E+01 0.  1.
       -5    1    3    3    0  502 -0.53251898897E+03 -0.92165504313E+03  0.85489435724E+03  0.13652439138E+04  0.46999998093E+01 0. -1.
</event>
<event>
 5   0  0.1866935E-05  0.2218778E+04  0.7818609E-02  0.8510653E-01
        1   -1    0    0  501    0  0.00000000000E+00  0.00000000000E+00  0.13680018525E+04  0.13680018525E+04  0.50400001928E-02 0.  1.
       -1   -1    0    0    0  501  0.00000000000E+00  0.00000000000E+00 -0.89966526734E+03  0.89966526735E+03  0.50400001928E-02 0. -1.
    10030    2    1    2    0    0  0.00000000000E+00  0.00000000000E+00  0.46833658516E+03  0.22676671199E+04  0.22187778189E+04 0.  0.
        4    1    3    3  502    0 -0.82083800836E+02 -0.87057973858E+03  0.93192312497E+03  0.12779394177E+04  0.12699999809E+01 0.  1.
       -4    1    3    3    0  502  0.82083800836E+02  0.87057973858E+03 -0.46358653981E+03  0.98972770214E+03  0.12699999809E+01 0. -1.
</event>
<event>
 5   0  0.1815681E-05  0.2198339E+04  0.7818609E-02  0.8519120E-01
       -1   -1    0    0    0  501  0.00000000000E+00  0.00000000000E+00  0.73037391555E+03  0.73037391557E+03  0.50400001928E-02 0. -1.
        1   -1    0    0  501    0  0.00000000000E+00  0.00000000000E+00 -0.16541844696E+04  0.16541844696E+04  0.50400001928E-02 0.  1.
    10030    2    1    2    0    0  0.00000000000E+00  0.00000000000E+00 -0.92381055406E+03  0.23845583852E+04  0.21983386346E+04 0.  0.
        2    1    3    3  502    0  0.80790363792E+03  0.21250545776E+03  0.31296472103E+03  0.89208395029E+03  0.25500000920E-02 0. -1.
       -2    1    3    3    0  502 -0.80790363792E+03 -0.21250545776E+03 -0.12367752751E+04  0.14924744349E+04  0.25500000920E-02 0.  1.
</event>
<event>
 5   0  0.4143281E-05  0.2201915E+04  0.7818609E-02  0.8517631E-01
        2   -1    0    0  501    0  0.00000000000E+00  0.00000000000E+00  0.17271761678E+04  0.17271761678E+04  0.25500000920E-02 0.  1.
       -2   -1    0    0    0  501  0.00000000000E+00  0.00000000000E+00 -0.70178567820E+03  0.70178567821E+03  0.25500000920E-02 0. -1.
    10030    2    1    2    0    0  0.00000000000E+00  0.00000000000E+00  0.10253904896E+04  0.24289618460E+04  0.22019150740E+04 0.  0.
        2    1    3    3  502    0 -0.85841774425E+03  0.63391675105E+03  0.21388380101E+03  0.10883371496E+04  0.25500000920E-02 0.  1.
       -2    1    3    3    0  502  0.85841774425E+03 -0.63391675105E+03  0.81150668856E+03  0.13406246964E+04  0.25500000920E-02 0. -1.
</event>
<event>
 5   0  0.4029532E-05  0.2185550E+04  0.7818609E-02  0.8524467E-01
        2   -1    0    0  501    0  0.00000000000E+00  0.00000000000E+00  0.11345312584E+04  0.11345312584E+04  0.25500000920E-02 0. -1.
       -2   -1    0    0    0  501  0.00000000000E+00  0.00000000000E+00 -0.10525552788E+04  0.10525552788E+04  0.25500000920E-02 0.  1.
    10030    2    1    2    0    0  0.00000000000E+00  0.00000000000E+00  0.81975979594E+02  0.21870865372E+04  0.21855496929E+04 0.  0.
        3    1    3    3  502    0 -0.80271778579E+03 -0.59332705970E+03 -0.40403137869E+03  0.10768631336E+04  0.10100000352E+00 0.  1.
       -3    1    3    3    0  502  0.80271778579E+03  0.59332705970E+03  0.48600735829E+03  0.11102234036E+04  0.10100000352E+00 0. -1.
</event>
<event>
 5   0  0.4132460E-05  0.2198898E+04  0.7818609E-02  0.8518887E-01
        2   -1    0    0  501    0  0.00000000000E+00  0.00000000000E+00  0.11855058819E+04  0.11855058819E+04  0.25500000920E-02 0.  1.
       -2   -1    0    0    0  501  0.00000000000E+00  0.00000000000E+00 -0.10196386840E+04  0.10196386840E+04  0.25500000920E-02 0. -1.
    10030    2    1    2    0    0  0.00000000000E+00  0.00000000000E+00  0.16586719791E+03  0.22051445659E+04  0.21988975941E+04 0.  0.
        4    1    3    3  502    0 -0.92014057614E+03 -0.60096225032E+03  0.51672322673E+02  0.11002208633E+04  0.12699999809E+01 0. -1.
       -4    1    3    3    0  502  0.92014057614E+03  0.60096225032E+03  0.11419487524E+03  0.11049237026E+04  0.12699999809E+01 0.  1.
</event>
<event>
 5   0  0.1786228E-05  0.2196035E+04  0.7818609E-02  0.8520080E-01
       -1   -1    0    0    0  501  0.00000000000E+00  0.00000000000E+00  0.59109971783E+03  0.59109971786E+03  0.50400001928E-02 0.  1.
        1   -1    0    0  501    0  0.00000000000E+00  0.00000000000E+00 -0.20396593290E+04  0.20396593290E+04  0.50400001928E-02 0. -1.
    10030    2    1    2    0    0  0.00000000000E+00  0.00000000000E+00 -0.14485596111E+04  0.26307590468E+04  0.21960346572E+04 0.  0.
        5    1    3    3  502    0 -0.53280933745E+03 -0.17186505782E+03 -0.18558256625E+04  0.19384360624E+04  0.46999998093E+01 0. -1.
       -5    1    3    3    0  502  0.53280933745E+03  0.17186505782E+03  0.40726605141E+03  0.69232298445E+03  0.46999998093E+01 0.  1.
</event>
<event>
 5   0  0.3963414E-05  0.2190574E+04  0.7818609E-02  0.8522362E-01
       -2   -1    0    0    0  501  0.00000000000E+00  0.00000000000E+00  0.14758621210E+04  0.14758621210E+04  0.25500000920E-02 0.  1.
        2   -1    0    0  501    0  0.00000000000E+00  0.00000000000E+00 -0.81284952205E+03  0.81284952206E+03  0.25500000920E-02 0. -1.
    10030    2    1    2    0    0  0.00000000000E+00  0.00000000000E+00  0.66301259890E+03  0.22887116430E+04  0.21905741892E+04 0.  0.
        1    1    3    3  502    0 -0.62440757666E+03 -0.87216155952E+03  0.99986539651E+02  0.10772872949E+04  0.50400001928E-02 0. -1.
       -1    1    3    3    0  502  0.62440757666E+03  0.87216155952E+03  0.56302605925E+03  0.12114243481E+04  0.50400001928E-02 0.  1.
</event>
<event>
 5   0  0.4027923E-05  0.2203047E+04  0.7818609E-02  0.8517161E-01
       -2   -1    0    0    0  501  0.00000000000E+00  0.00000000000E+00  0.79451726689E+03  0.79451726689E+03  0.25500000920E-02 0.  1.
        2   -1    0    0  501    0  0.00000000000E+00  0.00000000000E+00 -0.15271585864E+04  0.15271585864E+04  0.25500000920E-02 0. -1.
    10030    2    1    2    0    0  0.00000000000E+00  0.00000000000E+00 -0.73264131949E+03  0.23216758533E+04  0.22030468594E+04 0.  0.
        5    1    3    3  502    0 -0.77455112293E+03 -0.11755940803E+03 -0.11823432587E+04  0.14183466882E+04  0.46999998093E+01 0. -1.
       -5    1    3    3    0  502  0.77455112293E+03  0.11755940803E+03  0.44970193919E+03  0.90332916512E+03  0.46999998093E+01 0.  1.
</event>
<event>
 5   0  0.1866935E-05  0.2184743E+04  0.7818609E-02  0.8524806E-01
        1   -1    0    0  501    0  0.00000000000E+00  0.00000000000E+00  0.95759317248E+03  0.95759317249E+03  0.50400001928E-02 0. -1.
       -1   -1    0    0    0  501  0.00000000000E+00  0.00000000000E+00 -0.12461189316E+04  0.12461189316E+04  0.50400001928E-02 0.  1.
    10030    2    1    2    0    0  0.00000000000E+00  0.00000000000E+00 -0.28852575910E+03  0.22037121041E+04  0.21847425304E+04 0.  0.
        4    1    3    3  502    0 -0.82986904222E+03  0.52280297448E+03  0.34081578106E+03  0.10383460824E+04  0.12699999809E+01 0.  1.
       -4    1    3    3    0  502  0.82986904222E+03 -0.52280297448E+03 -0.62934154015E+03  0.11653660217E+04  0.12699999809E+01 0. -1.
</event>
<event>
 5   0  0.1815681E-05  0.2191998E+04  0.7818609E-02  0.8521766E-01
       -1   -1    0    0    0  501  0.00000000000E+00  0.00000000000E+00  0.62700657913E+03  0.62700657915E+03  0.50400001928E-02 0.  1.
        1   -1    0    0  501    0  0.00000000000E+00  0.00000000000E+00 -0.19157921248E+04  0.19157921248E+04  0.50400001928E-02 0. -1.
    10030    2    1    2    0    0  0.00000000000E+00  0.00000000000E+00 -0.12887855457E+04  0.25427987040E+04  0.21919984184E+04 0.  0.
        2    1    3    3  502    0  0.45088372512E+03 -0.45612112260E+03 -0.16753722243E+04  0.17939383217E+04  0.25500000920E-02 0. -1.
       -2    1    3    3    0  502 -0.45088372512E+03  0.45612112260E+03  0.38658667862E+03  0.74886038228E+03  0.25500000920E-02 0.  1.
</event>
<event>
 5   0  0.1815681E-05  0.2201528E+04  0.7818609E-02  0.8517792E-01
        1   -1    0    0  501    0  0.00000000000E+00  0.00000000000E+00  0.12040193087E+04  0.12040193087E+04  0.50400001928E-02 0. -1.
       -1   -1    0    0    0  501  0.00000000000E+00  0.00000000000E+00 -0.10063640687E+04  0.10063640687E+04  0.50400001928E-02 0.  1.
    10030    2    1    2    0    0  0.00000000000E+00  0.00000000000E+00  0.19765523998E+03  0.22103833774E+04  0.22015283512E+04 0.  0.
        2    1    3    3  502    0  0.74763420473E+03 -0.75335096083E+03  0.39187003512E+03  0.11313959071E+04  0.25500000920E-02 0.  1.
       -2    1    3    3    0  502 -0.74763420473E+03  0.75335096083E+03 -0.19421479515E+03  0.10789874702E+04  0.25500000920E-02 0. -1.
</event>
<event>
 5   0  0.1884407E-05  0.2180860E+04  0.7818609E-02  0.8526437E-01
        1   -1    0    0  501    0  0.00000000000E+00  0.00000000000E+00  0.24934463029E+04  0.24934463029E+04  0.50400001928E-02 0. -1.
       -1   -1    0    0    0  501  0.00000000000E+00  0.00000000000E+00 -0.47686529154E+03  0.47686529157E+03  0.50400001928E-02 0.  1.
    10030    2    1    2    0    0  0.00000000000E+00  0.00000000000E+00  0.20165810114E+04  0.29703115945E+04  0.21808603790E+04 0.  0.
        3    1    3    3  502    0  0.79987797888E+03  0.14192601126E+03  0.19989833191E+04  0.21577493121E+04  0.10100000352E+00 0. -1.
       -3    1    3    3    0  502 -0.79987797888E+03 -0.14192601126E+03  0.17597692289E+02  0.81256228237E+03  0.10100000352E+00 0.  1.
</event>
<event>
 5   0  0.1815681E-05  0.2205976E+04  0.7818609E-02  0.8515945E-01
       -1   -1    0    0    0  501  0.00000000000E+00  0.00000000000E+00  0.12894351695E+04  0.12894351695E+04  0.50400001928E-02 0.  1.
        1   -1    0    0  501    0  0.00000000000E+00  0.00000000000E+00 -0.94350062056E+03  0.94350062057E+03  0.50400001928E-02 0. -1.
    10030    2    1    2    0    0  0.00000000000E+00  0.00000000000E+00  0.34593454897E+03  0.22329357901E+04  0.22059763214E+04 0.  0.
        2    1    3    3  502    0 -0.14389669216E+03 -0.99079676612E+03  0.64143911648E+03  0.11890452598E+04  0.25500000920E-02 0.  1.
       -2    1    3    3    0  502  0.14389669216E+03  0.99079676612E+03 -0.29550456751E+03  0.10438905303E+04  0.25500000920E-02 0. -1.
</event>
<event>
 5   0  0.4143281E-05  0.2206807E+04  0.7818609E-02  0.8515600E-01
       -2   -1    0    0    0  501  0.00000000000E+00  0.00000000000E+00  0.90030991302E+03  0.90030991303E+03  0.25500000920E-02 0. -1.
        2   -1    0    0  501    0  0.00000000000E+00  0.00000000000E+00 -0.13523113328E+04  0.13523113328E+04  0.25500000920E-02 0.  1.
    10030    2    1    2    0    0  0.00000000000E+00  0.00000000000E+00 -0.45200141980E+03  0.22526212458E+04  0.22068070133E+04 0.  0.
        2    1    3    3  502    0  0.94638194121E+03 -0.10161040755E+03 -0.79574218019E+03  0.12406325286E+04  0.25500000920E-02 0.  1.
       -2    1    3    3    0  502 -0.94638194121E+03  0.10161040755E+03  0.34374076039E+03  0.10119887173E+04  0.25500000920E-02 0. -1.
</event>
<event>
 5   0  0.4143281E-05  0.2254637E+04  0.7818609E-02  0.8496025E-01
        2   -1    0    0  501    0  0.00000000000E+00  0.00000000000E+00  0.63980133276E+03  0.63980133276E+03  0.25500000920E-02 0.  1.
       -2   -1    0    0    0  501  0.00000000000E+00  0.00000000000E+00 -0.19863151553E+04  0.19863151553E+04  0.25500000920E-02 0. -1.
    10030    2    1    2    0    0  0.00000000000E+00  0.00000000000E+00 -0.13465138225E+04  0.26261164880E+04  0.22546370738E+04 0.  0.
        2    1    3    3  502    0  0.93431884054E+02 -0.97905881080E+03 -0.13149991490E+04  0.16421048790E+04  0.25500000920E-02 0. -1.
       -2    1    3    3    0  502 -0.93431884054E+02  0.97905881080E+03 -0.31514673527E+02  0.98401160898E+03  0.25500000920E-02 0.  1.
</event>
<event>
 5   0  0.4029532E-05  0.2200903E+04  0.7818609E-02  0.8518052E-01
       -2   -1    0    0    0  501  0.00000000000E+00  0.00000000000E+00  0.72666083166E+03  0.72666083167E+03  0.25500000920E-02 0.  1.
        2   -1    0    0  501    0  0.00000000000E+00  0.00000000000E+00 -0.16665177592E+04  0.16665177592E+04  0.25500000920E-02 0. -1.
    10030    2    1    2    0    0  0.00000000000E+00  0.00000000000E+00 -0.93985692753E+03  0.23931785909E+04  0.22009027065E+04 0.  0.
        3    1    3    3  502    0  0.27908762526E+03  0.45648449177E+02 -0.16263317268E+04  0.16507357690E+04  0.10100000352E+00 0. -1.
       -3    1    3    3    0  502 -0.27908762526E+03 -0.45648449177E+02  0.68647479924E+03  0.74244282182E+03  0.10100000352E+00 0.  1.
</event>
<event>
 5   0  0.1788413E-05  0.2201095E+04  0.7818609E-02  0.8517973E-01
        1   -1    0    0  501    0  0.00000000000E+00  0.00000000000E+00  0.10567139069E+04  0.10567139070E+04  0.50400001928E-02 0.  1.
       -1   -1    0    0    0  501  0.00000000000E+00  0.00000000000E+00 -0.11461992369E+04  0.11461992369E+04  0.50400001928E-02 0. -1.
    10030    2    1    2    0    0  0.00000000000E+00  0.00000000000E+00 -0.89485329993E+02  0.22029131439E+04  0.22010948856E+04 0.  0.
        1    1    3    3  502    0 -0.30174010512E+03  0.90099075855E+03 -0.60051503018E+03  0.11240328018E+04  0.50400001928E-02 0. -1.
       -1    1    3    3    0  502  0.30174010512E+03 -0.90099075855E+03  0.51102970019E+03  0.10788803421E+04  0.50400001928E-02 0.  1.
</event>
<event>
 5   0  0.1815681E-05  0.2190675E+04  0.7818609E-02  0.8522320E-01
       -1   -1    0    0    0  501  0.00000000000E+00  0.00000000000E+00  0.88547325737E+03  0.88547325738E+03  0.50400001928E-02 0.  1.
        1   -1    0    0  501    0  0.00000000000E+00  0.00000000000E+00 -0.13549407806E+04  0.13549407806E+04  0.50400001928E-02 0. -1.
    10030    2    1    2    0    0  0.00000000000E+00  0.00000000000E+00 -0.46946752327E+03  0.22404140380E+04  0.21906746236E+04 0.  0.
        2    1    3    3  502    0 -0.32329459335E+02 -0.81086096955E+03 -0.98711607582E+03  0.12778649588E+04  0.25500000920E-02 0. -1.
       -2    1    3    3    0  502  0.32329459335E+02  0.81086096955E+03  0.51764855256E+03  0.96254907919E+03  0.25500000920E-02 0.  1.
</event>
<event>
 5   0  0.1815681E-05  0.2202289E+04  0.7818609E-02  0.8517476E-01
       -1   -1    0    0    0  501  0.00000000000E+00  0.00000000000E+00  0.50719446979E+03  0.50719446982E+03  0.50400001928E-02 0. -1.
        1   -1    0    0  501    0  0.00000000000E+00  0.00000000000E+00 -0.23906403399E+04  0.23906403399E+04  0.50400001928E-02 0.  1.
    10030    2    1    2    0    0  0.00000000000E+00  0.00000000000E+00 -0.18834458701E+04  0.28978348098E+04  0.22022893177E+04 0.  0.
        2    1    3    3  502    0  0.92563790830E+03 -0.59637631681E+03 -0.95096293455E+03  0.14549229366E+04  0.25500000920E-02 0. -1.
       -2    1    3    3    0  502 -0.92563790830E+03  0.59637631681E+03 -0.93248293560E+03  0.14429118732E+04  0.25500000920E-02 0.  1.
</event>
<event>
 5   0  0.4029532E-05  0.2205250E+04  0.7818609E-02  0.8516246E-01
       -2   -1    0    0    0  501  0.00000000000E+00  0.00000000000E+00  0.56337315408E+03  0.56337315409E+03  0.25500000920E-02 0.  1.
        2   -1    0    0  501    0  0.00000000000E+00  0.00000000000E+00 -0.21580408295E+04  0.21580408295E+04  0.25500000920E-02 0. -1.
    10030    2    1    2    0    0  0.00000000000E+00  0.00000000000E+00 -0.15946676754E+04  0.27214139836E+04  0.22052503430E+04 0.  0.
        3    1    3    3  502    0 -0.84326852399E+03 -0.53258287346E+03 -0.21714661652E+03  0.10207345316E+04  0.10100000352E+00 0.  1.
       -3    1    3    3    0  502  0.84326852399E+03  0.53258287346E+03 -0.13775210589E+04  0.17006794520E+04  0.10100000352E+00 0. -1.
</event>
<event>
 5   0  0.4143281E-05  0.2196059E+04  0.7818609E-02  0.8520070E-01
       -2   -1    0    0    0  501  0.00000000000E+00  0.00000000000E+00  0.14065453492E+04  0.14065453492E+04  0.25500000920E-02 0.  1.
        2   -1    0    0  501    0  0.00000000000E+00  0.00000000000E+00 -0.85718477881E+03  0.85718477882E+03  0.25500000920E-02 0. -1.
    10030    2    1    2    0    0  0.00000000000E+00  0.00000000000E+00  0.54936057036E+03  0.22637301280E+04  0.21960594382E+04 0.  0.
        2    1    3    3  502    0 -0.73849980425E+03 -0.54386882205E+03 -0.34765690796E+03  0.98083667455E+03  0.25500000920E-02 0. -1.
       -2    1    3    3    0  502  0.73849980425E+03  0.54386882205E+03  0.89701747832E+03  0.12828934534E+04  0.25500000920E-02 0.  1.
</event>
<event>
 5   0  0.4143281E-05  0.2199857E+04  0.7818609E-02  0.8518488E-01
        2   -1    0    0  501    0  0.00000000000E+00  0.00000000000E+00  0.11355576969E+04  0.11355576969E+04  0.25500000920E-02 0. -1.
       -2   -1    0    0    0  501  0.00000000000E+00  0.00000000000E+00 -0.10654168303E+04  0.10654168303E+04  0.25500000920E-02 0.  1.
    10030    2    1    2    0    0  0.00000000000E+00  0.00000000000E+00  0.70140866576E+02  0.22009745272E+04  0.21998566154E+04 0.  0.
        2    1    3    3  502    0  0.25490002482E+03 -0.73580325747E+03 -0.74215238533E+03  0.10757186525E+04  0.25500000920E-02 0.  1.
       -2    1    3    3    0  502 -0.25490002482E+03  0.73580325747E+03  0.81229325191E+03  0.11252558747E+04  0.25500000920E-02 0. -1.
</event>
<event>
 5   0  0.1866935E-05  0.2203094E+04  0.7818609E-02  0.8517141E-01
        1   -1    0    0  501    0  0.00000000000E+00  0.00000000000E+00  0.12026950729E+04  0.12026950729E+04  0.50400001928E-02 0.  1.
       -1   -1    0    0    0  501  0.00000000000E+00  0.00000000000E+00 -0.10089056792E+04  0.10089056792E+04  0.50400001928E-02 0. -1.
    10030    2    1    2    0    0  0.00000000000E+00  0.00000000000E+00  0.19378939374E+03  0.22116007521E+04  0.22030940873E+04 0.  0.
        4    1    3    3  502    0 -0.69723688274E+03  0.20172657315E+03  0.92869013998E+03  0.11786856536E+04  0.12699999809E+01 0.  1.
       -4    1    3    3    0  502  0.69723688274E+03 -0.20172657315E+03 -0.73490074625E+03  0.10329150985E+04  0.12699999809E+01 0. -1.
</event>
<event>
 5   0  0.1433375E-05  0.2177755E+04  0.7818609E-02  0.8527745E-01
        3   -1    0    0  501    0  0.00000000000E+00  0.00000000000E+00  0.12887630646E+04  0.12887630685E+04  0.10100000352E+00 0.  1.
       -3   -1    0    0    0  501  0.00000000000E+00  0.00000000000E+00 -0.91999358942E+03  0.91999359497E+03  0.10100000352E+00 0. -1.
    10030    2    1    2    0    0  0.00000000000E+00  0.00000000000E+00  0.36876947515E+03  0.22087566635E+04  0.21777545942E+04 0.  0.
        2    1    3    3  502    0 -0.12127825041E+02 -0.61510959031E+03  0.10955879018E+04  0.12565109402E+04  0.25500000920E-02 0.  1.
       -2    1    3    3    0  502  0.12127825041E+02  0.61510959031E+03 -0.72681842666E+03  0.95224572331E+03  0.25500000920E-02 0. -1.
</event>
<event>
 5   0  0.3963414E-05  0.2190219E+04  0.7818609E-02  0.8522510E-01
       -2   -1    0    0    0  501  0.00000000000E+00  0.00000000000E+00  0.53327560867E+03  0.53327560867E+03  0.25500000920E-02 0. -1.
        2   -1    0    0  501    0  0.00000000000E+00  0.00000000000E+00 -0.22488656725E+04  0.22488656725E+04  0.25500000920E-02 0.  1.
    10030    2    1    2    0    0  0.00000000000E+00  0.00000000000E+00 -0.17155900638E+04  0.27821412811E+04  0.21902193592E+04 0.  0.
        1    1    3    3  502    0 -0.67660279730E+03  0.31093401577E+03 -0.18777993916E+04  0.20200499654E+04  0.50400001928E-02 0.  1.
       -1    1    3    3    0  502  0.67660279730E+03 -0.31093401577E+03  0.16220932783E+03  0.76209131574E+03  0.50400001928E-02 0. -1.
</event>
<event>
 5   0  0.4029532E-05  0.2180890E+04  0.7818609E-02  0.8526424E-01
       -2   -1    0    0    0  501  0.00000000000E+00  0.00000000000E+00  0.11935974922E+04  0.11935974922E+04  0.25500000920E-02 0.  1.
        2   -1    0    0  501    0  0.00000000000E+00  0.00000000000E+00 -0.99620754928E+03  0.99620754928E+03  0.25500000920E-02 0. -1.
    10030    2    1    2    0    0  0.00000000000E+00  0.00000000000E+00  0.19738994288E+03  0.21898050414E+04  0.21808904901E+04 0.  0.
        3    1    3    3  502    0 -0.32098828349E+03 -0.97479883120E+03 -0.27132810143E+03  0.10615484861E+04  0.10100000352E+00 0. -1.
       -3    1    3    3    0  502  0.32098828349E+03  0.97479883120E+03  0.46871804431E+03  0.11282565554E+04  0.10100000352E+00 0.  1.
</event>
<event>
 5   0  0.1815681E-05  0.2178222E+04  0.7818609E-02  0.8527548E-01
        1   -1    0    0  501    0  0.00000000000E+00  0.00000000000E+00  0.16696282021E+04  0.16696282021E+04  0.50400001928E-02 0. -1.
       -1   -1    0    0    0  501  0.00000000000E+00  0.00000000000E+00 -0.71043538937E+03  0.71043538939E+03  0.50400001928E-02 0.  1.
    10030    2    1    2    0    0  0.00000000000E+00  0.00000000000E+00  0.95919281268E+03  0.23800635915E+04  0.21782221759E+04 0.  0.
        2    1    3    3  502    0  0.48246459952E+03  0.81394768364E+03  0.10689057766E+04  0.14275302031E+04  0.25500000920E-02 0. -1.
       -2    1    3    3    0  502 -0.48246459952E+03 -0.81394768364E+03 -0.10971296390E+03  0.95253338837E+03  0.25500000920E-02 0.  1.
</event>
<event>
 5   0  0.4029532E-05  0.1969112E+04  0.7818609E-02  0.8621200E-01
        2   -1    0    0  501    0  0.00000000000E+00  0.00000000000E+00  0.11926298807E+04  0.11926298807E+04  0.25500000920E-02 0.  1.
       -2   -1    0    0    0  501  0.00000000000E+00  0.00000000000E+00 -0.81278369929E+03  0.81278369929E+03  0.25500000920E-02 0. -1.
    10030    2    1    2    0    0  0.00000000000E+00  0.00000000000E+00  0.37984618145E+03  0.20054135800E+04  0.19691116031E+04 0.  0.
        3    1    3    3  502    0  0.12317561948E+02 -0.96607226459E+03  0.38289656654E+03  0.10392579726E+04  0.10100000352E+00 0.  1.
       -3    1    3    3    0  502 -0.12317561948E+02  0.96607226459E+03 -0.30503850893E+01  0.96615560744E+03  0.10100000352E+00 0. -1.
</event>
<event>
 5   0  0.4143281E-05  0.1981356E+04  0.7818609E-02  0.8615387E-01
       -2   -1    0    0    0  501  0.00000000000E+00  0.00000000000E+00  0.11144208154E+04  0.11144208154E+04  0.25500000920E-02 0.  1.
        2   -1    0    0  501    0  0.00000000000E+00  0.00000000000E+00 -0.88067534471E+03  0.88067534471E+03  0.25500000920E-02 0. -1.
    10030    2    1    2    0    0  0.00000000000E+00  0.00000000000E+00  0.23374547065E+03  0.19950961601E+04  0.19813560364E+04 0.  0.
        2    1    3    3  502    0 -0.47517724358E+03 -0.84689711363E+03  0.31422886009E+03  0.10206703241E+04  0.25500000920E-02 0.  1.
       -2    1    3    3    0  502  0.47517724358E+03  0.84689711363E+03 -0.80483389447E+02  0.97442583601E+03  0.25500000920E-02 0. -1.
</event>
<event>
 5   0  0.4029532E-05  0.2249556E+04  0.7818609E-02  0.8498080E-01
        2   -1    0    0  501    0  0.00000000000E+00  0.00000000000E+00  0.11531479703E+04  0.11531479703E+04  0.25500000920E-02 0.  1.
       -2   -1    0    0    0  501  0.00000000000E+00  0.00000000000E+00 -0.10971062672E+04  0.10971062672E+04  0.25500000920E-02 0. -1.
    10030    2    1    2    0    0  0.00000000000E+00  0.00000000000E+00  0.56041703086E+02  0.22502542375E+04  0.22495562809E+04 0.  0.
        3    1    3    3  502    0 -0.82581964838E+03 -0.36461170931E+03  0.69920299801E+03  0.11418426480E+04  0.10100000352E+00 0.  1.
       -3    1    3    3    0  502  0.82581964838E+03  0.36461170931E+03 -0.64316129492E+03  0.11084115895E+04  0.10100000352E+00 0. -1.
</event>
<event>
 5   0  0.1786228E-05  0.2204339E+04  0.7818609E-02  0.8516624E-01
       -1   -1    0    0    0  501  0.00000000000E+00  0.00000000000E+00  0.11528176069E+04  0.11528176069E+04  0.50400001928E-02 0.  1.
        1   -1    0    0  501    0  0.00000000000E+00  0.00000000000E+00 -0.10537464063E+04  0.10537464063E+04  0.50400001928E-02 0. -1.
    10030    2    1    2    0    0  0.00000000000E+00  0.00000000000E+00  0.99071200594E+02  0.22065640132E+04  0.22043388219E+04 0.  0.
        5    1    3    3  502    0 -0.70771456041E+03 -0.60017752685E+03  0.64484793371E+03  0.11300105798E+04  0.46999998093E+01 0. -1.
       -5    1    3    3    0  502  0.70771456041E+03  0.60017752685E+03 -0.54577673311E+03  0.10765534335E+04  0.46999998093E+01 0.  1.
</event>
<event>
 5   0  0.1786228E-05  0.2225196E+04  0.7818609E-02  0.8508014E-01
        1   -1    0    0  501    0  0.00000000000E+00  0.00000000000E+00  0.71653185133E+03  0.71653185135E+03  0.50400001928E-02 0. -1.
       -1   -1    0    0    0  501  0.00000000000E+00  0.00000000000E+00 -0.17275910545E+04  0.17275910545E+04  0.50400001928E-02 0.  1.
    10030    2    1    2    0    0  0.00000000000E+00  0.00000000000E+00 -0.10110592032E+04  0.24441229059E+04  0.22251957367E+04 0.  0.
        5    1    3    3  502    0  0.73100512636E+02  0.76565866190E+03 -0.13885353252E+04  0.15873340263E+04  0.46999998093E+01 0.  1.
       -5    1    3    3    0  502 -0.73100512636E+02 -0.76565866190E+03  0.37747612206E+03  0.85678887960E+03  0.46999998093E+01 0. -1.
</event>
<event>
 5   0  0.3963414E-05  0.2206140E+04  0.7818609E-02  0.8515877E-01
        2   -1    0    0  501    0  0.00000000000E+00  0.00000000000E+00  0.11682372015E+04  0.11682372015E+04  0.25500000920E-02 0. -1.
       -2   -1    0    0    0  501  0.00000000000E+00  0.00000000000E+00 -0.10415379098E+04  0.10415379098E+04  0.25500000920E-02 0.  1.
    10030    2    1    2    0    0  0.00000000000E+00  0.00000000000E+00  0.12669929167E+03  0.22097751113E+04  0.22061399167E+04 0.  0.
        1    1    3    3  502    0  0.51893055393E+03 -0.93655338330E+03  0.32900765673E+03  0.11201192784E+04  0.50400001928E-02 0. -1.
       -1    1    3    3    0  502 -0.51893055393E+03  0.93655338330E+03 -0.20230836506E+03  0.10896558329E+04  0.50400001928E-02 0.  1.
</event>
<event>
 5   0  0.1815681E-05  0.2142768E+04  0.7818609E-02  0.8542634E-01
       -1   -1    0    0    0  501  0.00000000000E+00  0.00000000000E+00  0.14459961609E+04  0.14459961609E+04  0.50400001928E-02 0. -1.
        1   -1    0    0  501    0  0.00000000000E+00  0.00000000000E+00 -0.79382216849E+03  0.79382216851E+03  0.50400001928E-02 0.  1.
    10030    2    1    2    0    0  0.00000000000E+00  0.00000000000E+00  0.65217399239E+03  0.22398183294E+04  0.21427681238E+04 0.  0.
        2    1    3    3  502    0 -0.28935986704E+03 -0.94613364533E+03  0.75575896560E+03  0.12450179202E+04  0.25500000920E-02 0. -1.
       -2    1    3    3    0  502  0.28935986704E+03  0.94613364533E+03 -0.10358497321E+03  0.99480040921E+03  0.25500000920E-02 0.  1.
</event>
<event>
 5   0  0.4143281E-05  0.2201318E+04  0.7818609E-02  0.8517880E-01
       -2   -1    0    0    0  501  0.00000000000E+00  0.00000000000E+00  0.54142854525E+03  0.54142854525E+03  0.25500000920E-02 0. -1.
        2   -1    0    0  501    0  0.00000000000E+00  0.00000000000E+00 -0.22375062508E+04  0.22375062508E+04  0.25500000920E-02 0.  1.
    10030    2    1    2    0    0  0.00000000000E+00  0.00000000000E+00 -0.16960777055E+04  0.27789347960E+04  0.22013175640E+04 0.  0.
        2    1    3    3  502    0 -0.27168385632E+03  0.10248224252E+04 -0.47488037594E+03  0.11617161841E+04  0.25500000920E-02 0. -1.
       -2    1    3    3    0  502  0.27168385632E+03 -0.10248224252E+04 -0.12211973296E+04  0.16172186119E+04  0.25500000920E-02 0.  1.
</event>
<event>
 5   0  0.1788413E-05  0.2184170E+04  0.7818609E-02  0.8525046E-01
       -1   -1    0    0    0  501  0.00000000000E+00  0.00000000000E+00  0.10410815601E+04  0.10410815601E+04  0.50400001928E-02 0. -1.
        1   -1    0    0  501    0  0.00000000000E+00  0.00000000000E+00 -0.11455867455E+04  0.11455867455E+04  0.50400001928E-02 0.  1.
    10030    2    1    2    0    0  0.00000000000E+00  0.00000000000E+00 -0.10450518543E+03  0.21866683056E+04  0.21841696237E+04 0.  0.
        1    1    3    3  502    0  0.20226412117E+03  0.39699981423E+03 -0.10504537103E+04  0.11410401504E+04  0.50400001928E-02 0.  1.
       -1    1    3    3    0  502 -0.20226412117E+03 -0.39699981423E+03  0.94594852491E+03  0.10456281552E+04  0.50400001928E-02 0. -1.
</event>
<event>
 5   0  0.4132460E-05  0.2159091E+04  0.7818609E-02  0.8535651E-01
        2   -1    0    0  501    0  0.00000000000E+00  0.00000000000E+00  0.16256313405E+04  0.16256313405E+04  0.25500000920E-02 0. -1.
       -2   -1    0    0    0  501  0.00000000000E+00  0.00000000000E+00 -0.71690213110E+03  0.71690213110E+03  0.25500000920E-02 0.  1.
    10030    2    1    2    0    0  0.00000000000E+00  0.00000000000E+00  0.90872920943E+03  0.23425334716E+04  0.21590910795E+04 0.  0.
        4    1    3    3  502    0  0.60116582445E+03  0.58468343043E+03  0.11919493239E+04  0.14573948902E+04  0.12699999809E+01 0. -1.
       -4    1    3    3    0  502 -0.60116582445E+03 -0.58468343043E+03 -0.28322011442E+03  0.88513858148E+03  0.12699999809E+01 0.  1.
</event>
<event>
 5   0  0.1866935E-05  0.2118599E+04  0.7818609E-02  0.8553094E-01
       -1   -1    0    0    0  501  0.00000000000E+00  0.00000000000E+00  0.10559610554E+04  0.10559610554E+04  0.50400001928E-02 0. -1.
        1   -1    0    0  501    0  0.00000000000E+00  0.00000000000E+00 -0.10626482176E+04  0.10626482176E+04  0.50400001928E-02 0.  1.
    10030    2    1    2    0    0  0.00000000000E+00  0.00000000000E+00 -0.66871621968E+01  0.21186092731E+04  0.21185987194E+04 0.  0.
        4    1    3    3  502    0  0.12816596248E+03 -0.33226275336E+03  0.99430284189E+03  0.10561556729E+04  0.12699999809E+01 0. -1.
       -4    1    3    3    0  502 -0.12816596248E+03  0.33226275336E+03 -0.10009900041E+04  0.10624536001E+04  0.12699999809E+01 0.  1.
</event>
<event>
 5   0  0.4027923E-05  0.2211815E+04  0.7818609E-02  0.8513527E-01
        2   -1    0    0  501    0  0.00000000000E+00  0.00000000000E+00  0.24861930864E+04  0.24861930864E+04  0.25500000920E-02 0.  1.
       -2   -1    0    0    0  501  0.00000000000E+00  0.00000000000E+00 -0.49192928403E+03  0.49192928404E+03  0.25500000920E-02 0. -1.
    10030    2    1    2    0    0  0.00000000000E+00  0.00000000000E+00  0.19942638023E+04  0.29781223704E+04  0.22118148069E+04 0.  0.
        5    1    3    3  502    0  0.91078254611E+03  0.57630244644E+03  0.13306623817E+04  0.17124058573E+04  0.46999998093E+01 0.  1.
       -5    1    3    3    0  502 -0.91078254611E+03 -0.57630244644E+03  0.66360142063E+03  0.12657165131E+04  0.46999998093E+01 0. -1.
</event>
<event>
 5   0  0.1866935E-05  0.2147517E+04  0.7818609E-02  0.8540596E-01
        1   -1    0    0  501    0  0.00000000000E+00  0.00000000000E+00  0.18219274826E+04  0.18219274826E+04  0.50400001928E-02 0.  1.
       -1   -1    0    0    0  501  0.00000000000E+00  0.00000000000E+00 -0.63282303412E+03  0.63282303414E+03  0.50400001928E-02 0. -1.
    10030    2    1    2    0    0  0.00000000000E+00  0.00000000000E+00  0.11891044485E+04  0.24547505167E+04  0.21475173364E+04 0.  0.
        4    1    3    3  502    0 -0.98888692644E+03 -0.40065488906E+03  0.45674600893E+03  0.11606206197E+04  0.12699999809E+01 0. -1.
       -4    1    3    3    0  502  0.98888692644E+03  0.40065488906E+03  0.73235843955E+03  0.12941298970E+04  0.12699999809E+01 0.  1.
</event>
<event>
 5   0  0.1786228E-05  0.2190037E+04  0.7818609E-02  0.8522586E-01
       -1   -1    0    0    0  501  0.00000000000E+00  0.00000000000E+00  0.68106529278E+03  0.68106529280E+03  0.50400001928E-02 0.  1.
        1   -1    0    0  501    0  0.00000000000E+00  0.00000000000E+00 -0.17605739044E+04  0.17605739044E+04  0.50400001928E-02 0. -1.
    10030    2    1    2    0    0  0.00000000000E+00  0.00000000000E+00 -0.10795086116E+04  0.24416391972E+04  0.21900372433E+04 0.  0.
        5    1    3    3  502    0 -0.16433196152E+03  0.79008335459E+03  0.28541634543E+03  0.85599140242E+03  0.46999998093E+01 0.  1.
       -5    1    3    3    0  502  0.16433196152E+03 -0.79008335459E+03 -0.13649249571E+04  0.15856477948E+04  0.46999998093E+01 0. -1.
</event>
<event>
 5   0  0.3963414E-05  0.2198220E+04  0.7818609E-02  0.8519169E-01
       -2   -1    0    0    0  501  0.00000000000E+00  0.00000000000E+00  0.67314472353E+03  0.67314472354E+03  0.25500000920E-02 0. -1.
        2   -1    0    0  501    0  0.00000000000E+00  0.00000000000E+00 -0.17946259802E+04  0.17946259802E+04  0.25500000920E-02 0.  1.
    10030    2    1    2    0    0  0.00000000000E+00  0.00000000000E+00 -0.11214812567E+04  0.24677707037E+04  0.21982201976E+04 0.  0.
        1    1    3    3  502    0 -0.36818257660E+03  0.62342496458E+02  0.59974773866E+03  0.70650006838E+03  0.50400001928E-02 0. -1.
       -1    1    3    3    0  502  0.36818257660E+03 -0.62342496458E+02 -0.17212289953E+04  0.17612706354E+04  0.50400001928E-02 0.  1.
</event>
<event>
 5   0  0.1884407E-05  0.2185486E+04  0.7818609E-02  0.8524493E-01
       -1   -1    0    0    0  501  0.00000000000E+00  0.00000000000E+00  0.10200735698E+04  0.10200735698E+04  0.50400001928E-02 0.  1.
        1   -1    0    0  501    0  0.00000000000E+00  0.00000000000E+00 -0.11705896415E+04  0.11705896415E+04  0.50400001928E-02 0. -1.
    10030    2    1    2    0    0  0.00000000000E+00  0.00000000000E+00 -0.15051607171E+03  0.21906632113E+04  0.21854862656E+04 0.  0.
        3    1    3    3  502    0  0.66878728351E+03 -0.17930338509E+03 -0.92263704032E+03  0.11535533160E+04  0.10100000352E+00 0. -1.
       -3    1    3    3    0  502 -0.66878728351E+03  0.17930338509E+03  0.77212096861E+03  0.10371098953E+04  0.10100000352E+00 0.  1.
</event>
<event>
 5   0  0.3963414E-05  0.2252433E+04  0.7818609E-02  0.8496916E-01
       -2   -1    0    0    0  501  0.00000000000E+00  0.00000000000E+00  0.10596289919E+04  0.10596289919E+04  0.25500000920E-02 0.  1.
        2   -1    0    0  501    0  0.00000000000E+00  0.00000000000E+00 -0.11969884031E+04  0.11969884031E+04  0.25500000920E-02 0. -1.
    10030    2    1    2    0    0  0.00000000000E+00  0.00000000000E+00 -0.13735941122E+03  0.22566173949E+04  0.22524330088E+04 0.  0.
        1    1    3    3  502    0 -0.55742110828E+03 -0.38432261103E+02  0.91097542081E+03  0.10686774761E+04  0.50400001928E-02 0.  1.
       -1    1    3    3    0  502  0.55742110828E+03  0.38432261103E+02 -0.10483348320E+04  0.11879399188E+04  0.50400001928E-02 0. -1.
</event>
<event>
 5   0  0.1884407E-05  0.2210405E+04  0.7818609E-02  0.8514110E-01
        1   -1    0    0  501    0  0.00000000000E+00  0.00000000000E+00  0.13148112734E+04  0.13148112734E+04  0.50400001928E-02 0.  1.
       -1   -1    0    0    0  501  0.00000000000E+00  0.00000000000E+00 -0.92900962958E+03  0.92900962959E+03  0.50400001928E-02 0. -1.
    10030    2    1    2    0    0  0.00000000000E+00  0.00000000000E+00  0.38580164383E+03  0.22438209030E+04  0.22104047902E+04 0.  0.
        3    1    3    3  502    0  0.10758101554E+04  0.18797899944E+03  0.20723195552E+02  0.10923063012E+04  0.10100000352E+00 0.  1.
       -3    1    3    3    0  502 -0.10758101554E+04 -0.18797899944E+03  0.36507844827E+03  0.11515146018E+04  0.10100000352E+00 0. -1.
</event>
<event>
 5   0  0.1786228E-05  0.2202640E+04  0.7818609E-02  0.8517330E-01
        1   -1    0    0  501    0  0.00000000000E+00  0.00000000000E+00  0.13489782164E+04  0.13489782164E+04  0.50400001928E-02 0. -1.
       -1   -1    0    0    0  501  0.00000000000E+00  0.00000000000E+00 -0.89912943238E+03  0.89912943239E+03  0.50400001928E-02 0.  1.
    10030    2    1    2    0    0  0.00000000000E+00  0.00000000000E+00  0.44984878403E+03  0.22481076488E+04  0.22026402503E+04 0.  0.
        5    1    3    3  502    0  0.84378797099E+03  0.54191866562E+03  0.68954641459E+03  0.12170251961E+04  0.46999998093E+01 0. -1.
       -5    1    3    3    0  502 -0.84378797099E+03 -0.54191866562E+03 -0.23969763056E+03  0.10310824527E+04  0.46999998093E+01 0.  1.
</event>
<event>
 5   0  0.4132460E-05  0.2071145E+04  0.7818609E-02  0.8574062E-01
       -2   -1    0    0    0  501  0.00000000000E+00  0.00000000000E+00  0.67090061208E+03  0.67090061208E+03  0.25500000920E-02 0.  1.
        2   -1    0    0  501    0  0.00000000000E+00  0.00000000000E+00 -0.15984645039E+04  0.15984645039E+04  0.25500000920E-02 0. -1.
    10030    2    1    2    0    0  0.00000000000E+00  0.00000000000E+00 -0.92756389182E+03  0.22693651160E+04  0.20711453972E+04 0.  0.
        4    1    3    3  502    0 -0.55835724157E+03  0.46833465700E+02 -0.14180230693E+04  0.15247121764E+04  0.12699999809E+01 0. -1.
       -4    1    3    3    0  502  0.55835724157E+03 -0.46833465700E+02  0.49045917753E+03  0.74465293959E+03  0.12699999809E+01 0.  1.
</event>
<event>
 5   0  0.4143281E-05  0.2213182E+04  0.7818609E-02  0.8512962E-01
       -2   -1    0    0    0  501  0.00000000000E+00  0.00000000000E+00  0.82096340725E+03  0.82096340725E+03  0.25500000920E-02 0.  1.
        2   -1    0    0  501    0  0.00000000000E+00  0.00000000000E+00 -0.14915929787E+04  0.14915929787E+04  0.25500000920E-02 0. -1.
    10030    2    1    2    0    0  0.00000000000E+00  0.00000000000E+00 -0.67062957142E+03  0.23125563859E+04  0.22131816500E+04 0.  0.
        2    1    3    3  502    0  0.52350867811E+03  0.55679640786E+03 -0.11715359717E+04  0.13987780771E+04  0.25500000920E-02 0. -1.
       -2    1    3    3    0  502 -0.52350867811E+03 -0.55679640786E+03  0.50090640030E+03  0.91377830885E+03  0.25500000920E-02 0.  1.
</event>
<event>
 5   0  0.1866935E-05  0.2313313E+04  0.7818609E-02  0.8472690E-01
        1   -1    0    0  501    0  0.00000000000E+00  0.00000000000E+00  0.13465457746E+04  0.13465457746E+04  0.50400001928E-02 0. -1.
       -1   -1    0    0    0  501  0.00000000000E+00  0.00000000000E+00 -0.99354547530E+03  0.99354547531E+03  0.50400001928E-02 0.  1.
    10030    2    1    2    0    0  0.00000000000E+00  0.00000000000E+00  0.35300029932E+03  0.23400912499E+04  0.23133131752E+04 0.  0.
        4    1    3    3  502    0 -0.49507652700E+03 -0.77344889829E+02  0.12310500911E+04  0.13291233725E+04  0.12699999809E+01 0. -1.
       -4    1    3    3    0  502  0.49507652700E+03  0.77344889829E+02 -0.87804979176E+03  0.10109678775E+04  0.12699999809E+01 0.  1.
</event>
<event>
 5   0  0.4027923E-05  0.2195532E+04  0.7818609E-02  0.8520290E-01
        2   -1    0    0  501    0  0.00000000000E+00  0.00000000000E+00  0.15590164998E+04  0.15590164998E+04  0.25500000920E-02 0. -1.
       -2   -1    0    0    0  501  0.00000000000E+00  0.00000000000E+00 -0.77298092290E+03  0.77298092291E+03  0.25500000920E-02 0.  1.
    10030    2    1    2    0    0  0.00000000000E+00  0.00000000000E+00  0.78603557687E+03  0.23319974227E+04  0.21955318379E+04 0.  0.
        5    1    3    3  502    0 -0.48502528044E+03  0.30798226107E+03 -0.60051853270E+03  0.83111202248E+03  0.46999998093E+01 0.  1.
       -5    1    3    3    0  502  0.48502528044E+03 -0.30798226107E+03  0.13865541096E+04  0.15008854002E+04  0.46999998093E+01 0. -1.
</event>
<event>
 5   0  0.1788413E-05  0.2175594E+04  0.7818609E-02  0.8528656E-01
        1   -1    0    0  501    0  0.00000000000E+00  0.00000000000E+00  0.11697022043E+04  0.11697022044E+04  0.50400001928E-02 0.  1.
       -1   -1    0    0    0  501  0.00000000000E+00  0.00000000000E+00 -0.10116269826E+04  0.10116269826E+04  0.50400001928E-02 0. -1.
    10030    2    1    2    0    0  0.00000000000E+00  0.00000000000E+00  0.15807522177E+03  0.21813291869E+04  0.21755939984E+04 0.  0.
        1    1    3    3  502    0  0.77610709499E+02  0.77311965770E+03  0.84233607787E+03  0.11459788373E+04  0.50400001928E-02 0.  1.
       -1    1    3    3    0  502 -0.77610709499E+02 -0.77311965770E+03 -0.68426085610E+03  0.10353503497E+04  0.50400001928E-02 0. -1.
</event>
<event>
 5   0  0.4132460E-05  0.2218256E+04  0.7818609E-02  0.8510868E-01
       -2   -1    0    0    0  501  0.00000000000E+00  0.00000000000E+00  0.10433107593E+04  0.10433107593E+04  0.25500000920E-02 0.  1.
        2   -1    0    0  501    0  0.00000000000E+00  0.00000000000E+00 -0.11790974554E+04  0.11790974554E+04  0.25500000920E-02 0. -1.
    10030    2    1    2    0    0  0.00000000000E+00  0.00000000000E+00 -0.13578669612E+03  0.22224082147E+04  0.22182561272E+04 0.  0.
        4    1    3    3  502    0  0.10923916931E+04  0.17741958317E+03  0.54976330080E+01  0.11067199992E+04  0.12699999809E+01 0. -1.
       -4    1    3    3    0  502 -0.10923916931E+04 -0.17741958317E+03 -0.14128432913E+03  0.11156882155E+04  0.12699999809E+01 0.  1.
</event>
<event>
 5   0  0.1815681E-05  0.2199160E+04  0.7818609E-02  0.8518778E-01
       -1   -1    0    0    0  501  0.00000000000E+00  0.00000000000E+00  0.73994601483E+03  0.73994601485E+03  0.50400001928E-02 0.  1.
        1   -1    0    0  501    0  0.00000000000E+00  0.00000000000E+00 -0.16340054265E+04  0.16340054265E+04  0.50400001928E-02 0. -1.
    10030    2    1    2    0    0  0.00000000000E+00  0.00000000000E+00 -0.89405941169E+03  0.23739514414E+04  0.21991596610E+04 0.  0.
        2    1    3    3  502    0  0.26317935693E+02  0.96698569902E+03 -0.10113845131E+04  0.13995187062E+04  0.25500000920E-02 0.  1.
       -2    1    3    3    0  502 -0.26317935693E+02 -0.96698569902E+03  0.11732510138E+03  0.97443273512E+03  0.25500000920E-02 0. -1.
</event>
<event>
 5   0  0.1815681E-05  0.2199879E+04  0.7818609E-02  0.8518478E-01
       -1   -1    0    0    0  501  0.00000000000E+00  0.00000000000E+00  0.69311535364E+03  0.69311535366E+03  0.50400001928E-02 0.  1.
        1   -1    0    0  501    0  0.00000000000E+00  0.00000000000E+00 -0.17455492204E+04  0.17455492204E+04  0.50400001928E-02 0. -1.
    10030    2    1    2    0    0  0.00000000000E+00  0.00000000000E+00 -0.10524338668E+04  0.24386645741E+04  0.21998790560E+04 0.  0.
        2    1    3    3  502    0  0.22872881733E+03 -0.17062654490E+03  0.65136697059E+03  0.71113235061E+03  0.25500000920E-02 0.  1.
       -2    1    3    3    0  502 -0.22872881733E+03  0.17062654490E+03 -0.17038008374E+04  0.17275322235E+04  0.25500000920E-02 0. -1.
</event>
<event>
 5   0  0.4143281E-05  0.2204709E+04  0.7818609E-02  0.8516470E-01
        2   -1    0    0  501    0  0.00000000000E+00  0.00000000000E+00  0.25865802182E+04  0.25865802182E+04  0.25500000920E-02 0.  1.
       -2   -1    0    0    0  501  0.00000000000E+00  0.00000000000E+00 -0.46980409455E+03  0.46980409456E+03  0.25500000920E-02 0. -1.
    10030    2    1    2    0    0  0.00000000000E+00  0.00000000000E+00  0.21167761237E+04  0.30563843128E+04  0.22047094842E+04 0.  0.
        2    1    3    3  502    0 -0.68789602367E+03 -0.83955131991E+03  0.13255468522E+04  0.17132197219E+04  0.25500000920E-02 0.  1.
       -2    1    3    3    0  502  0.68789602367E+03  0.83955131991E+03  0.79122927150E+03  0.13431645909E+04  0.25500000920E-02 0. -1.
</event>
<event>
 5   0  0.1786228E-05  0.2190686E+04  0.7818609E-02  0.8522315E-01
        1   -1    0    0  501    0  0.00000000000E+00  0.00000000000E+00  0.13258756112E+04  0.13258756112E+04  0.50400001928E-02 0.  1.
       -1   -1    0    0    0  501  0.00000000000E+00  0.00000000000E+00 -0.90489341314E+03  0.90489341316E+03  0.50400001928E-02 0. -1.
    10030    2    1    2    0    0  0.00000000000E+00  0.00000000000E+00  0.42098219809E+03  0.22307690244E+04  0.21906858353E+04 0.  0.
        5    1    3    3  502    0  0.31429700500E+03  0.27896914111E+03 -0.81952415433E+03  0.92100397316E+03  0.46999998093E+01 0. -1.
       -5    1    3    3    0  502 -0.31429700500E+03 -0.27896914111E+03  0.12405063524E+04  0.13097650512E+04  0.46999998093E+01 0.  1.
</event>
<event>
 5   0  0.1866935E-05  0.2206035E+04  0.7818609E-02  0.8515921E-01
       -1   -1    0    0    0  501  0.00000000000E+00  0.00000000000E+00  0.14614364970E+04  0.14614364970E+04  0.50400001928E-02 0.  1.
        1   -1    0    0  501    0  0.00000000000E+00  0.00000000000E+00 -0.83250100478E+03  0.83250100480E+03  0.50400001928E-02 0. -1.
    10030    2    1    2    0    0  0.00000000000E+00  0.00000000000E+00  0.62893549217E+03  0.22939375018E+04  0.22060347705E+04 0.  0.
        4    1    3    3  502    0  0.58314860090E+03  0.22754938508E+03  0.12588434348E+04  0.14058909700E+04  0.12699999809E+01 0.  1.
       -4    1    3    3    0  502 -0.58314860090E+03 -0.22754938508E+03 -0.62990794265E+03  0.88804653171E+03  0.12699999809E+01 0. -1.
</event>
<event>
 5   0  0.1786228E-05  0.2202866E+04  0.7818609E-02  0.8517236E-01
        1   -1    0    0  501    0  0.00000000000E+00  0.00000000000E+00  0.10635790750E+04  0.10635790750E+04  0.50400001928E-02 0. -1.
       -1   -1    0    0    0  501  0.00000000000E+00  0.00000000000E+00 -0.11406340725E+04  0.11406340726E+04  0.50400001928E-02 0.  1.
    10030    2    1    2    0    0  0.00000000000E+00  0.00000000000E+00 -0.77054997523E+02  0.22042131476E+04  0.22028658895E+04 0.  0.
        5    1    3    3  502    0 -0.61039105515E+03  0.71977220168E+03 -0.60675083253E+03  0.11219705546E+04  0.46999998093E+01 0.  1.
       -5    1    3    3    0  502  0.61039105515E+03 -0.71977220168E+03  0.52969583501E+03  0.10822425930E+04  0.46999998093E+01 0. -1.
</event>
<event>
 5   0  0.4143281E-05  0.2179814E+04  0.7818609E-02  0.8526877E-01
       -2   -1    0    0    0  501  0.00000000000E+00  0.00000000000E+00  0.12597981831E+04  0.12597981831E+04  0.25500000920E-02 0. -1.
        2   -1    0    0  501    0  0.00000000000E+00  0.00000000000E+00 -0.94292639949E+03  0.94292639950E+03  0.25500000920E-02 0.  1.
    10030    2    1    2    0    0  0.00000000000E+00  0.00000000000E+00  0.31687178358E+03  0.22027245826E+04  0.21798137213E+04 0.  0.
        2    1    3    3  502    0  0.52831022435E+02  0.10545259397E+04 -0.11474022779E+03  0.10620646846E+04  0.25500000920E-02 0.  1.
       -2    1    3    3    0  502 -0.52831022435E+02 -0.10545259397E+04  0.43161201137E+03  0.11406598980E+04  0.25500000920E-02 0. -1.
</event>
<event>
 5   0  0.4143281E-05  0.2201363E+04  0.7818609E-02  0.8517861E-01
        2   -1    0    0  501    0  0.00000000000E+00  0.00000000000E+00  0.15347468840E+04  0.15347468840E+04  0.25500000920E-02 0. -1.
       -2   -1    0    0    0  501  0.00000000000E+00  0.00000000000E+00 -0.78938078414E+03  0.78938078414E+03  0.25500000920E-02 0.  1.
    10030    2    1    2    0    0  0.00000000000E+00  0.00000000000E+00  0.74536609986E+03  0.23241276681E+04  0.22013629403E+04 0.  0.
        2    1    3    3  502    0  0.10244103753E+04 -0.11939086771E+03  0.77861011259E+03  0.12922478492E+04  0.25500000920E-02 0. -1.
       -2    1    3    3    0  502 -0.10244103753E+04  0.11939086771E+03 -0.33244012734E+02  0.10318798189E+04  0.25500000920E-02 0.  1.
</event>
<event>
 5   0  0.1788413E-05  0.2190153E+04  0.7818609E-02  0.8522538E-01
        1   -1    0    0  501    0  0.00000000000E+00  0.00000000000E+00  0.81233712200E+03  0.81233712202E+03  0.50400001928E-02 0. -1.
       -1   -1    0    0    0  501  0.00000000000E+00  0.00000000000E+00 -0.14762258801E+04  0.14762258801E+04  0.50400001928E-02 0.  1.
    10030    2    1    2    0    0  0.00000000000E+00  0.00000000000E+00 -0.66388875810E+03  0.22885630021E+04  0.21901534950E+04 0.  0.
        1    1    3    3  502    0  0.29812983450E+03 -0.64872606066E+03  0.53570608709E+03  0.89258496053E+03  0.50400001928E-02 0. -1.
       -1    1    3    3    0  502 -0.29812983450E+03  0.64872606066E+03 -0.11995948452E+04  0.13959780416E+04  0.50400001928E-02 0.  1.
</event>
<event>
 5   0  0.4029532E-05  0.2202959E+04  0.7818609E-02  0.8517198E-01
       -2   -1    0    0    0  501  0.00000000000E+00  0.00000000000E+00  0.10988460790E+04  0.10988460790E+04  0.25500000920E-02 0.  1.
        2   -1    0    0  501    0  0.00000000000E+00  0.00000000000E+00 -0.11041191183E+04  0.11041191183E+04  0.25500000920E-02 0. -1.
    10030    2    1    2    0    0  0.00000000000E+00  0.00000000000E+00 -0.52730392537E+01  0.22029651974E+04  0.22029588865E+04 0.  0.
        3    1    3    3  502    0  0.87433251312E+03 -0.57299297221E+03 -0.34973787991E+03  0.11023134239E+04  0.10100000352E+00 0. -1.
       -3    1    3    3    0  502 -0.87433251312E+03  0.57299297221E+03  0.34446484066E+03  0.11006517734E+04  0.10100000352E+00 0.  1.
</event>
<event>
 5   0  0.4029532E-05  0.2135698E+04  0.7818609E-02  0.8545679E-01
        2   -1    0    0  501    0  0.00000000000E+00  0.00000000000E+00  0.15643801265E+04  0.15643801265E+04  0.25500000920E-02 0.  1.
       -2   -1    0    0    0  501  0.00000000000E+00  0.00000000000E+00 -0.72891583522E+03  0.72891583522E+03  0.25500000920E-02 0. -1.
    10030    2    1    2    0    0  0.00000000000E+00  0.00000000000E+00  0.83546429129E+03  0.22932959617E+04  0.21356979623E+04 0.  0.
        3    1    3    3  502    0 -0.28167432600E+03  0.10129260330E+04  0.21701092219E+03  0.10735237887E+04  0.10100000352E+00 0. -1.
       -3    1    3    3    0  502  0.28167432600E+03 -0.10129260330E+04  0.61845336910E+03  0.12197721731E+04  0.10100000352E+00 0.  1.
</event>
<event>
 5   0  0.4132460E-05  0.2191094E+04  0.7818609E-02  0.8522144E-01
        2   -1    0    0  501    0  0.00000000000E+00  0.00000000000E+00  0.91055671737E+03  0.91055671738E+03  0.25500000920E-02 0. -1.
       -2   -1    0    0    0  501  0.00000000000E+00  0.00000000000E+00 -0.13181204206E+04  0.13181204206E+04  0.25500000920E-02 0.  1.
    10030    2    1    2    0    0  0.00000000000E+00  0.00000000000E+00 -0.40756370320E+03  0.22286771379E+04  0.21910941589E+04 0.  0.
        4    1    3    3  502    0  0.38863655555E+03  0.27578000171E+03 -0.12071753480E+04  0.12978316206E+04  0.12699999809E+01 0.  1.
       -4    1    3    3    0  502 -0.38863655555E+03 -0.27578000171E+03  0.79961164485E+03  0.93084551733E+03  0.12699999809E+01 0. -1.
</event>
<event>
 5   0  0.1866935E-05  0.2183469E+04  0.7818609E-02  0.8525340E-01
        1   -1    0    0  501    0  0.00000000000E+00  0.00000000000E+00  0.78792267966E+03  0.78792267968E+03  0.50400001928E-02 0. -1.
       -1   -1    0    0    0  501  0.00000000000E+00  0.00000000000E+00 -0.15126922761E+04  0.15126922761E+04  0.50400001928E-02 0.  1.
    10030    2    1    2    0    0  0.00000000000E+00  0.00000000000E+00 -0.72476959645E+03  0.23006149558E+04  0.21834693052E+04 0.  0.
        4    1    3    3  502    0 -0.37832470378E+03  0.43824552164E+03 -0.13376208915E+04  0.14575390153E+04  0.12699999809E+01 0.  1.
       -4    1    3    3    0  502  0.37832470378E+03 -0.43824552164E+03  0.61285129507E+03  0.84307594052E+03  0.12699999809E+01 0. -1.
</event>
<event>
 5   0  0.1866935E-05  0.2198070E+04  0.7818609E-02  0.8519232E-01
        1   -1    0    0  501    0  0.00000000000E+00  0.00000000000E+00  0.75883295951E+03  0.75883295952E+03  0.50400001928E-02 0.  1.
       -1   -1    0    0    0  501  0.00000000000E+00  0.00000000000E+00 -0.15917571749E+04  0.15917571749E+04  0.50400001928E-02 0. -1.
    10030    2    1    2    0    0  0.00000000000E+00  0.00000000000E+00 -0.83292421535E+03  0.23505901344E+04  0.21980698877E+04 0.  0.
        4    1    3    3  502    0  0.25814800590E+03 -0.18549032653E+03  0.70859794549E+03  0.77663357862E+03  0.12699999809E+01 0.  1.
       -4    1    3    3    0  502 -0.25814800590E+03  0.18549032653E+03 -0.15415221608E+04  0.15739565558E+04  0.12699999809E+01 0. -1.
</event>
<event>
 5   0  0.4027923E-05  0.2186610E+04  0.7818609E-02  0.8524022E-01
       -2   -1    0    0    0  501  0.00000000000E+00  0.00000000000E+00  0.68016039664E+03  0.68016039664E+03  0.25500000920E-02 0.  1.
        2   -1    0    0  501    0  0.00000000000E+00  0.00000000000E+00 -0.17574030209E+04  0.17574030209E+04  0.25500000920E-02 0. -1.
    10030    2    1    2    0    0  0.00000000000E+00  0.00000000000E+00 -0.10772426243E+04  0.24375634176E+04  0.21866101031E+04 0.  0.
        5    1    3    3  502    0  0.94416377022E+03  0.71869018690E+02  0.70621148427E+02  0.94953663302E+03  0.46999998093E+01 0. -1.
       -5    1    3    3    0  502 -0.94416377022E+03 -0.71869018690E+02 -0.11478637727E+04  0.14880267845E+04  0.46999998093E+01 0.  1.
</event>
<event>
 5   0  0.1866935E-05  0.2184214E+04  0.7818609E-02  0.8525027E-01
        1   -1    0    0  501    0  0.00000000000E+00  0.00000000000E+00  0.20022638731E+04  0.20022638731E+04  0.50400001928E-02 0.  1.
       -1   -1    0    0    0  501  0.00000000000E+00  0.00000000000E+00 -0.59567484806E+03  0.59567484808E+03  0.50400001928E-02 0. -1.
    10030    2    1    2    0    0  0.00000000000E+00  0.00000000000E+00  0.14065890250E+04  0.25979387211E+04  0.21842144843E+04 0.  0.
        4    1    3    3  502    0 -0.71822488352E+03  0.78045481277E+02 -0.27083505140E+03  0.77155124161E+03  0.12699999809E+01 0. -1.
       -4    1    3    3    0  502  0.71822488352E+03 -0.78045481277E+02  0.16774240764E+04  0.18263874795E+04  0.12699999809E+01 0.  1.
</event>
<event>
 5   0  0.4029532E-05  0.2188753E+04  0.7818609E-02  0.8523124E-01
        2   -1    0    0  501    0  0.00000000000E+00  0.00000000000E+00  0.98175508614E+03  0.98175508614E+03  0.25500000920E-02 0. -1.
       -2   -1    0    0    0  501  0.00000000000E+00  0.00000000000E+00 -0.12199170766E+04  0.12199170766E+04  0.25500000920E-02 0.  1.
    10030    2    1    2    0    0  0.00000000000E+00  0.00000000000E+00 -0.23816199050E+03  0.22016721628E+04  0.21887528820E+04 0.  0.
        3    1    3    3  502    0  0.20517491781E+03 -0.95793577005E+03 -0.60973269857E+03  0.11539114612E+04  0.10100000352E+00 0. -1.
       -3    1    3    3    0  502 -0.20517491781E+03  0.95793577005E+03  0.37157070807E+03  0.10477607016E+04  0.10100000352E+00 0.  1.
</event>
<event>
 5   0  0.4029532E-05  0.2202714E+04  0.7818609E-02  0.8517300E-01
       -2   -1    0    0    0  501  0.00000000000E+00  0.00000000000E+00  0.12779063565E+04  0.12779063565E+04  0.25500000920E-02 0. -1.
        2   -1    0    0  501    0  0.00000000000E+00  0.00000000000E+00 -0.94919848140E+03  0.94919848141E+03  0.25500000920E-02 0.  1.
    10030    2    1    2    0    0  0.00000000000E+00  0.00000000000E+00  0.32870787505E+03  0.22271048379E+04  0.22027135746E+04 0.  0.
        3    1    3    3  502    0 -0.72482860504E+02 -0.89155793696E+03  0.81400879824E+03  0.12094377429E+04  0.10100000352E+00 0. -1.
       -3    1    3    3    0  502  0.72482860504E+02  0.89155793696E+03 -0.48530092319E+03  0.10176670950E+04  0.10100000352E+00 0.  1.
</event>
<event>
 5   0  0.1866935E-05  0.2189039E+04  0.7818609E-02  0.8523004E-01
       -1   -1    0    0    0  501  0.00000000000E+00  0.00000000000E+00  0.10402438914E+04  0.10402438914E+04  0.50400001928E-02 0.  1.
        1   -1    0    0  501    0  0.00000000000E+00  0.00000000000E+00 -0.11516265486E+04  0.11516265486E+04  0.50400001928E-02 0. -1.
    10030    2    1    2    0    0  0.00000000000E+00  0.00000000000E+00 -0.11138265719E+03  0.21918704400E+04  0.21890385856E+04 0.  0.
        4    1    3    3  502    0  0.44305678125E+03 -0.61849514794E+03 -0.84356075782E+03  0.11359717974E+04  0.12699999809E+01 0. -1.
       -4    1    3    3    0  502 -0.44305678125E+03  0.61849514794E+03  0.73217810063E+03  0.10558986426E+04  0.12699999809E+01 0.  1.
</event>
<event>
 5   0  0.1884407E-05  0.2200411E+04  0.7818609E-02  0.8518257E-01
       -1   -1    0    0    0  501  0.00000000000E+00  0.00000000000E+00  0.16119632513E+04  0.16119632513E+04  0.50400001928E-02 0. -1.
        1   -1    0    0  501    0  0.00000000000E+00  0.00000000000E+00 -0.75091824313E+03  0.75091824315E+03  0.50400001928E-02 0.  1.
    10030    2    1    2    0    0  0.00000000000E+00  0.00000000000E+00  0.86104500818E+03  0.23628814945E+04  0.22004114276E+04 0.  0.
        3    1    3    3  502    0 -0.52553726083E+03  0.79592991455E+03 -0.15838514178E+03  0.96684006161E+03  0.10100000352E+00 0.  1.
       -3    1    3    3    0  502  0.52553726083E+03 -0.79592991455E+03  0.10194301500E+04  0.13960414329E+04  0.10100000352E+00 0. -1.
</event>
<event>
 5   0  0.1866935E-05  0.2206230E+04  0.7818609E-02  0.8515839E-01
        1   -1    0    0  501    0  0.00000000000E+00  0.00000000000E+00  0.13201952310E+04  0.13201952310E+04  0.50400001928E-02 0.  1.
       -1   -1    0    0    0  501  0.00000000000E+00  0.00000000000E+00 -0.92172976630E+03  0.92172976631E+03  0.50400001928E-02 0. -1.
    10030    2    1    2    0    0  0.00000000000E+00  0.00000000000E+00  0.39846546474E+03  0.22419249974E+04  0.22062304882E+04 0.  0.
        4    1    3    3  502    0 -0.42557069566E+03  0.20534258229E+03  0.12121473758E+04  0.13009914937E+04  0.12699999809E+01 0.  1.
       -4    1    3    3    0  502  0.42557069566E+03 -0.20534258229E+03 -0.81368191103E+03  0.94093350368E+03  0.12699999809E+01 0. -1.
</event>
<event>
 5   0  0.4027923E-05  0.2206204E+04  0.7818609E-02  0.8515850E-01
       -2   -1    0    0    0  501  0.00000000000E+00  0.00000000000E+00  0.89527697374E+03  0.89527697375E+03  0.25500000920E-02 0. -1.
        2   -1    0    0  501    0  0.00000000000E+00  0.00000000000E+00 -0.13591701062E+04  0.13591701062E+04  0.25500000920E-02 0.  1.
    10030    2    1    2    0    0  0.00000000000E+00  0.00000000000E+00 -0.46389313242E+03  0.22544470799E+04  0.22062037072E+04 0.  0.
        5    1    3    3  502    0 -0.37286010608E+03 -0.10758714668E+03 -0.12871014404E+04  0.13443406789E+04  0.46999998093E+01 0.  1.
       -5    1    3    3    0  502  0.37286010608E+03  0.10758714668E+03  0.82320830803E+03  0.91010640105E+03  0.46999998093E+01 0. -1.
</event>
<event>
 5   0  0.1866935E-05  0.2223618E+04  0.7818609E-02  0.8508662E-01
       -1   -1    0    0    0  501  0.00000000000E+00  0.00000000000E+00  0.19041480820E+04  0.19041480820E+04  0.50400001928E-02 0.  1.
        1   -1    0    0  501    0  0.00000000000E+00  0.00000000000E+00 -0.64917152699E+03  0.64917152701E+03  0.50400001928E-02 0. -1.
    10030    2    1    2    0    0  0.00000000000E+00  0.00000000000E+00  0.12549765550E+04  0.25533196090E+04  0.22236175193E+04 0.  0.
        4    1    3    3  502    0 -0.42732488489E+03  0.10260634916E+04  0.65796100461E+03  0.12916373882E+04  0.12699999809E+01 0. -1.
       -4    1    3    3    0  502  0.42732488489E+03 -0.10260634916E+04  0.59701555038E+03  0.12616822208E+04  0.12699999809E+01 0.  1.
</event>
<event>
 5   0  0.1433375E-05  0.2198135E+04  0.7818609E-02  0.8519205E-01
        3   -1    0    0  501    0  0.00000000000E+00  0.00000000000E+00  0.69905842033E+03  0.69905842763E+03  0.10100000352E+00 0.  1.
       -3   -1    0    0    0  501  0.00000000000E+00  0.00000000000E+00 -0.17279663290E+04  0.17279663320E+04  0.10100000352E+00 0. -1.
    10030    2    1    2    0    0  0.00000000000E+00  0.00000000000E+00 -0.10289079087E+04  0.24270247596E+04  0.21981350503E+04 0.  0.
        5    1    3    3  502    0 -0.23204388723E+03  0.26180103113E+03  0.63593151908E+03  0.72582031693E+03  0.46999998093E+01 0.  1.
       -5    1    3    3    0  502  0.23204388723E+03 -0.26180103113E+03 -0.16648394278E+04  0.17012044427E+04  0.46999998093E+01 0. -1.
</event>
<event>
 5   0  0.1815681E-05  0.2205909E+04  0.7818609E-02  0.8515973E-01
        1   -1    0    0  501    0  0.00000000000E+00  0.00000000000E+00  0.97240668997E+03  0.97240668998E+03  0.50400001928E-02 0.  1.
       -1   -1    0    0    0  501  0.00000000000E+00  0.00000000000E+00 -0.12510290272E+04  0.12510290272E+04  0.50400001928E-02 0. -1.
    10030    2    1    2    0    0  0.00000000000E+00  0.00000000000E+00 -0.27862233720E+03  0.22234357172E+04  0.22059093321E+04 0.  0.
        2    1    3    3  502    0 -0.44032752778E+03 -0.83738255350E+03 -0.71074687086E+03  0.11833253936E+04  0.25500000920E-02 0. -1.
       -2    1    3    3    0  502  0.44032752778E+03  0.83738255350E+03  0.43212453366E+03  0.10401103236E+04  0.25500000920E-02 0.  1.
</event>
<event>
 5   0  0.1786228E-05  0.2212801E+04  0.7818609E-02  0.8513119E-01
        1   -1    0    0  501    0  0.00000000000E+00  0.00000000000E+00  0.14231654839E+04  0.14231654839E+04  0.50400001928E-02 0.  1.
       -1   -1    0    0    0  501  0.00000000000E+00  0.00000000000E+00 -0.86014032055E+03  0.86014032057E+03  0.50400001928E-02 0. -1.
    10030    2    1    2    0    0  0.00000000000E+00  0.00000000000E+00  0.56302516337E+03  0.22833058045E+04  0.22128009541E+04 0.  0.
        5    1    3    3  502    0 -0.94249793933E+03 -0.25712891551E+03 -0.25434321968E+03  0.10095197909E+04  0.46999998093E+01 0. -1.
       -5    1    3    3    0  502  0.94249793933E+03  0.25712891551E+03  0.81736838305E+03  0.12737860136E+04  0.46999998093E+01 0.  1.
</event>
<event>
 5   0  0.4143281E-05  0.2277981E+04  0.7818609E-02  0.8486654E-01
        2   -1    0    0  501    0  0.00000000000E+00  0.00000000000E+00  0.20539377999E+04  0.20539377999E+04  0.25500000920E-02 0.  1.
       -2   -1    0    0    0  501  0.00000000000E+00  0.00000000000E+00 -0.63161546817E+03  0.63161546817E+03  0.25500000920E-02 0. -1.
    10030    2    1    2    0    0  0.00000000000E+00  0.00000000000E+00  0.14223223317E+04  0.26855532680E+04  0.22779805838E+04 0.  0.
        2    1    3    3  502    0  0.35113917109E+02  0.27449171845E+03 -0.59138107911E+03  0.65292439946E+03  0.25500000920E-02 0. -1.
       -2    1    3    3    0  502 -0.35113917109E+02 -0.27449171845E+03  0.20137034108E+04  0.20326288686E+04  0.25500000920E-02 0.  1.
</event>
<event>
 5   0  0.4132460E-05  0.2164119E+04  0.7818609E-02  0.8533513E-01
       -2   -1    0    0    0  501  0.00000000000E+00  0.00000000000E+00  0.13528358494E+04  0.13528358494E+04  0.25500000920E-02 0. -1.
        2   -1    0    0  501    0  0.00000000000E+00  0.00000000000E+00 -0.86548014178E+03  0.86548014178E+03  0.25500000920E-02 0.  1.
    10030    2    1    2    0    0  0.00000000000E+00  0.00000000000E+00  0.48735570765E+03  0.22183159912E+04  0.21641188163E+04 0.  0.
        4    1    3    3  502    0 -0.32697948375E+03  0.56137530333E+03  0.11306770702E+04  0.13040283984E+04  0.12699999809E+01 0. -1.
       -4    1    3    3    0  502  0.32697948375E+03 -0.56137530333E+03 -0.64332136251E+03  0.91428759280E+03  0.12699999809E+01 0.  1.
</event>
<event>
 5   0  0.4029532E-05  0.2203911E+04  0.7818609E-02  0.8516802E-01
        2   -1    0    0  501    0  0.00000000000E+00  0.00000000000E+00  0.12555596384E+04  0.12555596384E+04  0.25500000920E-02 0. -1.
       -2   -1    0    0    0  501  0.00000000000E+00  0.00000000000E+00 -0.96714341249E+03  0.96714341250E+03  0.25500000920E-02 0.  1.
    10030    2    1    2    0    0  0.00000000000E+00  0.00000000000E+00  0.28841622586E+03  0.22227030509E+04  0.22039112806E+04 0.  0.
        3    1    3    3  502    0 -0.79383950496E+03  0.76287012304E+03  0.97398585666E+02  0.11052775574E+04  0.10100000352E+00 0.  1.
       -3    1    3    3    0  502  0.79383950496E+03 -0.76287012304E+03  0.19101764020E+03  0.11174254934E+04  0.10100000352E+00 0. -1.
</event>
<event>
 5   0  0.1866935E-05  0.2189081E+04  0.7818609E-02  0.8522987E-01
        1   -1    0    0  501    0  0.00000000000E+00  0.00000000000E+00  0.15430181724E+04  0.15430181724E+04  0.50400001928E-02 0.  1.
       -1   -1    0    0    0  501  0.00000000000E+00  0.00000000000E+00 -0.77641242386E+03  0.77641242388E+03  0.50400001928E-02 0. -1.
    10030    2    1    2    0    0  0.00000000000E+00  0.00000000000E+00  0.76660574851E+03  0.23194305963E+04  0.21890806100E+04 0.  0.
        4    1    3    3  502    0  0.24512716170E+03  0.96789065702E+03  0.85846766571E+03  0.13167642140E+04  0.12699999809E+01 0.  1.
       -4    1    3    3    0  502 -0.24512716170E+03 -0.96789065702E+03 -0.91861917204E+02  0.10026663822E+04  0.12699999809E+01 0. -1.
</event>
<event>
 5   0  0.1884407E-05  0.2203873E+04  0.7818609E-02  0.8516818E-01
       -1   -1    0    0    0  501  0.00000000000E+00  0.00000000000E+00  0.88017186070E+03  0.88017186072E+03  0.50400001928E-02 0.  1.
        1   -1    0    0  501    0  0.00000000000E+00  0.00000000000E+00 -0.13795761867E+04  0.13795761867E+04  0.50400001928E-02 0. -1.
    10030    2    1    2    0    0  0.00000000000E+00  0.00000000000E+00 -0.49940432597E+03  0.22597480474E+04  0.22038730810E+04 0.  0.
        3    1    3    3  502    0  0.48415228431E+03  0.17727780840E+03  0.74886396485E+03  0.90919090614E+03  0.10100000352E+00 0.  1.
       -3    1    3    3    0  502 -0.48415228431E+03 -0.17727780840E+03 -0.12482682908E+04  0.13505571413E+04  0.10100000352E+00 0. -1.
</event>
<event>
 5   0  0.1786228E-05  0.2195977E+04  0.7818609E-02  0.8520105E-01
        1   -1    0    0  501    0  0.00000000000E+00  0.00000000000E+00  0.20454060217E+04  0.20454060217E+04  0.50400001928E-02 0.  1.
       -1   -1    0    0    0  501  0.00000000000E+00  0.00000000000E+00 -0.58940787006E+03  0.58940787009E+03  0.50400001928E-02 0. -1.
    10030    2    1    2    0    0  0.00000000000E+00  0.00000000000E+00  0.14559981517E+04  0.26348138918E+04  0.21959766909E+04 0.  0.
        5    1    3    3  502    0 -0.34454978005E+03 -0.20498318493E+03 -0.49843361384E+03  0.63968024390E+03  0.46999998093E+01 0. -1.
       -5    1    3    3    0  502  0.34454978005E+03  0.20498318493E+03  0.19544317655E+04  0.19951336479E+04  0.46999998093E+01 0.  1.
</event>
<event>
 5   0  0.1786228E-05  0.2167070E+04  0.7818609E-02  0.8532261E-01
       -1   -1    0    0    0  501  0.00000000000E+00  0.00000000000E+00  0.12270967281E+04  0.12270967281E+04  0.50400001928E-02 0.  1.
        1   -1    0    0  501    0  0.00000000000E+00  0.00000000000E+00 -0.95676910661E+03  0.95676910663E+03  0.50400001928E-02 0. -1.
    10030    2    1    2    0    0  0.00000000000E+00  0.00000000000E+00  0.27032762146E+03  0.21838658347E+04  0.21670701329E+04 0.  0.
        5    1    3    3  502    0 -0.76642548634E+03 -0.10956450186E+03 -0.62874407328E+03  0.99737335329E+03  0.46999998093E+01 0. -1.
       -5    1    3    3    0  502  0.76642548634E+03  0.10956450186E+03  0.89907169473E+03  0.11864924814E+04  0.46999998093E+01 0.  1.
</event>
<event>
 5   0  0.4143281E-05  0.2207946E+04  0.7818609E-02  0.8515128E-01
        2   -1    0    0  501    0  0.00000000000E+00  0.00000000000E+00  0.20939005990E+04  0.20939005990E+04  0.25500000920E-02 0. -1.
       -2   -1    0    0    0  501  0.00000000000E+00  0.00000000000E+00 -0.58205089669E+03  0.58205089670E+03  0.25500000920E-02 0.  1.
    10030    2    1    2    0    0  0.00000000000E+00  0.00000000000E+00  0.15118497023E+04  0.26759514957E+04  0.22079463048E+04 0.  0.
        2    1    3    3  502    0 -0.75299313748E+03 -0.36498630727E+03  0.16286593407E+04  0.18310502226E+04  0.25500000920E-02 0. -1.
       -2    1    3    3    0  502  0.75299313748E+03  0.36498630727E+03 -0.11680963843E+03  0.84490127307E+03  0.25500000920E-02 0.  1.
</event>
<event>
 5   0  0.4143281E-05  0.2178109E+04  0.7818609E-02  0.8527595E-01
        2   -1    0    0  501    0  0.00000000000E+00  0.00000000000E+00  0.14314278054E+04  0.14314278054E+04  0.25500000920E-02 0. -1.
       -2   -1    0    0    0  501  0.00000000000E+00  0.00000000000E+00 -0.82857072648E+03  0.82857072649E+03  0.25500000920E-02 0.  1.
    10030    2    1    2    0    0  0.00000000000E+00  0.00000000000E+00  0.60285707888E+03  0.22599985319E+04  0.21781085158E+04 0.  0.
        2    1    3    3  502    0  0.24104201351E+03  0.45340609569E+03  0.12979325969E+04  0.13958178126E+04  0.25500000920E-02 0. -1.
       -2    1    3    3    0  502 -0.24104201351E+03 -0.45340609569E+03 -0.69507551798E+03  0.86418071929E+03  0.25500000920E-02 0.  1.
</event>
<event>
 5   0  0.1884407E-05  0.2202576E+04  0.7818609E-02  0.8517357E-01
       -1   -1    0    0    0  501  0.00000000000E+00  0.00000000000E+00  0.77374459813E+03  0.77374459815E+03  0.50400001928E-02 0.  1.
        1   -1    0    0  501    0  0.00000000000E+00  0.00000000000E+00 -0.15674884183E+04  0.15674884183E+04  0.50400001928E-02 0. -1.
    10030    2    1    2    0    0  0.00000000000E+00  0.00000000000E+00 -0.79374382016E+03  0.23412330164E+04  0.22025763971E+04 0.  0.
        3    1    3    3  502    0  0.40308709770E+03 -0.55970060529E+03  0.51571539367E+03  0.86122375337E+03  0.10100000352E+00 0.  1.
       -3    1    3    3    0  502 -0.40308709770E+03  0.55970060529E+03 -0.13094592138E+04  0.14800092631E+04  0.10100000352E+00 0. -1.
</event>
<event>
 5   0  0.1788413E-05  0.2200846E+04  0.7818609E-02  0.8518076E-01
       -1   -1    0    0    0  501  0.00000000000E+00  0.00000000000E+00  0.92746849985E+03  0.92746849987E+03  0.50400001928E-02 0.  1.
        1   -1    0    0  501    0  0.00000000000E+00  0.00000000000E+00 -0.13056300160E+04  0.13056300161E+04  0.50400001928E-02 0. -1.
    10030    2    1    2    0    0  0.00000000000E+00  0.00000000000E+00 -0.37816151619E+03  0.22330985159E+04  0.22008459395E+04 0.  0.
        1    1    3    3  502    0  0.24725572136E+03  0.81276734059E+03 -0.89876227284E+03  0.12367294631E+04  0.50400001928E-02 0. -1.
       -1    1    3    3    0  502 -0.24725572136E+03 -0.81276734059E+03  0.52060075664E+03  0.99636905287E+03  0.50400001928E-02 0.  1.
</event>
<event>
 5   0  0.3963414E-05  0.2188969E+04  0.7818609E-02  0.8523034E-01
       -2   -1    0    0    0  501  0.00000000000E+00  0.00000000000E+00  0.86465788721E+03  0.86465788721E+03  0.25500000920E-02 0. -1.
        2   -1    0    0  501    0  0.00000000000E+00  0.00000000000E+00 -0.13853986529E+04  0.13853986529E+04  0.25500000920E-02 0.  1.
    10030    2    1    2    0    0  0.00000000000E+00  0.00000000000E+00 -0.52074076566E+03  0.22500565401E+04  0.21889685901E+04 0.  0.
        1    1    3    3  502    0 -0.95877114283E+03 -0.26334815963E+03  0.20989183426E+03  0.10161933574E+04  0.50400001928E-02 0.  1.
       -1    1    3    3    0  502  0.95877114283E+03  0.26334815963E+03 -0.73063259992E+03  0.12338631827E+04  0.50400001928E-02 0. -1.
</event>
<event>
 5   0  0.4027923E-05  0.2197024E+04  0.7818609E-02  0.8519668E-01
        2   -1    0    0  501    0  0.00000000000E+00  0.00000000000E+00  0.12538644118E+04  0.12538644118E+04  0.25500000920E-02 0. -1.
       -2   -1    0    0    0  501  0.00000000000E+00  0.00000000000E+00 -0.96240795581E+03  0.96240795582E+03  0.25500000920E-02 0.  1.
    10030    2    1    2    0    0  0.00000000000E+00  0.00000000000E+00  0.29145645602E+03  0.22162723677E+04  0.21970244291E+04 0.  0.
        5    1    3    3  502    0 -0.95628149667E+03  0.34270035094E+03  0.56746891241E+03  0.11635982502E+04  0.46999998093E+01 0.  1.
       -5    1    3    3    0  502  0.95628149667E+03 -0.34270035094E+03 -0.27601245639E+03  0.10526741174E+04  0.46999998093E+01 0. -1.
</event>
<event>
 5   0  0.1815681E-05  0.2194835E+04  0.7818609E-02  0.8520581E-01
        1   -1    0    0  501    0  0.00000000000E+00  0.00000000000E+00  0.12030823779E+04  0.12030823779E+04  0.50400001928E-02 0. -1.
       -1   -1    0    0    0  501  0.00000000000E+00  0.00000000000E+00 -0.10010326781E+04  0.10010326781E+04  0.50400001928E-02 0.  1.
    10030    2    1    2    0    0  0.00000000000E+00  0.00000000000E+00  0.20204969976E+03  0.22041150560E+04  0.21948346405E+04 0.  0.
        2    1    3    3  502    0 -0.76409564222E+03 -0.76420474985E+03 -0.90763628078E+02  0.10844764111E+04  0.25500000920E-02 0.  1.
       -2    1    3    3    0  502  0.76409564222E+03  0.76420474985E+03  0.29281332784E+03  0.11196386449E+04  0.25500000920E-02 0. -1.
</event>
<event>
 5   0  0.1815681E-05  0.2172968E+04  0.7818609E-02  0.8529764E-01
       -1   -1    0    0    0  501  0.00000000000E+00  0.00000000000E+00  0.14358252847E+04  0.14358252847E+04  0.50400001928E-02 0. -1.
        1   -1    0    0  501    0  0.00000000000E+00  0.00000000000E+00 -0.82213858975E+03  0.82213858977E+03  0.50400001928E-02 0.  1.
    10030    2    1    2    0    0  0.00000000000E+00  0.00000000000E+00  0.61368669496E+03  0.22579638745E+04  0.21729679010E+04 0.  0.
        2    1    3    3  502    0 -0.96046509871E+03  0.50527570013E+03  0.25334520498E+03  0.11144418028E+04  0.25500000920E-02 0.  1.
       -2    1    3    3    0  502  0.96046509871E+03 -0.50527570013E+03  0.36034148999E+03  0.11435220717E+04  0.25500000920E-02 0. -1.
</event>
<event>
 5   0  0.1884407E-05  0.2179886E+04  0.7818609E-02  0.8526847E-01
        1   -1    0    0  501    0  0.00000000000E+00  0.00000000000E+00  0.18403837939E+04  0.18403837939E+04  0.50400001928E-02 0.  1.
       -1   -1    0    0    0  501  0.00000000000E+00  0.00000000000E+00 -0.64550455738E+03  0.64550455740E+03  0.50400001928E-02 0. -1.
    10030    2    1    2    0    0  0.00000000000E+00  0.00000000000E+00  0.11948792365E+04  0.24858883513E+04  0.21798863514E+04 0.  0.
        3    1    3    3  502    0 -0.18223490516E+02  0.88792867898E+03  0.13179787078E+04  0.15892820137E+04  0.10100000352E+00 0.  1.
       -3    1    3    3    0  502  0.18223490516E+02 -0.88792867898E+03 -0.12309947133E+03  0.89660633759E+03  0.10100000352E+00 0. -1.
</event>
<event>
 5   0  0.4029532E-05  0.2206084E+04  0.7818609E-02  0.8515900E-01
       -2   -1    0    0    0  501  0.00000000000E+00  0.00000000000E+00  0.99305693267E+03  0.99305693267E+03  0.25500000920E-02 0. -1.
        2   -1    0    0  501    0  0.00000000000E+00  0.00000000000E+00 -0.12252085249E+04  0.12252085249E+04  0.25500000920E-02 0.  1.
    10030    2    1    2    0    0  0.00000000000E+00  0.00000000000E+00 -0.23215159219E+03  0.22182654575E+04  0.22060841503E+04 0.  0.
        3    1    3    3  502    0 -0.19949694598E+03 -0.14380711034E+03  0.96513932650E+03  0.99597863742E+03  0.10100000352E+00 0. -1.
       -3    1    3    3    0  502  0.19949694598E+03  0.14380711034E+03 -0.11972909187E+04  0.12222868201E+04  0.10100000352E+00 0.  1.
</event>
<event>
 5   0  0.1786228E-05  0.2198629E+04  0.7818609E-02  0.8518999E-01
       -1   -1    0    0    0  501  0.00000000000E+00  0.00000000000E+00  0.63352167493E+03  0.63352167495E+03  0.50400001928E-02 0. -1.
        1   -1    0    0  501    0  0.00000000000E+00  0.00000000000E+00 -0.19075786361E+04  0.19075786361E+04  0.50400001928E-02 0.  1.
    10030    2    1    2    0    0  0.00000000000E+00  0.00000000000E+00 -0.12740569612E+04  0.25411003111E+04  0.21986290389E+04 0.  0.
        5    1    3    3  502    0  0.57697196966E+03  0.29389399646E+03  0.38971838223E+03  0.75575977822E+03  0.46999998093E+01 0. -1.
       -5    1    3    3    0  502 -0.57697196966E+03 -0.29389399646E+03 -0.16637753434E+04  0.17853405329E+04  0.46999998093E+01 0.  1.
</event>
<event>
 5   0  0.1815681E-05  0.2200865E+04  0.7818609E-02  0.8518068E-01
       -1   -1    0    0    0  501  0.00000000000E+00  0.00000000000E+00  0.19813555678E+04  0.19813555678E+04  0.50400001928E-02 0.  1.
        1   -1    0    0  501    0  0.00000000000E+00  0.00000000000E+00 -0.61117306816E+03  0.61117306818E+03  0.50400001928E-02 0. -1.
    10030    2    1    2    0    0  0.00000000000E+00  0.00000000000E+00  0.13701824996E+04  0.25925286360E+04  0.22008645224E+04 0.  0.
        2    1    3    3  502    0 -0.26182142913E+03 -0.84901269625E+03 -0.79746465158E+02  0.89203840605E+03  0.25500000920E-02 0. -1.
       -2    1    3    3    0  502  0.26182142913E+03  0.84901269625E+03  0.14499289648E+04  0.17004902299E+04  0.25500000920E-02 0.  1.
</event>
<event>
 5   0  0.4029532E-05  0.2150239E+04  0.7818609E-02  0.8539430E-01
       -2   -1    0    0    0  501  0.00000000000E+00  0.00000000000E+00  0.71460588702E+03  0.71460588703E+03  0.25500000920E-02 0.  1.
        2   -1    0    0  501    0  0.00000000000E+00  0.00000000000E+00 -0.16175090916E+04  0.16175090916E+04  0.25500000920E-02 0. -1.
    10030    2    1    2    0    0  0.00000000000E+00  0.00000000000E+00 -0.90290320462E+03  0.23321149787E+04  0.21502386093E+04 0.  0.
        3    1    3    3  502    0  0.86745818782E+03  0.19549613069E+03  0.20396318918E+03  0.91230665758E+03  0.10100000352E+00 0.  1.
       -3    1    3    3    0  502 -0.86745818782E+03 -0.19549613069E+03 -0.11068663938E+04  0.14198083211E+04  0.10100000352E+00 0. -1.
</event>
<event>
 5   0  0.4027923E-05  0.2198739E+04  0.7818609E-02  0.8518953E-01
        2   -1    0    0  501    0  0.00000000000E+00  0.00000000000E+00  0.16987335033E+04  0.16987335033E+04  0.25500000920E-02 0.  1.
       -2   -1    0    0    0  501  0.00000000000E+00  0.00000000000E+00 -0.71147926970E+03  0.71147926970E+03  0.25500000920E-02 0. -1.
    10030    2    1    2    0    0  0.00000000000E+00  0.00000000000E+00  0.98725423365E+03  0.24102127730E+04  0.21987393410E+04 0.  0.
        5    1    3    3  502    0  0.16707105049E+02  0.47428993989E+02 -0.71020693562E+03  0.71200043415E+03  0.46999998093E+01 0. -1.
       -5    1    3    3    0  502 -0.16707105049E+02 -0.47428993989E+02  0.16974611693E+04  0.16982123389E+04  0.46999998093E+01 0.  1.
</event>
<event>
 5   0  0.4027923E-05  0.2183368E+04  0.7818609E-02  0.8525383E-01
        2   -1    0    0  501    0  0.00000000000E+00  0.00000000000E+00  0.12520586302E+04  0.12520586302E+04  0.25500000920E-02 0.  1.
       -2   -1    0    0    0  501  0.00000000000E+00  0.00000000000E+00 -0.95185127896E+03  0.95185127896E+03  0.25500000920E-02 0. -1.
    10030    2    1    2    0    0  0.00000000000E+00  0.00000000000E+00  0.30020735124E+03  0.22039099092E+04  0.21833676818E+04 0.  0.
        5    1    3    3  502    0  0.83397476525E+03  0.66968990292E+03  0.37068436382E+03  0.11320015295E+04  0.46999998093E+01 0.  1.
       -5    1    3    3    0  502 -0.83397476525E+03 -0.66968990292E+03 -0.70477012580E+02  0.10719083797E+04  0.46999998093E+01 0. -1.
</event>
<event>
 5   0  0.4027923E-05  0.2217172E+04  0.7818609E-02  0.8511314E-01
        2   -1    0    0  501    0  0.00000000000E+00  0.00000000000E+00  0.16313734670E+04  0.16313734670E+04  0.25500000920E-02 0. -1.
       -2   -1    0    0    0  501  0.00000000000E+00  0.00000000000E+00 -0.75333045087E+03  0.75333045088E+03  0.25500000920E-02 0.  1.
    10030    2    1    2    0    0  0.00000000000E+00  0.00000000000E+00  0.87804301608E+03  0.23847039178E+04  0.22171723518E+04 0.  0.
        5    1    3    3  502    0 -0.55340442698E+03 -0.91467502650E+03  0.12350547051E+03  0.10761796110E+04  0.46999998093E+01 0.  1.
       -5    1    3    3    0  502  0.55340442698E+03  0.91467502650E+03  0.75453754557E+03  0.13085243068E+04  0.46999998093E+01 0. -1.
</event>
<event>
 5   0  0.4143281E-05  0.2093300E+04  0.7818609E-02  0.8564201E-01
       -2   -1    0    0    0  501  0.00000000000E+00  0.00000000000E+00  0.53545826777E+03  0.53545826778E+03  0.25500000920E-02 0.  1.
        2   -1    0    0  501    0  0.00000000000E+00  0.00000000000E+00 -0.20458657891E+04  0.20458657891E+04  0.25500000920E-02 0. -1.
    10030    2    1    2    0    0  0.00000000000E+00  0.00000000000E+00 -0.15104075214E+04  0.25813240569E+04  0.20932995501E+04 0.  0.
        2    1    3    3  502    0 -0.52406313221E+02 -0.52574165744E+02  0.53220802977E+03  0.53736007624E+03  0.25500000920E-02 0.  1.
       -2    1    3    3    0  502  0.52406313221E+02  0.52574165744E+02 -0.20426155511E+04  0.20439639807E+04  0.25500000920E-02 0. -1.
</event>
<event>
 5   0  0.4132460E-05  0.2187624E+04  0.7818609E-02  0.8523597E-01
        2   -1    0    0  501    0  0.00000000000E+00  0.00000000000E+00  0.13216336372E+04  0.13216336372E+04  0.25500000920E-02 0. -1.
       -2   -1    0    0    0  501  0.00000000000E+00  0.00000000000E+00 -0.90526202922E+03  0.90526202922E+03  0.25500000920E-02 0.  1.
    10030    2    1    2    0    0  0.00000000000E+00  0.00000000000E+00  0.41637160803E+03  0.22268956665E+04  0.21876240521E+04 0.  0.
        4    1    3    3  502    0  0.45556593122E+03 -0.75529261172E+03 -0.45027702608E+03  0.99033239881E+03  0.12699999809E+01 0.  1.
       -4    1    3    3    0  502 -0.45556593122E+03  0.75529261172E+03  0.86664863411E+03  0.12365632677E+04  0.12699999809E+01 0. -1.
</event>
<event>
 5   0  0.4029532E-05  0.2182938E+04  0.7818609E-02  0.8525563E-01
        2   -1    0    0  501    0  0.00000000000E+00  0.00000000000E+00  0.24382986732E+04  0.24382986732E+04  0.25500000920E-02 0. -1.
       -2   -1    0    0    0  501  0.00000000000E+00  0.00000000000E+00 -0.48858024695E+03  0.48858024696E+03  0.25500000920E-02 0.  1.
    10030    2    1    2    0    0  0.00000000000E+00  0.00000000000E+00  0.19497184263E+04  0.29268789202E+04  0.21829379908E+04 0.  0.
        3    1    3    3  502    0  0.10632398489E+04  0.15230970176E+03  0.12349440866E+04  0.16366930466E+04  0.10100000352E+00 0. -1.
       -3    1    3    3    0  502 -0.10632398489E+04 -0.15230970176E+03  0.71477433962E+03  0.12901858736E+04  0.10100000352E+00 0.  1.
</event>
<event>
 5   0  0.4027923E-05  0.2200989E+04  0.7818609E-02  0.8518017E-01
        2   -1    0    0  501    0  0.00000000000E+00  0.00000000000E+00  0.19003109022E+04  0.19003109022E+04  0.25500000920E-02 0. -1.
       -2   -1    0    0    0  501  0.00000000000E+00  0.00000000000E+00 -0.63731045565E+03  0.63731045566E+03  0.25500000920E-02 0.  1.
    10030    2    1    2    0    0  0.00000000000E+00  0.00000000000E+00  0.12630004465E+04  0.25376213578E+04  0.22009888750E+04 0.  0.
        5    1    3    3  502    0 -0.45371841967E+03 -0.98244090537E+03  0.86213375340E+03  0.13835993769E+04  0.46999998093E+01 0. -1.
       -5    1    3    3    0  502  0.45371841967E+03  0.98244090537E+03  0.40086669310E+03  0.11540219810E+04  0.46999998093E+01 0.  1.
</event>
<event>
 5   0  0.3963414E-05  0.2223566E+04  0.7818609E-02  0.8508683E-01
       -2   -1    0    0    0  501  0.00000000000E+00  0.00000000000E+00  0.71243988707E+03  0.71243988707E+03  0.25500000920E-02 0.  1.
        2   -1    0    0  501    0  0.00000000000E+00  0.00000000000E+00 -0.17349694235E+04  0.17349694235E+04  0.25500000920E-02 0. -1.
    10030    2    1    2    0    0  0.00000000000E+00  0.00000000000E+00 -0.10225295364E+04  0.24474093106E+04  0.22235659830E+04 0.  0.
        1    1    3    3  502    0  0.31816447552E+03  0.48541195597E+03 -0.15549911768E+04  0.16597743704E+04  0.50400001928E-02 0. -1.
       -1    1    3    3    0  502 -0.31816447552E+03 -0.48541195597E+03  0.53246164041E+03  0.78763494019E+03  0.50400001928E-02 0.  1.
</event>
<event>
 5   0  0.1433375E-05  0.2221592E+04  0.7818609E-02  0.8509495E-01
        3   -1    0    0  501    0  0.00000000000E+00  0.00000000000E+00  0.73364475526E+03  0.73364476221E+03  0.10100000352E+00 0.  1.
       -3   -1    0    0    0  501  0.00000000000E+00  0.00000000000E+00 -0.16818322806E+04  0.16818322836E+04  0.10100000352E+00 0. -1.
    10030    2    1    2    0    0  0.00000000000E+00  0.00000000000E+00 -0.94818752535E+03  0.24154770458E+04  0.22215917212E+04 0.  0.
        4    1    3    3  502    0  0.12311747170E+03 -0.67174387529E+03  0.47841466890E+03  0.83383448846E+03  0.12699999809E+01 0.  1.
       -4    1    3    3    0  502 -0.12311747170E+03  0.67174387529E+03 -0.14266021942E+04  0.15816425574E+04  0.12699999809E+01 0. -1.
</event>
<event>
 5   0  0.3963414E-05  0.2197707E+04  0.7818609E-02  0.8519383E-01
        2   -1    0    0  501    0  0.00000000000E+00  0.00000000000E+00  0.14029041843E+04  0.14029041843E+04  0.25500000920E-02 0. -1.
       -2   -1    0    0    0  501  0.00000000000E+00  0.00000000000E+00 -0.86069963331E+03  0.86069963331E+03  0.25500000920E-02 0.  1.
    10030    2    1    2    0    0  0.00000000000E+00  0.00000000000E+00  0.54220455097E+03  0.22636038176E+04  0.21977070933E+04 0.  0.
        1    1    3    3  502    0 -0.93309048884E+01 -0.28971985394E+02 -0.86026536090E+03  0.86080365526E+03  0.50400001928E-02 0.  1.
       -1    1    3    3    0  502  0.93309048884E+01  0.28971985394E+02  0.14024699119E+04  0.14028001623E+04  0.50400001928E-02 0. -1.
</event>
<event>
 5   0  0.1815681E-05  0.2202132E+04  0.7818609E-02  0.8517541E-01
        1   -1    0    0  501    0  0.00000000000E+00  0.00000000000E+00  0.70794649395E+03  0.70794649397E+03  0.50400001928E-02 0.  1.
       -1   -1    0    0    0  501  0.00000000000E+00  0.00000000000E+00 -0.17124823953E+04  0.17124823953E+04  0.50400001928E-02 0. -1.
    10030    2    1    2    0    0  0.00000000000E+00  0.00000000000E+00 -0.10045359014E+04  0.24204288893E+04  0.22021316107E+04 0.  0.
        2    1    3    3  502    0  0.25807995550E+03 -0.10503891479E+04 -0.72865479750E+03  0.13041704027E+04  0.25500000920E-02 0.  1.
       -2    1    3    3    0  502 -0.25807995550E+03  0.10503891479E+04 -0.27588110388E+03  0.11162584866E+04  0.25500000920E-02 0. -1.
</event>
<event>
 5   0  0.4029532E-05  0.2193123E+04  0.7818609E-02  0.8521296E-01
       -2   -1    0    0    0  501  0.00000000000E+00  0.00000000000E+00  0.91391360002E+03  0.91391360002E+03  0.25500000920E-02 0.  1.
        2   -1    0    0  501    0  0.00000000000E+00  0.00000000000E+00 -0.13157119929E+04  0.13157119929E+04  0.25500000920E-02 0. -1.
    10030    2    1    2    0    0  0.00000000000E+00  0.00000000000E+00 -0.40179839287E+03  0.22296255929E+04  0.21931229642E+04 0.  0.
        3    1    3    3  502    0 -0.69423311914E+03  0.22435057069E+03 -0.10331540824E+04  0.12647925404E+04  0.10100000352E+00 0. -1.
       -3    1    3    3    0  502  0.69423311914E+03 -0.22435057069E+03  0.63135568948E+03  0.96483305246E+03  0.10100000352E+00 0.  1.
</event>
<event>
 5   0  0.1866935E-05  0.2184901E+04  0.7818609E-02  0.8524739E-01
        1   -1    0    0  501    0  0.00000000000E+00  0.00000000000E+00  0.95408766547E+03  0.95408766549E+03  0.50400001928E-02 0.  1.
       -1   -1    0    0    0  501  0.00000000000E+00  0.00000000000E+00 -0.12508790838E+04  0.12508790838E+04  0.50400001928E-02 0. -1.
    10030    2    1    2    0    0  0.00000000000E+00  0.00000000000E+00 -0.29679141834E+03  0.22049667493E+04  0.21849011922E+04 0.  0.
        4    1    3    3  502    0 -0.23160028582E+03  0.45897312841E+03 -0.11211732793E+04  0.12334205123E+04  0.12699999809E+01 0. -1.
       -4    1    3    3    0  502  0.23160028582E+03 -0.45897312841E+03  0.82438186099E+03  0.97154623700E+03  0.12699999809E+01 0.  1.
</event>
<event>
 5   0  0.1788413E-05  0.2020214E+04  0.7818609E-02  0.8597228E-01
        1   -1    0    0  501    0  0.00000000000E+00  0.00000000000E+00  0.17949257840E+04  0.17949257840E+04  0.50400001928E-02 0. -1.
       -1   -1    0    0    0  501  0.00000000000E+00  0.00000000000E+00 -0.56844471658E+03  0.56844471660E+03  0.50400001928E-02 0.  1.
    10030    2    1    2    0    0  0.00000000000E+00  0.00000000000E+00  0.12264810675E+04  0.23633705006E+04  0.20202139279E+04 0.  0.
        1    1    3    3  502    0 -0.53311683939E+03 -0.30552041548E+03  0.15511454224E+04  0.16684149394E+04  0.50400001928E-02 0. -1.
       -1    1    3    3    0  502  0.53311683939E+03  0.30552041548E+03 -0.32466435490E+03  0.69495556123E+03  0.50400001928E-02 0.  1.
</event>
<event>
 5   0  0.1786228E-05  0.2200236E+04  0.7818609E-02  0.8518330E-01
       -1   -1    0    0    0  501  0.00000000000E+00  0.00000000000E+00  0.57626585460E+03  0.57626585462E+03  0.50400001928E-02 0.  1.
        1   -1    0    0  501    0  0.00000000000E+00  0.00000000000E+00 -0.21001755898E+04  0.21001755898E+04  0.50400001928E-02 0. -1.
    10030    2    1    2    0    0  0.00000000000E+00  0.00000000000E+00 -0.15239097352E+04  0.26764414444E+04  0.22002358792E+04 0.  0.
        5    1    3    3  502    0  0.84306618311E+02 -0.96824944005E+03 -0.13502178922E+03  0.98125815034E+03  0.46999998093E+01 0.  1.
       -5    1    3    3    0  502 -0.84306618311E+02  0.96824944005E+03 -0.13888879460E+04  0.16951832941E+04  0.46999998093E+01 0. -1.
</event>
<event>
 5   0  0.4132460E-05  0.2179631E+04  0.7818609E-02  0.8526954E-01
        2   -1    0    0  501    0  0.00000000000E+00  0.00000000000E+00  0.77849672200E+03  0.77849672200E+03  0.25500000920E-02 0. -1.
       -2   -1    0    0    0  501  0.00000000000E+00  0.00000000000E+00 -0.15256294664E+04  0.15256294664E+04  0.25500000920E-02 0.  1.
    10030    2    1    2    0    0  0.00000000000E+00  0.00000000000E+00 -0.74713274443E+03  0.23041261884E+04  0.21796307381E+04 0.  0.
        4    1    3    3  502    0 -0.74121933212E+03  0.79831444651E+03 -0.40672469931E+03  0.11628149671E+04  0.12699999809E+01 0.  1.
       -4    1    3    3    0  502  0.74121933212E+03 -0.79831444651E+03 -0.34040804512E+03  0.11413112213E+04  0.12699999809E+01 0. -1.
</event>
<event>
 5   0  0.1815681E-05  0.2224982E+04  0.7818609E-02  0.8508102E-01
        1   -1    0    0  501    0  0.00000000000E+00  0.00000000000E+00  0.24231578914E+04  0.24231578914E+04  0.50400001928E-02 0.  1.
       -1   -1    0    0    0  501  0.00000000000E+00  0.00000000000E+00 -0.51075323583E+03  0.51075323585E+03  0.50400001928E-02 0. -1.
    10030    2    1    2    0    0  0.00000000000E+00  0.00000000000E+00  0.19124046555E+04  0.29339111272E+04  0.22249815585E+04 0.  0.
        2    1    3    3  502    0 -0.17274869394E+03  0.41756569577E+03 -0.38428156168E+03  0.59319098122E+03  0.25500000920E-02 0. -1.
       -2    1    3    3    0  502  0.17274869394E+03 -0.41756569577E+03  0.22966862172E+04  0.23407201460E+04  0.25500000920E-02 0.  1.
</event>
<event>
 5   0  0.4143281E-05  0.2277002E+04  0.7818609E-02  0.8487044E-01
        2   -1    0    0  501    0  0.00000000000E+00  0.00000000000E+00  0.68691871259E+03  0.68691871260E+03  0.25500000920E-02 0.  1.
       -2   -1    0    0    0  501  0.00000000000E+00  0.00000000000E+00 -0.18869551650E+04  0.18869551650E+04  0.25500000920E-02 0. -1.
    10030    2    1    2    0    0  0.00000000000E+00  0.00000000000E+00 -0.12000364524E+04  0.25738738776E+04  0.22770022509E+04 0.  0.
        2    1    3    3  502    0 -0.95711923353E+02 -0.24237733257E+03 -0.18527901440E+04  0.18710261520E+04  0.25500000920E-02 0. -1.
       -2    1    3    3    0  502  0.95711923353E+02  0.24237733257E+03  0.65275369157E+03  0.70284772567E+03  0.25500000920E-02 0.  1.
</event>
<event>
 5   0  0.3963414E-05  0.2185962E+04  0.7818609E-02  0.8524294E-01
        2   -1    0    0  501    0  0.00000000000E+00  0.00000000000E+00  0.81461252087E+03  0.81461252087E+03  0.25500000920E-02 0. -1.
       -2   -1    0    0    0  501  0.00000000000E+00  0.00000000000E+00 -0.14664738893E+04  0.14664738893E+04  0.25500000920E-02 0.  1.
    10030    2    1    2    0    0  0.00000000000E+00  0.00000000000E+00 -0.65186136845E+03  0.22810864102E+04  0.21859624807E+04 0.  0.
        1    1    3    3  502    0 -0.54375814834E+03  0.76115277816E+03 -0.91584625571E+03  0.13091221638E+04  0.50400001928E-02 0. -1.
       -1    1    3    3    0  502  0.54375814834E+03 -0.76115277816E+03  0.26398488725E+03  0.97196424642E+03  0.50400001928E-02 0.  1.
</event>
<event>
 5   0  0.4027923E-05  0.2287977E+04  0.7818609E-02  0.8482677E-01
       -2   -1    0    0    0  501  0.00000000000E+00  0.00000000000E+00  0.58947494946E+03  0.58947494946E+03  0.25500000920E-02 0.  1.
        2   -1    0    0  501    0  0.00000000000E+00  0.00000000000E+00 -0.22201279156E+04  0.22201279156E+04  0.25500000920E-02 0. -1.
    10030    2    1    2    0    0  0.00000000000E+00  0.00000000000E+00 -0.16306529661E+04  0.28096028651E+04  0.22879770898E+04 0.  0.
        5    1    3    3  502    0 -0.10429378255E+02  0.23344043516E+03  0.55984438758E+03  0.60667210007E+03  0.46999998093E+01 0.  1.
       -5    1    3    3    0  502  0.10429378255E+02 -0.23344043516E+03 -0.21904973537E+04  0.22029307650E+04  0.46999998093E+01 0. -1.
</event>
<event>
 5   0  0.1815681E-05  0.2146180E+04  0.7818609E-02  0.8541169E-01
       -1   -1    0    0    0  501  0.00000000000E+00  0.00000000000E+00  0.62511598535E+03  0.62511598537E+03  0.50400001928E-02 0. -1.
        1   -1    0    0  501    0  0.00000000000E+00  0.00000000000E+00 -0.18420939906E+04  0.18420939906E+04  0.50400001928E-02 0.  1.
    10030    2    1    2    0    0  0.00000000000E+00  0.00000000000E+00 -0.12169780052E+04  0.24672099759E+04  0.21461802348E+04 0.  0.
        2    1    3    3  502    0  0.68030831090E+03 -0.22462100066E+03 -0.15268951703E+04  0.16866187634E+04  0.25500000920E-02 0.  1.
       -2    1    3    3    0  502 -0.68030831090E+03  0.22462100066E+03  0.30991716515E+03  0.78059121253E+03  0.25500000920E-02 0. -1.
</event>
<event>
 5   0  0.1866935E-05  0.2213290E+04  0.7818609E-02  0.8512917E-01
        1   -1    0    0  501    0  0.00000000000E+00  0.00000000000E+00  0.18160884417E+04  0.18160884417E+04  0.50400001928E-02 0.  1.
       -1   -1    0    0    0  501  0.00000000000E+00  0.00000000000E+00 -0.67434121943E+03  0.67434121945E+03  0.50400001928E-02 0. -1.
    10030    2    1    2    0    0  0.00000000000E+00  0.00000000000E+00  0.11417472222E+04  0.24904296611E+04  0.22132901250E+04 0.  0.
        4    1    3    3  502    0 -0.39017301099E+03  0.13990879759E+03  0.17254419523E+04  0.17745312040E+04  0.12699999809E+01 0.  1.
       -4    1    3    3    0  502  0.39017301099E+03 -0.13990879759E+03 -0.58369473008E+03  0.71589845716E+03  0.12699999809E+01 0. -1.
</event>
<event>
 5   0  0.4132460E-05  0.2188308E+04  0.7818609E-02  0.8523310E-01
       -2   -1    0    0    0  501  0.00000000000E+00  0.00000000000E+00  0.87548699669E+03  0.87548699669E+03  0.25500000920E-02 0. -1.
        2   -1    0    0  501    0  0.00000000000E+00  0.00000000000E+00 -0.13674364300E+04  0.13674364300E+04  0.25500000920E-02 0.  1.
    10030    2    1    2    0    0  0.00000000000E+00  0.00000000000E+00 -0.49194943330E+03  0.22429234267E+04  0.21883078515E+04 0.  0.
        4    1    3    3  502    0 -0.68124902876E+03  0.38844175691E+03  0.53607821316E+03  0.94993089287E+03  0.12699999809E+01 0. -1.
       -4    1    3    3    0  502  0.68124902876E+03 -0.38844175691E+03 -0.10280276465E+04  0.12929925338E+04  0.12699999809E+01 0.  1.
</event>
<event>
 5   0  0.4029532E-05  0.2196626E+04  0.7818609E-02  0.8519834E-01
        2   -1    0    0  501    0  0.00000000000E+00  0.00000000000E+00  0.11657757319E+04  0.11657757319E+04  0.25500000920E-02 0.  1.
       -2   -1    0    0    0  501  0.00000000000E+00  0.00000000000E+00 -0.10347542094E+04  0.10347542094E+04  0.25500000920E-02 0. -1.
    10030    2    1    2    0    0  0.00000000000E+00  0.00000000000E+00  0.13102152252E+03  0.22005299413E+04  0.21966259088E+04 0.  0.
        3    1    3    3  502    0  0.11479254433E+03  0.67781932957E+03 -0.79255985461E+03  0.10491746781E+04  0.10100000352E+00 0. -1.
       -3    1    3    3    0  502 -0.11479254433E+03 -0.67781932957E+03  0.92358137714E+03  0.11513552632E+04  0.10100000352E+00 0.  1.
</event>
<event>
 5   0  0.1788413E-05  0.2217242E+04  0.7818609E-02  0.8511286E-01
        1   -1    0    0  501    0  0.00000000000E+00  0.00000000000E+00  0.95355755721E+03  0.95355755722E+03  0.50400001928E-02 0.  1.
       -1   -1    0    0    0  501  0.00000000000E+00  0.00000000000E+00 -0.12888999050E+04  0.12888999051E+04  0.50400001928E-02 0. -1.
    10030    2    1    2    0    0  0.00000000000E+00  0.00000000000E+00 -0.33534234783E+03  0.22424574623E+04  0.22172417504E+04 0.  0.
        1    1    3    3  502    0 -0.53598078288E+03  0.86680811086E+02  0.80988791319E+03  0.97504225272E+03  0.50400001928E-02 0.  1.
       -1    1    3    3    0  502  0.53598078288E+03 -0.86680811086E+02 -0.11452302610E+04  0.12674152096E+04  0.50400001928E-02 0. -1.
</event>
<event>
 5   0  0.1788413E-05  0.2193326E+04  0.7818609E-02  0.8521211E-01
        1   -1    0    0  501    0  0.00000000000E+00  0.00000000000E+00  0.99864199822E+03  0.99864199824E+03  0.50400001928E-02 0.  1.
       -1   -1    0    0    0  501  0.00000000000E+00  0.00000000000E+00 -0.12043047458E+04  0.12043047458E+04  0.50400001928E-02 0. -1.
    10030    2    1    2    0    0  0.00000000000E+00  0.00000000000E+00 -0.20566274760E+03  0.22029467441E+04  0.21933256009E+04 0.  0.
        1    1    3    3  502    0  0.70845316269E+02  0.90028996586E+03  0.52209420881E+03  0.10431315566E+04  0.50400001928E-02 0. -1.
       -1    1    3    3    0  502 -0.70845316269E+02 -0.90028996586E+03 -0.72775695641E+03  0.11598151875E+04  0.50400001928E-02 0.  1.
</event>
<event>
 5   0  0.1815681E-05  0.2203228E+04  0.7818609E-02  0.8517086E-01
        1   -1    0    0  501    0  0.00000000000E+00  0.00000000000E+00  0.72301181764E+03  0.72301181766E+03  0.50400001928E-02 0.  1.
       -1   -1    0    0    0  501  0.00000000000E+00  0.00000000000E+00 -0.16784703501E+04  0.16784703501E+04  0.50400001928E-02 0. -1.
    10030    2    1    2    0    0  0.00000000000E+00  0.00000000000E+00 -0.95545853247E+03  0.24014821678E+04  0.22032284482E+04 0.  0.
        2    1    3    3  502    0  0.51924554435E+03 -0.85862193763E+03 -0.97328981522E+03  0.13979058021E+04  0.25500000920E-02 0.  1.
       -2    1    3    3    0  502 -0.51924554435E+03  0.85862193763E+03  0.17831282752E+02  0.10035763657E+04  0.25500000920E-02 0. -1.
</event>
<event>
 5   0  0.1815681E-05  0.2257023E+04  0.7818609E-02  0.8495062E-01
       -1   -1    0    0    0  501  0.00000000000E+00  0.00000000000E+00  0.75243864760E+03  0.75243864762E+03  0.50400001928E-02 0.  1.
        1   -1    0    0  501    0  0.00000000000E+00  0.00000000000E+00 -0.16925473615E+04  0.16925473615E+04  0.50400001928E-02 0. -1.
    10030    2    1    2    0    0  0.00000000000E+00  0.00000000000E+00 -0.94010871387E+03  0.24449860091E+04  0.22570228600E+04 0.  0.
        2    1    3    3  502    0  0.16380853386E+03  0.71595893910E+03 -0.13982088757E+04  0.15793728180E+04  0.25500000920E-02 0. -1.
       -2    1    3    3    0  502 -0.16380853386E+03 -0.71595893910E+03  0.45810016184E+03  0.86561319105E+03  0.25500000920E-02 0.  1.
</event>
<event>
 5   0  0.4027923E-05  0.2198746E+04  0.7818609E-02  0.8518950E-01
        2   -1    0    0  501    0  0.00000000000E+00  0.00000000000E+00  0.51309899784E+03  0.51309899785E+03  0.25500000920E-02 0.  1.
       -2   -1    0    0    0  501  0.00000000000E+00  0.00000000000E+00 -0.23555312852E+04  0.23555312852E+04  0.25500000920E-02 0. -1.
    10030    2    1    2    0    0  0.00000000000E+00  0.00000000000E+00 -0.18424322874E+04  0.28686302831E+04  0.21987457714E+04 0.  0.
        5    1    3    3  502    0 -0.80027564384E+03  0.43392214857E+03 -0.17253281633E+04  0.19507713598E+04  0.46999998093E+01 0. -1.
       -5    1    3    3    0  502  0.80027564384E+03 -0.43392214857E+03 -0.11710412407E+03  0.91785892327E+03  0.46999998093E+01 0.  1.
</event>
<event>
 5   0  0.1786228E-05  0.2195263E+04  0.7818609E-02  0.8520402E-01
        1   -1    0    0  501    0  0.00000000000E+00  0.00000000000E+00  0.15305638752E+04  0.15305638752E+04  0.50400001928E-02 0.  1.
       -1   -1    0    0    0  501  0.00000000000E+00  0.00000000000E+00 -0.78715753110E+03  0.78715753111E+03  0.50400001928E-02 0. -1.
    10030    2    1    2    0    0  0.00000000000E+00  0.00000000000E+00  0.74340634409E+03  0.23177214063E+04  0.21952629740E+04 0.  0.
        5    1    3    3  502    0  0.41681566414E+03 -0.51605498433E+02  0.14423600238E+04  0.15022725963E+04  0.46999998093E+01 0.  1.
       -5    1    3    3    0  502 -0.41681566414E+03  0.51605498433E+02 -0.69895367972E+03  0.81544881000E+03  0.46999998093E+01 0. -1.
</event>
<event>
 5   0  0.1884407E-05  0.2206390E+04  0.7818609E-02  0.8515773E-01
        1   -1    0    0  501    0  0.00000000000E+00  0.00000000000E+00  0.14386982129E+04  0.14386982129E+04  0.50400001928E-02 0.  1.
       -1   -1    0    0    0  501  0.00000000000E+00  0.00000000000E+00 -0.84593099462E+03  0.84593099463E+03  0.50400001928E-02 0. -1.
    10030    2    1    2    0    0  0.00000000000E+00  0.00000000000E+00  0.59276721831E+03  0.22846292076E+04  0.22063901833E+04 0.  0.
        3    1    3    3  502    0 -0.27037377026E+03 -0.10386744128E+04  0.32203460581E+02  0.10737707319E+04  0.10100000352E+00 0.  1.
       -3    1    3    3    0  502  0.27037377026E+03  0.10386744128E+04  0.56056375773E+03  0.12108584757E+04  0.10100000352E+00 0. -1.
</event>
<event>
 5   0  0.1786228E-05  0.2197488E+04  0.7818609E-02  0.8519474E-01
        1   -1    0    0  501    0  0.00000000000E+00  0.00000000000E+00  0.17404265141E+04  0.17404265141E+04  0.50400001928E-02 0.  1.
       -1   -1    0    0    0  501  0.00000000000E+00  0.00000000000E+00 -0.69364534998E+03  0.69364535000E+03  0.50400001928E-02 0. -1.
    10030    2    1    2    0    0  0.00000000000E+00  0.00000000000E+00  0.10467811641E+04  0.24340718641E+04  0.21974883467E+04 0.  0.
        5    1    3    3  502    0 -0.86576868448E+03 -0.38436842388E+03 -0.93251467498E+02  0.95184685034E+03  0.46999998093E+01 0. -1.
       -5    1    3    3    0  502  0.86576868448E+03  0.38436842388E+03  0.11400326316E+04  0.14822250138E+04  0.46999998093E+01 0.  1.
</event>
<event>
 5   0  0.1866935E-05  0.2227640E+04  0.7818609E-02  0.8507011E-01
       -1   -1    0    0    0  501  0.00000000000E+00  0.00000000000E+00  0.14526395979E+04  0.14526395979E+04  0.50400001928E-02 0. -1.
        1   -1    0    0  501    0  0.00000000000E+00  0.00000000000E+00 -0.85402800011E+03  0.85402800012E+03  0.50400001928E-02 0.  1.
    10030    2    1    2    0    0  0.00000000000E+00  0.00000000000E+00  0.59861159775E+03  0.23066675980E+04  0.22276399087E+04 0.  0.
        4    1    3    3  502    0  0.10476099652E+04  0.33039717468E+03  0.49008180156E+03  0.12028427650E+04  0.12699999809E+01 0. -1.
       -4    1    3    3    0  502 -0.10476099652E+04 -0.33039717468E+03  0.10852979619E+03  0.11038248330E+04  0.12699999809E+01 0.  1.
</event>
<event>
 5   0  0.4143281E-05  0.2228717E+04  0.7818609E-02  0.8506570E-01
       -2   -1    0    0    0  501  0.00000000000E+00  0.00000000000E+00  0.11069437009E+04  0.11069437009E+04  0.25500000920E-02 0. -1.
        2   -1    0    0  501    0  0.00000000000E+00  0.00000000000E+00 -0.11218230052E+04  0.11218230052E+04  0.25500000920E-02 0.  1.
    10030    2    1    2    0    0  0.00000000000E+00  0.00000000000E+00 -0.14879304290E+02  0.22287667061E+04  0.22287170383E+04 0.  0.
        2    1    3    3  502    0 -0.10444864319E+04  0.35606301510E+03 -0.16256284346E+03  0.11154189595E+04  0.25500000920E-02 0. -1.
       -2    1    3    3    0  502  0.10444864319E+04 -0.35606301510E+03  0.14768353917E+03  0.11133477466E+04  0.25500000920E-02 0.  1.
</event>
<event>
 5   0  0.3963414E-05  0.2202326E+04  0.7818609E-02  0.8517461E-01
       -2   -1    0    0    0  501  0.00000000000E+00  0.00000000000E+00  0.10835762496E+04  0.10835762496E+04  0.25500000920E-02 0. -1.
        2   -1    0    0  501    0  0.00000000000E+00  0.00000000000E+00 -0.11190352006E+04  0.11190352006E+04  0.25500000920E-02 0.  1.
    10030    2    1    2    0    0  0.00000000000E+00  0.00000000000E+00 -0.35458950982E+02  0.22026114502E+04  0.22023260120E+04 0.  0.
        1    1    3    3  502    0 -0.73001799542E+03 -0.81088819532E+03 -0.16638933660E+03  0.11036989401E+04  0.50400001928E-02 0. -1.
       -1    1    3    3    0  502  0.73001799542E+03  0.81088819532E+03  0.13093038562E+03  0.10989125101E+04  0.50400001928E-02 0.  1.
</event>
<event>
 5   0  0.1786228E-05  0.2307212E+04  0.7818609E-02  0.8475083E-01
        1   -1    0    0  501    0  0.00000000000E+00  0.00000000000E+00  0.14233088778E+04  0.14233088778E+04  0.50400001928E-02 0.  1.
       -1   -1    0    0    0  501  0.00000000000E+00  0.00000000000E+00 -0.93500897063E+03  0.93500897064E+03  0.50400001928E-02 0. -1.
    10030    2    1    2    0    0  0.00000000000E+00  0.00000000000E+00  0.48829990719E+03  0.23583178485E+04  0.23072117967E+04 0.  0.
        5    1    3    3  502    0  0.70997897809E+03 -0.84343621723E+03  0.59127456930E+03  0.12510325768E+04  0.46999998093E+01 0.  1.
       -5    1    3    3    0  502 -0.70997897809E+03  0.84343621723E+03 -0.10297466211E+03  0.11072852717E+04  0.46999998093E+01 0. -1.
</event>
<event>
 5   0  0.1815681E-05  0.2191360E+04  0.7818609E-02  0.8522033E-01
        1   -1    0    0  501    0  0.00000000000E+00  0.00000000000E+00  0.18322337729E+04  0.18322337730E+04  0.50400001928E-02 0.  1.
       -1   -1    0    0    0  501  0.00000000000E+00  0.00000000000E+00 -0.65521935800E+03  0.65521935802E+03  0.50400001928E-02 0. -1.
    10030    2    1    2    0    0  0.00000000000E+00  0.00000000000E+00  0.11770144149E+04  0.24874531310E+04  0.21913603414E+04 0.  0.
        2    1    3    3  502    0  0.28506610247E+03 -0.76875340293E+03  0.14135363943E+04  0.16341143213E+04  0.25500000920E-02 0.  1.
       -2    1    3    3    0  502 -0.28506610247E+03  0.76875340293E+03 -0.23652197933E+03  0.85333880962E+03  0.25500000920E-02 0. -1.
</event>
<event>
 5   0  0.1884407E-05  0.2188961E+04  0.7818609E-02  0.8523037E-01
       -1   -1    0    0    0  501  0.00000000000E+00  0.00000000000E+00  0.92553883504E+03  0.92553883506E+03  0.50400001928E-02 0. -1.
        1   -1    0    0  501    0  0.00000000000E+00  0.00000000000E+00 -0.12942596089E+04  0.12942596089E+04  0.50400001928E-02 0.  1.
    10030    2    1    2    0    0  0.00000000000E+00  0.00000000000E+00 -0.36872077385E+03  0.22197984440E+04  0.21889609688E+04 0.  0.
        3    1    3    3  502    0 -0.48006631333E+03  0.94091622257E+03 -0.47492884707E+03  0.11581642470E+04  0.10100000352E+00 0.  1.
       -3    1    3    3    0  502  0.48006631333E+03 -0.94091622257E+03  0.10620807322E+03  0.10616341969E+04  0.10100000352E+00 0. -1.
</event>
<event>
 5   0  0.4143281E-05  0.2187209E+04  0.7818609E-02  0.8523771E-01
       -2   -1    0    0    0  501  0.00000000000E+00  0.00000000000E+00  0.91685020824E+03  0.91685020824E+03  0.25500000920E-02 0.  1.
        2   -1    0    0  501    0  0.00000000000E+00  0.00000000000E+00 -0.13044338813E+04  0.13044338813E+04  0.25500000920E-02 0. -1.
    10030    2    1    2    0    0  0.00000000000E+00  0.00000000000E+00 -0.38758367301E+03  0.22212840895E+04  0.21872087012E+04 0.  0.
        2    1    3    3  502    0  0.45173783141E+03 -0.28868577878E+03 -0.11618280990E+04  0.12795511240E+04  0.25500000920E-02 0. -1.
       -2    1    3    3    0  502 -0.45173783141E+03  0.28868577878E+03  0.77424442599E+03  0.94173296554E+03  0.25500000920E-02 0.  1.
</event>
<event>
 5   0  0.3963414E-05  0.2224025E+04  0.7818609E-02  0.8508494E-01
       -2   -1    0    0    0  501  0.00000000000E+00  0.00000000000E+00  0.10050776696E+04  0.10050776696E+04  0.25500000920E-02 0. -1.
        2   -1    0    0  501    0  0.00000000000E+00  0.00000000000E+00 -0.12303250574E+04  0.12303250574E+04  0.25500000920E-02 0.  1.
    10030    2    1    2    0    0  0.00000000000E+00  0.00000000000E+00 -0.22524738782E+03  0.22354027270E+04  0.22240253969E+04 0.  0.
        1    1    3    3  502    0 -0.74792203954E+03 -0.68997283455E+03  0.33813717101E+03  0.10722810434E+04  0.50400001928E-02 0. -1.
       -1    1    3    3    0  502  0.74792203954E+03  0.68997283455E+03 -0.56338455883E+03  0.11631216836E+04  0.50400001928E-02 0.  1.
</event>
<event>
 5   0  0.1788413E-05  0.2061388E+04  0.7818609E-02  0.8578446E-01
       -1   -1    0    0    0  501  0.00000000000E+00  0.00000000000E+00  0.11309007590E+04  0.11309007591E+04  0.50400001928E-02 0.  1.
        1   -1    0    0  501    0  0.00000000000E+00  0.00000000000E+00 -0.93936595683E+03  0.93936595684E+03  0.50400001928E-02 0. -1.
    10030    2    1    2    0    0  0.00000000000E+00  0.00000000000E+00  0.19153480222E+03  0.20702667159E+04  0.20613875653E+04 0.  0.
        1    1    3    3  502    0 -0.70050823164E+03  0.68103184075E+03 -0.23399661721E+03  0.10046245904E+04  0.50400001928E-02 0. -1.
       -1    1    3    3    0  502  0.70050823164E+03 -0.68103184075E+03  0.42553141943E+03  0.10656421255E+04  0.50400001928E-02 0.  1.
</event>
<event>
 5   0  0.4143281E-05  0.2172110E+04  0.7818609E-02  0.8530127E-01
       -2   -1    0    0    0  501  0.00000000000E+00  0.00000000000E+00  0.56487637501E+03  0.56487637502E+03  0.25500000920E-02 0.  1.
        2   -1    0    0  501    0  0.00000000000E+00  0.00000000000E+00 -0.20880949560E+04  0.20880949560E+04  0.25500000920E-02 0. -1.
    10030    2    1    2    0    0  0.00000000000E+00  0.00000000000E+00 -0.15232185810E+04  0.26529713310E+04  0.21721100427E+04 0.  0.
        2    1    3    3  502    0  0.59884972526E+03 -0.53268595791E+03  0.13353811245E+03  0.81253169211E+03  0.25500000920E-02 0.  1.
       -2    1    3    3    0  502 -0.59884972526E+03  0.53268595791E+03 -0.16567566934E+04  0.18404396389E+04  0.25500000920E-02 0. -1.
</event>
<event>
 5   0  0.1866935E-05  0.2211429E+04  0.7818609E-02  0.8513686E-01
        1   -1    0    0  501    0  0.00000000000E+00  0.00000000000E+00  0.11626555953E+04  0.11626555953E+04  0.50400001928E-02 0. -1.
       -1   -1    0    0    0  501  0.00000000000E+00  0.00000000000E+00 -0.10515616681E+04  0.10515616681E+04  0.50400001928E-02 0.  1.
    10030    2    1    2    0    0  0.00000000000E+00  0.00000000000E+00  0.11109392721E+03  0.22142172634E+04  0.22114285494E+04 0.  0.
        4    1    3    3  502    0  0.82015259560E+03  0.17140263184E+03 -0.66687055009E+03  0.10708627763E+04  0.12699999809E+01 0.  1.
       -4    1    3    3    0  502 -0.82015259560E+03 -0.17140263184E+03  0.77796447730E+03  0.11433544871E+04  0.12699999809E+01 0. -1.
</event>
<event>
 5   0  0.1884407E-05  0.2231463E+04  0.7818609E-02  0.8505446E-01
        1   -1    0    0  501    0  0.00000000000E+00  0.00000000000E+00  0.22870904454E+04  0.22870904454E+04  0.50400001928E-02 0. -1.
       -1   -1    0    0    0  501  0.00000000000E+00  0.00000000000E+00 -0.54429696442E+03  0.54429696444E+03  0.50400001928E-02 0.  1.
    10030    2    1    2    0    0  0.00000000000E+00  0.00000000000E+00  0.17427934810E+04  0.28313874099E+04  0.22314626475E+04 0.  0.
        3    1    3    3  502    0  0.33515366304E+03 -0.72452833322E+02  0.22185759769E+04  0.22449179865E+04  0.10100000352E+00 0. -1.
       -3    1    3    3    0  502 -0.33515366304E+03  0.72452833322E+02 -0.47578249588E+03  0.58646942333E+03  0.10100000352E+00 0.  1.
</event>
<event>
 5   0  0.4027923E-05  0.2168942E+04  0.7818609E-02  0.8531468E-01
        2   -1    0    0  501    0  0.00000000000E+00  0.00000000000E+00  0.40934614019E+03  0.40934614020E+03  0.25500000920E-02 0. -1.
       -2   -1    0    0    0  501  0.00000000000E+00  0.00000000000E+00 -0.28730624627E+04  0.28730624627E+04  0.25500000920E-02 0.  1.
    10030    2    1    2    0    0  0.00000000000E+00  0.00000000000E+00 -0.24637163225E+04  0.32824086029E+04  0.21689417048E+04 0.  0.
        5    1    3    3  502    0  0.62708154435E+02  0.77243396578E+03 -0.23798941468E+04  0.25028992757E+04  0.46999998093E+01 0.  1.
       -5    1    3    3    0  502 -0.62708154435E+02 -0.77243396578E+03 -0.83822175705E+02  0.77950932725E+03  0.46999998093E+01 0. -1.
</event>
<event>
 5   0  0.4143281E-05  0.2199734E+04  0.7818609E-02  0.8518539E-01
        2   -1    0    0  501    0  0.00000000000E+00  0.00000000000E+00  0.14394578172E+04  0.14394578172E+04  0.25500000920E-02 0. -1.
       -2   -1    0    0    0  501  0.00000000000E+00  0.00000000000E+00 -0.84039075100E+03  0.84039075101E+03  0.25500000920E-02 0.  1.
    10030    2    1    2    0    0  0.00000000000E+00  0.00000000000E+00  0.59906706618E+03  0.22798485682E+04  0.21997336530E+04 0.  0.
        2    1    3    3  502    0 -0.20043947045E+03  0.33227727272E+03  0.13661519423E+04  0.14201955135E+04  0.25500000920E-02 0. -1.
       -2    1    3    3    0  502  0.20043947045E+03 -0.33227727272E+03 -0.76708487608E+03  0.85965305467E+03  0.25500000920E-02 0.  1.
</event>
<event>
 5   0  0.1433375E-05  0.2202281E+04  0.7818609E-02  0.8517479E-01
       -3   -1    0    0    0  501  0.00000000000E+00  0.00000000000E+00  0.88300475866E+03  0.88300476444E+03  0.10100000352E+00 0. -1.
        3   -1    0    0  501    0  0.00000000000E+00  0.00000000000E+00 -0.13731636994E+04  0.13731637031E+04  0.10100000352E+00 0.  1.
    10030    2    1    2    0    0  0.00000000000E+00  0.00000000000E+00 -0.49015894070E+03  0.22561684675E+04  0.22022807193E+04 0.  0.
        2    1    3    3  502    0  0.16811811196E+03 -0.10128317773E+04  0.16267747045E+03  0.10394978923E+04  0.25500000920E-02 0. -1.
       -2    1    3    3    0  502 -0.16811811196E+03  0.10128317773E+04 -0.65283641115E+03  0.12166705752E+04  0.25500000920E-02 0.  1.
</event>
<event>
 5   0  0.1786228E-05  0.2226382E+04  0.7818609E-02  0.8507527E-01
       -1   -1    0    0    0  501  0.00000000000E+00  0.00000000000E+00  0.85791419966E+03  0.85791419968E+03  0.50400001928E-02 0.  1.
        1   -1    0    0  501    0  0.00000000000E+00  0.00000000000E+00 -0.14444270019E+04  0.14444270019E+04  0.50400001928E-02 0. -1.
    10030    2    1    2    0    0  0.00000000000E+00  0.00000000000E+00 -0.58651280225E+03  0.23023412016E+04  0.22263822092E+04 0.  0.
        5    1    3    3  502    0  0.25612700621E+03 -0.19785281344E+03  0.80817629733E+03  0.87058474410E+03  0.46999998093E+01 0.  1.
       -5    1    3    3    0  502 -0.25612700621E+03  0.19785281344E+03 -0.13946890996E+04  0.14317564575E+04  0.46999998093E+01 0. -1.
</event>
<event>
 5   0  0.1815681E-05  0.2190997E+04  0.7818609E-02  0.8522185E-01
        1   -1    0    0  501    0  0.00000000000E+00  0.00000000000E+00  0.27299053117E+04  0.27299053117E+04  0.50400001928E-02 0. -1.
       -1   -1    0    0    0  501  0.00000000000E+00  0.00000000000E+00 -0.43961860383E+03  0.43961860386E+03  0.50400001928E-02 0.  1.
    10030    2    1    2    0    0  0.00000000000E+00  0.00000000000E+00  0.22902867078E+04  0.31695239155E+04  0.21909971810E+04 0.  0.
        2    1    3    3  502    0 -0.89580250032E+03 -0.50221232086E+02  0.20544781163E+04  0.22418440227E+04  0.25500000920E-02 0. -1.
       -2    1    3    3    0  502  0.89580250032E+03  0.50221232086E+02  0.23580859153E+03  0.92767989284E+03  0.25500000920E-02 0.  1.
</event>
<event>
 5   0  0.1788413E-05  0.2168556E+04  0.7818609E-02  0.8531631E-01
        1   -1    0    0  501    0  0.00000000000E+00  0.00000000000E+00  0.16712820560E+04  0.16712820560E+04  0.50400001928E-02 0. -1.
       -1   -1    0    0    0  501  0.00000000000E+00  0.00000000000E+00 -0.70344757448E+03  0.70344757450E+03  0.50400001928E-02 0.  1.
    10030    2    1    2    0    0  0.00000000000E+00  0.00000000000E+00  0.96783448152E+03  0.23747296305E+04  0.21685564863E+04 0.  0.
        1    1    3    3  502    0  0.49129768242E+03  0.78894170517E+03 -0.12761744943E+03  0.93813039623E+03  0.50400001928E-02 0.  1.
       -1    1    3    3    0  502 -0.49129768242E+03 -0.78894170517E+03  0.10954519309E+04  0.14365992343E+04  0.50400001928E-02 0. -1.
</event>
<event>
 5   0  0.4143281E-05  0.2066847E+04  0.7818609E-02  0.8575990E-01
        2   -1    0    0  501    0  0.00000000000E+00  0.00000000000E+00  0.11974351964E+04  0.11974351964E+04  0.25500000920E-02 0.  1.
       -2   -1    0    0    0  501  0.00000000000E+00  0.00000000000E+00 -0.89187597021E+03  0.89187597021E+03  0.25500000920E-02 0. -1.
    10030    2    1    2    0    0  0.00000000000E+00  0.00000000000E+00  0.30555922618E+03  0.20893111666E+04  0.20668465618E+04 0.  0.
        2    1    3    3  502    0  0.39284394201E+03  0.58943143235E+03  0.91342607837E+03  0.11558992071E+04  0.25500000920E-02 0.  1.
       -2    1    3    3    0  502 -0.39284394201E+03 -0.58943143235E+03 -0.60786685220E+03  0.93341195954E+03  0.25500000920E-02 0. -1.
</event>
<event>
 5   0  0.1788413E-05  0.2192168E+04  0.7818609E-02  0.8521695E-01
       -1   -1    0    0    0  501  0.00000000000E+00  0.00000000000E+00  0.12060314732E+04  0.12060314732E+04  0.50400001928E-02 0. -1.
        1   -1    0    0  501    0  0.00000000000E+00  0.00000000000E+00 -0.99615955825E+03  0.99615955827E+03  0.50400001928E-02 0.  1.
    10030    2    1    2    0    0  0.00000000000E+00  0.00000000000E+00  0.20987191490E+03  0.22021910314E+04  0.21921676757E+04 0.  0.
        1    1    3    3  502    0 -0.46177729748E+03  0.61357942804E+03  0.89061287954E+03  0.11759716358E+04  0.50400001928E-02 0. -1.
       -1    1    3    3    0  502  0.46177729748E+03 -0.61357942804E+03 -0.68074096465E+03  0.10262193956E+04  0.50400001928E-02 0.  1.
</event>
<event>
 5   0  0.4027923E-05  0.2195420E+04  0.7818609E-02  0.8520337E-01
       -2   -1    0    0    0  501  0.00000000000E+00  0.00000000000E+00  0.38924797026E+03  0.38924797027E+03  0.25500000920E-02 0. -1.
        2   -1    0    0  501    0  0.00000000000E+00  0.00000000000E+00 -0.30956296215E+04  0.30956296215E+04  0.25500000920E-02 0.  1.
    10030    2    1    2    0    0  0.00000000000E+00  0.00000000000E+00 -0.27063816513E+04  0.34848775918E+04  0.21954202758E+04 0.  0.
        5    1    3    3  502    0 -0.35518260833E+03 -0.80752647790E+03 -0.31631443780E+03  0.93719294242E+03  0.46999998093E+01 0. -1.
       -5    1    3    3    0  502  0.35518260833E+03  0.80752647790E+03 -0.23900672135E+04  0.25476846494E+04  0.46999998093E+01 0.  1.
</event>
<event>
 5   0  0.1884407E-05  0.2218246E+04  0.7818609E-02  0.8510872E-01
       -1   -1    0    0    0  501  0.00000000000E+00  0.00000000000E+00  0.92430426549E+03  0.92430426550E+03  0.50400001928E-02 0.  1.
        1   -1    0    0  501    0  0.00000000000E+00  0.00000000000E+00 -0.13308968121E+04  0.13308968121E+04  0.50400001928E-02 0. -1.
    10030    2    1    2    0    0  0.00000000000E+00  0.00000000000E+00 -0.40659254661E+03  0.22552010776E+04  0.22182457937E+04 0.  0.
        3    1    3    3  502    0 -0.35322611732E+03  0.28144782208E+03 -0.12331740550E+04  0.13132782746E+04  0.10100000352E+00 0. -1.
       -3    1    3    3    0  502  0.35322611732E+03 -0.28144782208E+03  0.82658150840E+03  0.94192280296E+03  0.10100000352E+00 0.  1.
</event>
<event>
 5   0  0.1433375E-05  0.2196719E+04  0.7818609E-02  0.8519795E-01
        3   -1    0    0  501    0  0.00000000000E+00  0.00000000000E+00  0.16241750904E+04  0.16241750935E+04  0.10100000352E+00 0.  1.
       -3   -1    0    0    0  501  0.00000000000E+00  0.00000000000E+00 -0.74277342448E+03  0.74277343134E+03  0.10100000352E+00 0. -1.
    10030    2    1    2    0    0  0.00000000000E+00  0.00000000000E+00  0.88140166591E+03  0.23669485249E+04  0.21967194684E+04 0.  0.
        2    1    3    3  502    0 -0.57154749860E+03  0.85732758699E+03  0.85059708414E+03  0.13361109737E+04  0.25500000920E-02 0. -1.
       -2    1    3    3    0  502  0.57154749860E+03 -0.85732758699E+03  0.30804581766E+02  0.10308375511E+04  0.25500000920E-02 0.  1.
</event>
<event>
 5   0  0.1786228E-05  0.2201093E+04  0.7818609E-02  0.8517973E-01
        1   -1    0    0  501    0  0.00000000000E+00  0.00000000000E+00  0.81121152850E+03  0.81121152852E+03  0.50400001928E-02 0.  1.
       -1   -1    0    0    0  501  0.00000000000E+00  0.00000000000E+00 -0.14930789974E+04  0.14930789974E+04  0.50400001928E-02 0. -1.
    10030    2    1    2    0    0  0.00000000000E+00  0.00000000000E+00 -0.68186746888E+03  0.23042905259E+04  0.22010932699E+04 0.  0.
        5    1    3    3  502    0  0.67165984138E+01 -0.54684580473E+03 -0.13407470382E+04  0.14480021261E+04  0.46999998093E+01 0. -1.
       -5    1    3    3    0  502 -0.67165984138E+01  0.54684580473E+03  0.65887956928E+03  0.85628839981E+03  0.46999998093E+01 0.  1.
</event>
<event>
 5   0  0.4143281E-05  0.2195877E+04  0.7818609E-02  0.8520146E-01
       -2   -1    0    0    0  501  0.00000000000E+00  0.00000000000E+00  0.11825950978E+04  0.11825950978E+04  0.25500000920E-02 0. -1.
        2   -1    0    0  501    0  0.00000000000E+00  0.00000000000E+00 -0.10193416281E+04  0.10193416281E+04  0.25500000920E-02 0.  1.
    10030    2    1    2    0    0  0.00000000000E+00  0.00000000000E+00  0.16325346963E+03  0.22019367259E+04  0.21958765106E+04 0.  0.
        2    1    3    3  502    0  0.69807576863E+03  0.12069850254E+03 -0.75949122654E+03  0.10386071589E+04  0.25500000920E-02 0.  1.
       -2    1    3    3    0  502 -0.69807576863E+03 -0.12069850254E+03  0.92274469616E+03  0.11633295670E+04  0.25500000920E-02 0. -1.
</event>
<event>
 5   0  0.1433375E-05  0.2171998E+04  0.7818609E-02  0.8530174E-01
        3   -1    0    0  501    0  0.00000000000E+00  0.00000000000E+00  0.80871172814E+03  0.80871173445E+03  0.10100000352E+00 0.  1.
       -3   -1    0    0    0  501  0.00000000000E+00  0.00000000000E+00 -0.14583615054E+04  0.14583615089E+04  0.10100000352E+00 0. -1.
    10030    2    1    2    0    0  0.00000000000E+00  0.00000000000E+00 -0.64964977728E+03  0.22670732434E+04  0.21719982177E+04 0.  0.
        2    1    3    3  502    0 -0.15017207328E+02  0.81399034224E+03  0.42537735266E+03  0.91855957125E+03  0.25500000920E-02 0.  1.
       -2    1    3    3    0  502  0.15017207328E+02 -0.81399034224E+03 -0.10750271299E+04  0.13485136721E+04  0.25500000920E-02 0. -1.
</event>
<event>
 5   0  0.1788413E-05  0.2197146E+04  0.7818609E-02  0.8519617E-01
       -1   -1    0    0    0  501  0.00000000000E+00  0.00000000000E+00  0.54916799345E+03  0.54916799347E+03  0.50400001928E-02 0.  1.
        1   -1    0    0  501    0  0.00000000000E+00  0.00000000000E+00 -0.21976193305E+04  0.21976193305E+04  0.50400001928E-02 0. -1.
    10030    2    1    2    0    0  0.00000000000E+00  0.00000000000E+00 -0.16484513370E+04  0.27467873240E+04  0.21971456011E+04 0.  0.
        1    1    3    3  502    0 -0.36366586323E+03 -0.76574610564E+03 -0.16977678305E+04  0.18976394717E+04  0.50400001928E-02 0. -1.
       -1    1    3    3    0  502  0.36366586323E+03  0.76574610564E+03  0.49316493460E+02  0.84914785223E+03  0.50400001928E-02 0.  1.
</event>
<event>
 5   0  0.4143281E-05  0.2186814E+04  0.7818609E-02  0.8523936E-01
        2   -1    0    0  501    0  0.00000000000E+00  0.00000000000E+00  0.74788389670E+03  0.74788389671E+03  0.25500000920E-02 0.  1.
       -2   -1    0    0    0  501  0.00000000000E+00  0.00000000000E+00 -0.15985627574E+04  0.15985627574E+04  0.25500000920E-02 0. -1.
    10030    2    1    2    0    0  0.00000000000E+00  0.00000000000E+00 -0.85067886067E+03  0.23464466541E+04  0.21868144358E+04 0.  0.
        2    1    3    3  502    0 -0.41273687491E+03 -0.90822760786E+03 -0.90557056836E+03  0.13473259331E+04  0.25500000920E-02 0. -1.
       -2    1    3    3    0  502  0.41273687491E+03  0.90822760786E+03  0.54891707699E+02  0.99912072102E+03  0.25500000920E-02 0.  1.
</event>
<event>
 5   0  0.1815681E-05  0.2202092E+04  0.7818609E-02  0.8517558E-01
        1   -1    0    0  501    0  0.00000000000E+00  0.00000000000E+00  0.89549877602E+03  0.89549877603E+03  0.50400001928E-02 0.  1.
       -1   -1    0    0    0  501  0.00000000000E+00  0.00000000000E+00 -0.13537733326E+04  0.13537733326E+04  0.50400001928E-02 0. -1.
    10030    2    1    2    0    0  0.00000000000E+00  0.00000000000E+00 -0.45827455658E+03  0.22492721086E+04  0.22020920620E+04 0.  0.
        2    1    3    3  502    0 -0.99561251654E+03 -0.21648694522E+03  0.19716728688E+03  0.10377792730E+04  0.25500000920E-02 0.  1.
       -2    1    3    3    0  502  0.99561251654E+03  0.21648694522E+03 -0.65544184346E+03  0.12114928356E+04  0.25500000920E-02 0. -1.
</event>
<event>
 5   0  0.1815681E-05  0.2193925E+04  0.7818609E-02  0.8520961E-01
        1   -1    0    0  501    0  0.00000000000E+00  0.00000000000E+00  0.15354850306E+04  0.15354850306E+04  0.50400001928E-02 0. -1.
       -1   -1    0    0    0  501  0.00000000000E+00  0.00000000000E+00 -0.78367852396E+03  0.78367852398E+03  0.50400001928E-02 0.  1.
    10030    2    1    2    0    0  0.00000000000E+00  0.00000000000E+00  0.75180650661E+03  0.23191635546E+04  0.21939249234E+04 0.  0.
        2    1    3    3  502    0 -0.63290939284E+03 -0.84934999514E+03  0.67741684067E+03  0.12573238604E+04  0.25500000920E-02 0. -1.
       -2    1    3    3    0  502  0.63290939284E+03  0.84934999514E+03  0.74389665936E+02  0.10618396942E+04  0.25500000920E-02 0.  1.
</event>
<event>
 5   0  0.1866935E-05  0.2208304E+04  0.7818609E-02  0.8514980E-01
       -1   -1    0    0    0  501  0.00000000000E+00  0.00000000000E+00  0.10327130473E+04  0.10327130473E+04  0.50400001928E-02 0. -1.
        1   -1    0    0  501    0  0.00000000000E+00  0.00000000000E+00 -0.11805329705E+04  0.11805329706E+04  0.50400001928E-02 0.  1.
    10030    2    1    2    0    0  0.00000000000E+00  0.00000000000E+00 -0.14781992320E+03  0.22132460179E+04  0.22083041471E+04 0.  0.
        4    1    3    3  502    0 -0.99264449226E+02  0.10906489658E+04  0.67051831212E+02  0.10972083478E+04  0.12699999809E+01 0.  1.
       -4    1    3    3    0  502  0.99264449226E+02 -0.10906489658E+04 -0.21487175442E+03  0.11160376701E+04  0.12699999809E+01 0. -1.
</event>
<event>
 5   0  0.1866935E-05  0.2198313E+04  0.7818609E-02  0.8519130E-01
        1   -1    0    0  501    0  0.00000000000E+00  0.00000000000E+00  0.62352709325E+03  0.62352709327E+03  0.50400001928E-02 0. -1.
       -1   -1    0    0    0  501  0.00000000000E+00  0.00000000000E+00 -0.19375988513E+04  0.19375988513E+04  0.50400001928E-02 0.  1.
    10030    2    1    2    0    0  0.00000000000E+00  0.00000000000E+00 -0.13140717581E+04  0.25611259446E+04  0.21983133350E+04 0.  0.
        4    1    3    3  502    0 -0.67738539333E+03  0.86289965574E+03 -0.73688142371E+03  0.13215304130E+04  0.12699999809E+01 0. -1.
       -4    1    3    3    0  502  0.67738539333E+03 -0.86289965574E+03 -0.57719033435E+03  0.12395955316E+04  0.12699999809E+01 0.  1.
</event>
<event>
 5   0  0.1786228E-05  0.2226372E+04  0.7818609E-02  0.8507531E-01
        1   -1    0    0  501    0  0.00000000000E+00  0.00000000000E+00  0.12793912107E+04  0.12793912107E+04  0.50400001928E-02 0.  1.
       -1   -1    0    0    0  501  0.00000000000E+00  0.00000000000E+00 -0.96857264642E+03  0.96857264644E+03  0.50400001928E-02 0. -1.
    10030    2    1    2    0    0  0.00000000000E+00  0.00000000000E+00  0.31081856426E+03  0.22479638571E+04  0.22263722337E+04 0.  0.
        5    1    3    3  502    0  0.99997779216E+03  0.10819925981E+03  0.63700308381E+03  0.11905703186E+04  0.46999998093E+01 0.  1.
       -5    1    3    3    0  502 -0.99997779216E+03 -0.10819925981E+03 -0.32618451955E+03  0.10573935386E+04  0.46999998093E+01 0. -1.
</event>
<event>
 5   0  0.1884407E-05  0.2206984E+04  0.7818609E-02  0.8515527E-01
        1   -1    0    0  501    0  0.00000000000E+00  0.00000000000E+00  0.12457288696E+04  0.12457288696E+04  0.50400001928E-02 0.  1.
       -1   -1    0    0    0  501  0.00000000000E+00  0.00000000000E+00 -0.97749608405E+03  0.97749608407E+03  0.50400001928E-02 0. -1.
    10030    2    1    2    0    0  0.00000000000E+00  0.00000000000E+00  0.26823278558E+03  0.22232249537E+04  0.22069844511E+04 0.  0.
        3    1    3    3  502    0  0.81048384099E+03  0.58930320966E+03  0.59961285408E+03  0.11677747704E+04  0.10100000352E+00 0.  1.
       -3    1    3    3    0  502 -0.81048384099E+03 -0.58930320966E+03 -0.33138006850E+03  0.10554501833E+04  0.10100000352E+00 0. -1.
</event>
<event>
 5   0  0.4027923E-05  0.2206332E+04  0.7818609E-02  0.8515797E-01
        2   -1    0    0  501    0  0.00000000000E+00  0.00000000000E+00  0.11441742824E+04  0.11441742824E+04  0.25500000920E-02 0.  1.
       -2   -1    0    0    0  501  0.00000000000E+00  0.00000000000E+00 -0.10636278399E+04  0.10636278399E+04  0.25500000920E-02 0. -1.
    10030    2    1    2    0    0  0.00000000000E+00  0.00000000000E+00  0.80546442518E+02  0.22078021224E+04  0.22063323599E+04 0.  0.
        5    1    3    3  502    0 -0.17764048912E+02 -0.63317443435E+03 -0.86350510988E+03  0.10709288448E+04  0.46999998093E+01 0. -1.
       -5    1    3    3    0  502  0.17764048912E+02  0.63317443435E+03  0.94405155240E+03  0.11368732776E+04  0.46999998093E+01 0.  1.
</event>
<event>
 5   0  0.1786228E-05  0.2015514E+04  0.7818609E-02  0.8599402E-01
       -1   -1    0    0    0  501  0.00000000000E+00  0.00000000000E+00  0.66786575563E+03  0.66786575565E+03  0.50400001928E-02 0.  1.
        1   -1    0    0  501    0  0.00000000000E+00  0.00000000000E+00 -0.15206259802E+04  0.15206259802E+04  0.50400001928E-02 0. -1.
    10030    2    1    2    0    0  0.00000000000E+00  0.00000000000E+00 -0.85276022457E+03  0.21884917359E+04  0.20155138494E+04 0.  0.
        5    1    3    3  502    0  0.21538712003E+03 -0.74275679939E+03  0.27519333071E+03  0.82087315328E+03  0.46999998093E+01 0.  1.
       -5    1    3    3    0  502 -0.21538712003E+03  0.74275679939E+03 -0.11279535553E+04  0.13676185826E+04  0.46999998093E+01 0. -1.
</event>
<event>
 5   0  0.3963414E-05  0.2187010E+04  0.7818609E-02  0.8523854E-01
       -2   -1    0    0    0  501  0.00000000000E+00  0.00000000000E+00  0.16340738113E+04  0.16340738113E+04  0.25500000920E-02 0.  1.
        2   -1    0    0  501    0  0.00000000000E+00  0.00000000000E+00 -0.73176235914E+03  0.73176235915E+03  0.25500000920E-02 0. -1.
    10030    2    1    2    0    0  0.00000000000E+00  0.00000000000E+00  0.90231145213E+03  0.23658361704E+04  0.21870104775E+04 0.  0.
        1    1    3    3  502    0 -0.36602375543E+03  0.89625819085E+02  0.15616136015E+04  0.16064380527E+04  0.50400001928E-02 0.  1.
       -1    1    3    3    0  502  0.36602375543E+03 -0.89625819085E+02 -0.65930214934E+03  0.75939811768E+03  0.50400001928E-02 0. -1.
</event>
<event>
 5   0  0.1884407E-05  0.2199896E+04  0.7818609E-02  0.8518471E-01
       -1   -1    0    0    0  501  0.00000000000E+00  0.00000000000E+00  0.13678302590E+04  0.13678302590E+04  0.50400001928E-02 0. -1.
        1   -1    0    0  501    0  0.00000000000E+00  0.00000000000E+00 -0.88452898463E+03  0.88452898465E+03  0.50400001928E-02 0.  1.
    10030    2    1    2    0    0  0.00000000000E+00  0.00000000000E+00  0.48330127438E+03  0.22523592437E+04  0.21998959159E+04 0.  0.
        3    1    3    3  502    0 -0.76694511735E+03  0.26404588811E+03 -0.51900748877E+03  0.96296096892E+03  0.10100000352E+00 0.  1.
       -3    1    3    3    0  502  0.76694511735E+03 -0.26404588811E+03  0.10023087632E+04  0.12893982748E+04  0.10100000352E+00 0. -1.
</event>
<event>
 5   0  0.1815681E-05  0.2195606E+04  0.7818609E-02  0.8520259E-01
        1   -1    0    0  501    0  0.00000000000E+00  0.00000000000E+00  0.97196557967E+03  0.97196557969E+03  0.50400001928E-02 0.  1.
       -1   -1    0    0    0  501  0.00000000000E+00  0.00000000000E+00 -0.12399325076E+04  0.12399325076E+04  0.50400001928E-02 0. -1.
    10030    2    1    2    0    0  0.00000000000E+00  0.00000000000E+00 -0.26796692792E+03  0.22118980873E+04  0.21956062657E+04 0.  0.
        2    1    3    3  502    0  0.19235516394E+02 -0.75274718978E+03  0.67080176079E+03  0.10084509602E+04  0.25500000920E-02 0.  1.
       -2    1    3    3    0  502 -0.19235516394E+02  0.75274718978E+03 -0.93876868872E+03  0.12034471271E+04  0.25500000920E-02 0. -1.
</event>
<event>
 5   0  0.3963414E-05  0.2216251E+04  0.7818609E-02  0.8511695E-01
       -2   -1    0    0    0  501  0.00000000000E+00  0.00000000000E+00  0.10383380748E+04  0.10383380748E+04  0.25500000920E-02 0.  1.
        2   -1    0    0  501    0  0.00000000000E+00  0.00000000000E+00 -0.11826031222E+04  0.11826031222E+04  0.25500000920E-02 0. -1.
    10030    2    1    2    0    0  0.00000000000E+00  0.00000000000E+00 -0.14426504739E+03  0.22209411970E+04  0.22162507522E+04 0.  0.
        1    1    3    3  502    0 -0.10261147360E+04  0.40419602603E+03  0.36058786184E+02  0.11034428463E+04  0.50400001928E-02 0. -1.
       -1    1    3    3    0  502  0.10261147360E+04 -0.40419602603E+03 -0.18032383357E+03  0.11174983507E+04  0.50400001928E-02 0.  1.
</event>
<event>
 5   0  0.4029532E-05  0.2209346E+04  0.7818609E-02  0.8514548E-01
       -2   -1    0    0    0  501  0.00000000000E+00  0.00000000000E+00  0.11358686403E+04  0.11358686403E+04  0.25500000920E-02 0. -1.
        2   -1    0    0  501    0  0.00000000000E+00  0.00000000000E+00 -0.10743342416E+04  0.10743342416E+04  0.25500000920E-02 0.  1.
    10030    2    1    2    0    0  0.00000000000E+00  0.00000000000E+00  0.61534398728E+02  0.22102028818E+04  0.22093461242E+04 0.  0.
        3    1    3    3  502    0  0.14797337792E+03 -0.67005913806E+03 -0.83526313794E+03  0.10809902353E+04  0.10100000352E+00 0.  1.
       -3    1    3    3    0  502 -0.14797337792E+03  0.67005913806E+03  0.89679753667E+03  0.11292126465E+04  0.10100000352E+00 0. -1.
</event>
<event>
 5   0  0.3963414E-05  0.2208118E+04  0.7818609E-02  0.8515057E-01
        2   -1    0    0  501    0  0.00000000000E+00  0.00000000000E+00  0.12302780710E+04  0.12302780710E+04  0.25500000920E-02 0. -1.
       -2   -1    0    0    0  501  0.00000000000E+00  0.00000000000E+00 -0.99078948460E+03  0.99078948461E+03  0.25500000920E-02 0.  1.
    10030    2    1    2    0    0  0.00000000000E+00  0.00000000000E+00  0.23948858636E+03  0.22210675556E+04  0.22081182721E+04 0.  0.
        1    1    3    3  502    0  0.42454702743E+03 -0.25786805880E+03  0.11115339657E+04  0.12174743821E+04  0.50400001928E-02 0. -1.
       -1    1    3    3    0  502 -0.42454702743E+03  0.25786805880E+03 -0.87204537930E+03  0.10035931735E+04  0.50400001928E-02 0.  1.
</event>
<event>
 5   0  0.4029532E-05  0.2202153E+04  0.7818609E-02  0.8517532E-01
        2   -1    0    0  501    0  0.00000000000E+00  0.00000000000E+00  0.22131650386E+04  0.22131650386E+04  0.25500000920E-02 0.  1.
       -2   -1    0    0    0  501  0.00000000000E+00  0.00000000000E+00 -0.54779910485E+03  0.54779910486E+03  0.25500000920E-02 0. -1.
    10030    2    1    2    0    0  0.00000000000E+00  0.00000000000E+00  0.16653659337E+04  0.27609641435E+04  0.22021533344E+04 0.  0.
        3    1    3    3  502    0 -0.62249354733E+03  0.61929548068E+02  0.19687249960E+04  0.20657230225E+04  0.10100000352E+00 0.  1.
       -3    1    3    3    0  502  0.62249354733E+03 -0.61929548068E+02 -0.30335906230E+03  0.69524112096E+03  0.10100000352E+00 0. -1.
</event>
<event>
 5   0  0.4143281E-05  0.2197723E+04  0.7818609E-02  0.8519377E-01
        2   -1    0    0  501    0  0.00000000000E+00  0.00000000000E+00  0.14228034484E+04  0.14228034484E+04  0.25500000920E-02 0. -1.
       -2   -1    0    0    0  501  0.00000000000E+00  0.00000000000E+00 -0.84867390446E+03  0.84867390447E+03  0.25500000920E-02 0.  1.
    10030    2    1    2    0    0  0.00000000000E+00  0.00000000000E+00  0.57412954394E+03  0.22714773529E+04  0.21977226011E+04 0.  0.
        2    1    3    3  502    0 -0.16294895322E+03 -0.22375243273E+03 -0.81205124917E+03  0.85793050056E+03  0.25500000920E-02 0.  1.
       -2    1    3    3    0  502  0.16294895322E+03  0.22375243273E+03  0.13861807931E+04  0.14135468523E+04  0.25500000920E-02 0. -1.
</event>
<event>
 5   0  0.3963414E-05  0.2151924E+04  0.7818609E-02  0.8538709E-01
        2   -1    0    0  501    0  0.00000000000E+00  0.00000000000E+00  0.21083095504E+04  0.21083095504E+04  0.25500000920E-02 0.  1.
       -2   -1    0    0    0  501  0.00000000000E+00  0.00000000000E+00 -0.54910998497E+03  0.54910998498E+03  0.25500000920E-02 0. -1.
    10030    2    1    2    0    0  0.00000000000E+00  0.00000000000E+00  0.15591995654E+04  0.26574195353E+04  0.21519236283E+04 0.  0.
        1    1    3    3  502    0  0.41710688339E+03 -0.98439452495E+03  0.92923783189E+03  0.14165075648E+04  0.50400001928E-02 0.  1.
       -1    1    3    3    0  502 -0.41710688339E+03  0.98439452495E+03  0.62996173350E+03  0.12409119705E+04  0.50400001928E-02 0. -1.
</event>
<event>
 5   0  0.1786228E-05  0.2193408E+04  0.7818609E-02  0.8521177E-01
       -1   -1    0    0    0  501  0.00000000000E+00  0.00000000000E+00  0.64723830332E+03  0.64723830333E+03  0.50400001928E-02 0.  1.
        1   -1    0    0  501    0  0.00000000000E+00  0.00000000000E+00 -0.18582949317E+04  0.18582949317E+04  0.50400001928E-02 0. -1.
    10030    2    1    2    0    0  0.00000000000E+00  0.00000000000E+00 -0.12110566284E+04  0.25055332350E+04  0.21934079955E+04 0.  0.
        5    1    3    3  502    0 -0.59079743069E+03 -0.12601652447E+02 -0.16608672543E+04  0.17628677013E+04  0.46999998093E+01 0. -1.
       -5    1    3    3    0  502  0.59079743069E+03  0.12601652447E+02  0.44981062597E+03  0.74266553373E+03  0.46999998093E+01 0.  1.
</event>
<event>
 5   0  0.1786228E-05  0.2187383E+04  0.7818609E-02  0.8523698E-01
       -1   -1    0    0    0  501  0.00000000000E+00  0.00000000000E+00  0.64456143768E+03  0.64456143770E+03  0.50400001928E-02 0.  1.
        1   -1    0    0  501    0  0.00000000000E+00  0.00000000000E+00 -0.18557747497E+04  0.18557747497E+04  0.50400001928E-02 0. -1.
    10030    2    1    2    0    0  0.00000000000E+00  0.00000000000E+00 -0.12112133120E+04  0.25003361874E+04  0.21873827655E+04 0.  0.
        5    1    3    3  502    0 -0.18526533329E+03 -0.83929267274E+02 -0.18339552338E+04  0.18452049359E+04  0.46999998093E+01 0. -1.
       -5    1    3    3    0  502  0.18526533329E+03  0.83929267274E+02  0.62274192179E+03  0.65513125156E+03  0.46999998093E+01 0.  1.
</event>
<event>
 5   0  0.4143281E-05  0.2176682E+04  0.7818609E-02  0.8528197E-01
       -2   -1    0    0    0  501  0.00000000000E+00  0.00000000000E+00  0.10058353837E+04  0.10058353837E+04  0.25500000920E-02 0.  1.
        2   -1    0    0  501    0  0.00000000000E+00  0.00000000000E+00 -0.11776140691E+04  0.11776140691E+04  0.25500000920E-02 0. -1.
    10030    2    1    2    0    0  0.00000000000E+00  0.00000000000E+00 -0.17177868541E+03  0.21834494528E+04  0.21766817857E+04 0.  0.
        2    1    3    3  502    0  0.54155845650E+03 -0.68686519784E+03  0.56374798978E+03  0.10406157590E+04  0.25500000920E-02 0.  1.
       -2    1    3    3    0  502 -0.54155845650E+03  0.68686519784E+03 -0.73552667519E+03  0.11428336938E+04  0.25500000920E-02 0. -1.
</event>
<event>
 5   0  0.1884407E-05  0.2201305E+04  0.7818609E-02  0.8517885E-01
        1   -1    0    0  501    0  0.00000000000E+00  0.00000000000E+00  0.14310185426E+04  0.14310185426E+04  0.50400001928E-02 0. -1.
       -1   -1    0    0    0  501  0.00000000000E+00  0.00000000000E+00 -0.84655536018E+03  0.84655536019E+03  0.50400001928E-02 0.  1.
    10030    2    1    2    0    0  0.00000000000E+00  0.00000000000E+00  0.58446318241E+03  0.22775739028E+04  0.22013054470E+04 0.  0.
        3    1    3    3  502    0  0.10341155988E+04  0.25176390615E+03  0.58240582589E+03  0.12132504656E+04  0.10100000352E+00 0. -1.
       -3    1    3    3    0  502 -0.10341155988E+04 -0.25176390615E+03  0.20573565190E+01  0.10643234372E+04  0.10100000352E+00 0.  1.
</event>
<event>
 5   0  0.1786228E-05  0.2214614E+04  0.7818609E-02  0.8512370E-01
       -1   -1    0    0    0  501  0.00000000000E+00  0.00000000000E+00  0.90507709078E+03  0.90507709080E+03  0.50400001928E-02 0. -1.
        1   -1    0    0  501    0  0.00000000000E+00  0.00000000000E+00 -0.13547232627E+04  0.13547232627E+04  0.50400001928E-02 0.  1.
    10030    2    1    2    0    0  0.00000000000E+00  0.00000000000E+00 -0.44964617193E+03  0.22598003535E+04  0.22146141781E+04 0.  0.
        5    1    3    3  502    0  0.86600095551E+03  0.29402707842E+03  0.41217144959E+03  0.10031535135E+04  0.46999998093E+01 0. -1.
       -5    1    3    3    0  502 -0.86600095551E+03 -0.29402707842E+03 -0.86181762152E+03  0.12566468400E+04  0.46999998093E+01 0.  1.
</event>
<event>
 5   0  0.4027923E-05  0.2207529E+04  0.7818609E-02  0.8515301E-01
        2   -1    0    0  501    0  0.00000000000E+00  0.00000000000E+00  0.18230336716E+04  0.18230336716E+04  0.25500000920E-02 0. -1.
       -2   -1    0    0    0  501  0.00000000000E+00  0.00000000000E+00 -0.66827931274E+03  0.66827931274E+03  0.25500000920E-02 0.  1.
    10030    2    1    2    0    0  0.00000000000E+00  0.00000000000E+00  0.11547543589E+04  0.24913129844E+04  0.22075286536E+04 0.  0.
        5    1    3    3  502    0  0.21217850762E+03 -0.73063709299E+03  0.14798126916E+04  0.16639465055E+04  0.46999998093E+01 0.  1.
       -5    1    3    3    0  502 -0.21217850762E+03  0.73063709299E+03 -0.32505833273E+03  0.82736647891E+03  0.46999998093E+01 0. -1.
</event>
<event>
 5   0  0.4029532E-05  0.2190351E+04  0.7818609E-02  0.8522455E-01
       -2   -1    0    0    0  501  0.00000000000E+00  0.00000000000E+00  0.76390566936E+03  0.76390566936E+03  0.25500000920E-02 0. -1.
        2   -1    0    0  501    0  0.00000000000E+00  0.00000000000E+00 -0.15701010440E+04  0.15701010440E+04  0.25500000920E-02 0.  1.
    10030    2    1    2    0    0  0.00000000000E+00  0.00000000000E+00 -0.80619537459E+03  0.23340067133E+04  0.21903507381E+04 0.  0.
        3    1    3    3  502    0 -0.30967530385E+03  0.46977043224E+03  0.59811420930E+03  0.82117213201E+03  0.10100000352E+00 0. -1.
       -3    1    3    3    0  502  0.30967530385E+03 -0.46977043224E+03 -0.14043095839E+04  0.15128345813E+04  0.10100000352E+00 0.  1.
</event>
<event>
 5   0  0.1786228E-05  0.2195389E+04  0.7818609E-02  0.8520350E-01
        1   -1    0    0  501    0  0.00000000000E+00  0.00000000000E+00  0.14646333742E+04  0.14646333742E+04  0.50400001928E-02 0. -1.
       -1   -1    0    0    0  501  0.00000000000E+00  0.00000000000E+00 -0.82268566407E+03  0.82268566409E+03  0.50400001928E-02 0.  1.
    10030    2    1    2    0    0  0.00000000000E+00  0.00000000000E+00  0.64194771014E+03  0.22873190383E+04  0.21953886946E+04 0.  0.
        5    1    3    3  502    0  0.86104046797E+03 -0.45967171042E+03 -0.20227323556E+03  0.99680756451E+03  0.46999998093E+01 0.  1.
       -5    1    3    3    0  502 -0.86104046797E+03  0.45967171042E+03  0.84422094570E+03  0.12905114738E+04  0.46999998093E+01 0. -1.
</event>
<event>
 5   0  0.4143281E-05  0.2190480E+04  0.7818609E-02  0.8522401E-01
        2   -1    0    0  501    0  0.00000000000E+00  0.00000000000E+00  0.19967758365E+04  0.19967758365E+04  0.25500000920E-02 0. -1.
       -2   -1    0    0    0  501  0.00000000000E+00  0.00000000000E+00 -0.60074362415E+03  0.60074362415E+03  0.25500000920E-02 0.  1.
    10030    2    1    2    0    0  0.00000000000E+00  0.00000000000E+00  0.13960322124E+04  0.25975194607E+04  0.21904797216E+04 0.  0.
        2    1    3    3  502    0  0.77587665977E+03  0.62132965991E+03  0.15264719201E+03  0.10056521778E+04  0.25500000920E-02 0.  1.
       -2    1    3    3    0  502 -0.77587665977E+03 -0.62132965991E+03  0.12433850203E+04  0.15918672829E+04  0.25500000920E-02 0. -1.
</event>
<event>
 5   0  0.1788413E-05  0.2201756E+04  0.7818609E-02  0.8517698E-01
        1   -1    0    0  501    0  0.00000000000E+00  0.00000000000E+00  0.76154855793E+03  0.76154855794E+03  0.50400001928E-02 0.  1.
       -1   -1    0    0    0  501  0.00000000000E+00  0.00000000000E+00 -0.15914054257E+04  0.15914054257E+04  0.50400001928E-02 0. -1.
    10030    2    1    2    0    0  0.00000000000E+00  0.00000000000E+00 -0.82985686777E+03  0.23529539836E+04  0.22017561237E+04 0.  0.
        1    1    3    3  502    0  0.24942397233E+03  0.71262785637E+03 -0.12711215412E+04  0.14784453835E+04  0.50400001928E-02 0. -1.
       -1    1    3    3    0  502 -0.24942397233E+03 -0.71262785637E+03  0.44126467340E+03  0.87450860011E+03  0.50400001928E-02 0.  1.
</event>
<event>
 5   0  0.1433375E-05  0.2195056E+04  0.7818609E-02  0.8520489E-01
       -3   -1    0    0    0  501  0.00000000000E+00  0.00000000000E+00  0.17922797650E+04  0.17922797679E+04  0.10100000352E+00 0.  1.
        3   -1    0    0  501    0  0.00000000000E+00  0.00000000000E+00 -0.67208713648E+03  0.67208714407E+03  0.10100000352E+00 0. -1.
    10030    2    1    2    0    0  0.00000000000E+00  0.00000000000E+00  0.11201926286E+04  0.24643669120E+04  0.21950564347E+04 0.  0.
        3    1    3    3  502    0  0.13211525128E+03  0.73865016475E+03 -0.33911400675E+03  0.82344205945E+03  0.10100000352E+00 0. -1.
       -3    1    3    3    0  502 -0.13211525128E+03 -0.73865016475E+03  0.14593066353E+04  0.16409248525E+04  0.10100000352E+00 0.  1.
</event>
<event>
 5   0  0.3963414E-05  0.2201953E+04  0.7818609E-02  0.8517616E-01
       -2   -1    0    0    0  501  0.00000000000E+00  0.00000000000E+00  0.84807539472E+03  0.84807539473E+03  0.25500000920E-02 0.  1.
        2   -1    0    0  501    0  0.00000000000E+00  0.00000000000E+00 -0.14292945366E+04  0.14292945366E+04  0.25500000920E-02 0. -1.
    10030    2    1    2    0    0  0.00000000000E+00  0.00000000000E+00 -0.58121914190E+03  0.22773699314E+04  0.22019532496E+04 0.  0.
        1    1    3    3  502    0 -0.13931926183E+03  0.29619618815E+03  0.79658706275E+03  0.86121599332E+03  0.50400001928E-02 0.  1.
       -1    1    3    3    0  502  0.13931926183E+03 -0.29619618815E+03 -0.13778062047E+04  0.14161539380E+04  0.50400001928E-02 0. -1.
</event>
<event>
 5   0  0.1815681E-05  0.2241263E+04  0.7818609E-02  0.8501447E-01
        1   -1    0    0  501    0  0.00000000000E+00  0.00000000000E+00  0.82798444048E+03  0.82798444049E+03  0.50400001928E-02 0.  1.
       -1   -1    0    0    0  501  0.00000000000E+00  0.00000000000E+00 -0.15167136732E+04  0.15167136732E+04  0.50400001928E-02 0. -1.
    10030    2    1    2    0    0  0.00000000000E+00  0.00000000000E+00 -0.68872923272E+03  0.23446981137E+04  0.22412633242E+04 0.  0.
        2    1    3    3  502    0  0.33991145071E+02  0.54522038483E+03 -0.13679864698E+04  0.14730266962E+04  0.25500000920E-02 0. -1.
       -2    1    3    3    0  502 -0.33991145071E+02 -0.54522038483E+03  0.67925723711E+03  0.87167141754E+03  0.25500000920E-02 0.  1.
</event>
<event>
 5   0  0.1884407E-05  0.2244334E+04  0.7818609E-02  0.8500199E-01
       -1   -1    0    0    0  501  0.00000000000E+00  0.00000000000E+00  0.15476514100E+04  0.15476514100E+04  0.50400001928E-02 0. -1.
        1   -1    0    0  501    0  0.00000000000E+00  0.00000000000E+00 -0.81365798489E+03  0.81365798491E+03  0.50400001928E-02 0.  1.
    10030    2    1    2    0    0  0.00000000000E+00  0.00000000000E+00  0.73399342507E+03  0.23613093949E+04  0.22443341352E+04 0.  0.
        3    1    3    3  502    0  0.72872611253E+02  0.39123128210E+03 -0.73692091858E+03  0.83751106501E+03  0.10100000352E+00 0.  1.
       -3    1    3    3    0  502 -0.72872611253E+02 -0.39123128210E+03  0.14709143436E+04  0.15237983299E+04  0.10100000352E+00 0. -1.
</event>
<event>
 5   0  0.1786228E-05  0.2208101E+04  0.7818609E-02  0.8515064E-01
       -1   -1    0    0    0  501  0.00000000000E+00  0.00000000000E+00  0.11704127924E+04  0.11704127924E+04  0.50400001928E-02 0. -1.
        1   -1    0    0  501    0  0.00000000000E+00  0.00000000000E+00 -0.10414504804E+04  0.10414504804E+04  0.50400001928E-02 0.  1.
    10030    2    1    2    0    0  0.00000000000E+00  0.00000000000E+00  0.12896231203E+03  0.22118632728E+04  0.22081005094E+04 0.  0.
        5    1    3    3  502    0  0.42597076023E+03 -0.28118763616E+02 -0.95542042262E+03  0.10464664483E+04  0.46999998093E+01 0.  1.
       -5    1    3    3    0  502 -0.42597076023E+03  0.28118763616E+02  0.10843827346E+04  0.11653968245E+04  0.46999998093E+01 0. -1.
</event>
<event>
 5   0  0.1815681E-05  0.2068709E+04  0.7818609E-02  0.8575154E-01
        1   -1    0    0  501    0  0.00000000000E+00  0.00000000000E+00  0.17479232413E+04  0.17479232413E+04  0.50400001928E-02 0. -1.
       -1   -1    0    0    0  501  0.00000000000E+00  0.00000000000E+00 -0.61209152268E+03  0.61209152270E+03  0.50400001928E-02 0.  1.
    10030    2    1    2    0    0  0.00000000000E+00  0.00000000000E+00  0.11358317186E+04  0.23600147640E+04  0.20687087744E+04 0.  0.
        2    1    3    3  502    0  0.86124405617E+02 -0.69978768112E+03  0.14313019239E+04  0.15955392221E+04  0.25500000920E-02 0. -1.
       -2    1    3    3    0  502 -0.86124405617E+02  0.69978768112E+03 -0.29547020532E+03  0.76447554188E+03  0.25500000920E-02 0.  1.
</event>
<event>
 5   0  0.4132460E-05  0.2281352E+04  0.7818609E-02  0.8485310E-01
        2   -1    0    0  501    0  0.00000000000E+00  0.00000000000E+00  0.12448465759E+04  0.12448465759E+04  0.25500000920E-02 0.  1.
       -2   -1    0    0    0  501  0.00000000000E+00  0.00000000000E+00 -0.10452227282E+04  0.10452227282E+04  0.25500000920E-02 0. -1.
    10030    2    1    2    0    0  0.00000000000E+00  0.00000000000E+00  0.19962384768E+03  0.22900693040E+04  0.22813521729E+04 0.  0.
        4    1    3    3  502    0 -0.71013531386E+03 -0.64017689534E+03 -0.52467586555E+03  0.10905984587E+04  0.12699999809E+01 0. -1.
       -4    1    3    3    0  502  0.71013531386E+03  0.64017689534E+03  0.72429971323E+03  0.11994708453E+04  0.12699999809E+01 0.  1.
</event>
<event>
 5   0  0.1866935E-05  0.2201278E+04  0.7818609E-02  0.8517896E-01
        1   -1    0    0  501    0  0.00000000000E+00  0.00000000000E+00  0.21150529495E+04  0.21150529495E+04  0.50400001928E-02 0.  1.
       -1   -1    0    0    0  501  0.00000000000E+00  0.00000000000E+00 -0.57275462092E+03  0.57275462094E+03  0.50400001928E-02 0. -1.
    10030    2    1    2    0    0  0.00000000000E+00  0.00000000000E+00  0.15422983285E+04  0.26878075704E+04  0.22012781290E+04 0.  0.
        4    1    3    3  502    0  0.32455067315E+03 -0.51847974213E+03 -0.34610227901E+03  0.70281063088E+03  0.12699999809E+01 0. -1.
       -4    1    3    3    0  502 -0.32455067315E+03  0.51847974213E+03  0.18884006075E+04  0.19849969395E+04  0.12699999809E+01 0.  1.
</event>
<event>
 5   0  0.1786228E-05  0.2236312E+04  0.7818609E-02  0.8503464E-01
        1   -1    0    0  501    0  0.00000000000E+00  0.00000000000E+00  0.11352446604E+04  0.11352446604E+04  0.50400001928E-02 0.  1.
       -1   -1    0    0    0  501  0.00000000000E+00  0.00000000000E+00 -0.11013245440E+04  0.11013245440E+04  0.50400001928E-02 0. -1.
    10030    2    1    2    0    0  0.00000000000E+00  0.00000000000E+00  0.33920116396E+02  0.22365692044E+04  0.22363119710E+04 0.  0.
        5    1    3    3  502    0 -0.75681570184E+03 -0.71123452139E+03  0.43128559699E+03  0.11245683204E+04  0.46999998093E+01 0.  1.
       -5    1    3    3    0  502  0.75681570184E+03  0.71123452139E+03 -0.39736548059E+03  0.11120008841E+04  0.46999998093E+01 0. -1.
</event>
<event>
 5   0  0.1433375E-05  0.2191757E+04  0.7818609E-02  0.8521867E-01
        4   -1    0    0  501    0  0.00000000000E+00  0.00000000000E+00  0.13452122201E+04  0.13452128196E+04  0.12699999809E+01 0.  1.
       -4   -1    0    0    0  501  0.00000000000E+00  0.00000000000E+00 -0.89275722724E+03  0.89275813056E+03  0.12699999809E+01 0. -1.
    10030    2    1    2    0    0  0.00000000000E+00  0.00000000000E+00  0.45245499288E+03  0.22379709502E+04  0.21917569330E+04 0.  0.
        1    1    3    3  502    0  0.86295576961E+03  0.59949073023E+03 -0.91570981608E+02  0.10547355311E+04  0.50400001928E-02 0. -1.
       -1    1    3    3    0  502 -0.86295576961E+03 -0.59949073023E+03  0.54402597449E+03  0.11832354190E+04  0.50400001928E-02 0.  1.
</event>
<event>
 5   0  0.3963414E-05  0.2192341E+04  0.7818609E-02  0.8521623E-01
       -2   -1    0    0    0  501  0.00000000000E+00  0.00000000000E+00  0.19058684001E+04  0.19058684001E+04  0.25500000920E-02 0. -1.
        2   -1    0    0  501    0  0.00000000000E+00  0.00000000000E+00 -0.63046855534E+03  0.63046855535E+03  0.25500000920E-02 0.  1.
    10030    2    1    2    0    0  0.00000000000E+00  0.00000000000E+00  0.12753998448E+04  0.25363369555E+04  0.21923413027E+04 0.  0.
        1    1    3    3  502    0  0.44693093643E+03  0.61733024242E+03  0.15491981341E+04  0.17265163621E+04  0.50400001928E-02 0. -1.
       -1    1    3    3    0  502 -0.44693093643E+03 -0.61733024242E+03 -0.27379828928E+03  0.80982059333E+03  0.50400001928E-02 0.  1.
</event>
<event>
 5   0  0.4029532E-05  0.2205608E+04  0.7818609E-02  0.8516098E-01
       -2   -1    0    0    0  501  0.00000000000E+00  0.00000000000E+00  0.55901787925E+03  0.55901787925E+03  0.25500000920E-02 0. -1.
        2   -1    0    0  501    0  0.00000000000E+00  0.00000000000E+00 -0.21755585597E+04  0.21755585597E+04  0.25500000920E-02 0.  1.
    10030    2    1    2    0    0  0.00000000000E+00  0.00000000000E+00 -0.16165406805E+04  0.27345764390E+04  0.22056075192E+04 0.  0.
        3    1    3    3  502    0 -0.10953463337E+04 -0.25769489300E+02 -0.65277943230E+03  0.12753700070E+04  0.10100000352E+00 0. -1.
       -3    1    3    3    0  502  0.10953463337E+04  0.25769489300E+02 -0.96376124816E+03  0.14592064319E+04  0.10100000352E+00 0.  1.
</event>
<event>
 5   0  0.4029532E-05  0.2251406E+04  0.7818609E-02  0.8497331E-01
        2   -1    0    0  501    0  0.00000000000E+00  0.00000000000E+00  0.20453802344E+04  0.20453802344E+04  0.25500000920E-02 0. -1.
       -2   -1    0    0    0  501  0.00000000000E+00  0.00000000000E+00 -0.61954580317E+03  0.61954580317E+03  0.25500000920E-02 0.  1.
    10030    2    1    2    0    0  0.00000000000E+00  0.00000000000E+00  0.14258344312E+04  0.26649260375E+04  0.22514055522E+04 0.  0.
        3    1    3    3  502    0  0.84061693704E+03  0.85338483316E+02  0.15933713841E+04  0.18035387075E+04  0.10100000352E+00 0. -1.
       -3    1    3    3    0  502 -0.84061693704E+03 -0.85338483316E+02 -0.16753695290E+03  0.86138733004E+03  0.10100000352E+00 0.  1.
</event>
<event>
 5   0  0.1866935E-05  0.2209442E+04  0.7818609E-02  0.8514509E-01
       -1   -1    0    0    0  501  0.00000000000E+00  0.00000000000E+00  0.91119924608E+03  0.91119924609E+03  0.50400001928E-02 0.  1.
        1   -1    0    0  501    0  0.00000000000E+00  0.00000000000E+00 -0.13393427593E+04  0.13393427594E+04  0.50400001928E-02 0. -1.
    10030    2    1    2    0    0  0.00000000000E+00  0.00000000000E+00 -0.42814351327E+03  0.22505420055E+04  0.22094416603E+04 0.  0.
        4    1    3    3  502    0  0.50037090741E+03 -0.57949541982E+03  0.59712223822E+03  0.97094931219E+03  0.12699999809E+01 0.  1.
       -4    1    3    3    0  502 -0.50037090741E+03  0.57949541982E+03 -0.10252657515E+04  0.12795926933E+04  0.12699999809E+01 0. -1.
</event>
<event>
 5   0  0.3963414E-05  0.2178599E+04  0.7818609E-02  0.8527389E-01
       -2   -1    0    0    0  501  0.00000000000E+00  0.00000000000E+00  0.59358003222E+03  0.59358003222E+03  0.25500000920E-02 0.  1.
        2   -1    0    0  501    0  0.00000000000E+00  0.00000000000E+00 -0.19990110862E+04  0.19990110862E+04  0.25500000920E-02 0. -1.
    10030    2    1    2    0    0  0.00000000000E+00  0.00000000000E+00 -0.14054310540E+04  0.25925911184E+04  0.21785986918E+04 0.  0.
        1    1    3    3  502    0  0.32984082847E+03  0.19653896506E+03  0.51038285009E+03  0.63868082060E+03  0.50400001928E-02 0.  1.
       -1    1    3    3    0  502 -0.32984082847E+03 -0.19653896506E+03 -0.19158139041E+04  0.19539102978E+04  0.50400001928E-02 0. -1.
</event>
<event>
 5   0  0.1815681E-05  0.2162848E+04  0.7818609E-02  0.8534053E-01
        1   -1    0    0  501    0  0.00000000000E+00  0.00000000000E+00  0.14063849933E+04  0.14063849933E+04  0.50400001928E-02 0.  1.
       -1   -1    0    0    0  501  0.00000000000E+00  0.00000000000E+00 -0.83154888836E+03  0.83154888837E+03  0.50400001928E-02 0. -1.
    10030    2    1    2    0    0  0.00000000000E+00  0.00000000000E+00  0.57483610492E+03  0.22379338817E+04  0.21628480093E+04 0.  0.
        2    1    3    3  502    0 -0.29869755805E+03 -0.10003081339E+04 -0.45870070826E+01  0.10439624680E+04  0.25500000920E-02 0.  1.
       -2    1    3    3    0  502  0.29869755805E+03  0.10003081339E+04  0.57942311200E+03  0.11939714137E+04  0.25500000920E-02 0. -1.
</event>
<event>
 5   0  0.1788413E-05  0.2306203E+04  0.7818609E-02  0.8475479E-01
       -1   -1    0    0    0  501  0.00000000000E+00  0.00000000000E+00  0.78588329103E+03  0.78588329105E+03  0.50400001928E-02 0.  1.
        1   -1    0    0  501    0  0.00000000000E+00  0.00000000000E+00 -0.16919091975E+04  0.16919091975E+04  0.50400001928E-02 0. -1.
    10030    2    1    2    0    0  0.00000000000E+00  0.00000000000E+00 -0.90602590643E+03  0.24777924885E+04  0.23062030858E+04 0.  0.
        1    1    3    3  502    0 -0.66761171077E+03 -0.50075141030E+03 -0.13079476943E+04  0.15515104068E+04  0.50400001928E-02 0. -1.
       -1    1    3    3    0  502  0.66761171077E+03  0.50075141030E+03  0.40192178791E+03  0.92628208171E+03  0.50400001928E-02 0.  1.
</event>
<event>
 5   0  0.1786228E-05  0.2198504E+04  0.7818609E-02  0.8519051E-01
       -1   -1    0    0    0  501  0.00000000000E+00  0.00000000000E+00  0.80873851729E+03  0.80873851730E+03  0.50400001928E-02 0.  1.
        1   -1    0    0  501    0  0.00000000000E+00  0.00000000000E+00 -0.14941234144E+04  0.14941234144E+04  0.50400001928E-02 0. -1.
    10030    2    1    2    0    0  0.00000000000E+00  0.00000000000E+00 -0.68538489715E+03  0.23028619317E+04  0.21985041777E+04 0.  0.
        5    1    3    3  502    0 -0.55632383060E+03  0.37583986592E+03 -0.12543992940E+04  0.14227759796E+04  0.46999998093E+01 0. -1.
       -5    1    3    3    0  502  0.55632383060E+03 -0.37583986592E+03  0.56901439687E+03  0.88008595214E+03  0.46999998093E+01 0.  1.
</event>
<event>
 5   0  0.4143281E-05  0.2206560E+04  0.7818609E-02  0.8515703E-01
        2   -1    0    0  501    0  0.00000000000E+00  0.00000000000E+00  0.10429890804E+04  0.10429890804E+04  0.25500000920E-02 0. -1.
       -2   -1    0    0    0  501  0.00000000000E+00  0.00000000000E+00 -0.11670561078E+04  0.11670561078E+04  0.25500000920E-02 0.  1.
    10030    2    1    2    0    0  0.00000000000E+00  0.00000000000E+00 -0.12406702746E+03  0.22100451882E+04  0.22065600165E+04 0.  0.
        2    1    3    3  502    0 -0.78260116238E+03  0.13638586575E+03  0.70478731953E+03  0.10619749759E+04  0.25500000920E-02 0. -1.
       -2    1    3    3    0  502  0.78260116238E+03 -0.13638586575E+03 -0.82885434699E+03  0.11480702123E+04  0.25500000920E-02 0.  1.
</event>
<event>
 5   0  0.3963414E-05  0.2196383E+04  0.7818609E-02  0.8519935E-01
        2   -1    0    0  501    0  0.00000000000E+00  0.00000000000E+00  0.97623996313E+03  0.97623996314E+03  0.25500000920E-02 0.  1.
       -2   -1    0    0    0  501  0.00000000000E+00  0.00000000000E+00 -0.12353772746E+04  0.12353772746E+04  0.25500000920E-02 0. -1.
    10030    2    1    2    0    0  0.00000000000E+00  0.00000000000E+00 -0.25913731142E+03  0.22116172377E+04  0.21963830859E+04 0.  0.
        1    1    3    3  502    0  0.77626868707E+03  0.43151327464E+03 -0.77998064538E+03  0.11820180151E+04  0.50400001928E-02 0. -1.
       -1    1    3    3    0  502 -0.77626868707E+03 -0.43151327464E+03  0.52084333396E+03  0.10295992226E+04  0.50400001928E-02 0.  1.
</event>
<event>
 5   0  0.4029532E-05  0.2197784E+04  0.7818609E-02  0.8519351E-01
       -2   -1    0    0    0  501  0.00000000000E+00  0.00000000000E+00  0.10004907557E+04  0.10004907557E+04  0.25500000920E-02 0. -1.
        2   -1    0    0  501    0  0.00000000000E+00  0.00000000000E+00 -0.12069714449E+04  0.12069714449E+04  0.25500000920E-02 0.  1.
    10030    2    1    2    0    0  0.00000000000E+00  0.00000000000E+00 -0.20648068924E+03  0.22074622006E+04  0.21977841323E+04 0.  0.
        3    1    3    3  502    0 -0.13494033275E+03 -0.45266255961E+03  0.89332412562E+03  0.10105148638E+04  0.10100000352E+00 0. -1.
       -3    1    3    3    0  502  0.13494033275E+03  0.45266255961E+03 -0.10998048149E+04  0.11969473369E+04  0.10100000352E+00 0.  1.
</event>
<event>
 5   0  0.1433375E-05  0.2217226E+04  0.7818609E-02  0.8511292E-01
       -3   -1    0    0    0  501  0.00000000000E+00  0.00000000000E+00  0.98491197340E+03  0.98491197857E+03  0.10100000352E+00 0. -1.
        3   -1    0    0  501    0  0.00000000000E+00  0.00000000000E+00 -0.12478508587E+04  0.12478508628E+04  0.10100000352E+00 0.  1.
    10030    2    1    2    0    0  0.00000000000E+00  0.00000000000E+00 -0.26293888529E+03  0.22327628414E+04  0.22172264314E+04 0.  0.
        4    1    3    3  502    0 -0.31447226141E+03 -0.39653460468E+03  0.86179349220E+03  0.99941089248E+03  0.12699999809E+01 0. -1.
       -4    1    3    3    0  502  0.31447226141E+03  0.39653460468E+03 -0.11247323775E+04  0.12333519489E+04  0.12699999809E+01 0.  1.
</event>
<event>
 5   0  0.1433375E-05  0.2187731E+04  0.7818609E-02  0.8523552E-01
        4   -1    0    0  501    0  0.00000000000E+00  0.00000000000E+00  0.10501935780E+04  0.10501943459E+04  0.12699999809E+01 0. -1.
       -4   -1    0    0    0  501  0.00000000000E+00  0.00000000000E+00 -0.11393519076E+04  0.11393526154E+04  0.12699999809E+01 0.  1.
    10030    2    1    2    0    0  0.00000000000E+00  0.00000000000E+00 -0.89158329586E+02  0.21895469613E+04  0.21877309451E+04 0.  0.
        4    1    3    3  502    0  0.29530156072E+03  0.10096068135E+04 -0.34488011307E+03  0.11070017322E+04  0.12699999809E+01 0.  1.
       -4    1    3    3    0  502 -0.29530156072E+03 -0.10096068135E+04  0.25572178348E+03  0.10825452291E+04  0.12699999809E+01 0. -1.
</event>
<event>
 5   0  0.4132460E-05  0.2197469E+04  0.7818609E-02  0.8519482E-01
       -2   -1    0    0    0  501  0.00000000000E+00  0.00000000000E+00  0.49595935096E+03  0.49595935096E+03  0.25500000920E-02 0. -1.
        2   -1    0    0  501    0  0.00000000000E+00  0.00000000000E+00 -0.24341067267E+04  0.24341067267E+04  0.25500000920E-02 0.  1.
    10030    2    1    2    0    0  0.00000000000E+00  0.00000000000E+00 -0.19381473758E+04  0.29300660777E+04  0.21974694468E+04 0.  0.
        4    1    3    3  502    0 -0.49865404362E+03  0.14795754736E+03 -0.22595429459E+04  0.23186382271E+04  0.12699999809E+01 0.  1.
       -4    1    3    3    0  502  0.49865404362E+03 -0.14795754736E+03  0.32139557013E+03  0.61142785056E+03  0.12699999809E+01 0. -1.
</event>
<event>
 5   0  0.3963414E-05  0.2198783E+04  0.7818609E-02  0.8518935E-01
       -2   -1    0    0    0  501  0.00000000000E+00  0.00000000000E+00  0.43698402671E+03  0.43698402672E+03  0.25500000920E-02 0.  1.
        2   -1    0    0  501    0  0.00000000000E+00  0.00000000000E+00 -0.27659183734E+04  0.27659183734E+04  0.25500000920E-02 0. -1.
    10030    2    1    2    0    0  0.00000000000E+00  0.00000000000E+00 -0.23289343467E+04  0.32029024001E+04  0.21987834349E+04 0.  0.
        1    1    3    3  502    0  0.71048099219E+02  0.46691530764E+03  0.28168024895E+03  0.54991044688E+03  0.50400001928E-02 0.  1.
       -1    1    3    3    0  502 -0.71048099219E+02 -0.46691530764E+03 -0.26106145956E+04  0.26529919532E+04  0.50400001928E-02 0. -1.
</event>
<event>
 5   0  0.1788413E-05  0.2230751E+04  0.7818609E-02  0.8505737E-01
        1   -1    0    0  501    0  0.00000000000E+00  0.00000000000E+00  0.13466617393E+04  0.13466617393E+04  0.50400001928E-02 0. -1.
       -1   -1    0    0    0  501  0.00000000000E+00  0.00000000000E+00 -0.92381196223E+03  0.92381196224E+03  0.50400001928E-02 0.  1.
    10030    2    1    2    0    0  0.00000000000E+00  0.00000000000E+00  0.42284977709E+03  0.22704737016E+04  0.22307507471E+04 0.  0.
        1    1    3    3  502    0 -0.96860930256E+03  0.25287703891E+03  0.71202810716E+03  0.12284684787E+04  0.50400001928E-02 0. -1.
       -1    1    3    3    0  502  0.96860930256E+03 -0.25287703891E+03 -0.28917833007E+03  0.10420052228E+04  0.50400001928E-02 0.  1.
</event>
<event>
 5   0  0.1786228E-05  0.2202346E+04  0.7818609E-02  0.8517452E-01
       -1   -1    0    0    0  501  0.00000000000E+00  0.00000000000E+00  0.58742046320E+03  0.58742046322E+03  0.50400001928E-02 0. -1.
        1   -1    0    0  501    0  0.00000000000E+00  0.00000000000E+00 -0.20642493149E+04  0.20642493149E+04  0.50400001928E-02 0.  1.
    10030    2    1    2    0    0  0.00000000000E+00  0.00000000000E+00 -0.14768288517E+04  0.26516697781E+04  0.22023462841E+04 0.  0.
        5    1    3    3  502    0 -0.27938164087E+03  0.10042502363E+04 -0.31105069115E+03  0.10878176598E+04  0.46999998093E+01 0. -1.
       -5    1    3    3    0  502  0.27938164087E+03 -0.10042502363E+04 -0.11657781605E+04  0.15638521183E+04  0.46999998093E+01 0.  1.
</event>
<event>
 5   0  0.4027923E-05  0.2198545E+04  0.7818609E-02  0.8519034E-01
        2   -1    0    0  501    0  0.00000000000E+00  0.00000000000E+00  0.12590499875E+04  0.12590499875E+04  0.25500000920E-02 0. -1.
       -2   -1    0    0    0  501  0.00000000000E+00  0.00000000000E+00 -0.95977141965E+03  0.95977141965E+03  0.25500000920E-02 0.  1.
    10030    2    1    2    0    0  0.00000000000E+00  0.00000000000E+00  0.29927856789E+03  0.22188214072E+04  0.21985451498E+04 0.  0.
        5    1    3    3  502    0 -0.56841716810E+03  0.54621232568E+03  0.92281979367E+03  0.12136986625E+04  0.46999998093E+01 0. -1.
       -5    1    3    3    0  502  0.56841716810E+03 -0.54621232568E+03 -0.62354122578E+03  0.10051227447E+04  0.46999998093E+01 0.  1.
</event>
<event>
 5   0  0.4027923E-05  0.2207090E+04  0.7818609E-02  0.8515483E-01
        2   -1    0    0  501    0  0.00000000000E+00  0.00000000000E+00  0.29536425098E+04  0.29536425098E+04  0.25500000920E-02 0. -1.
       -2   -1    0    0    0  501  0.00000000000E+00  0.00000000000E+00 -0.41230854479E+03  0.41230854480E+03  0.25500000920E-02 0.  1.
    10030    2    1    2    0    0  0.00000000000E+00  0.00000000000E+00  0.25413339650E+04  0.33659510546E+04  0.22070904332E+04 0.  0.
        5    1    3    3  502    0  0.35115232058E+02  0.10018474910E+04  0.56705512958E+03  0.11517400248E+04  0.46999998093E+01 0.  1.
       -5    1    3    3    0  502 -0.35115232058E+02 -0.10018474910E+04  0.19742788354E+04  0.22142110298E+04  0.46999998093E+01 0. -1.
</event>
<event>
 5   0  0.4027923E-05  0.2224244E+04  0.7818609E-02  0.8508404E-01
       -2   -1    0    0    0  501  0.00000000000E+00  0.00000000000E+00  0.84786182191E+03  0.84786182191E+03  0.25500000920E-02 0. -1.
        2   -1    0    0  501    0  0.00000000000E+00  0.00000000000E+00 -0.14587464207E+04  0.14587464207E+04  0.25500000920E-02 0.  1.
    10030    2    1    2    0    0  0.00000000000E+00  0.00000000000E+00 -0.61088459879E+03  0.23066082426E+04  0.22242440495E+04 0.  0.
        5    1    3    3  502    0  0.62462721670E+03 -0.73275067098E+03 -0.88256670285E+03  0.13061503668E+04  0.46999998093E+01 0.  1.
       -5    1    3    3    0  502 -0.62462721670E+03  0.73275067098E+03  0.27168210406E+03  0.10004578758E+04  0.46999998093E+01 0. -1.
</event>
<event>
 5   0  0.4132460E-05  0.2144303E+04  0.7818609E-02  0.8541975E-01
        2   -1    0    0  501    0  0.00000000000E+00  0.00000000000E+00  0.13360218503E+04  0.13360218503E+04  0.25500000920E-02 0. -1.
       -2   -1    0    0    0  501  0.00000000000E+00  0.00000000000E+00 -0.86039639267E+03  0.86039639267E+03  0.25500000920E-02 0.  1.
    10030    2    1    2    0    0  0.00000000000E+00  0.00000000000E+00  0.47562545759E+03  0.21964182429E+04  0.21443025724E+04 0.  0.
        4    1    3    3  502    0  0.97040004852E+03  0.29498615180E+03  0.59384309322E+03  0.11753060521E+04  0.12699999809E+01 0. -1.
       -4    1    3    3    0  502 -0.97040004852E+03 -0.29498615180E+03 -0.11821763563E+03  0.10211121908E+04  0.12699999809E+01 0.  1.
</event>
<event>
 5   0  0.4132460E-05  0.2193593E+04  0.7818609E-02  0.8521099E-01
       -2   -1    0    0    0  501  0.00000000000E+00  0.00000000000E+00  0.60108401647E+03  0.60108401648E+03  0.25500000920E-02 0. -1.
        2   -1    0    0  501    0  0.00000000000E+00  0.00000000000E+00 -0.20013222004E+04  0.20013222004E+04  0.25500000920E-02 0.  1.
    10030    2    1    2    0    0  0.00000000000E+00  0.00000000000E+00 -0.14002381839E+04  0.26024062169E+04  0.21935932043E+04 0.  0.
        4    1    3    3  502    0  0.51807662683E+03 -0.76112320596E+03  0.69886287005E+01  0.92074012607E+03  0.12699999809E+01 0. -1.
       -4    1    3    3    0  502 -0.51807662683E+03  0.76112320596E+03 -0.14072268126E+04  0.16816660908E+04  0.12699999809E+01 0.  1.
</event>
<event>
 5   0  0.1786228E-05  0.2193551E+04  0.7818609E-02  0.8521117E-01
        1   -1    0    0  501    0  0.00000000000E+00  0.00000000000E+00  0.10535865992E+04  0.10535865993E+04  0.50400001928E-02 0. -1.
       -1   -1    0    0    0  501  0.00000000000E+00  0.00000000000E+00 -0.11417352452E+04  0.11417352452E+04  0.50400001928E-02 0.  1.
    10030    2    1    2    0    0  0.00000000000E+00  0.00000000000E+00 -0.88148645965E+02  0.21953218445E+04  0.21935514166E+04 0.  0.
        5    1    3    3  502    0  0.89561512399E+03 -0.37159141731E+03  0.46887054540E+03  0.10770646731E+04  0.46999998093E+01 0. -1.
       -5    1    3    3    0  502 -0.89561512399E+03  0.37159141731E+03 -0.55701919137E+03  0.11182571714E+04  0.46999998093E+01 0.  1.
</event>
<event>
 5   0  0.4029532E-05  0.2228827E+04  0.7818609E-02  0.8506525E-01
       -2   -1    0    0    0  501  0.00000000000E+00  0.00000000000E+00  0.51764042045E+03  0.51764042046E+03  0.25500000920E-02 0. -1.
        2   -1    0    0  501    0  0.00000000000E+00  0.00000000000E+00 -0.23991897166E+04  0.23991897166E+04  0.25500000920E-02 0.  1.
    10030    2    1    2    0    0  0.00000000000E+00  0.00000000000E+00 -0.18815492961E+04  0.29168301370E+04  0.22288271119E+04 0.  0.
        3    1    3    3  502    0  0.19344201332E+03  0.50402027633E+03 -0.22166315827E+04  0.22814275871E+04  0.10100000352E+00 0.  1.
       -3    1    3    3    0  502 -0.19344201332E+03 -0.50402027633E+03  0.33508228660E+03  0.63540254993E+03  0.10100000352E+00 0. -1.
</event>
<event>
 5   0  0.4143281E-05  0.2197093E+04  0.7818609E-02  0.8519639E-01
       -2   -1    0    0    0  501  0.00000000000E+00  0.00000000000E+00  0.91153412065E+03  0.91153412065E+03  0.25500000920E-02 0. -1.
        2   -1    0    0  501    0  0.00000000000E+00  0.00000000000E+00 -0.13239263407E+04  0.13239263407E+04  0.25500000920E-02 0.  1.
    10030    2    1    2    0    0  0.00000000000E+00  0.00000000000E+00 -0.41239222005E+03  0.22354604613E+04  0.21970926542E+04 0.  0.
        2    1    3    3  502    0 -0.10790452884E+04 -0.18915190836E+03 -0.28939730022E+03  0.11330789806E+04  0.25500000920E-02 0.  1.
       -2    1    3    3    0  502  0.10790452884E+04  0.18915190836E+03 -0.12299491983E+03  0.11023814808E+04  0.25500000920E-02 0. -1.
</event>
<event>
 5   0  0.1884407E-05  0.2187168E+04  0.7818609E-02  0.8523788E-01
        1   -1    0    0  501    0  0.00000000000E+00  0.00000000000E+00  0.15234352582E+04  0.15234352582E+04  0.50400001928E-02 0.  1.
       -1   -1    0    0    0  501  0.00000000000E+00  0.00000000000E+00 -0.78501950595E+03  0.78501950596E+03  0.50400001928E-02 0. -1.
    10030    2    1    2    0    0  0.00000000000E+00  0.00000000000E+00  0.73841575223E+03  0.23084547642E+04  0.21871683920E+04 0.  0.
        3    1    3    3  502    0  0.74864920214E+03  0.43056852755E+03  0.10772760572E+04  0.13807203187E+04  0.10100000352E+00 0.  1.
       -3    1    3    3    0  502 -0.74864920214E+03 -0.43056852755E+03 -0.33886030500E+03  0.92773444546E+03  0.10100000352E+00 0. -1.
</event>
<event>
 5   0  0.4027923E-05  0.2208170E+04  0.7818609E-02  0.8515035E-01
        2   -1    0    0  501    0  0.00000000000E+00  0.00000000000E+00  0.10826940355E+04  0.10826940356E+04  0.25500000920E-02 0. -1.
       -2   -1    0    0    0  501  0.00000000000E+00  0.00000000000E+00 -0.11258985751E+04  0.11258985751E+04  0.25500000920E-02 0.  1.
    10030    2    1    2    0    0  0.00000000000E+00  0.00000000000E+00 -0.43204539552E+02  0.22085926107E+04  0.22081699861E+04 0.  0.
        5    1    3    3  502    0 -0.38865604171E+03  0.34299342997E+03 -0.99661373482E+03  0.11233695021E+04  0.46999998093E+01 0.  1.
       -5    1    3    3    0  502  0.38865604171E+03 -0.34299342997E+03  0.95340919527E+03  0.10852231086E+04  0.46999998093E+01 0. -1.
</event>
<event>
 5   0  0.4143281E-05  0.2162294E+04  0.7818609E-02  0.8534288E-01
        2   -1    0    0  501    0  0.00000000000E+00  0.00000000000E+00  0.13513287643E+04  0.13513287643E+04  0.25500000920E-02 0. -1.
       -2   -1    0    0    0  501  0.00000000000E+00  0.00000000000E+00 -0.86498467568E+03  0.86498467569E+03  0.25500000920E-02 0.  1.
    10030    2    1    2    0    0  0.00000000000E+00  0.00000000000E+00  0.48634408857E+03  0.22163134399E+04  0.21622938495E+04 0.  0.
        2    1    3    3  502    0  0.93939877536E+03 -0.18731924056E+03 -0.27067053938E+03  0.99539996882E+03  0.25500000920E-02 0. -1.
       -2    1    3    3    0  502 -0.93939877536E+03  0.18731924056E+03  0.75701462796E+03  0.12209134711E+04  0.25500000920E-02 0.  1.
</event>
<event>
 5   0  0.1788413E-05  0.2201580E+04  0.7818609E-02  0.8517771E-01
        1   -1    0    0  501    0  0.00000000000E+00  0.00000000000E+00  0.98008597747E+03  0.98008597748E+03  0.50400001928E-02 0.  1.
       -1   -1    0    0    0  501  0.00000000000E+00  0.00000000000E+00 -0.12363599505E+04  0.12363599505E+04  0.50400001928E-02 0. -1.
    10030    2    1    2    0    0  0.00000000000E+00  0.00000000000E+00 -0.25627397299E+03  0.22164459280E+04  0.22015803874E+04 0.  0.
        1    1    3    3  502    0 -0.41659674804E+03  0.54986899482E+03 -0.99173457976E+03  0.12080754276E+04  0.50400001928E-02 0. -1.
       -1    1    3    3    0  502  0.41659674804E+03 -0.54986899482E+03  0.73546060677E+03  0.10083705004E+04  0.50400001928E-02 0.  1.
</event>
<event>
 5   0  0.4027923E-05  0.2258568E+04  0.7818609E-02  0.8494439E-01
       -2   -1    0    0    0  501  0.00000000000E+00  0.00000000000E+00  0.52360271499E+03  0.52360271500E+03  0.25500000920E-02 0.  1.
        2   -1    0    0  501    0  0.00000000000E+00  0.00000000000E+00 -0.24355907916E+04  0.24355907916E+04  0.25500000920E-02 0. -1.
    10030    2    1    2    0    0  0.00000000000E+00  0.00000000000E+00 -0.19119880766E+04  0.29591935066E+04  0.22585676444E+04 0.  0.
        5    1    3    3  502    0 -0.83994531523E+03  0.47319088801E+03 -0.18548240452E+03  0.98175534705E+03  0.46999998093E+01 0. -1.
       -5    1    3    3    0  502  0.83994531523E+03 -0.47319088801E+03 -0.17265056721E+04  0.19774381595E+04  0.46999998093E+01 0.  1.
</event>
<event>
 5   0  0.4027923E-05  0.2198102E+04  0.7818609E-02  0.8519219E-01
        2   -1    0    0  501    0  0.00000000000E+00  0.00000000000E+00  0.71634579107E+03  0.71634579108E+03  0.25500000920E-02 0.  1.
       -2   -1    0    0    0  501  0.00000000000E+00  0.00000000000E+00 -0.16862147515E+04  0.16862147515E+04  0.25500000920E-02 0. -1.
    10030    2    1    2    0    0  0.00000000000E+00  0.00000000000E+00 -0.96986896040E+03  0.24025605426E+04  0.21981017630E+04 0.  0.
        5    1    3    3  502    0  0.88426753866E+03  0.13794470488E+03  0.21231462037E+03  0.91981379069E+03  0.46999998093E+01 0.  1.
       -5    1    3    3    0  502 -0.88426753866E+03 -0.13794470488E+03 -0.11821835808E+04  0.14827467519E+04  0.46999998093E+01 0. -1.
</event>
<event>
 5   0  0.4029532E-05  0.2197876E+04  0.7818609E-02  0.8519313E-01
        2   -1    0    0  501    0  0.00000000000E+00  0.00000000000E+00  0.88205859627E+03  0.88205859627E+03  0.25500000920E-02 0.  1.
       -2   -1    0    0    0  501  0.00000000000E+00  0.00000000000E+00 -0.13691428088E+04  0.13691428088E+04  0.25500000920E-02 0. -1.
    10030    2    1    2    0    0  0.00000000000E+00  0.00000000000E+00 -0.48708421256E+03  0.22512014051E+04  0.21978755052E+04 0.  0.
        3    1    3    3  502    0 -0.53720471370E+03 -0.86486782356E+03  0.18011013530E+03  0.10339366169E+04  0.10100000352E+00 0.  1.
       -3    1    3    3    0  502  0.53720471370E+03  0.86486782356E+03 -0.66719434786E+03  0.12172647882E+04  0.10100000352E+00 0. -1.
</event>
<event>
 5   0  0.1815681E-05  0.2198985E+04  0.7818609E-02  0.8518851E-01
       -1   -1    0    0    0  501  0.00000000000E+00  0.00000000000E+00  0.18239740876E+04  0.18239740876E+04  0.50400001928E-02 0. -1.
        1   -1    0    0  501    0  0.00000000000E+00  0.00000000000E+00 -0.66277475038E+03  0.66277475040E+03  0.50400001928E-02 0.  1.
    10030    2    1    2    0    0  0.00000000000E+00  0.00000000000E+00  0.11611993372E+04  0.24867488380E+04  0.21989851938E+04 0.  0.
        2    1    3    3  502    0  0.80118150116E+03 -0.22791533377E+03  0.13921826920E+04  0.16223470174E+04  0.25500000920E-02 0. -1.
       -2    1    3    3    0  502 -0.80118150116E+03  0.22791533377E+03 -0.23098335476E+03  0.86440182054E+03  0.25500000920E-02 0.  1.
</event>
<event>
 5   0  0.1786228E-05  0.2187462E+04  0.7818609E-02  0.8523665E-01
       -1   -1    0    0    0  501  0.00000000000E+00  0.00000000000E+00  0.72826137462E+03  0.72826137463E+03  0.50400001928E-02 0.  1.
        1   -1    0    0  501    0  0.00000000000E+00  0.00000000000E+00 -0.16426069639E+04  0.16426069639E+04  0.50400001928E-02 0. -1.
    10030    2    1    2    0    0  0.00000000000E+00  0.00000000000E+00 -0.91434558924E+03  0.23708683385E+04  0.21874617304E+04 0.  0.
        5    1    3    3  502    0 -0.25964576194E+03  0.17564989172E+03 -0.15928620122E+04  0.16234223991E+04  0.46999998093E+01 0. -1.
       -5    1    3    3    0  502  0.25964576194E+03 -0.17564989172E+03  0.67851642291E+03  0.74744593939E+03  0.46999998093E+01 0.  1.
</event>
<event>
 5   0  0.4143281E-05  0.2151955E+04  0.7818609E-02  0.8538696E-01
        2   -1    0    0  501    0  0.00000000000E+00  0.00000000000E+00  0.88607288322E+03  0.88607288322E+03  0.25500000920E-02 0. -1.
       -2   -1    0    0    0  501  0.00000000000E+00  0.00000000000E+00 -0.13065822191E+04  0.13065822191E+04  0.25500000920E-02 0.  1.
    10030    2    1    2    0    0  0.00000000000E+00  0.00000000000E+00 -0.42050933592E+03  0.21926551024E+04  0.21519545293E+04 0.  0.
        2    1    3    3  502    0  0.20066339626E+03  0.95434684227E+03 -0.67347755730E+03  0.11851648468E+04  0.25500000920E-02 0.  1.
       -2    1    3    3    0  502 -0.20066339626E+03 -0.95434684227E+03  0.25296822139E+03  0.10074902555E+04  0.25500000920E-02 0. -1.
</event>
<event>
 5   0  0.3963414E-05  0.2199157E+04  0.7818609E-02  0.8518779E-01
       -2   -1    0    0    0  501  0.00000000000E+00  0.00000000000E+00  0.12216674328E+04  0.12216674328E+04  0.25500000920E-02 0. -1.
        2   -1    0    0  501    0  0.00000000000E+00  0.00000000000E+00 -0.98969089883E+03  0.98969089883E+03  0.25500000920E-02 0.  1.
    10030    2    1    2    0    0  0.00000000000E+00  0.00000000000E+00  0.23197653392E+03  0.22113583316E+04  0.21991572382E+04 0.  0.
        1    1    3    3  502    0  0.60848587219E+03 -0.22943316805E+03 -0.77559810649E+03  0.10121497212E+04  0.50400001928E-02 0.  1.
       -1    1    3    3    0  502 -0.60848587219E+03  0.22943316805E+03  0.10075746404E+04  0.11992086104E+04  0.50400001928E-02 0. -1.
</event>
<event>
 5   0  0.1815681E-05  0.2257045E+04  0.7818609E-02  0.8495053E-01
       -1   -1    0    0    0  501  0.00000000000E+00  0.00000000000E+00  0.50922942649E+03  0.50922942651E+03  0.50400001928E-02 0. -1.
        1   -1    0    0  501    0  0.00000000000E+00  0.00000000000E+00 -0.25009616137E+04  0.25009616137E+04  0.50400001928E-02 0.  1.
    10030    2    1    2    0    0  0.00000000000E+00  0.00000000000E+00 -0.19917321872E+04  0.30101910402E+04  0.22570451907E+04 0.  0.
        2    1    3    3  502    0 -0.10935151777E+03 -0.52060373629E+03 -0.23232543696E+04  0.23833792964E+04  0.25500000920E-02 0.  1.
       -2    1    3    3    0  502  0.10935151777E+03  0.52060373629E+03  0.33152218243E+03  0.62681174377E+03  0.25500000920E-02 0. -1.
</event>
<event>
 5   0  0.1884407E-05  0.2200225E+04  0.7818609E-02  0.8518335E-01
        1   -1    0    0  501    0  0.00000000000E+00  0.00000000000E+00  0.14188799363E+04  0.14188799363E+04  0.50400001928E-02 0. -1.
       -1   -1    0    0    0  501  0.00000000000E+00  0.00000000000E+00 -0.85295952934E+03  0.85295952935E+03  0.50400001928E-02 0.  1.
    10030    2    1    2    0    0  0.00000000000E+00  0.00000000000E+00  0.56592040697E+03  0.22718394657E+04  0.22002246819E+04 0.  0.
        3    1    3    3  502    0 -0.49122923403E+03 -0.56908499885E+03 -0.54635283266E+03  0.92933595876E+03  0.10100000352E+00 0.  1.
       -3    1    3    3    0  502  0.49122923403E+03  0.56908499885E+03  0.11122732396E+04  0.13425035069E+04  0.10100000352E+00 0. -1.
</event>
<event>
 5   0  0.4143281E-05  0.2197858E+04  0.7818609E-02  0.8519320E-01
        2   -1    0    0  501    0  0.00000000000E+00  0.00000000000E+00  0.70369147278E+03  0.70369147278E+03  0.25500000920E-02 0.  1.
       -2   -1    0    0    0  501  0.00000000000E+00  0.00000000000E+00 -0.17161574089E+04  0.17161574089E+04  0.25500000920E-02 0. -1.
    10030    2    1    2    0    0  0.00000000000E+00  0.00000000000E+00 -0.10124659361E+04  0.24198488817E+04  0.21978583527E+04 0.  0.
        2    1    3    3  502    0  0.21368658645E+02 -0.16961322044E+03  0.68896160104E+03  0.70985445820E+03  0.25500000920E-02 0.  1.
       -2    1    3    3    0  502 -0.21368658645E+02  0.16961322044E+03 -0.17014275371E+04  0.17099944235E+04  0.25500000920E-02 0. -1.
</event>
<event>
 5   0  0.1788413E-05  0.2280147E+04  0.7818609E-02  0.8485790E-01
        1   -1    0    0  501    0  0.00000000000E+00  0.00000000000E+00  0.23923355763E+04  0.23923355763E+04  0.50400001928E-02 0.  1.
       -1   -1    0    0    0  501  0.00000000000E+00  0.00000000000E+00 -0.54330494928E+03  0.54330494931E+03  0.50400001928E-02 0. -1.
    10030    2    1    2    0    0  0.00000000000E+00  0.00000000000E+00  0.18490306270E+04  0.29356405256E+04  0.22801471523E+04 0.  0.
        1    1    3    3  502    0  0.31778641417E+02 -0.11958521039E+03 -0.53463430743E+03  0.54876620459E+03  0.50400001928E-02 0. -1.
       -1    1    3    3    0  502 -0.31778641417E+02  0.11958521039E+03  0.23836649344E+04  0.23868743210E+04  0.50400001928E-02 0.  1.
</event>
<event>
 5   0  0.1788413E-05  0.2222293E+04  0.7818609E-02  0.8509206E-01
       -1   -1    0    0    0  501  0.00000000000E+00  0.00000000000E+00  0.13544570256E+04  0.13544570256E+04  0.50400001928E-02 0.  1.
        1   -1    0    0  501    0  0.00000000000E+00  0.00000000000E+00 -0.91154312584E+03  0.91154312585E+03  0.50400001928E-02 0. -1.
    10030    2    1    2    0    0  0.00000000000E+00  0.00000000000E+00  0.44291389973E+03  0.22660001514E+04  0.22222925018E+04 0.  0.
        1    1    3    3  502    0  0.64949640496E+02 -0.91951181771E+02  0.13486269788E+04  0.13533174808E+04  0.50400001928E-02 0.  1.
       -1    1    3    3    0  502 -0.64949640496E+02  0.91951181771E+02 -0.90571307912E+03  0.91268267067E+03  0.50400001928E-02 0. -1.
</event>
<event>
 5   0  0.1815681E-05  0.2194200E+04  0.7818609E-02  0.8520846E-01
        1   -1    0    0  501    0  0.00000000000E+00  0.00000000000E+00  0.13225296850E+04  0.13225296850E+04  0.50400001928E-02 0. -1.
       -1   -1    0    0    0  501  0.00000000000E+00  0.00000000000E+00 -0.91009521712E+03  0.91009521713E+03  0.50400001928E-02 0.  1.
    10030    2    1    2    0    0  0.00000000000E+00  0.00000000000E+00  0.41243446787E+03  0.22326249021E+04  0.21941995724E+04 0.  0.
        2    1    3    3  502    0  0.48767633328E+03  0.32556035150E+03  0.11497151231E+04  0.12906055217E+04  0.25500000920E-02 0. -1.
       -2    1    3    3    0  502 -0.48767633328E+03 -0.32556035150E+03 -0.73728065520E+03  0.94201938040E+03  0.25500000920E-02 0.  1.
</event>
<event>
 5   0  0.4132460E-05  0.2201144E+04  0.7818609E-02  0.8517952E-01
       -2   -1    0    0    0  501  0.00000000000E+00  0.00000000000E+00  0.90776789565E+03  0.90776789565E+03  0.25500000920E-02 0.  1.
        2   -1    0    0  501    0  0.00000000000E+00  0.00000000000E+00 -0.13343265916E+04  0.13343265916E+04  0.25500000920E-02 0. -1.
    10030    2    1    2    0    0  0.00000000000E+00  0.00000000000E+00 -0.42655869596E+03  0.22420944873E+04  0.22011441045E+04 0.  0.
        4    1    3    3  502    0  0.76338561843E+03  0.36641996757E+03  0.50281894434E+03  0.98480947333E+03  0.12699999809E+01 0.  1.
       -4    1    3    3    0  502 -0.76338561843E+03 -0.36641996757E+03 -0.92937764030E+03  0.12572850139E+04  0.12699999809E+01 0. -1.
</event>
<event>
 5   0  0.4027923E-05  0.2184377E+04  0.7818609E-02  0.8524959E-01
        2   -1    0    0  501    0  0.00000000000E+00  0.00000000000E+00  0.12930228707E+04  0.12930228707E+04  0.25500000920E-02 0.  1.
       -2   -1    0    0    0  501  0.00000000000E+00  0.00000000000E+00 -0.92254817650E+03  0.92254817650E+03  0.25500000920E-02 0. -1.
    10030    2    1    2    0    0  0.00000000000E+00  0.00000000000E+00  0.37047469418E+03  0.22155710472E+04  0.21843771575E+04 0.  0.
        5    1    3    3  502    0 -0.86961910511E+03  0.99614643190E+02  0.84778326897E+03  0.12185725363E+04  0.46999998093E+01 0.  1.
       -5    1    3    3    0  502  0.86961910511E+03 -0.99614643190E+02 -0.47730857480E+03  0.99699851087E+03  0.46999998093E+01 0. -1.
</event>
<event>
 5   0  0.4132460E-05  0.2178486E+04  0.7818609E-02  0.8527436E-01
        2   -1    0    0  501    0  0.00000000000E+00  0.00000000000E+00  0.14407207424E+04  0.14407207425E+04  0.25500000920E-02 0. -1.
       -2   -1    0    0    0  501  0.00000000000E+00  0.00000000000E+00 -0.82351152925E+03  0.82351152925E+03  0.25500000920E-02 0.  1.
    10030    2    1    2    0    0  0.00000000000E+00  0.00000000000E+00  0.61720921320E+03  0.22642322717E+04  0.21784858428E+04 0.  0.
        4    1    3    3  502    0  0.10218926877E+04 -0.22692561042E+03  0.62160339549E+03  0.12174367713E+04  0.12699999809E+01 0. -1.
       -4    1    3    3    0  502 -0.10218926877E+04  0.22692561042E+03 -0.43941822883E+01  0.10467955004E+04  0.12699999809E+01 0.  1.
</event>
<event>
 5   0  0.3963414E-05  0.2176503E+04  0.7818609E-02  0.8528272E-01
        2   -1    0    0  501    0  0.00000000000E+00  0.00000000000E+00  0.15447207777E+04  0.15447207777E+04  0.25500000920E-02 0.  1.
       -2   -1    0    0    0  501  0.00000000000E+00  0.00000000000E+00 -0.76667028032E+03  0.76667028033E+03  0.25500000920E-02 0. -1.
    10030    2    1    2    0    0  0.00000000000E+00  0.00000000000E+00  0.77805049742E+03  0.23113910581E+04  0.21765031695E+04 0.  0.
        1    1    3    3  502    0 -0.90619237200E+03 -0.48617573841E+03  0.10956257487E+02  0.10284315744E+04  0.50400001928E-02 0. -1.
       -1    1    3    3    0  502  0.90619237200E+03  0.48617573841E+03  0.76709423993E+03  0.12829594836E+04  0.50400001928E-02 0.  1.
</event>
<event>
 5   0  0.4027923E-05  0.2212628E+04  0.7818609E-02  0.8513191E-01
        2   -1    0    0  501    0  0.00000000000E+00  0.00000000000E+00  0.27057675109E+04  0.27057675109E+04  0.25500000920E-02 0. -1.
       -2   -1    0    0    0  501  0.00000000000E+00  0.00000000000E+00 -0.45234128137E+03  0.45234128138E+03  0.25500000920E-02 0.  1.
    10030    2    1    2    0    0  0.00000000000E+00  0.00000000000E+00  0.22534262296E+04  0.31581087923E+04  0.22126277075E+04 0.  0.
        5    1    3    3  502    0  0.43360714376E+03  0.56380011177E+03  0.23361627187E+04  0.24420409619E+04  0.46999998093E+01 0. -1.
       -5    1    3    3    0  502 -0.43360714376E+03 -0.56380011177E+03 -0.82736489159E+02  0.71606783044E+03  0.46999998093E+01 0.  1.
</event>
<event>
 5   0  0.4029532E-05  0.2097735E+04  0.7818609E-02  0.8562242E-01
       -2   -1    0    0    0  501  0.00000000000E+00  0.00000000000E+00  0.52659533394E+03  0.52659533395E+03  0.25500000920E-02 0. -1.
        2   -1    0    0  501    0  0.00000000000E+00  0.00000000000E+00 -0.20891234266E+04  0.20891234266E+04  0.25500000920E-02 0.  1.
    10030    2    1    2    0    0  0.00000000000E+00  0.00000000000E+00 -0.15625280926E+04  0.26157187605E+04  0.20977346338E+04 0.  0.
        3    1    3    3  502    0 -0.74409590863E+02  0.96021414455E+02 -0.20803220797E+04  0.20838658462E+04  0.10100000352E+00 0.  1.
       -3    1    3    3    0  502  0.74409590863E+02 -0.96021414455E+02  0.51779398709E+03  0.53185291436E+03  0.10100000352E+00 0. -1.
</event>
<event>
 5   0  0.4132460E-05  0.2201126E+04  0.7818609E-02  0.8517959E-01
       -2   -1    0    0    0  501  0.00000000000E+00  0.00000000000E+00  0.79957345878E+03  0.79957345878E+03  0.25500000920E-02 0. -1.
        2   -1    0    0  501    0  0.00000000000E+00  0.00000000000E+00 -0.15148568636E+04  0.15148568636E+04  0.25500000920E-02 0.  1.
    10030    2    1    2    0    0  0.00000000000E+00  0.00000000000E+00 -0.71528340486E+03  0.23144303224E+04  0.22011263862E+04 0.  0.
        4    1    3    3  502    0  0.69682054195E+03  0.52458209283E+02 -0.12516598869E+04  0.14335148470E+04  0.12699999809E+01 0.  1.
       -4    1    3    3    0  502 -0.69682054195E+03 -0.52458209283E+02  0.53637648201E+03  0.88091547537E+03  0.12699999809E+01 0. -1.
</event>
<event>
 5   0  0.1884407E-05  0.2204577E+04  0.7818609E-02  0.8516526E-01
        1   -1    0    0  501    0  0.00000000000E+00  0.00000000000E+00  0.13748172950E+04  0.13748172951E+04  0.50400001928E-02 0.  1.
       -1   -1    0    0    0  501  0.00000000000E+00  0.00000000000E+00 -0.88378264201E+03  0.88378264203E+03  0.50400001928E-02 0. -1.
    10030    2    1    2    0    0  0.00000000000E+00  0.00000000000E+00  0.49103465303E+03  0.22585999371E+04  0.22045767497E+04 0.  0.
        3    1    3    3  502    0  0.26727976417E+03  0.10174008516E+04  0.58297734444E+03  0.12026660216E+04  0.10100000352E+00 0.  1.
       -3    1    3    3    0  502 -0.26727976417E+03 -0.10174008516E+04 -0.91942691404E+02  0.10559339155E+04  0.10100000352E+00 0. -1.
</event>
<event>
 5   0  0.1815681E-05  0.2175625E+04  0.7818609E-02  0.8528643E-01
        1   -1    0    0  501    0  0.00000000000E+00  0.00000000000E+00  0.14307479364E+04  0.14307479364E+04  0.50400001928E-02 0. -1.
       -1   -1    0    0    0  501  0.00000000000E+00  0.00000000000E+00 -0.82707482101E+03  0.82707482103E+03  0.50400001928E-02 0.  1.
    10030    2    1    2    0    0  0.00000000000E+00  0.00000000000E+00  0.60367311537E+03  0.22578227574E+04  0.21756245939E+04 0.  0.
        2    1    3    3  502    0 -0.30780489128E+03 -0.73428363106E+03  0.10710694367E+04  0.13345808481E+04  0.25500000920E-02 0. -1.
       -2    1    3    3    0  502  0.30780489128E+03  0.73428363106E+03 -0.46739632130E+03  0.92324190932E+03  0.25500000920E-02 0.  1.
</event>
<event>
 5   0  0.1786228E-05  0.2153782E+04  0.7818609E-02  0.8537915E-01
        1   -1    0    0  501    0  0.00000000000E+00  0.00000000000E+00  0.17692715579E+04  0.17692715579E+04  0.50400001928E-02 0.  1.
       -1   -1    0    0    0  501  0.00000000000E+00  0.00000000000E+00 -0.65546412486E+03  0.65546412488E+03  0.50400001928E-02 0. -1.
    10030    2    1    2    0    0  0.00000000000E+00  0.00000000000E+00  0.11138074331E+04  0.24247356828E+04  0.21537818212E+04 0.  0.
        5    1    3    3  502    0 -0.97287748399E+02 -0.55127065520E+03  0.15925867061E+04  0.16881109998E+04  0.46999998093E+01 0.  1.
       -5    1    3    3    0  502  0.97287748399E+02  0.55127065520E+03 -0.47877927305E+03  0.73662468298E+03  0.46999998093E+01 0. -1.
</event>
<event>
 5   0  0.4132460E-05  0.2177992E+04  0.7818609E-02  0.8527644E-01
       -2   -1    0    0    0  501  0.00000000000E+00  0.00000000000E+00  0.90805741237E+03  0.90805741238E+03  0.25500000920E-02 0. -1.
        2   -1    0    0  501    0  0.00000000000E+00  0.00000000000E+00 -0.13059884851E+04  0.13059884851E+04  0.25500000920E-02 0.  1.
    10030    2    1    2    0    0  0.00000000000E+00  0.00000000000E+00 -0.39793107269E+03  0.22140458974E+04  0.21779922170E+04 0.  0.
        4    1    3    3  502    0 -0.68096114941E+03  0.77605012971E+03 -0.55103523559E+03  0.11703005317E+04  0.12699999809E+01 0. -1.
       -4    1    3    3    0  502  0.68096114941E+03 -0.77605012971E+03  0.15310416290E+03  0.10437453657E+04  0.12699999809E+01 0.  1.
</event>
<event>
 5   0  0.1788413E-05  0.2180232E+04  0.7818609E-02  0.8526701E-01
        1   -1    0    0  501    0  0.00000000000E+00  0.00000000000E+00  0.13262257997E+04  0.13262257997E+04  0.50400001928E-02 0.  1.
       -1   -1    0    0    0  501  0.00000000000E+00  0.00000000000E+00 -0.89604101176E+03  0.89604101177E+03  0.50400001928E-02 0. -1.
    10030    2    1    2    0    0  0.00000000000E+00  0.00000000000E+00  0.43018478793E+03  0.22222668115E+04  0.21802318293E+04 0.  0.
        1    1    3    3  502    0 -0.14312906255E+03 -0.89395786046E+03  0.83401122892E+03  0.12309432622E+04  0.50400001928E-02 0.  1.
       -1    1    3    3    0  502  0.14312906255E+03  0.89395786046E+03 -0.40382644099E+03  0.99132354925E+03  0.50400001928E-02 0. -1.
</event>
<event>
 5   0  0.1786228E-05  0.2226348E+04  0.7818609E-02  0.8507541E-01
        1   -1    0    0  501    0  0.00000000000E+00  0.00000000000E+00  0.12593556835E+04  0.12593556835E+04  0.50400001928E-02 0.  1.
       -1   -1    0    0    0  501  0.00000000000E+00  0.00000000000E+00 -0.98396045494E+03  0.98396045496E+03  0.50400001928E-02 0. -1.
    10030    2    1    2    0    0  0.00000000000E+00  0.00000000000E+00  0.27539522857E+03  0.22433161385E+04  0.22263478536E+04 0.  0.
        5    1    3    3  502    0  0.46360915156E+03  0.97163671239E+03 -0.14751937852E+03  0.10866441015E+04  0.46999998093E+01 0. -1.
       -5    1    3    3    0  502 -0.46360915156E+03 -0.97163671239E+03  0.42291460709E+03  0.11566720370E+04  0.46999998093E+01 0.  1.
</event>
<event>
 5   0  0.1788413E-05  0.2201155E+04  0.7818609E-02  0.8517947E-01
        1   -1    0    0  501    0  0.00000000000E+00  0.00000000000E+00  0.26947273357E+04  0.26947273357E+04  0.50400001928E-02 0. -1.
       -1   -1    0    0    0  501  0.00000000000E+00  0.00000000000E+00 -0.44949665408E+03  0.44949665411E+03  0.50400001928E-02 0.  1.
    10030    2    1    2    0    0  0.00000000000E+00  0.00000000000E+00  0.22452306817E+04  0.31442239899E+04  0.22011550796E+04 0.  0.
        1    1    3    3  502    0 -0.77538926578E+03 -0.62671924000E+03  0.17884373121E+04  0.20475628290E+04  0.50400001928E-02 0. -1.
       -1    1    3    3    0  502  0.77538926578E+03  0.62671924000E+03  0.45679336956E+03  0.10966611609E+04  0.50400001928E-02 0.  1.
</event>
<event>
 5   0  0.1815681E-05  0.2203715E+04  0.7818609E-02  0.8516884E-01
        1   -1    0    0  501    0  0.00000000000E+00  0.00000000000E+00  0.17082158894E+04  0.17082158894E+04  0.50400001928E-02 0. -1.
       -1   -1    0    0    0  501  0.00000000000E+00  0.00000000000E+00 -0.71073545680E+03  0.71073545682E+03  0.50400001928E-02 0.  1.
    10030    2    1    2    0    0  0.00000000000E+00  0.00000000000E+00  0.99748043257E+03  0.24189513462E+04  0.22037146825E+04 0.  0.
        2    1    3    3  502    0 -0.37031981829E+03 -0.71605649149E+03 -0.32576696256E+03  0.86948132857E+03  0.25500000920E-02 0.  1.
       -2    1    3    3    0  502  0.37031981829E+03  0.71605649149E+03  0.13232473951E+04  0.15494700176E+04  0.25500000920E-02 0. -1.
</event>
<event>
 5   0  0.4027923E-05  0.2230731E+04  0.7818609E-02  0.8505745E-01
        2   -1    0    0  501    0  0.00000000000E+00  0.00000000000E+00  0.13809481931E+04  0.13809481931E+04  0.25500000920E-02 0.  1.
       -2   -1    0    0    0  501  0.00000000000E+00  0.00000000000E+00 -0.90085951927E+03  0.90085951928E+03  0.25500000920E-02 0. -1.
    10030    2    1    2    0    0  0.00000000000E+00  0.00000000000E+00  0.48008867381E+03  0.22818077124E+04  0.22307311137E+04 0.  0.
        5    1    3    3  502    0  0.98178808996E+03 -0.45082825292E+03  0.52363639684E+03  0.12005711696E+04  0.46999998093E+01 0.  1.
       -5    1    3    3    0  502 -0.98178808996E+03  0.45082825292E+03 -0.43547723022E+02  0.10812365428E+04  0.46999998093E+01 0. -1.
</event>
<event>
 5   0  0.4132460E-05  0.2182780E+04  0.7818609E-02  0.8525630E-01
        2   -1    0    0  501    0  0.00000000000E+00  0.00000000000E+00  0.80520435379E+03  0.80520435379E+03  0.25500000920E-02 0. -1.
       -2   -1    0    0    0  501  0.00000000000E+00  0.00000000000E+00 -0.14792915059E+04  0.14792915059E+04  0.25500000920E-02 0.  1.
    10030    2    1    2    0    0  0.00000000000E+00  0.00000000000E+00 -0.67408715211E+03  0.22844958597E+04  0.21827798433E+04 0.  0.
        4    1    3    3  502    0  0.99105655904E+03 -0.45666625386E+03 -0.31629086732E+03  0.11361244194E+04  0.12699999809E+01 0. -1.
       -4    1    3    3    0  502 -0.99105655904E+03  0.45666625386E+03 -0.35779628479E+03  0.11483714403E+04  0.12699999809E+01 0.  1.
</event>
<event>
 5   0  0.1884407E-05  0.2201334E+04  0.7818609E-02  0.8517873E-01
        1   -1    0    0  501    0  0.00000000000E+00  0.00000000000E+00  0.21235458873E+04  0.21235458873E+04  0.50400001928E-02 0. -1.
       -1   -1    0    0    0  501  0.00000000000E+00  0.00000000000E+00 -0.57049307152E+03  0.57049307154E+03  0.50400001928E-02 0.  1.
    10030    2    1    2    0    0  0.00000000000E+00  0.00000000000E+00  0.15530528158E+04  0.26940389588E+04  0.22013343370E+04 0.  0.
        3    1    3    3  502    0  0.52049411144E+03 -0.78886590591E+03  0.86130144839E+02  0.94902157489E+03  0.10100000352E+00 0.  1.
       -3    1    3    3    0  502 -0.52049411144E+03  0.78886590591E+03  0.14669226709E+04  0.17450173839E+04  0.10100000352E+00 0. -1.
</event>
<event>
 5   0  0.1815681E-05  0.2199494E+04  0.7818609E-02  0.8518639E-01
       -1   -1    0    0    0  501  0.00000000000E+00  0.00000000000E+00  0.11840663317E+04  0.11840663317E+04  0.50400001928E-02 0. -1.
        1   -1    0    0  501    0  0.00000000000E+00  0.00000000000E+00 -0.10214319095E+04  0.10214319095E+04  0.50400001928E-02 0.  1.
    10030    2    1    2    0    0  0.00000000000E+00  0.00000000000E+00  0.16263442224E+03  0.22054982412E+04  0.21994937001E+04 0.  0.
        2    1    3    3  502    0  0.10916535522E+04 -0.12930894390E+03  0.11326094085E+03  0.11051046655E+04  0.25500000920E-02 0. -1.
       -2    1    3    3    0  502 -0.10916535522E+04  0.12930894390E+03  0.49373481383E+02  0.11003935758E+04  0.25500000920E-02 0.  1.
</event>
<event>
 5   0  0.4132460E-05  0.2209231E+04  0.7818609E-02  0.8514596E-01
       -2   -1    0    0    0  501  0.00000000000E+00  0.00000000000E+00  0.11874773693E+04  0.11874773693E+04  0.25500000920E-02 0. -1.
        2   -1    0    0  501    0  0.00000000000E+00  0.00000000000E+00 -0.10275354851E+04  0.10275354851E+04  0.25500000920E-02 0.  1.
    10030    2    1    2    0    0  0.00000000000E+00  0.00000000000E+00  0.15994188426E+03  0.22150128544E+04  0.22092307573E+04 0.  0.
        4    1    3    3  502    0  0.16568482672E+03 -0.92312753848E+03  0.66507143400E+03  0.11497554259E+04  0.12699999809E+01 0.  1.
       -4    1    3    3    0  502 -0.16568482672E+03  0.92312753848E+03 -0.50512954974E+03  0.10652574285E+04  0.12699999809E+01 0. -1.
</event>
<event>
 5   0  0.1788413E-05  0.2188982E+04  0.7818609E-02  0.8523028E-01
        1   -1    0    0  501    0  0.00000000000E+00  0.00000000000E+00  0.83734907430E+03  0.83734907432E+03  0.50400001928E-02 0.  1.
       -1   -1    0    0    0  501  0.00000000000E+00  0.00000000000E+00 -0.14305989028E+04  0.14305989028E+04  0.50400001928E-02 0. -1.
    10030    2    1    2    0    0  0.00000000000E+00  0.00000000000E+00 -0.59324982853E+03  0.22679479772E+04  0.21889821078E+04 0.  0.
        1    1    3    3  502    0 -0.14852317717E+03  0.66333690017E+02 -0.14180054400E+04  0.14273047049E+04  0.50400001928E-02 0. -1.
       -1    1    3    3    0  502  0.14852317717E+03 -0.66333690017E+02  0.82475561148E+03  0.84064327231E+03  0.50400001928E-02 0.  1.
</event>
<event>
 5   0  0.3963414E-05  0.2196224E+04  0.7818609E-02  0.8520001E-01
        2   -1    0    0  501    0  0.00000000000E+00  0.00000000000E+00  0.20240278842E+04  0.20240278842E+04  0.25500000920E-02 0. -1.
       -2   -1    0    0    0  501  0.00000000000E+00  0.00000000000E+00 -0.59576737452E+03  0.59576737452E+03  0.25500000920E-02 0.  1.
    10030    2    1    2    0    0  0.00000000000E+00  0.00000000000E+00  0.14282605097E+04  0.26197952587E+04  0.21962238306E+04 0.  0.
        1    1    3    3  502    0  0.73299204042E+03 -0.16051995068E+03  0.16705106018E+04  0.18312972606E+04  0.50400001928E-02 0. -1.
       -1    1    3    3    0  502 -0.73299204042E+03  0.16051995068E+03 -0.24225009213E+03  0.78849799812E+03  0.50400001928E-02 0.  1.
</event>
<event>
 5   0  0.1788413E-05  0.2201004E+04  0.7818609E-02  0.8518010E-01
       -1   -1    0    0    0  501  0.00000000000E+00  0.00000000000E+00  0.76211075155E+03  0.76211075157E+03  0.50400001928E-02 0.  1.
        1   -1    0    0  501    0  0.00000000000E+00  0.00000000000E+00 -0.15891456066E+04  0.15891456066E+04  0.50400001928E-02 0. -1.
    10030    2    1    2    0    0  0.00000000000E+00  0.00000000000E+00 -0.82703485506E+03  0.23512563582E+04  0.22010042731E+04 0.  0.
        1    1    3    3  502    0  0.36175224851E+03 -0.83009044026E+03 -0.10816659901E+04  0.14106438751E+04  0.50400001928E-02 0. -1.
       -1    1    3    3    0  502 -0.36175224851E+03  0.83009044026E+03  0.25463113504E+03  0.94061248305E+03  0.50400001928E-02 0.  1.
</event>
<event>
 5   0  0.1788413E-05  0.2203091E+04  0.7818609E-02  0.8517143E-01
       -1   -1    0    0    0  501  0.00000000000E+00  0.00000000000E+00  0.13416108119E+04  0.13416108119E+04  0.50400001928E-02 0.  1.
        1   -1    0    0  501    0  0.00000000000E+00  0.00000000000E+00 -0.90443687047E+03  0.90443687048E+03  0.50400001928E-02 0. -1.
    10030    2    1    2    0    0  0.00000000000E+00  0.00000000000E+00  0.43717394140E+03  0.22460476824E+04  0.22030908144E+04 0.  0.
        1    1    3    3  502    0 -0.89411897674E+03 -0.80965109583E+02 -0.43213597346E+03  0.99636619428E+03  0.50400001928E-02 0. -1.
       -1    1    3    3    0  502  0.89411897674E+03  0.80965109583E+02  0.86930991485E+03  0.12496814881E+04  0.50400001928E-02 0.  1.
</event>
<event>
 5   0  0.4029532E-05  0.2198644E+04  0.7818609E-02  0.8518993E-01
       -2   -1    0    0    0  501  0.00000000000E+00  0.00000000000E+00  0.61728533395E+03  0.61728533395E+03  0.25500000920E-02 0.  1.
        2   -1    0    0  501    0  0.00000000000E+00  0.00000000000E+00 -0.19577797306E+04  0.19577797306E+04  0.25500000920E-02 0. -1.
    10030    2    1    2    0    0  0.00000000000E+00  0.00000000000E+00 -0.13404943967E+04  0.25750650646E+04  0.21986438682E+04 0.  0.
        3    1    3    3  502    0  0.91593190122E+03  0.56725112375E+02  0.38656392710E+02  0.91850057863E+03  0.10100000352E+00 0.  1.
       -3    1    3    3    0  502 -0.91593190122E+03 -0.56725112375E+02 -0.13791507894E+04  0.16565644859E+04  0.10100000352E+00 0. -1.
</event>
<event>
 5   0  0.1786228E-05  0.2224525E+04  0.7818609E-02  0.8508289E-01
        1   -1    0    0  501    0  0.00000000000E+00  0.00000000000E+00  0.64813272243E+03  0.64813272245E+03  0.50400001928E-02 0. -1.
       -1   -1    0    0    0  501  0.00000000000E+00  0.00000000000E+00 -0.19087565422E+04  0.19087565422E+04  0.50400001928E-02 0.  1.
    10030    2    1    2    0    0  0.00000000000E+00  0.00000000000E+00 -0.12606238198E+04  0.25568892647E+04  0.22245247350E+04 0.  0.
        5    1    3    3  502    0 -0.41025335883E+02 -0.46113064306E+03 -0.17927397235E+04  0.18515567380E+04  0.46999998093E+01 0.  1.
       -5    1    3    3    0  502  0.41025335883E+02  0.46113064306E+03  0.53211590368E+03  0.70533252661E+03  0.46999998093E+01 0. -1.
</event>
<event>
 5   0  0.4029532E-05  0.2201727E+04  0.7818609E-02  0.8517709E-01
        2   -1    0    0  501    0  0.00000000000E+00  0.00000000000E+00  0.10787160302E+04  0.10787160302E+04  0.25500000920E-02 0. -1.
       -2   -1    0    0    0  501  0.00000000000E+00  0.00000000000E+00 -0.11234660600E+04  0.11234660600E+04  0.25500000920E-02 0.  1.
    10030    2    1    2    0    0  0.00000000000E+00  0.00000000000E+00 -0.44750029884E+02  0.22021820902E+04  0.22017273658E+04 0.  0.
        3    1    3    3  502    0  0.10558980729E+04  0.45503640640E+02  0.28576249312E+03  0.10948294545E+04  0.10100000352E+00 0. -1.
       -3    1    3    3    0  502 -0.10558980729E+04 -0.45503640640E+02 -0.33051252300E+03  0.11073526357E+04  0.10100000352E+00 0.  1.
</event>
<event>
 5   0  0.4132460E-05  0.2204678E+04  0.7818609E-02  0.8516483E-01
       -2   -1    0    0    0  501  0.00000000000E+00  0.00000000000E+00  0.12491249333E+04  0.12491249333E+04  0.25500000920E-02 0. -1.
        2   -1    0    0  501    0  0.00000000000E+00  0.00000000000E+00 -0.97280224583E+03  0.97280224584E+03  0.25500000920E-02 0.  1.
    10030    2    1    2    0    0  0.00000000000E+00  0.00000000000E+00  0.27632268746E+03  0.22219271791E+04  0.22046782445E+04 0.  0.
        4    1    3    3  502    0  0.15589559594E+03  0.10085122866E+04  0.55825520427E+03  0.11632071850E+04  0.12699999809E+01 0. -1.
       -4    1    3    3    0  502 -0.15589559594E+03 -0.10085122866E+04 -0.28193251682E+03  0.10587199942E+04  0.12699999809E+01 0.  1.
</event>
<event>
 5   0  0.4029532E-05  0.2216140E+04  0.7818609E-02  0.8511740E-01
       -2   -1    0    0    0  501  0.00000000000E+00  0.00000000000E+00  0.81469605135E+03  0.81469605136E+03  0.25500000920E-02 0.  1.
        2   -1    0    0  501    0  0.00000000000E+00  0.00000000000E+00 -0.15070890087E+04  0.15070890087E+04  0.25500000920E-02 0. -1.
    10030    2    1    2    0    0  0.00000000000E+00  0.00000000000E+00 -0.69239295736E+03  0.23217850601E+04  0.22161403064E+04 0.  0.
        3    1    3    3  502    0  0.11028507090E+04  0.45084388076E+02 -0.24404367355E+03  0.11304289509E+04  0.10100000352E+00 0. -1.
       -3    1    3    3    0  502 -0.11028507090E+04 -0.45084388076E+02 -0.44834928380E+03  0.11913561091E+04  0.10100000352E+00 0.  1.
</event>
<event>
 5   0  0.3963414E-05  0.2198730E+04  0.7818609E-02  0.8518957E-01
       -2   -1    0    0    0  501  0.00000000000E+00  0.00000000000E+00  0.72196051654E+03  0.72196051654E+03  0.25500000920E-02 0. -1.
        2   -1    0    0  501    0  0.00000000000E+00  0.00000000000E+00 -0.16740575068E+04  0.16740575068E+04  0.25500000920E-02 0.  1.
    10030    2    1    2    0    0  0.00000000000E+00  0.00000000000E+00 -0.95209699023E+03  0.23960180233E+04  0.21987300174E+04 0.  0.
        1    1    3    3  502    0 -0.55756078409E+03  0.81063020468E+03  0.58482958772E+02  0.98560418687E+03  0.50400001928E-02 0.  1.
       -1    1    3    3    0  502  0.55756078409E+03 -0.81063020468E+03 -0.10105799490E+04  0.14104138364E+04  0.50400001928E-02 0. -1.
</event>
<event>
 5   0  0.1815681E-05  0.2211348E+04  0.7818609E-02  0.8513720E-01
        1   -1    0    0  501    0  0.00000000000E+00  0.00000000000E+00  0.24507240460E+04  0.24507240460E+04  0.50400001928E-02 0. -1.
       -1   -1    0    0    0  501  0.00000000000E+00  0.00000000000E+00 -0.49883813486E+03  0.49883813489E+03  0.50400001928E-02 0.  1.
    10030    2    1    2    0    0  0.00000000000E+00  0.00000000000E+00  0.19518859111E+04  0.29495621809E+04  0.22113476544E+04 0.  0.
        2    1    3    3  502    0  0.80251886738E+03 -0.39595016760E+03  0.10977297723E+03  0.90158924919E+03  0.25500000920E-02 0. -1.
       -2    1    3    3    0  502 -0.80251886738E+03  0.39595016760E+03  0.18421129339E+04  0.20479729317E+04  0.25500000920E-02 0.  1.
</event>
<event>
 5   0  0.1866935E-05  0.2213855E+04  0.7818609E-02  0.8512683E-01
        1   -1    0    0  501    0  0.00000000000E+00  0.00000000000E+00  0.11699127802E+04  0.11699127802E+04  0.50400001928E-02 0.  1.
       -1   -1    0    0    0  501  0.00000000000E+00  0.00000000000E+00 -0.10473334807E+04  0.10473334808E+04  0.50400001928E-02 0. -1.
    10030    2    1    2    0    0  0.00000000000E+00  0.00000000000E+00  0.12257929945E+03  0.22172462610E+04  0.22138553018E+04 0.  0.
        4    1    3    3  502    0 -0.56453755611E+03 -0.28652804982E+03 -0.84811339571E+03  0.10583472589E+04  0.12699999809E+01 0. -1.
       -4    1    3    3    0  502  0.56453755611E+03  0.28652804982E+03  0.97069269516E+03  0.11588990020E+04  0.12699999809E+01 0.  1.
</event>
<event>
 5   0  0.4027923E-05  0.2195433E+04  0.7818609E-02  0.8520331E-01
        2   -1    0    0  501    0  0.00000000000E+00  0.00000000000E+00  0.20971042656E+04  0.20971042656E+04  0.25500000920E-02 0.  1.
       -2   -1    0    0    0  501  0.00000000000E+00  0.00000000000E+00 -0.57459292362E+03  0.57459292363E+03  0.25500000920E-02 0. -1.
    10030    2    1    2    0    0  0.00000000000E+00  0.00000000000E+00  0.15225113420E+04  0.26716971893E+04  0.21954327784E+04 0.  0.
        5    1    3    3  502    0  0.37243620918E+03 -0.78709877338E+03  0.15746248110E+04  0.17993606071E+04  0.46999998093E+01 0.  1.
       -5    1    3    3    0  502 -0.37243620918E+03  0.78709877338E+03 -0.52113468971E+02  0.87233658218E+03  0.46999998093E+01 0. -1.
</event>
<event>
 5   0  0.1788413E-05  0.2191949E+04  0.7818609E-02  0.8521787E-01
       -1   -1    0    0    0  501  0.00000000000E+00  0.00000000000E+00  0.17816980164E+04  0.17816980164E+04  0.50400001928E-02 0.  1.
        1   -1    0    0  501    0  0.00000000000E+00  0.00000000000E+00 -0.67416600623E+03  0.67416600625E+03  0.50400001928E-02 0. -1.
    10030    2    1    2    0    0  0.00000000000E+00  0.00000000000E+00  0.11075320101E+04  0.24558640226E+04  0.21919491199E+04 0.  0.
        1    1    3    3  502    0  0.18077550440E+03  0.45268842902E+02 -0.65628425410E+03  0.68223022019E+03  0.50400001928E-02 0. -1.
       -1    1    3    3    0  502 -0.18077550440E+03 -0.45268842902E+02  0.17638162642E+04  0.17736338024E+04  0.50400001928E-02 0.  1.
</event>
<event>
 5   0  0.1866935E-05  0.2225705E+04  0.7818609E-02  0.8507805E-01
        1   -1    0    0  501    0  0.00000000000E+00  0.00000000000E+00  0.14307313620E+04  0.14307313621E+04  0.50400001928E-02 0. -1.
       -1   -1    0    0    0  501  0.00000000000E+00  0.00000000000E+00 -0.86559972465E+03  0.86559972466E+03  0.50400001928E-02 0.  1.
    10030    2    1    2    0    0  0.00000000000E+00  0.00000000000E+00  0.56513163740E+03  0.22963310867E+04  0.22257049877E+04 0.  0.
        4    1    3    3  502    0 -0.34847940443E+03 -0.42954536223E+03  0.12788642603E+04  0.13933565669E+04  0.12699999809E+01 0. -1.
       -4    1    3    3    0  502  0.34847940443E+03  0.42954536223E+03 -0.71373262288E+03  0.90297451978E+03  0.12699999809E+01 0.  1.
</event>
<event>
 5   0  0.1786228E-05  0.2238476E+04  0.7818609E-02  0.8502582E-01
       -1   -1    0    0    0  501  0.00000000000E+00  0.00000000000E+00  0.12365461615E+04  0.12365461615E+04  0.50400001928E-02 0. -1.
        1   -1    0    0  501    0  0.00000000000E+00  0.00000000000E+00 -0.10130585633E+04  0.10130585633E+04  0.50400001928E-02 0.  1.
    10030    2    1    2    0    0  0.00000000000E+00  0.00000000000E+00  0.22348759822E+03  0.22496047249E+04  0.22384759797E+04 0.  0.
        5    1    3    3  502    0 -0.86300461048E+02 -0.58304895597E+03  0.10679348972E+04  0.12197954292E+04  0.46999998093E+01 0. -1.
       -5    1    3    3    0  502  0.86300461048E+02  0.58304895597E+03 -0.84444729894E+03  0.10298092956E+04  0.46999998093E+01 0.  1.
</event>
<event>
 5   0  0.4132460E-05  0.2193745E+04  0.7818609E-02  0.8521036E-01
       -2   -1    0    0    0  501  0.00000000000E+00  0.00000000000E+00  0.10638672854E+04  0.10638672854E+04  0.25500000920E-02 0. -1.
        2   -1    0    0  501    0  0.00000000000E+00  0.00000000000E+00 -0.11309021108E+04  0.11309021108E+04  0.25500000920E-02 0.  1.
    10030    2    1    2    0    0  0.00000000000E+00  0.00000000000E+00 -0.67034825419E+02  0.21947693962E+04  0.21937454353E+04 0.  0.
        4    1    3    3  502    0  0.10911601459E+04 -0.99513698109E+02 -0.84479442497E+02  0.10989412310E+04  0.12699999809E+01 0.  1.
       -4    1    3    3    0  502 -0.10911601459E+04  0.99513698109E+02  0.17444617079E+02  0.10958281652E+04  0.12699999809E+01 0. -1.
</event>
<event>
 5   0  0.1788413E-05  0.2200955E+04  0.7818609E-02  0.8518031E-01
       -1   -1    0    0    0  501  0.00000000000E+00  0.00000000000E+00  0.74151434778E+03  0.74151434780E+03  0.50400001928E-02 0.  1.
        1   -1    0    0  501    0  0.00000000000E+00  0.00000000000E+00 -0.16332131735E+04  0.16332131735E+04  0.50400001928E-02 0. -1.
    10030    2    1    2    0    0  0.00000000000E+00  0.00000000000E+00 -0.89169882575E+03  0.23747275213E+04  0.22009552482E+04 0.  0.
        1    1    3    3  502    0  0.22793816876E+03 -0.66052737822E+03 -0.13631491671E+04  0.15318054309E+04  0.50400001928E-02 0. -1.
       -1    1    3    3    0  502 -0.22793816876E+03  0.66052737822E+03  0.47145034140E+03  0.84292209046E+03  0.50400001928E-02 0.  1.
</event>
<event>
 5   0  0.4143281E-05  0.2199921E+04  0.7818609E-02  0.8518461E-01
       -2   -1    0    0    0  501  0.00000000000E+00  0.00000000000E+00  0.10318485430E+04  0.10318485430E+04  0.25500000920E-02 0.  1.
        2   -1    0    0  501    0  0.00000000000E+00  0.00000000000E+00 -0.11725684371E+04  0.11725684371E+04  0.25500000920E-02 0. -1.
    10030    2    1    2    0    0  0.00000000000E+00  0.00000000000E+00 -0.14071989408E+03  0.22044169801E+04  0.21999209380E+04 0.  0.
        2    1    3    3  502    0 -0.97260559668E+03  0.50607749629E+03  0.18347552007E+02  0.10965458092E+04  0.25500000920E-02 0. -1.
       -2    1    3    3    0  502  0.97260559668E+03 -0.50607749629E+03 -0.15906744608E+03  0.11078711709E+04  0.25500000920E-02 0.  1.
</event>
<event>
 5   0  0.4027923E-05  0.2193219E+04  0.7818609E-02  0.8521256E-01
       -2   -1    0    0    0  501  0.00000000000E+00  0.00000000000E+00  0.59981526326E+03  0.59981526327E+03  0.25500000920E-02 0.  1.
        2   -1    0    0  501    0  0.00000000000E+00  0.00000000000E+00 -0.20048707473E+04  0.20048707473E+04  0.25500000920E-02 0. -1.
    10030    2    1    2    0    0  0.00000000000E+00  0.00000000000E+00 -0.14050554841E+04  0.26046860106E+04  0.21932187079E+04 0.  0.
        5    1    3    3  502    0 -0.62076924023E+03  0.32195457409E+03 -0.17057028584E+04  0.18434894978E+04  0.46999998093E+01 0. -1.
       -5    1    3    3    0  502  0.62076924023E+03 -0.32195457409E+03  0.30064737433E+03  0.76119651279E+03  0.46999998093E+01 0.  1.
</event>
<event>
 5   0  0.1884407E-05  0.2183075E+04  0.7818609E-02  0.8525506E-01
        1   -1    0    0  501    0  0.00000000000E+00  0.00000000000E+00  0.11228068200E+04  0.11228068201E+04  0.50400001928E-02 0. -1.
       -1   -1    0    0    0  501  0.00000000000E+00  0.00000000000E+00 -0.10611389554E+04  0.10611389554E+04  0.50400001928E-02 0.  1.
    10030    2    1    2    0    0  0.00000000000E+00  0.00000000000E+00  0.61667864691E+02  0.21839457754E+04  0.21830749470E+04 0.  0.
        3    1    3    3  502    0  0.13999389822E+03 -0.59038650956E+02 -0.10505089843E+04  0.10614391128E+04  0.10100000352E+00 0.  1.
       -3    1    3    3    0  502 -0.13999389822E+03  0.59038650956E+02  0.11121768490E+04  0.11225066626E+04  0.10100000352E+00 0. -1.
</event>
<event>
 5   0  0.1786228E-05  0.2198543E+04  0.7818609E-02  0.8519035E-01
       -1   -1    0    0    0  501  0.00000000000E+00  0.00000000000E+00  0.14800833178E+04  0.14800833178E+04  0.50400001928E-02 0. -1.
        1   -1    0    0  501    0  0.00000000000E+00  0.00000000000E+00 -0.81643915213E+03  0.81643915215E+03  0.50400001928E-02 0.  1.
    10030    2    1    2    0    0  0.00000000000E+00  0.00000000000E+00  0.66364416566E+03  0.22965224699E+04  0.21985431259E+04 0.  0.
        5    1    3    3  502    0  0.11978170088E+03 -0.10903294186E+04  0.40721904215E+03  0.11700492875E+04  0.46999998093E+01 0. -1.
       -5    1    3    3    0  502 -0.11978170088E+03  0.10903294186E+04  0.25642512351E+03  0.11264731825E+04  0.46999998093E+01 0.  1.
</event>
<event>
 5   0  0.4143281E-05  0.2201730E+04  0.7818609E-02  0.8517708E-01
        2   -1    0    0  501    0  0.00000000000E+00  0.00000000000E+00  0.10056330298E+04  0.10056330298E+04  0.25500000920E-02 0.  1.
       -2   -1    0    0    0  501  0.00000000000E+00  0.00000000000E+00 -0.12051155477E+04  0.12051155477E+04  0.25500000920E-02 0. -1.
    10030    2    1    2    0    0  0.00000000000E+00  0.00000000000E+00 -0.19948251795E+03  0.22107485775E+04  0.22017302283E+04 0.  0.
        2    1    3    3  502    0  0.74218784647E+03  0.81292809203E+03 -0.11426137832E+03  0.11066844830E+04  0.25500000920E-02 0.  1.
       -2    1    3    3    0  502 -0.74218784647E+03 -0.81292809203E+03 -0.85221139634E+02  0.11040640946E+04  0.25500000920E-02 0. -1.
</event>
<event>
 5   0  0.1866935E-05  0.2229169E+04  0.7818609E-02  0.8506384E-01
        1   -1    0    0  501    0  0.00000000000E+00  0.00000000000E+00  0.11851400590E+04  0.11851400590E+04  0.50400001928E-02 0. -1.
       -1   -1    0    0    0  501  0.00000000000E+00  0.00000000000E+00 -0.10482294510E+04  0.10482294510E+04  0.50400001928E-02 0.  1.
    10030    2    1    2    0    0  0.00000000000E+00  0.00000000000E+00  0.13691060800E+03  0.22333695099E+04  0.22291690948E+04 0.  0.
        4    1    3    3  502    0 -0.15087750958E+03 -0.79561899354E+03 -0.69883600005E+03  0.10696480606E+04  0.12699999809E+01 0.  1.
       -4    1    3    3    0  502  0.15087750958E+03  0.79561899354E+03  0.83574660805E+03  0.11637214493E+04  0.12699999809E+01 0. -1.
</event>
<event>
 5   0  0.4029532E-05  0.2196449E+04  0.7818609E-02  0.8519907E-01
        2   -1    0    0  501    0  0.00000000000E+00  0.00000000000E+00  0.13309338483E+04  0.13309338483E+04  0.25500000920E-02 0. -1.
       -2   -1    0    0    0  501  0.00000000000E+00  0.00000000000E+00 -0.90620388786E+03  0.90620388786E+03  0.25500000920E-02 0.  1.
    10030    2    1    2    0    0  0.00000000000E+00  0.00000000000E+00  0.42472996042E+03  0.22371377361E+04  0.21964493418E+04 0.  0.
        3    1    3    3  502    0 -0.79606880377E+03  0.54328213809E+03  0.74863187620E+03  0.12203813823E+04  0.10100000352E+00 0. -1.
       -3    1    3    3    0  502  0.79606880377E+03 -0.54328213809E+03 -0.32390191578E+03  0.10167563539E+04  0.10100000352E+00 0.  1.
</event>
<event>
 5   0  0.4027923E-05  0.2217077E+04  0.7818609E-02  0.8511354E-01
       -2   -1    0    0    0  501  0.00000000000E+00  0.00000000000E+00  0.63527997744E+03  0.63527997744E+03  0.25500000920E-02 0.  1.
        2   -1    0    0  501    0  0.00000000000E+00  0.00000000000E+00 -0.19343564977E+04  0.19343564977E+04  0.25500000920E-02 0. -1.
    10030    2    1    2    0    0  0.00000000000E+00  0.00000000000E+00 -0.12990765203E+04  0.25696364752E+04  0.22170773124E+04 0.  0.
        5    1    3    3  502    0 -0.23937392170E+03 -0.10476689250E+04 -0.96466764442E+03  0.14441315054E+04  0.46999998093E+01 0. -1.
       -5    1    3    3    0  502  0.23937392170E+03  0.10476689250E+04 -0.33440887588E+03  0.11255049698E+04  0.46999998093E+01 0.  1.
</event>
<event>
 5   0  0.3963414E-05  0.2198896E+04  0.7818609E-02  0.8518888E-01
       -2   -1    0    0    0  501  0.00000000000E+00  0.00000000000E+00  0.17947911222E+04  0.17947911222E+04  0.25500000920E-02 0.  1.
        2   -1    0    0  501    0  0.00000000000E+00  0.00000000000E+00 -0.67349686218E+03  0.67349686218E+03  0.25500000920E-02 0. -1.
    10030    2    1    2    0    0  0.00000000000E+00  0.00000000000E+00  0.11212942600E+04  0.24682879844E+04  0.21988962587E+04 0.  0.
        1    1    3    3  502    0  0.53250835428E+03  0.42958174542E+03 -0.40541834909E+03  0.79527961195E+03  0.50400001928E-02 0. -1.
       -1    1    3    3    0  502 -0.53250835428E+03 -0.42958174542E+03  0.15267126091E+04  0.16730083725E+04  0.50400001928E-02 0.  1.
</event>
<event>
 5   0  0.1866935E-05  0.2211584E+04  0.7818609E-02  0.8513622E-01
       -1   -1    0    0    0  501  0.00000000000E+00  0.00000000000E+00  0.51704710643E+03  0.51704710645E+03  0.50400001928E-02 0. -1.
        1   -1    0    0  501    0  0.00000000000E+00  0.00000000000E+00 -0.23649217379E+04  0.23649217379E+04  0.50400001928E-02 0.  1.
    10030    2    1    2    0    0  0.00000000000E+00  0.00000000000E+00 -0.18478746315E+04  0.28819688443E+04  0.22115839948E+04 0.  0.
        4    1    3    3  502    0 -0.30338844374E+03 -0.73949678908E+03 -0.19196763114E+04  0.20794371359E+04  0.12699999809E+01 0.  1.
       -4    1    3    3    0  502  0.30338844374E+03  0.73949678908E+03  0.71801679943E+02  0.80253170840E+03  0.12699999809E+01 0. -1.
</event>
<event>
 5   0  0.3963414E-05  0.2199980E+04  0.7818609E-02  0.8518437E-01
        2   -1    0    0  501    0  0.00000000000E+00  0.00000000000E+00  0.97769447021E+03  0.97769447021E+03  0.25500000920E-02 0. -1.
       -2   -1    0    0    0  501  0.00000000000E+00  0.00000000000E+00 -0.12375825478E+04  0.12375825478E+04  0.25500000920E-02 0.  1.
    10030    2    1    2    0    0  0.00000000000E+00  0.00000000000E+00 -0.25988807755E+03  0.22152770180E+04  0.21999796484E+04 0.  0.
        1    1    3    3  502    0  0.35457533858E+02  0.85464312692E+03 -0.82634933799E+03  0.11893381939E+04  0.50400001928E-02 0.  1.
       -1    1    3    3    0  502 -0.35457533858E+02 -0.85464312692E+03  0.56646126044E+03  0.10259388241E+04  0.50400001928E-02 0. -1.
</event>
<event>
 5   0  0.1866935E-05  0.2217976E+04  0.7818609E-02  0.8510983E-01
        1   -1    0    0  501    0  0.00000000000E+00  0.00000000000E+00  0.19777362103E+04  0.19777362103E+04  0.50400001928E-02 0.  1.
       -1   -1    0    0    0  501  0.00000000000E+00  0.00000000000E+00 -0.62184960418E+03  0.62184960420E+03  0.50400001928E-02 0. -1.
    10030    2    1    2    0    0  0.00000000000E+00  0.00000000000E+00  0.13558866061E+04  0.25995858145E+04  0.22179760860E+04 0.  0.
        4    1    3    3  502    0 -0.78803170697E+03 -0.59247358014E+03  0.82805754048E+02  0.98938229222E+03  0.12699999809E+01 0. -1.
       -4    1    3    3    0  502  0.78803170697E+03  0.59247358014E+03  0.12730808520E+04  0.16102035223E+04  0.12699999809E+01 0.  1.
</event>
<event>
 5   0  0.4132460E-05  0.2175774E+04  0.7818609E-02  0.8528580E-01
       -2   -1    0    0    0  501  0.00000000000E+00  0.00000000000E+00  0.63093474393E+03  0.63093474394E+03  0.25500000920E-02 0. -1.
        2   -1    0    0  501    0  0.00000000000E+00  0.00000000000E+00 -0.18757855406E+04  0.18757855406E+04  0.25500000920E-02 0.  1.
    10030    2    1    2    0    0  0.00000000000E+00  0.00000000000E+00 -0.12448507967E+04  0.25067202845E+04  0.21757741333E+04 0.  0.
        4    1    3    3  502    0  0.30290852499E+02 -0.26065634895E+03 -0.18387762664E+04  0.18574065357E+04  0.12699999809E+01 0.  1.
       -4    1    3    3    0  502 -0.30290852499E+02  0.26065634895E+03  0.59392546972E+03  0.64931374888E+03  0.12699999809E+01 0. -1.
</event>
<event>
 5   0  0.1788413E-05  0.2207992E+04  0.7818609E-02  0.8515109E-01
        1   -1    0    0  501    0  0.00000000000E+00  0.00000000000E+00  0.95565762248E+03  0.95565762249E+03  0.50400001928E-02 0.  1.
       -1   -1    0    0    0  501  0.00000000000E+00  0.00000000000E+00 -0.12753596738E+04  0.12753596738E+04  0.50400001928E-02 0. -1.
    10030    2    1    2    0    0  0.00000000000E+00  0.00000000000E+00 -0.31970205132E+03  0.22310172963E+04  0.22079920233E+04 0.  0.
        1    1    3    3  502    0  0.77262084741E+03 -0.17249218829E+02  0.63676548130E+03  0.10013544765E+04  0.50400001928E-02 0.  1.
       -1    1    3    3    0  502 -0.77262084741E+03  0.17249218829E+02 -0.95646753262E+03  0.12296628198E+04  0.50400001928E-02 0. -1.
</event>
<event>
 5   0  0.4027923E-05  0.2187007E+04  0.7818609E-02  0.8523856E-01
       -2   -1    0    0    0  501  0.00000000000E+00  0.00000000000E+00  0.12701374331E+04  0.12701374331E+04  0.25500000920E-02 0.  1.
        2   -1    0    0  501    0  0.00000000000E+00  0.00000000000E+00 -0.94143363319E+03  0.94143363319E+03  0.25500000920E-02 0. -1.
    10030    2    1    2    0    0  0.00000000000E+00  0.00000000000E+00  0.32870379990E+03  0.22115710663E+04  0.21870071772E+04 0.  0.
        5    1    3    3  502    0  0.82910733271E+03  0.67779546795E+03  0.38797441308E+03  0.11390223443E+04  0.46999998093E+01 0.  1.
       -5    1    3    3    0  502 -0.82910733271E+03 -0.67779546795E+03 -0.59270613181E+02  0.10725487220E+04  0.46999998093E+01 0. -1.
</event>
<event>
 5   0  0.4027923E-05  0.2198070E+04  0.7818609E-02  0.8519232E-01
        2   -1    0    0  501    0  0.00000000000E+00  0.00000000000E+00  0.16986052703E+04  0.16986052704E+04  0.25500000920E-02 0. -1.
       -2   -1    0    0    0  501  0.00000000000E+00  0.00000000000E+00 -0.71109984912E+03  0.71109984912E+03  0.25500000920E-02 0.  1.
    10030    2    1    2    0    0  0.00000000000E+00  0.00000000000E+00  0.98750542123E+03  0.24097051195E+04  0.21980700184E+04 0.  0.
        5    1    3    3  502    0  0.87392735673E+03 -0.36161712848E+03 -0.11991068723E+03  0.95337119495E+03  0.46999998093E+01 0.  1.
       -5    1    3    3    0  502 -0.87392735673E+03  0.36161712848E+03  0.11074161085E+04  0.14563339245E+04  0.46999998093E+01 0. -1.
</event>
<event>
 5   0  0.4143281E-05  0.2192897E+04  0.7818609E-02  0.8521390E-01
        2   -1    0    0  501    0  0.00000000000E+00  0.00000000000E+00  0.13563679559E+04  0.13563679559E+04  0.25500000920E-02 0. -1.
       -2   -1    0    0    0  501  0.00000000000E+00  0.00000000000E+00 -0.88633695961E+03  0.88633695962E+03  0.25500000920E-02 0.  1.
    10030    2    1    2    0    0  0.00000000000E+00  0.00000000000E+00  0.47003099632E+03  0.22427049155E+04  0.21928967602E+04 0.  0.
        2    1    3    3  502    0 -0.83938252472E+03 -0.27078554824E+03  0.90120257550E+03  0.12609734010E+04  0.25500000920E-02 0. -1.
       -2    1    3    3    0  502  0.83938252472E+03  0.27078554824E+03 -0.43117157918E+03  0.98173151454E+03  0.25500000920E-02 0.  1.
</event>
<event>
 5   0  0.4143281E-05  0.2200480E+04  0.7818609E-02  0.8518229E-01
        2   -1    0    0  501    0  0.00000000000E+00  0.00000000000E+00  0.11256948301E+04  0.11256948301E+04  0.25500000920E-02 0. -1.
       -2   -1    0    0    0  501  0.00000000000E+00  0.00000000000E+00 -0.10753603185E+04  0.10753603185E+04  0.25500000920E-02 0.  1.
    10030    2    1    2    0    0  0.00000000000E+00  0.00000000000E+00  0.50334511662E+02  0.22010551486E+04  0.22004795396E+04 0.  0.
        2    1    3    3  502    0  0.11209644421E+03  0.95187385668E+03 -0.51525001868E+03  0.10881691199E+04  0.25500000920E-02 0.  1.
       -2    1    3    3    0  502 -0.11209644421E+03 -0.95187385668E+03  0.56558453034E+03  0.11128860287E+04  0.25500000920E-02 0. -1.
</event>
<event>
 5   0  0.3963414E-05  0.2195165E+04  0.7818609E-02  0.8520443E-01
        2   -1    0    0  501    0  0.00000000000E+00  0.00000000000E+00  0.14696122010E+04  0.14696122010E+04  0.25500000920E-02 0. -1.
       -2   -1    0    0    0  501  0.00000000000E+00  0.00000000000E+00 -0.81973135672E+03  0.81973135673E+03  0.25500000920E-02 0.  1.
    10030    2    1    2    0    0  0.00000000000E+00  0.00000000000E+00  0.64988084426E+03  0.22893435577E+04  0.21951648716E+04 0.  0.
        1    1    3    3  502    0  0.73938201808E+02 -0.10700053498E+04  0.56798129625E+03  0.12136643108E+04  0.50400001928E-02 0. -1.
       -1    1    3    3    0  502 -0.73938201808E+02  0.10700053498E+04  0.81899548007E+02  0.10756792469E+04  0.50400001928E-02 0.  1.
</event>
<event>
 5   0  0.1884407E-05  0.2139672E+04  0.7818609E-02  0.8543966E-01
       -1   -1    0    0    0  501  0.00000000000E+00  0.00000000000E+00  0.59473728936E+03  0.59473728938E+03  0.50400001928E-02 0.  1.
        1   -1    0    0  501    0  0.00000000000E+00  0.00000000000E+00 -0.19244608556E+04  0.19244608556E+04  0.50400001928E-02 0. -1.
    10030    2    1    2    0    0  0.00000000000E+00  0.00000000000E+00 -0.13297235662E+04  0.25191981450E+04  0.21396715942E+04 0.  0.
        3    1    3    3  502    0 -0.80266763175E+03 -0.41683589808E+03  0.79147767356E+01  0.90448335909E+03  0.10100000352E+00 0. -1.
       -3    1    3    3    0  502  0.80266763175E+03  0.41683589808E+03 -0.13376383430E+04  0.16147147859E+04  0.10100000352E+00 0.  1.
</event>
<event>
 5   0  0.1884407E-05  0.2183451E+04  0.7818609E-02  0.8525348E-01
       -1   -1    0    0    0  501  0.00000000000E+00  0.00000000000E+00  0.92441856950E+03  0.92441856951E+03  0.50400001928E-02 0. -1.
        1   -1    0    0  501    0  0.00000000000E+00  0.00000000000E+00 -0.12893131460E+04  0.12893131460E+04  0.50400001928E-02 0.  1.
    10030    2    1    2    0    0  0.00000000000E+00  0.00000000000E+00 -0.36489457649E+03  0.22137317155E+04  0.21834514092E+04 0.  0.
        3    1    3    3  502    0  0.10571520512E+03 -0.60497359220E+03  0.73267538319E+03  0.95602404739E+03  0.10100000352E+00 0. -1.
       -3    1    3    3    0  502 -0.10571520512E+03  0.60497359220E+03 -0.10975699597E+04  0.12577076681E+04  0.10100000352E+00 0.  1.
</event>
<event>
 5   0  0.1433375E-05  0.2206668E+04  0.7818609E-02  0.8515658E-01
       -3   -1    0    0    0  501  0.00000000000E+00  0.00000000000E+00  0.21705891654E+04  0.21705891677E+04  0.10100000352E+00 0. -1.
        3   -1    0    0  501    0  0.00000000000E+00  0.00000000000E+00 -0.56083646109E+03  0.56083647019E+03  0.10100000352E+00 0.  1.
    10030    2    1    2    0    0  0.00000000000E+00  0.00000000000E+00  0.16097527043E+04  0.27314256379E+04  0.22066676792E+04 0.  0.
        5    1    3    3  502    0 -0.38246812131E+03  0.79241930689E+01 -0.47610523600E+03  0.61077241457E+03  0.46999998093E+01 0.  1.
       -5    1    3    3    0  502  0.38246812131E+03 -0.79241930689E+01  0.20858579403E+04  0.21206532233E+04  0.46999998093E+01 0. -1.
</event>
<event>
 5   0  0.4029532E-05  0.2220221E+04  0.7818609E-02  0.8510059E-01
        2   -1    0    0  501    0  0.00000000000E+00  0.00000000000E+00  0.17506782170E+04  0.17506782170E+04  0.25500000920E-02 0. -1.
       -2   -1    0    0    0  501  0.00000000000E+00  0.00000000000E+00 -0.70392457856E+03  0.70392457857E+03  0.25500000920E-02 0.  1.
    10030    2    1    2    0    0  0.00000000000E+00  0.00000000000E+00  0.10467536385E+04  0.24546027956E+04  0.22202210936E+04 0.  0.
        3    1    3    3  502    0 -0.64044400199E+02 -0.43057641736E+03  0.16523807127E+04  0.17087597158E+04  0.10100000352E+00 0. -1.
       -3    1    3    3    0  502  0.64044400199E+02  0.43057641736E+03 -0.60562707427E+03  0.74584307979E+03  0.10100000352E+00 0.  1.
</event>
<event>
 5   0  0.1788413E-05  0.2193526E+04  0.7818609E-02  0.8521127E-01
        1   -1    0    0  501    0  0.00000000000E+00  0.00000000000E+00  0.98711418865E+03  0.98711418866E+03  0.50400001928E-02 0. -1.
       -1   -1    0    0    0  501  0.00000000000E+00  0.00000000000E+00 -0.12185918344E+04  0.12185918344E+04  0.50400001928E-02 0.  1.
    10030    2    1    2    0    0  0.00000000000E+00  0.00000000000E+00 -0.23147764574E+03  0.22057060231E+04  0.21935261931E+04 0.  0.
        1    1    3    3  502    0 -0.56187499872E+03  0.16308595571E+03 -0.10485691046E+04  0.12007488123E+04  0.50400001928E-02 0.  1.
       -1    1    3    3    0  502  0.56187499872E+03 -0.16308595571E+03  0.81709145889E+03  0.10049572107E+04  0.50400001928E-02 0. -1.
</event>
<event>
 5   0  0.4143281E-05  0.2211502E+04  0.7818609E-02  0.8513656E-01
        2   -1    0    0  501    0  0.00000000000E+00  0.00000000000E+00  0.17723743732E+04  0.17723743732E+04  0.25500000920E-02 0. -1.
       -2   -1    0    0    0  501  0.00000000000E+00  0.00000000000E+00 -0.68985710295E+03  0.68985710295E+03  0.25500000920E-02 0.  1.
    10030    2    1    2    0    0  0.00000000000E+00  0.00000000000E+00  0.10825172702E+04  0.24622314761E+04  0.22115017978E+04 0.  0.
        2    1    3    3  502    0 -0.10844833853E+04  0.76465111472E+02  0.76596724192E+03  0.13299086217E+04  0.25500000920E-02 0. -1.
       -2    1    3    3    0  502  0.10844833853E+04 -0.76465111472E+02  0.31655002828E+03  0.11323228544E+04  0.25500000920E-02 0.  1.
</event>
<event>
 5   0  0.1866935E-05  0.2196557E+04  0.7818609E-02  0.8519862E-01
        1   -1    0    0  501    0  0.00000000000E+00  0.00000000000E+00  0.25427657045E+04  0.25427657045E+04  0.50400001928E-02 0. -1.
       -1   -1    0    0    0  501  0.00000000000E+00  0.00000000000E+00 -0.47437158855E+03  0.47437158858E+03  0.50400001928E-02 0.  1.
    10030    2    1    2    0    0  0.00000000000E+00  0.00000000000E+00  0.20683941160E+04  0.30171372931E+04  0.21965571303E+04 0.  0.
        4    1    3    3  502    0 -0.68546426034E+03 -0.66664141446E+01 -0.14444647266E+03  0.70055127553E+03  0.12699999809E+01 0.  1.
       -4    1    3    3    0  502  0.68546426034E+03  0.66664141446E+01  0.22128405886E+04  0.23165860176E+04  0.12699999809E+01 0. -1.
</event>
<event>
 5   0  0.1788413E-05  0.2207938E+04  0.7818609E-02  0.8515131E-01
        1   -1    0    0  501    0  0.00000000000E+00  0.00000000000E+00  0.17378969020E+04  0.17378969020E+04  0.50400001928E-02 0.  1.
       -1   -1    0    0    0  501  0.00000000000E+00  0.00000000000E+00 -0.70127752702E+03  0.70127752703E+03  0.50400001928E-02 0. -1.
    10030    2    1    2    0    0  0.00000000000E+00  0.00000000000E+00  0.10366193749E+04  0.24391744290E+04  0.22079384427E+04 0.  0.
        1    1    3    3  502    0  0.97160153516E+03  0.40758340615E+03  0.15422758347E+03  0.10648567620E+04  0.50400001928E-02 0. -1.
       -1    1    3    3    0  502 -0.97160153516E+03 -0.40758340615E+03  0.88239179147E+03  0.13743176670E+04  0.50400001928E-02 0.  1.
</event>
<event>
 5   0  0.1815681E-05  0.2221087E+04  0.7818609E-02  0.8509702E-01
        1   -1    0    0  501    0  0.00000000000E+00  0.00000000000E+00  0.12002003719E+04  0.12002003719E+04  0.50400001928E-02 0.  1.
       -1   -1    0    0    0  501  0.00000000000E+00  0.00000000000E+00 -0.10275843096E+04  0.10275843096E+04  0.50400001928E-02 0. -1.
    10030    2    1    2    0    0  0.00000000000E+00  0.00000000000E+00  0.17261606231E+03  0.22277846815E+04  0.22210871847E+04 0.  0.
        2    1    3    3  502    0 -0.51105778084E+03  0.95275929205E+03 -0.16818278788E+03  0.10941735576E+04  0.25500000920E-02 0.  1.
       -2    1    3    3    0  502  0.51105778084E+03 -0.95275929205E+03  0.34079885019E+03  0.11336111239E+04  0.25500000920E-02 0. -1.
</event>
<event>
 5   0  0.1884407E-05  0.2188996E+04  0.7818609E-02  0.8523022E-01
       -1   -1    0    0    0  501  0.00000000000E+00  0.00000000000E+00  0.15197043317E+04  0.15197043317E+04  0.50400001928E-02 0.  1.
        1   -1    0    0  501    0  0.00000000000E+00  0.00000000000E+00 -0.78826247838E+03  0.78826247840E+03  0.50400001928E-02 0. -1.
    10030    2    1    2    0    0  0.00000000000E+00  0.00000000000E+00  0.73144185329E+03  0.23079668101E+04  0.21889960282E+04 0.  0.
        3    1    3    3  502    0  0.36088704384E+03 -0.81020714131E+02 -0.72037268930E+03  0.80977814012E+03  0.10100000352E+00 0. -1.
       -3    1    3    3    0  502 -0.36088704384E+03  0.81020714131E+02  0.14518145426E+04  0.14981886700E+04  0.10100000352E+00 0.  1.
</event>
<event>
 5   0  0.4132460E-05  0.2299576E+04  0.7818609E-02  0.8478088E-01
       -2   -1    0    0    0  501  0.00000000000E+00  0.00000000000E+00  0.67865054582E+03  0.67865054583E+03  0.25500000920E-02 0.  1.
        2   -1    0    0  501    0  0.00000000000E+00  0.00000000000E+00 -0.19480013210E+04  0.19480013210E+04  0.25500000920E-02 0. -1.
    10030    2    1    2    0    0  0.00000000000E+00  0.00000000000E+00 -0.12693507752E+04  0.26266518669E+04  0.22995757520E+04 0.  0.
        4    1    3    3  502    0 -0.67200083062E+03  0.45407116316E+01  0.43097669246E+03  0.79834094018E+03  0.12699999809E+01 0.  1.
       -4    1    3    3    0  502  0.67200083062E+03 -0.45407116316E+01 -0.17003274677E+04  0.18283109267E+04  0.12699999809E+01 0. -1.
</event>
<event>
 5   0  0.4132460E-05  0.2110734E+04  0.7818609E-02  0.8556530E-01
        2   -1    0    0  501    0  0.00000000000E+00  0.00000000000E+00  0.20542641976E+04  0.20542641976E+04  0.25500000920E-02 0.  1.
       -2   -1    0    0    0  501  0.00000000000E+00  0.00000000000E+00 -0.54218905846E+03  0.54218905847E+03  0.25500000920E-02 0. -1.
    10030    2    1    2    0    0  0.00000000000E+00  0.00000000000E+00  0.15120751391E+04  0.25964532561E+04  0.21107340630E+04 0.  0.
        4    1    3    3  502    0 -0.86764712702E+03  0.38882901171E+03  0.19259702251E+03  0.97010038829E+03  0.12699999809E+01 0. -1.
       -4    1    3    3    0  502  0.86764712702E+03 -0.38882901171E+03  0.13194781166E+04  0.16263528678E+04  0.12699999809E+01 0.  1.
</event>
<event>
 5   0  0.1815681E-05  0.2253227E+04  0.7818609E-02  0.8496595E-01
        1   -1    0    0  501    0  0.00000000000E+00  0.00000000000E+00  0.18669395921E+04  0.18669395921E+04  0.50400001928E-02 0. -1.
       -1   -1    0    0    0  501  0.00000000000E+00  0.00000000000E+00 -0.67986005419E+03  0.67986005421E+03  0.50400001928E-02 0.  1.
    10030    2    1    2    0    0  0.00000000000E+00  0.00000000000E+00  0.11870795379E+04  0.25467996463E+04  0.22532267106E+04 0.  0.
        2    1    3    3  502    0  0.72979826235E+02 -0.10094018095E+04  0.34029562192E+02  0.10126085518E+04  0.25500000920E-02 0.  1.
       -2    1    3    3    0  502 -0.72979826235E+02  0.10094018095E+04  0.11530499757E+04  0.15341910945E+04  0.25500000920E-02 0. -1.
</event>
<event>
 5   0  0.4132460E-05  0.2180014E+04  0.7818609E-02  0.8526793E-01
       -2   -1    0    0    0  501  0.00000000000E+00  0.00000000000E+00  0.75895792875E+03  0.75895792876E+03  0.25500000920E-02 0.  1.
        2   -1    0    0  501    0  0.00000000000E+00  0.00000000000E+00 -0.15654561697E+04  0.15654561697E+04  0.25500000920E-02 0. -1.
    10030    2    1    2    0    0  0.00000000000E+00  0.00000000000E+00 -0.80649824099E+03  0.23244140985E+04  0.21800141028E+04 0.  0.
        4    1    3    3  502    0 -0.47410625812E+03 -0.29948021717E+03 -0.13998530475E+04  0.15079971194E+04  0.12699999809E+01 0. -1.
       -4    1    3    3    0  502  0.47410625812E+03  0.29948021717E+03  0.59335480654E+03  0.81641697913E+03  0.12699999809E+01 0.  1.
</event>
<event>
 5   0  0.3963414E-05  0.2210411E+04  0.7818609E-02  0.8514107E-01
       -2   -1    0    0    0  501  0.00000000000E+00  0.00000000000E+00  0.85596358153E+03  0.85596358153E+03  0.25500000920E-02 0.  1.
        2   -1    0    0  501    0  0.00000000000E+00  0.00000000000E+00 -0.14270218883E+04  0.14270218883E+04  0.25500000920E-02 0. -1.
    10030    2    1    2    0    0  0.00000000000E+00  0.00000000000E+00 -0.57105830675E+03  0.22829854698E+04  0.22104106102E+04 0.  0.
        1    1    3    3  502    0 -0.58386731747E+03  0.31321817710E+03  0.62808878937E+03  0.91296341560E+03  0.50400001928E-02 0.  1.
       -1    1    3    3    0  502  0.58386731747E+03 -0.31321817710E+03 -0.11991470961E+04  0.13700220542E+04  0.50400001928E-02 0. -1.
</event>
<event>
 5   0  0.4132460E-05  0.2192006E+04  0.7818609E-02  0.8521763E-01
       -2   -1    0    0    0  501  0.00000000000E+00  0.00000000000E+00  0.62493718618E+03  0.62493718618E+03  0.25500000920E-02 0.  1.
        2   -1    0    0  501    0  0.00000000000E+00  0.00000000000E+00 -0.19221499875E+04  0.19221499875E+04  0.25500000920E-02 0. -1.
    10030    2    1    2    0    0  0.00000000000E+00  0.00000000000E+00 -0.12972128013E+04  0.25470871737E+04  0.21920063911E+04 0.  0.
        4    1    3    3  502    0 -0.48535303972E+03 -0.80972371866E+03 -0.16369666602E+01  0.94404680302E+03  0.12699999809E+01 0.  1.
       -4    1    3    3    0  502  0.48535303972E+03  0.80972371866E+03 -0.12955758347E+04  0.16030403707E+04  0.12699999809E+01 0. -1.
</event>
<event>
 5   0  0.1884407E-05  0.2195513E+04  0.7818609E-02  0.8520298E-01
        1   -1    0    0  501    0  0.00000000000E+00  0.00000000000E+00  0.12669907345E+04  0.12669907345E+04  0.50400001928E-02 0. -1.
       -1   -1    0    0    0  501  0.00000000000E+00  0.00000000000E+00 -0.95112710048E+03  0.95112710049E+03  0.50400001928E-02 0.  1.
    10030    2    1    2    0    0  0.00000000000E+00  0.00000000000E+00  0.31586363404E+03  0.22181178350E+04  0.21955129002E+04 0.  0.
        3    1    3    3  502    0 -0.28123016558E+03  0.85040430584E+03 -0.48326103814E+03  0.10177519986E+04  0.10100000352E+00 0.  1.
       -3    1    3    3    0  502  0.28123016558E+03 -0.85040430584E+03  0.79912467218E+03  0.12003658364E+04  0.10100000352E+00 0. -1.
</event>
<event>
 5   0  0.4027923E-05  0.2216148E+04  0.7818609E-02  0.8511737E-01
       -2   -1    0    0    0  501  0.00000000000E+00  0.00000000000E+00  0.12292786442E+04  0.12292786442E+04  0.25500000920E-02 0. -1.
        2   -1    0    0  501    0  0.00000000000E+00  0.00000000000E+00 -0.99881981169E+03  0.99881981169E+03  0.25500000920E-02 0.  1.
    10030    2    1    2    0    0  0.00000000000E+00  0.00000000000E+00  0.23045883248E+03  0.22280984559E+04  0.22161478867E+04 0.  0.
        5    1    3    3  502    0  0.96828932602E+03 -0.53583196458E+03  0.17125838718E+03  0.11198444706E+04  0.46999998093E+01 0. -1.
       -5    1    3    3    0  502 -0.96828932602E+03  0.53583196458E+03  0.59200445304E+02  0.11082539853E+04  0.46999998093E+01 0.  1.
</event>
<event>
 5   0  0.1786228E-05  0.2201922E+04  0.7818609E-02  0.8517629E-01
        1   -1    0    0  501    0  0.00000000000E+00  0.00000000000E+00  0.13642830314E+04  0.13642830315E+04  0.50400001928E-02 0.  1.
       -1   -1    0    0    0  501  0.00000000000E+00  0.00000000000E+00 -0.88846285317E+03  0.88846285319E+03  0.50400001928E-02 0. -1.
    10030    2    1    2    0    0  0.00000000000E+00  0.00000000000E+00  0.47582017827E+03  0.22527458846E+04  0.22019217013E+04 0.  0.
        5    1    3    3  502    0 -0.34352038113E+03  0.24607482747E+03  0.12780042062E+04  0.13460594021E+04  0.46999998093E+01 0.  1.
       -5    1    3    3    0  502  0.34352038113E+03 -0.24607482747E+03 -0.80218402792E+03  0.90668648253E+03  0.46999998093E+01 0. -1.
</event>
<event>
 5   0  0.1884407E-05  0.2207075E+04  0.7818609E-02  0.8515489E-01
       -1   -1    0    0    0  501  0.00000000000E+00  0.00000000000E+00  0.69073906301E+03  0.69073906303E+03  0.50400001928E-02 0.  1.
        1   -1    0    0  501    0  0.00000000000E+00  0.00000000000E+00 -0.17630312710E+04  0.17630312710E+04  0.50400001928E-02 0. -1.
    10030    2    1    2    0    0  0.00000000000E+00  0.00000000000E+00 -0.10722922080E+04  0.24537703341E+04  0.22070745962E+04 0.  0.
        3    1    3    3  502    0  0.68864241742E+03  0.73055667924E+03 -0.10454472016E+04  0.14494486201E+04  0.10100000352E+00 0.  1.
       -3    1    3    3    0  502 -0.68864241742E+03 -0.73055667924E+03 -0.26845006403E+02  0.10043217140E+04  0.10100000352E+00 0. -1.
</event>
<event>
 5   0  0.4029532E-05  0.2199762E+04  0.7818609E-02  0.8518527E-01
        2   -1    0    0  501    0  0.00000000000E+00  0.00000000000E+00  0.99249553352E+03  0.99249553352E+03  0.25500000920E-02 0.  1.
       -2   -1    0    0    0  501  0.00000000000E+00  0.00000000000E+00 -0.12188855325E+04  0.12188855325E+04  0.25500000920E-02 0. -1.
    10030    2    1    2    0    0  0.00000000000E+00  0.00000000000E+00 -0.22638999901E+03  0.22113810660E+04  0.21997622116E+04 0.  0.
        3    1    3    3  502    0  0.51909112630E+02 -0.93945838765E+03 -0.68581913426E+03  0.11643128932E+04  0.10100000352E+00 0. -1.
       -3    1    3    3    0  502 -0.51909112630E+02  0.93945838765E+03  0.45942913526E+03  0.10470681729E+04  0.10100000352E+00 0.  1.
</event>
<event>
 5   0  0.1788413E-05  0.2243778E+04  0.7818609E-02  0.8500424E-01
        1   -1    0    0  501    0  0.00000000000E+00  0.00000000000E+00  0.75990991113E+03  0.75990991115E+03  0.50400001928E-02 0.  1.
       -1   -1    0    0    0  501  0.00000000000E+00  0.00000000000E+00 -0.16562955555E+04  0.16562955555E+04  0.50400001928E-02 0. -1.
    10030    2    1    2    0    0  0.00000000000E+00  0.00000000000E+00 -0.89638564437E+03  0.24162054667E+04  0.22437784279E+04 0.  0.
        1    1    3    3  502    0 -0.82537132266E+03 -0.17797632933E+03  0.34730616491E+03  0.91298136141E+03  0.50400001928E-02 0.  1.
       -1    1    3    3    0  502  0.82537132266E+03  0.17797632933E+03 -0.12436918093E+04  0.15032241052E+04  0.50400001928E-02 0. -1.
</event>
<event>
 5   0  0.1866935E-05  0.2215456E+04  0.7818609E-02  0.8512022E-01
       -1   -1    0    0    0  501  0.00000000000E+00  0.00000000000E+00  0.10530715586E+04  0.10530715586E+04  0.50400001928E-02 0. -1.
        1   -1    0    0  501    0  0.00000000000E+00  0.00000000000E+00 -0.11652216967E+04  0.11652216967E+04  0.50400001928E-02 0.  1.
    10030    2    1    2    0    0  0.00000000000E+00  0.00000000000E+00 -0.11215013808E+03  0.22182932553E+04  0.22154564571E+04 0.  0.
        4    1    3    3  502    0 -0.16324446199E+03  0.63943559277E+03 -0.94689600056E+03  0.11541838157E+04  0.12699999809E+01 0.  1.
       -4    1    3    3    0  502  0.16324446199E+03 -0.63943559277E+03  0.83474586248E+03  0.10641094396E+04  0.12699999809E+01 0. -1.
</event>
<event>
 5   0  0.1786228E-05  0.2178142E+04  0.7818609E-02  0.8527581E-01
       -1   -1    0    0    0  501  0.00000000000E+00  0.00000000000E+00  0.98605791329E+03  0.98605791330E+03  0.50400001928E-02 0.  1.
        1   -1    0    0  501    0  0.00000000000E+00  0.00000000000E+00 -0.12028455457E+04  0.12028455457E+04  0.50400001928E-02 0. -1.
    10030    2    1    2    0    0  0.00000000000E+00  0.00000000000E+00 -0.21678763238E+03  0.21889034590E+04  0.21781417482E+04 0.  0.
        5    1    3    3  502    0 -0.55925057671E+03  0.61817783737E+03 -0.81267609563E+03  0.11642034069E+04  0.46999998093E+01 0. -1.
       -5    1    3    3    0  502  0.55925057671E+03 -0.61817783737E+03  0.59588846325E+03  0.10247000521E+04  0.46999998093E+01 0.  1.
</event>
<event>
 5   0  0.1866935E-05  0.2148158E+04  0.7818609E-02  0.8540321E-01
       -1   -1    0    0    0  501  0.00000000000E+00  0.00000000000E+00  0.90496532425E+03  0.90496532427E+03  0.50400001928E-02 0.  1.
        1   -1    0    0  501    0  0.00000000000E+00  0.00000000000E+00 -0.12747953313E+04  0.12747953313E+04  0.50400001928E-02 0. -1.
    10030    2    1    2    0    0  0.00000000000E+00  0.00000000000E+00 -0.36983000707E+03  0.21797606556E+04  0.21481578810E+04 0.  0.
        4    1    3    3  502    0 -0.49025060837E+03  0.41635299054E+03  0.68794251097E+03  0.94178659103E+03  0.12699999809E+01 0.  1.
       -4    1    3    3    0  502  0.49025060837E+03 -0.41635299054E+03 -0.10577725180E+04  0.12379740646E+04  0.12699999809E+01 0. -1.
</event>
<event>
 5   0  0.1788413E-05  0.2210784E+04  0.7818609E-02  0.8513953E-01
       -1   -1    0    0    0  501  0.00000000000E+00  0.00000000000E+00  0.10938800453E+04  0.10938800453E+04  0.50400001928E-02 0.  1.
        1   -1    0    0  501    0  0.00000000000E+00  0.00000000000E+00 -0.11170246639E+04  0.11170246639E+04  0.50400001928E-02 0. -1.
    10030    2    1    2    0    0  0.00000000000E+00  0.00000000000E+00 -0.23144618581E+02  0.22109047093E+04  0.22107835625E+04 0.  0.
        1    1    3    3  502    0 -0.31678236988E+03 -0.10515679073E+04  0.11391307687E+03  0.11041387243E+04  0.50400001928E-02 0.  1.
       -1    1    3    3    0  502  0.31678236988E+03  0.10515679073E+04 -0.13705769546E+03  0.11067659849E+04  0.50400001928E-02 0. -1.
</event>
<event>
 5   0  0.4132460E-05  0.2189455E+04  0.7818609E-02  0.8522830E-01
       -2   -1    0    0    0  501  0.00000000000E+00  0.00000000000E+00  0.19518136798E+04  0.19518136798E+04  0.25500000920E-02 0.  1.
        2   -1    0    0  501    0  0.00000000000E+00  0.00000000000E+00 -0.61400736768E+03  0.61400736769E+03  0.25500000920E-02 0. -1.
    10030    2    1    2    0    0  0.00000000000E+00  0.00000000000E+00  0.13378063121E+04  0.25658210475E+04  0.21894547081E+04 0.  0.
        4    1    3    3  502    0 -0.33739733094E+03  0.51077956610E+03 -0.39468441789E+03  0.72836126112E+03  0.12699999809E+01 0. -1.
       -4    1    3    3    0  502  0.33739733094E+03 -0.51077956610E+03  0.17324907300E+04  0.18374597864E+04  0.12699999809E+01 0.  1.
</event>
<event>
 5   0  0.1866935E-05  0.2209814E+04  0.7818609E-02  0.8514354E-01
        1   -1    0    0  501    0  0.00000000000E+00  0.00000000000E+00  0.21937353648E+04  0.21937353648E+04  0.50400001928E-02 0.  1.
       -1   -1    0    0    0  501  0.00000000000E+00  0.00000000000E+00 -0.55650250849E+03  0.55650250852E+03  0.50400001928E-02 0. -1.
    10030    2    1    2    0    0  0.00000000000E+00  0.00000000000E+00  0.16372328563E+04  0.27502378733E+04  0.22098137782E+04 0.  0.
        4    1    3    3  502    0  0.57030759879E+03  0.15111244957E+03  0.19812825135E+04  0.20672609271E+04  0.12699999809E+01 0.  1.
       -4    1    3    3    0  502 -0.57030759879E+03 -0.15111244957E+03 -0.34404965712E+03  0.68297694626E+03  0.12699999809E+01 0. -1.
</event>
<event>
 5   0  0.1788413E-05  0.2190365E+04  0.7818609E-02  0.8522449E-01
        1   -1    0    0  501    0  0.00000000000E+00  0.00000000000E+00  0.10101140654E+04  0.10101140654E+04  0.50400001928E-02 0.  1.
       -1   -1    0    0    0  501  0.00000000000E+00  0.00000000000E+00 -0.11874156127E+04  0.11874156127E+04  0.50400001928E-02 0. -1.
    10030    2    1    2    0    0  0.00000000000E+00  0.00000000000E+00 -0.17730154730E+03  0.21975296780E+04  0.21903654597E+04 0.  0.
        1    1    3    3  502    0 -0.53116059601E+03 -0.29524428662E+03  0.82544093127E+03  0.10250139016E+04  0.50400001928E-02 0.  1.
       -1    1    3    3    0  502  0.53116059601E+03  0.29524428662E+03 -0.10027424786E+04  0.11725157764E+04  0.50400001928E-02 0. -1.
</event>
<event>
 5   0  0.1884407E-05  0.2205086E+04  0.7818609E-02  0.8516314E-01
        1   -1    0    0  501    0  0.00000000000E+00  0.00000000000E+00  0.18055670194E+04  0.18055670194E+04  0.50400001928E-02 0.  1.
       -1   -1    0    0    0  501  0.00000000000E+00  0.00000000000E+00 -0.67325144351E+03  0.67325144353E+03  0.50400001928E-02 0. -1.
    10030    2    1    2    0    0  0.00000000000E+00  0.00000000000E+00  0.11323155759E+04  0.24788184629E+04  0.22050855785E+04 0.  0.
        3    1    3    3  502    0  0.42622615803E+03  0.57268956717E+03 -0.37835722070E+03  0.80795808975E+03  0.10100000352E+00 0.  1.
       -3    1    3    3    0  502 -0.42622615803E+03 -0.57268956717E+03  0.15106727966E+04  0.16708603732E+04  0.10100000352E+00 0. -1.
</event>
<event>
 5   0  0.1884407E-05  0.2200067E+04  0.7818609E-02  0.8518400E-01
        1   -1    0    0  501    0  0.00000000000E+00  0.00000000000E+00  0.16624386735E+04  0.16624386735E+04  0.50400001928E-02 0. -1.
       -1   -1    0    0    0  501  0.00000000000E+00  0.00000000000E+00 -0.72789088904E+03  0.72789088905E+03  0.50400001928E-02 0.  1.
    10030    2    1    2    0    0  0.00000000000E+00  0.00000000000E+00  0.93454778442E+03  0.23903295625E+04  0.22000672390E+04 0.  0.
        3    1    3    3  502    0 -0.56924735123E+03 -0.18535818300E+01  0.14899675080E+04  0.15950075761E+04  0.10100000352E+00 0. -1.
       -3    1    3    3    0  502  0.56924735123E+03  0.18535818300E+01 -0.55541972355E+03  0.79532198647E+03  0.10100000352E+00 0.  1.
</event>
<event>
 5   0  0.4132460E-05  0.2189568E+04  0.7818609E-02  0.8522783E-01
       -2   -1    0    0    0  501  0.00000000000E+00  0.00000000000E+00  0.78636668179E+03  0.78636668180E+03  0.25500000920E-02 0.  1.
        2   -1    0    0  501    0  0.00000000000E+00  0.00000000000E+00 -0.15241637488E+04  0.15241637488E+04  0.25500000920E-02 0. -1.
    10030    2    1    2    0    0  0.00000000000E+00  0.00000000000E+00 -0.73779706696E+03  0.23105304306E+04  0.21895676191E+04 0.  0.
        4    1    3    3  502    0  0.10215042748E+04 -0.38069562302E+03 -0.47521066933E+03  0.11892127370E+04  0.12699999809E+01 0. -1.
       -4    1    3    3    0  502 -0.10215042748E+04  0.38069562302E+03 -0.26258639762E+03  0.11213176935E+04  0.12699999809E+01 0.  1.
</event>
<event>
 5   0  0.1815681E-05  0.2200882E+04  0.7818609E-02  0.8518061E-01
        1   -1    0    0  501    0  0.00000000000E+00  0.00000000000E+00  0.21098395744E+04  0.21098395744E+04  0.50400001928E-02 0.  1.
       -1   -1    0    0    0  501  0.00000000000E+00  0.00000000000E+00 -0.57396331574E+03  0.57396331577E+03  0.50400001928E-02 0. -1.
    10030    2    1    2    0    0  0.00000000000E+00  0.00000000000E+00  0.15358762587E+04  0.26838028902E+04  0.22008821121E+04 0.  0.
        2    1    3    3  502    0 -0.11907519431E+03  0.82235517163E+03  0.16477180440E+04  0.18453784659E+04  0.25500000920E-02 0.  1.
       -2    1    3    3    0  502  0.11907519431E+03 -0.82235517163E+03 -0.11184178528E+03  0.83842442424E+03  0.25500000920E-02 0. -1.
</event>
<event>
 5   0  0.1866935E-05  0.2187089E+04  0.7818609E-02  0.8523821E-01
        1   -1    0    0  501    0  0.00000000000E+00  0.00000000000E+00  0.15753113987E+04  0.15753113987E+04  0.50400001928E-02 0.  1.
       -1   -1    0    0    0  501  0.00000000000E+00  0.00000000000E+00 -0.75911311830E+03  0.75911311832E+03  0.50400001928E-02 0. -1.
    10030    2    1    2    0    0  0.00000000000E+00  0.00000000000E+00  0.81619828043E+03  0.23344245171E+04  0.21870889769E+04 0.  0.
        4    1    3    3  502    0 -0.91376982805E+03 -0.53090482962E+03  0.10809009624E+03  0.10623183697E+04  0.12699999809E+01 0. -1.
       -4    1    3    3    0  502  0.91376982805E+03  0.53090482962E+03  0.70810818419E+03  0.12721061474E+04  0.12699999809E+01 0.  1.
</event>
<event>
 5   0  0.4132460E-05  0.2195805E+04  0.7818609E-02  0.8520176E-01
        2   -1    0    0  501    0  0.00000000000E+00  0.00000000000E+00  0.18263400978E+04  0.18263400978E+04  0.25500000920E-02 0.  1.
       -2   -1    0    0    0  501  0.00000000000E+00  0.00000000000E+00 -0.66000324278E+03  0.66000324278E+03  0.25500000920E-02 0. -1.
    10030    2    1    2    0    0  0.00000000000E+00  0.00000000000E+00  0.11663368551E+04  0.24863433406E+04  0.21958054440E+04 0.  0.
        4    1    3    3  502    0 -0.65091455435E+03 -0.86494861600E+03  0.37572626134E+03  0.11458611180E+04  0.12699999809E+01 0. -1.
       -4    1    3    3    0  502  0.65091455435E+03  0.86494861600E+03  0.79061059372E+03  0.13404822226E+04  0.12699999809E+01 0.  1.
</event>
<event>
 5   0  0.4027923E-05  0.2181435E+04  0.7818609E-02  0.8526195E-01
       -2   -1    0    0    0  501  0.00000000000E+00  0.00000000000E+00  0.10283869700E+04  0.10283869700E+04  0.25500000920E-02 0.  1.
        2   -1    0    0  501    0  0.00000000000E+00  0.00000000000E+00 -0.11568255884E+04  0.11568255884E+04  0.25500000920E-02 0. -1.
    10030    2    1    2    0    0  0.00000000000E+00  0.00000000000E+00 -0.12843861832E+03  0.21852125584E+04  0.21814347221E+04 0.  0.
        5    1    3    3  502    0 -0.42724863482E+03  0.81087675291E+03  0.52805733997E+03  0.10577944737E+04  0.46999998093E+01 0. -1.
       -5    1    3    3    0  502  0.42724863482E+03 -0.81087675291E+03 -0.65649595830E+03  0.11274180847E+04  0.46999998093E+01 0.  1.
</event>
<event>
 5   0  0.1866935E-05  0.2221526E+04  0.7818609E-02  0.8509522E-01
        1   -1    0    0  501    0  0.00000000000E+00  0.00000000000E+00  0.80250422778E+03  0.80250422780E+03  0.50400001928E-02 0.  1.
       -1   -1    0    0    0  501  0.00000000000E+00  0.00000000000E+00 -0.15374306735E+04  0.15374306735E+04  0.50400001928E-02 0. -1.
    10030    2    1    2    0    0  0.00000000000E+00  0.00000000000E+00 -0.73492644567E+03  0.23399349013E+04  0.22215261560E+04 0.  0.
        4    1    3    3  502    0  0.79936446318E+03 -0.63407514760E+03  0.94980336884E+02  0.10247232383E+04  0.12699999809E+01 0.  1.
       -4    1    3    3    0  502 -0.79936446318E+03  0.63407514760E+03 -0.82990678256E+03  0.13152116630E+04  0.12699999809E+01 0. -1.
</event>
<event>
 5   0  0.4132460E-05  0.2206840E+04  0.7818609E-02  0.8515587E-01
       -2   -1    0    0    0  501  0.00000000000E+00  0.00000000000E+00  0.64723171325E+03  0.64723171325E+03  0.25500000920E-02 0. -1.
        2   -1    0    0  501    0  0.00000000000E+00  0.00000000000E+00 -0.18811435105E+04  0.18811435105E+04  0.25500000920E-02 0.  1.
    10030    2    1    2    0    0  0.00000000000E+00  0.00000000000E+00 -0.12339117972E+04  0.25283752237E+04  0.22068400369E+04 0.  0.
        4    1    3    3  502    0  0.24250508428E+03  0.10615387587E+04 -0.41245298465E+03  0.11643849577E+04  0.12699999809E+01 0. -1.
       -4    1    3    3    0  502 -0.24250508428E+03 -0.10615387587E+04 -0.82145881256E+03  0.13639902660E+04  0.12699999809E+01 0.  1.
</event>
<event>
 5   0  0.4029532E-05  0.2213609E+04  0.7818609E-02  0.8512785E-01
       -2   -1    0    0    0  501  0.00000000000E+00  0.00000000000E+00  0.76789209514E+03  0.76789209514E+03  0.25500000920E-02 0.  1.
        2   -1    0    0  501    0  0.00000000000E+00  0.00000000000E+00 -0.15952969560E+04  0.15952969560E+04  0.25500000920E-02 0. -1.
    10030    2    1    2    0    0  0.00000000000E+00  0.00000000000E+00 -0.82740486086E+03  0.23631890511E+04  0.22136087476E+04 0.  0.
        3    1    3    3  502    0  0.81172492955E+03  0.27517772060E+03 -0.11613053046E+04  0.14433468605E+04  0.10100000352E+00 0. -1.
       -3    1    3    3    0  502 -0.81172492955E+03 -0.27517772060E+03  0.33390044369E+03  0.91984219063E+03  0.10100000352E+00 0.  1.
</event>
<event>
 5   0  0.1786228E-05  0.2201904E+04  0.7818609E-02  0.8517636E-01
        1   -1    0    0  501    0  0.00000000000E+00  0.00000000000E+00  0.16961697309E+04  0.16961697309E+04  0.50400001928E-02 0.  1.
       -1   -1    0    0    0  501  0.00000000000E+00  0.00000000000E+00 -0.71460700447E+03  0.71460700448E+03  0.50400001928E-02 0. -1.
    10030    2    1    2    0    0  0.00000000000E+00  0.00000000000E+00  0.98156272646E+03  0.24107767354E+04  0.22019035133E+04 0.  0.
        5    1    3    3  502    0 -0.59377342726E+03 -0.92370357370E+03  0.57752792277E+03  0.12407077684E+04  0.46999998093E+01 0. -1.
       -5    1    3    3    0  502  0.59377342726E+03  0.92370357370E+03  0.40403480369E+03  0.11700689670E+04  0.46999998093E+01 0.  1.
</event>
<event>
 5   0  0.4143281E-05  0.2160597E+04  0.7818609E-02  0.8535010E-01
       -2   -1    0    0    0  501  0.00000000000E+00  0.00000000000E+00  0.94524955951E+03  0.94524955952E+03  0.25500000920E-02 0.  1.
        2   -1    0    0  501    0  0.00000000000E+00  0.00000000000E+00 -0.12346421465E+04  0.12346421465E+04  0.25500000920E-02 0. -1.
    10030    2    1    2    0    0  0.00000000000E+00  0.00000000000E+00 -0.28939258698E+03  0.21798917060E+04  0.21605970889E+04 0.  0.
        2    1    3    3  502    0  0.95603423793E+03 -0.43156729496E+02  0.36095893904E+03  0.10228173459E+04  0.25500000920E-02 0.  1.
       -2    1    3    3    0  502 -0.95603423793E+03  0.43156729496E+02 -0.65035152602E+03  0.11570743601E+04  0.25500000920E-02 0. -1.
</event>
<event>
 5   0  0.1786228E-05  0.2200863E+04  0.7818609E-02  0.8518069E-01
        1   -1    0    0  501    0  0.00000000000E+00  0.00000000000E+00  0.95247745309E+03  0.95247745310E+03  0.50400001928E-02 0. -1.
       -1   -1    0    0    0  501  0.00000000000E+00  0.00000000000E+00 -0.12713675721E+04  0.12713675722E+04  0.50400001928E-02 0.  1.
    10030    2    1    2    0    0  0.00000000000E+00  0.00000000000E+00 -0.31889011906E+03  0.22238450253E+04  0.22008625101E+04 0.  0.
        5    1    3    3  502    0 -0.10271727772E+04  0.37362368329E+03 -0.30645201022E+02  0.10934531491E+04  0.46999998093E+01 0. -1.
       -5    1    3    3    0  502  0.10271727772E+04 -0.37362368329E+03 -0.28824491804E+03  0.11303918762E+04  0.46999998093E+01 0.  1.
</event>
<event>
 5   0  0.4143281E-05  0.2193461E+04  0.7818609E-02  0.8521155E-01
        2   -1    0    0  501    0  0.00000000000E+00  0.00000000000E+00  0.15872513453E+04  0.15872513453E+04  0.25500000920E-02 0. -1.
       -2   -1    0    0    0  501  0.00000000000E+00  0.00000000000E+00 -0.75779920793E+03  0.75779920793E+03  0.25500000920E-02 0.  1.
    10030    2    1    2    0    0  0.00000000000E+00  0.00000000000E+00  0.82945213739E+03  0.23450505533E+04  0.21934610206E+04 0.  0.
        2    1    3    3  502    0  0.56633169177E+03 -0.24280588044E+03  0.13846929537E+04  0.15156057722E+04  0.25500000920E-02 0. -1.
       -2    1    3    3    0  502 -0.56633169177E+03  0.24280588044E+03 -0.55524081632E+03  0.82944478104E+03  0.25500000920E-02 0.  1.
</event>
<event>
 5   0  0.1884407E-05  0.2198429E+04  0.7818609E-02  0.8519082E-01
        1   -1    0    0  501    0  0.00000000000E+00  0.00000000000E+00  0.18235986543E+04  0.18235986543E+04  0.50400001928E-02 0. -1.
       -1   -1    0    0    0  501  0.00000000000E+00  0.00000000000E+00 -0.66257564335E+03  0.66257564337E+03  0.50400001928E-02 0.  1.
    10030    2    1    2    0    0  0.00000000000E+00  0.00000000000E+00  0.11610230110E+04  0.24861742977E+04  0.21984285766E+04 0.  0.
        3    1    3    3  502    0  0.27730133910E+03 -0.78693292533E+03 -0.22877431990E+03  0.86515730436E+03  0.10100000352E+00 0.  1.
       -3    1    3    3    0  502 -0.27730133910E+03  0.78693292533E+03  0.13897973309E+04  0.16210169934E+04  0.10100000352E+00 0. -1.
</event>
<event>
 5   0  0.4029532E-05  0.2207796E+04  0.7818609E-02  0.8515190E-01
        2   -1    0    0  501    0  0.00000000000E+00  0.00000000000E+00  0.13765105271E+04  0.13765105271E+04  0.25500000920E-02 0. -1.
       -2   -1    0    0    0  501  0.00000000000E+00  0.00000000000E+00 -0.88527508416E+03  0.88527508416E+03  0.25500000920E-02 0.  1.
    10030    2    1    2    0    0  0.00000000000E+00  0.00000000000E+00  0.49123544296E+03  0.22617856113E+04  0.22077957086E+04 0.  0.
        3    1    3    3  502    0 -0.48448657364E+03  0.73497113470E+03  0.92800009180E+03  0.12790988974E+04  0.10100000352E+00 0. -1.
       -3    1    3    3    0  502  0.48448657364E+03 -0.73497113470E+03 -0.43676464884E+03  0.98268671383E+03  0.10100000352E+00 0.  1.
</event>
<event>
 5   0  0.1815681E-05  0.2212321E+04  0.7818609E-02  0.8513317E-01
       -1   -1    0    0    0  501  0.00000000000E+00  0.00000000000E+00  0.11714570988E+04  0.11714570988E+04  0.50400001928E-02 0. -1.
        1   -1    0    0  501    0  0.00000000000E+00  0.00000000000E+00 -0.10445039026E+04  0.10445039026E+04  0.50400001928E-02 0.  1.
    10030    2    1    2    0    0  0.00000000000E+00  0.00000000000E+00  0.12695319619E+03  0.22159610015E+04  0.22123214156E+04 0.  0.
        2    1    3    3  502    0  0.76294090544E+03  0.62289350499E+03  0.56780902358E+03  0.11368738853E+04  0.25500000920E-02 0.  1.
       -2    1    3    3    0  502 -0.76294090544E+03 -0.62289350499E+03 -0.44085582739E+03  0.10790871162E+04  0.25500000920E-02 0. -1.
</event>
<event>
 5   0  0.1788413E-05  0.2204602E+04  0.7818609E-02  0.8516515E-01
       -1   -1    0    0    0  501  0.00000000000E+00  0.00000000000E+00  0.53130299228E+03  0.53130299230E+03  0.50400001928E-02 0. -1.
        1   -1    0    0  501    0  0.00000000000E+00  0.00000000000E+00 -0.22869573132E+04  0.22869573132E+04  0.50400001928E-02 0.  1.
    10030    2    1    2    0    0  0.00000000000E+00  0.00000000000E+00 -0.17556543209E+04  0.28182603055E+04  0.22046017906E+04 0.  0.
        1    1    3    3  502    0  0.78300847512E+02 -0.90039874125E+03 -0.16845262764E+04  0.19116688238E+04  0.50400001928E-02 0.  1.
       -1    1    3    3    0  502 -0.78300847512E+02  0.90039874125E+03 -0.71128044528E+02  0.90659148171E+03  0.50400001928E-02 0. -1.
</event>
<event>
 5   0  0.4143281E-05  0.2197731E+04  0.7818609E-02  0.8519373E-01
        2   -1    0    0  501    0  0.00000000000E+00  0.00000000000E+00  0.12393765994E+04  0.12393765994E+04  0.25500000920E-02 0. -1.
       -2   -1    0    0    0  501  0.00000000000E+00  0.00000000000E+00 -0.97428409972E+03  0.97428409972E+03  0.25500000920E-02 0.  1.
    10030    2    1    2    0    0  0.00000000000E+00  0.00000000000E+00  0.26509249971E+03  0.22136606992E+04  0.21977305698E+04 0.  0.
        2    1    3    3  502    0 -0.71155252602E+03 -0.38354446920E+03 -0.61722256360E+03  0.10170432882E+04  0.25500000920E-02 0.  1.
       -2    1    3    3    0  502  0.71155252602E+03  0.38354446920E+03  0.88231506331E+03  0.11966174109E+04  0.25500000920E-02 0. -1.
</event>
<event>
 5   0  0.1884407E-05  0.1983846E+04  0.7818609E-02  0.8614211E-01
        1   -1    0    0  501    0  0.00000000000E+00  0.00000000000E+00  0.14212206803E+04  0.14212206803E+04  0.50400001928E-02 0. -1.
       -1   -1    0    0    0  501  0.00000000000E+00  0.00000000000E+00 -0.69230023840E+03  0.69230023842E+03  0.50400001928E-02 0.  1.
    10030    2    1    2    0    0  0.00000000000E+00  0.00000000000E+00  0.72892044192E+03  0.21135209188E+04  0.19838461794E+04 0.  0.
        3    1    3    3  502    0 -0.93697558217E+03 -0.32213696173E+03  0.41461100708E+03  0.10740566843E+04  0.10100000352E+00 0.  1.
       -3    1    3    3    0  502  0.93697558217E+03  0.32213696173E+03  0.31430943485E+03  0.10394642345E+04  0.10100000352E+00 0. -1.
</event>
<event>
 5   0  0.4132460E-05  0.2213876E+04  0.7818609E-02  0.8512675E-01
        2   -1    0    0  501    0  0.00000000000E+00  0.00000000000E+00  0.10149431141E+04  0.10149431141E+04  0.25500000920E-02 0.  1.
       -2   -1    0    0    0  501  0.00000000000E+00  0.00000000000E+00 -0.12072718636E+04  0.12072718636E+04  0.25500000920E-02 0. -1.
    10030    2    1    2    0    0  0.00000000000E+00  0.00000000000E+00 -0.19232874951E+03  0.22222149777E+04  0.22138764778E+04 0.  0.
        4    1    3    3  502    0  0.10518271049E+04 -0.11524416987E+03  0.23015881502E+03  0.10828647978E+04  0.12699999809E+01 0.  1.
       -4    1    3    3    0  502 -0.10518271049E+04  0.11524416987E+03 -0.42248756453E+03  0.11393501799E+04  0.12699999809E+01 0. -1.
</event>
<event>
 5   0  0.4029532E-05  0.2205392E+04  0.7818609E-02  0.8516187E-01
        2   -1    0    0  501    0  0.00000000000E+00  0.00000000000E+00  0.10885063843E+04  0.10885063843E+04  0.25500000920E-02 0. -1.
       -2   -1    0    0    0  501  0.00000000000E+00  0.00000000000E+00 -0.11170701262E+04  0.11170701262E+04  0.25500000920E-02 0.  1.
    10030    2    1    2    0    0  0.00000000000E+00  0.00000000000E+00 -0.28563741907E+02  0.22055765105E+04  0.22053915426E+04 0.  0.
        3    1    3    3  502    0  0.63080305102E+03 -0.68476514887E+03 -0.60519702584E+03  0.11104410154E+04  0.10100000352E+00 0.  1.
       -3    1    3    3    0  502 -0.63080305102E+03  0.68476514887E+03  0.57663328394E+03  0.10951354951E+04  0.10100000352E+00 0. -1.
</event>
<event>
 5   0  0.4027923E-05  0.2024090E+04  0.7818609E-02  0.8595440E-01
        2   -1    0    0  501    0  0.00000000000E+00  0.00000000000E+00  0.18295730765E+04  0.18295730765E+04  0.25500000920E-02 0.  1.
       -2   -1    0    0    0  501  0.00000000000E+00  0.00000000000E+00 -0.55982174821E+03  0.55982174821E+03  0.25500000920E-02 0. -1.
    10030    2    1    2    0    0  0.00000000000E+00  0.00000000000E+00  0.12697513283E+04  0.23893948247E+04  0.20240897195E+04 0.  0.
        5    1    3    3  502    0 -0.31144724153E+03 -0.87339451035E+03  0.11135089838E+04  0.14490485506E+04  0.46999998093E+01 0.  1.
       -5    1    3    3    0  502  0.31144724153E+03  0.87339451035E+03  0.15624234443E+03  0.94034627407E+03  0.46999998093E+01 0. -1.
</event>
<event>
 5   0  0.1866935E-05  0.2200576E+04  0.7818609E-02  0.8518188E-01
        1   -1    0    0  501    0  0.00000000000E+00  0.00000000000E+00  0.15944533767E+04  0.15944533767E+04  0.50400001928E-02 0. -1.
       -1   -1    0    0    0  501  0.00000000000E+00  0.00000000000E+00 -0.75927849391E+03  0.75927849393E+03  0.50400001928E-02 0.  1.
    10030    2    1    2    0    0  0.00000000000E+00  0.00000000000E+00  0.83517488279E+03  0.23537318706E+04  0.22005764322E+04 0.  0.
        4    1    3    3  502    0 -0.10818901400E+04  0.19617430961E+03  0.37398363730E+03  0.11613939937E+04  0.12699999809E+01 0.  1.
       -4    1    3    3    0  502  0.10818901400E+04 -0.19617430961E+03  0.46119124549E+03  0.11923378769E+04  0.12699999809E+01 0. -1.
</event>
<event>
 5   0  0.1884407E-05  0.2259484E+04  0.7818609E-02  0.8494069E-01
        1   -1    0    0  501    0  0.00000000000E+00  0.00000000000E+00  0.14450399291E+04  0.14450399291E+04  0.50400001928E-02 0. -1.
       -1   -1    0    0    0  501  0.00000000000E+00  0.00000000000E+00 -0.88324016250E+03  0.88324016252E+03  0.50400001928E-02 0.  1.
    10030    2    1    2    0    0  0.00000000000E+00  0.00000000000E+00  0.56179976655E+03  0.23282800916E+04  0.22594842790E+04 0.  0.
        3    1    3    3  502    0  0.38127740931E+02  0.11170991389E+04  0.11172725099E+03  0.11233197228E+04  0.10100000352E+00 0. -1.
       -3    1    3    3    0  502 -0.38127740931E+02 -0.11170991389E+04  0.45007251556E+03  0.12049603688E+04  0.10100000352E+00 0.  1.
</event>
<event>
 5   0  0.1786228E-05  0.2203965E+04  0.7818609E-02  0.8516780E-01
       -1   -1    0    0    0  501  0.00000000000E+00  0.00000000000E+00  0.13541959505E+04  0.13541959505E+04  0.50400001928E-02 0.  1.
        1   -1    0    0  501    0  0.00000000000E+00  0.00000000000E+00 -0.89674267858E+03  0.89674267860E+03  0.50400001928E-02 0. -1.
    10030    2    1    2    0    0  0.00000000000E+00  0.00000000000E+00  0.45745327194E+03  0.22509386291E+04  0.22039648854E+04 0.  0.
        5    1    3    3  502    0 -0.59981595337E+03 -0.31883819109E+03 -0.65746864463E+03  0.94536981054E+03  0.46999998093E+01 0. -1.
       -5    1    3    3    0  502  0.59981595337E+03  0.31883819109E+03  0.11149219166E+04  0.13055688186E+04  0.46999998093E+01 0.  1.
</event>
<event>
 5   0  0.4132460E-05  0.2204709E+04  0.7818609E-02  0.8516471E-01
        2   -1    0    0  501    0  0.00000000000E+00  0.00000000000E+00  0.10284132224E+04  0.10284132224E+04  0.25500000920E-02 0.  1.
       -2   -1    0    0    0  501  0.00000000000E+00  0.00000000000E+00 -0.11816119189E+04  0.11816119189E+04  0.25500000920E-02 0. -1.
    10030    2    1    2    0    0  0.00000000000E+00  0.00000000000E+00 -0.15319869643E+03  0.22100251413E+04  0.22047088889E+04 0.  0.
        4    1    3    3  502    0  0.70264379657E+03  0.49204394491E+03  0.61743434282E+03  0.10569022326E+04  0.12699999809E+01 0.  1.
       -4    1    3    3    0  502 -0.70264379657E+03 -0.49204394491E+03 -0.77063303925E+03  0.11531229087E+04  0.12699999809E+01 0. -1.
</event>
<event>
 5   0  0.3963414E-05  0.2200121E+04  0.7818609E-02  0.8518378E-01
        2   -1    0    0  501    0  0.00000000000E+00  0.00000000000E+00  0.13013027493E+04  0.13013027493E+04  0.25500000920E-02 0. -1.
       -2   -1    0    0    0  501  0.00000000000E+00  0.00000000000E+00 -0.92993955934E+03  0.92993955935E+03  0.25500000920E-02 0.  1.
    10030    2    1    2    0    0  0.00000000000E+00  0.00000000000E+00  0.37136318992E+03  0.22312423086E+04  0.22001208196E+04 0.  0.
        1    1    3    3  502    0 -0.62135943590E+03  0.20146193270E+03  0.10833339800E+04  0.12650244943E+04  0.50400001928E-02 0. -1.
       -1    1    3    3    0  502  0.62135943590E+03 -0.20146193270E+03 -0.71197079004E+03  0.96621781436E+03  0.50400001928E-02 0.  1.
</event>
<event>
 5   0  0.4027923E-05  0.2201221E+04  0.7818609E-02  0.8517920E-01
       -2   -1    0    0    0  501  0.00000000000E+00  0.00000000000E+00  0.81794970268E+03  0.81794970269E+03  0.25500000920E-02 0.  1.
        2   -1    0    0  501    0  0.00000000000E+00  0.00000000000E+00 -0.14809516281E+04  0.14809516281E+04  0.25500000920E-02 0. -1.
    10030    2    1    2    0    0  0.00000000000E+00  0.00000000000E+00 -0.66300192541E+03  0.22989013308E+04  0.22012214281E+04 0.  0.
        5    1    3    3  502    0  0.99643825874E+03  0.44498037948E+03 -0.48075937792E+03  0.11924967132E+04  0.46999998093E+01 0.  1.
       -5    1    3    3    0  502 -0.99643825874E+03 -0.44498037948E+03 -0.18224254749E+03  0.11064046175E+04  0.46999998093E+01 0. -1.
</event>
<event>
 5   0  0.4132460E-05  0.2173107E+04  0.7818609E-02  0.8529705E-01
       -2   -1    0    0    0  501  0.00000000000E+00  0.00000000000E+00  0.73815483806E+03  0.73815483806E+03  0.25500000920E-02 0.  1.
        2   -1    0    0  501    0  0.00000000000E+00  0.00000000000E+00 -0.15993919303E+04  0.15993919303E+04  0.25500000920E-02 0. -1.
    10030    2    1    2    0    0  0.00000000000E+00  0.00000000000E+00 -0.86123709227E+03  0.23375467684E+04  0.21731073525E+04 0.  0.
        4    1    3    3  502    0  0.59890150379E+03 -0.76219352093E+03  0.97419719401E+02  0.97422491716E+03  0.12699999809E+01 0.  1.
       -4    1    3    3    0  502 -0.59890150379E+03  0.76219352093E+03 -0.95865681167E+03  0.13633218512E+04  0.12699999809E+01 0. -1.
</event>
<event>
 5   0  0.4143281E-05  0.2228200E+04  0.7818609E-02  0.8506782E-01
       -2   -1    0    0    0  501  0.00000000000E+00  0.00000000000E+00  0.10041964568E+04  0.10041964568E+04  0.25500000920E-02 0. -1.
        2   -1    0    0  501    0  0.00000000000E+00  0.00000000000E+00 -0.12360313570E+04  0.12360313570E+04  0.25500000920E-02 0.  1.
    10030    2    1    2    0    0  0.00000000000E+00  0.00000000000E+00 -0.23183490023E+03  0.22402278138E+04  0.22281995504E+04 0.  0.
        2    1    3    3  502    0 -0.34475068877E+03  0.10019938613E+04 -0.46182933377E+03  0.11559113586E+04  0.25500000920E-02 0.  1.
       -2    1    3    3    0  502  0.34475068877E+03 -0.10019938613E+04  0.22999443355E+03  0.10843164551E+04  0.25500000920E-02 0. -1.
</event>
<event>
 5   0  0.4027923E-05  0.2280869E+04  0.7818609E-02  0.8485503E-01
       -2   -1    0    0    0  501  0.00000000000E+00  0.00000000000E+00  0.98990077339E+03  0.98990077339E+03  0.25500000920E-02 0. -1.
        2   -1    0    0  501    0  0.00000000000E+00  0.00000000000E+00 -0.13138596887E+04  0.13138596887E+04  0.25500000920E-02 0.  1.
    10030    2    1    2    0    0  0.00000000000E+00  0.00000000000E+00 -0.32395891531E+03  0.23037604621E+04  0.22808688888E+04 0.  0.
        5    1    3    3  502    0 -0.70388803114E+03 -0.88367513492E+03 -0.47620939266E+01  0.11297720443E+04  0.46999998093E+01 0. -1.
       -5    1    3    3    0  502  0.70388803114E+03  0.88367513492E+03 -0.31919682139E+03  0.11739884178E+04  0.46999998093E+01 0.  1.
</event>
<event>
 5   0  0.4027923E-05  0.2178932E+04  0.7818609E-02  0.8527248E-01
        2   -1    0    0  501    0  0.00000000000E+00  0.00000000000E+00  0.13755069035E+04  0.13755069035E+04  0.25500000920E-02 0. -1.
       -2   -1    0    0    0  501  0.00000000000E+00  0.00000000000E+00 -0.86290833094E+03  0.86290833094E+03  0.25500000920E-02 0.  1.
    10030    2    1    2    0    0  0.00000000000E+00  0.00000000000E+00  0.51259857252E+03  0.22384152344E+04  0.21789321846E+04 0.  0.
        5    1    3    3  502    0 -0.75143788863E+03  0.74893297166E+03  0.18383388550E+01  0.10609358916E+04  0.46999998093E+01 0.  1.
       -5    1    3    3    0  502  0.75143788863E+03 -0.74893297166E+03  0.51076023367E+03  0.11774793428E+04  0.46999998093E+01 0. -1.
</event>
<event>
 5   0  0.1815681E-05  0.2227481E+04  0.7818609E-02  0.8507076E-01
        1   -1    0    0  501    0  0.00000000000E+00  0.00000000000E+00  0.10803278302E+04  0.10803278302E+04  0.50400001928E-02 0. -1.
       -1   -1    0    0    0  501  0.00000000000E+00  0.00000000000E+00 -0.11481866826E+04  0.11481866826E+04  0.50400001928E-02 0.  1.
    10030    2    1    2    0    0  0.00000000000E+00  0.00000000000E+00 -0.67858852421E+02  0.22285145128E+04  0.22274811133E+04 0.  0.
        2    1    3    3  502    0 -0.80736919435E+03 -0.46956915788E+03  0.57304620988E+03  0.10957746888E+04  0.25500000920E-02 0. -1.
       -2    1    3    3    0  502  0.80736919435E+03  0.46956915788E+03 -0.64090506230E+03  0.11327398240E+04  0.25500000920E-02 0.  1.
</event>
<event>
 5   0  0.1815681E-05  0.2199988E+04  0.7818609E-02  0.8518433E-01
       -1   -1    0    0    0  501  0.00000000000E+00  0.00000000000E+00  0.13812772590E+04  0.13812772590E+04  0.50400001928E-02 0. -1.
        1   -1    0    0  501    0  0.00000000000E+00  0.00000000000E+00 -0.87599149299E+03  0.87599149301E+03  0.50400001928E-02 0.  1.
    10030    2    1    2    0    0  0.00000000000E+00  0.00000000000E+00  0.50528576597E+03  0.22572687520E+04  0.21999882985E+04 0.  0.
        2    1    3    3  502    0  0.10002334968E+04 -0.68125077072E+02  0.71706370080E+03  0.12325941851E+04  0.25500000920E-02 0.  1.
       -2    1    3    3    0  502 -0.10002334968E+04  0.68125077072E+02 -0.21177793483E+03  0.10246745668E+04  0.25500000920E-02 0. -1.
</event>
<event>
 5   0  0.1433375E-05  0.2193138E+04  0.7818609E-02  0.8521290E-01
       -4   -1    0    0    0  501  0.00000000000E+00  0.00000000000E+00  0.18407020455E+04  0.18407024836E+04  0.12699999809E+01 0. -1.
        4   -1    0    0  501    0  0.00000000000E+00  0.00000000000E+00 -0.65326225850E+03  0.65326349300E+03  0.12699999809E+01 0.  1.
    10030    2    1    2    0    0  0.00000000000E+00  0.00000000000E+00  0.11874397870E+04  0.24939659766E+04  0.21931377168E+04 0.  0.
        1    1    3    3  502    0 -0.39361177246E+02  0.50495745679E+02 -0.65113583653E+03  0.65427593586E+03  0.50400001928E-02 0.  1.
       -1    1    3    3    0  502  0.39361177246E+02 -0.50495745679E+02  0.18385756235E+04  0.18396900407E+04  0.50400001928E-02 0. -1.
</event>
<event>
 5   0  0.1786228E-05  0.2203263E+04  0.7818609E-02  0.8517071E-01
       -1   -1    0    0    0  501  0.00000000000E+00  0.00000000000E+00  0.74566049790E+03  0.74566049792E+03  0.50400001928E-02 0. -1.
        1   -1    0    0  501    0  0.00000000000E+00  0.00000000000E+00 -0.16275395635E+04  0.16275395635E+04  0.50400001928E-02 0.  1.
    10030    2    1    2    0    0  0.00000000000E+00  0.00000000000E+00 -0.88187906558E+03  0.23732000614E+04  0.22032629995E+04 0.  0.
        5    1    3    3  502    0 -0.75924420478E+03  0.19030159342E+03  0.39402945404E+03  0.87632628604E+03  0.46999998093E+01 0. -1.
       -5    1    3    3    0  502  0.75924420478E+03 -0.19030159342E+03 -0.12759085196E+04  0.14968737754E+04  0.46999998093E+01 0.  1.
</event>
<event>
 5   0  0.4029532E-05  0.2220117E+04  0.7818609E-02  0.8510101E-01
       -2   -1    0    0    0  501  0.00000000000E+00  0.00000000000E+00  0.12919509407E+04  0.12919509407E+04  0.25500000920E-02 0.  1.
        2   -1    0    0  501    0  0.00000000000E+00  0.00000000000E+00 -0.95377479170E+03  0.95377479170E+03  0.25500000920E-02 0. -1.
    10030    2    1    2    0    0  0.00000000000E+00  0.00000000000E+00  0.33817614897E+03  0.22457257324E+04  0.22201173296E+04 0.  0.
        3    1    3    3  502    0  0.77034406440E+03 -0.10863978962E+03 -0.63187730405E+03  0.10022482322E+04  0.10100000352E+00 0. -1.
       -3    1    3    3    0  502 -0.77034406440E+03  0.10863978962E+03  0.97005345302E+03  0.12434775001E+04  0.10100000352E+00 0.  1.
</event>
<event>
 5   0  0.1788413E-05  0.2198487E+04  0.7818609E-02  0.8519058E-01
        1   -1    0    0  501    0  0.00000000000E+00  0.00000000000E+00  0.11168892043E+04  0.11168892043E+04  0.50400001928E-02 0. -1.
       -1   -1    0    0    0  501  0.00000000000E+00  0.00000000000E+00 -0.10818764865E+04  0.10818764865E+04  0.50400001928E-02 0.  1.
    10030    2    1    2    0    0  0.00000000000E+00  0.00000000000E+00  0.35012717824E+02  0.21987656908E+04  0.21984869052E+04 0.  0.
        1    1    3    3  502    0  0.96132005752E+03 -0.37567185829E+03 -0.36078831098E+03  0.10933589545E+04  0.50400001928E-02 0. -1.
       -1    1    3    3    0  502 -0.96132005752E+03  0.37567185829E+03  0.39580102880E+03  0.11054067362E+04  0.50400001928E-02 0.  1.
</event>
<event>
 5   0  0.1815681E-05  0.2215802E+04  0.7818609E-02  0.8511880E-01
        1   -1    0    0  501    0  0.00000000000E+00  0.00000000000E+00  0.97961276995E+03  0.97961276996E+03  0.50400001928E-02 0. -1.
       -1   -1    0    0    0  501  0.00000000000E+00  0.00000000000E+00 -0.12529891642E+04  0.12529891642E+04  0.50400001928E-02 0.  1.
    10030    2    1    2    0    0  0.00000000000E+00  0.00000000000E+00 -0.27337639425E+03  0.22326019342E+04  0.22158016029E+04 0.  0.
        2    1    3    3  502    0  0.96359100182E+03 -0.20078406059E+03 -0.64909328441E+03  0.11790436589E+04  0.25500000920E-02 0.  1.
       -2    1    3    3    0  502 -0.96359100182E+03  0.20078406059E+03  0.37571689015E+03  0.10535582752E+04  0.25500000920E-02 0. -1.
</event>
<event>
 5   0  0.1786228E-05  0.2190536E+04  0.7818609E-02  0.8522377E-01
        1   -1    0    0  501    0  0.00000000000E+00  0.00000000000E+00  0.21140900810E+04  0.21140900810E+04  0.50400001928E-02 0.  1.
       -1   -1    0    0    0  501  0.00000000000E+00  0.00000000000E+00 -0.56743670959E+03  0.56743670961E+03  0.50400001928E-02 0. -1.
    10030    2    1    2    0    0  0.00000000000E+00  0.00000000000E+00  0.15466533714E+04  0.26815267906E+04  0.21905362990E+04 0.  0.
        5    1    3    3  502    0  0.45468118031E+03  0.48352100866E+03  0.18398503792E+04  0.19559138656E+04  0.46999998093E+01 0.  1.
       -5    1    3    3    0  502 -0.45468118031E+03 -0.48352100866E+03 -0.29319700785E+03  0.72561292502E+03  0.46999998093E+01 0. -1.
</event>
<event>
 5   0  0.4143281E-05  0.2205789E+04  0.7818609E-02  0.8516023E-01
        2   -1    0    0  501    0  0.00000000000E+00  0.00000000000E+00  0.12037803897E+04  0.12037803897E+04  0.25500000920E-02 0. -1.
       -2   -1    0    0    0  501  0.00000000000E+00  0.00000000000E+00 -0.10104635308E+04  0.10104635308E+04  0.25500000920E-02 0.  1.
    10030    2    1    2    0    0  0.00000000000E+00  0.00000000000E+00  0.19331685889E+03  0.22142439205E+04  0.22057889136E+04 0.  0.
        2    1    3    3  502    0  0.24456160328E+03  0.73823188508E+03 -0.68837466787E+03  0.10385838326E+04  0.25500000920E-02 0.  1.
       -2    1    3    3    0  502 -0.24456160328E+03 -0.73823188508E+03  0.88169152676E+03  0.11756600879E+04  0.25500000920E-02 0. -1.
</event>
<event>
 5   0  0.4132460E-05  0.2188899E+04  0.7818609E-02  0.8523063E-01
        2   -1    0    0  501    0  0.00000000000E+00  0.00000000000E+00  0.14579056786E+04  0.14579056786E+04  0.25500000920E-02 0.  1.
       -2   -1    0    0    0  501  0.00000000000E+00  0.00000000000E+00 -0.82160303125E+03  0.82160303125E+03  0.25500000920E-02 0. -1.
    10030    2    1    2    0    0  0.00000000000E+00  0.00000000000E+00  0.63630264735E+03  0.22795087099E+04  0.21888990153E+04 0.  0.
        4    1    3    3  502    0  0.29752517796E+02  0.10884616202E+04  0.43310266820E+03  0.11718419028E+04  0.12699999809E+01 0.  1.
       -4    1    3    3    0  502 -0.29752517796E+02 -0.10884616202E+04  0.20319997915E+03  0.11076668071E+04  0.12699999809E+01 0. -1.
</event>
<event>
 5   0  0.1884407E-05  0.2190044E+04  0.7818609E-02  0.8522584E-01
       -1   -1    0    0    0  501  0.00000000000E+00  0.00000000000E+00  0.13472385037E+04  0.13472385037E+04  0.50400001928E-02 0. -1.
        1   -1    0    0  501    0  0.00000000000E+00  0.00000000000E+00 -0.89002257596E+03  0.89002257598E+03  0.50400001928E-02 0.  1.
    10030    2    1    2    0    0  0.00000000000E+00  0.00000000000E+00  0.45721592775E+03  0.22372610797E+04  0.21900435462E+04 0.  0.
        3    1    3    3  502    0  0.18396913798E+03  0.74701622989E+03 -0.56741928170E+03  0.95595111951E+03  0.10100000352E+00 0.  1.
       -3    1    3    3    0  502 -0.18396913798E+03 -0.74701622989E+03  0.10246352094E+04  0.12813099602E+04  0.10100000352E+00 0. -1.
</event>
<event>
 5   0  0.4143281E-05  0.2220426E+04  0.7818609E-02  0.8509974E-01
        2   -1    0    0  501    0  0.00000000000E+00  0.00000000000E+00  0.14661464461E+04  0.14661464461E+04  0.25500000920E-02 0. -1.
       -2   -1    0    0    0  501  0.00000000000E+00  0.00000000000E+00 -0.84068918338E+03  0.84068918339E+03  0.25500000920E-02 0.  1.
    10030    2    1    2    0    0  0.00000000000E+00  0.00000000000E+00  0.62545726274E+03  0.23068356295E+04  0.22204264982E+04 0.  0.
        2    1    3    3  502    0 -0.68662032757E+03 -0.34408247240E+02  0.12183996884E+04  0.13989743395E+04  0.25500000920E-02 0. -1.
       -2    1    3    3    0  502  0.68662032757E+03  0.34408247240E+02 -0.59294242571E+03  0.90786129003E+03  0.25500000920E-02 0.  1.
</event>
<event>
 5   0  0.1786228E-05  0.2199556E+04  0.7818609E-02  0.8518613E-01
       -1   -1    0    0    0  501  0.00000000000E+00  0.00000000000E+00  0.58019396671E+03  0.58019396673E+03  0.50400001928E-02 0. -1.
        1   -1    0    0  501    0  0.00000000000E+00  0.00000000000E+00 -0.20846672208E+04  0.20846672208E+04  0.50400001928E-02 0.  1.
    10030    2    1    2    0    0  0.00000000000E+00  0.00000000000E+00 -0.15044732541E+04  0.26648611875E+04  0.21995557225E+04 0.  0.
        5    1    3    3  502    0  0.13590244491E+03  0.75341252459E+03  0.20433900030E+03  0.79238653685E+03  0.46999998093E+01 0. -1.
       -5    1    3    3    0  502 -0.13590244491E+03 -0.75341252459E+03 -0.17088122544E+04  0.18724746507E+04  0.46999998093E+01 0.  1.
</event>
<event>
 5   0  0.1433375E-05  0.2269603E+04  0.7818609E-02  0.8490004E-01
       -3   -1    0    0    0  501  0.00000000000E+00  0.00000000000E+00  0.21229572691E+04  0.21229572715E+04  0.10100000352E+00 0.  1.
        3   -1    0    0  501    0  0.00000000000E+00  0.00000000000E+00 -0.60659461729E+03  0.60659462570E+03  0.10100000352E+00 0. -1.
    10030    2    1    2    0    0  0.00000000000E+00  0.00000000000E+00  0.15163626518E+04  0.27295518972E+04  0.22696030199E+04 0.  0.
        5    1    3    3  502    0  0.99972244472E+03 -0.20041666420E+03  0.13572689446E+04  0.16975903168E+04  0.46999998093E+01 0.  1.
       -5    1    3    3    0  502 -0.99972244472E+03  0.20041666420E+03  0.15909370724E+03  0.10319615804E+04  0.46999998093E+01 0. -1.
</event>
<event>
 5   0  0.1866935E-05  0.2194451E+04  0.7818609E-02  0.8520741E-01
       -1   -1    0    0    0  501  0.00000000000E+00  0.00000000000E+00  0.88163896948E+03  0.88163896950E+03  0.50400001928E-02 0. -1.
        1   -1    0    0  501    0  0.00000000000E+00  0.00000000000E+00 -0.13655290365E+04  0.13655290366E+04  0.50400001928E-02 0.  1.
    10030    2    1    2    0    0  0.00000000000E+00  0.00000000000E+00 -0.48389006706E+03  0.22471680061E+04  0.21944508312E+04 0.  0.
        4    1    3    3  502    0  0.22018450126E+03 -0.16293433338E+03 -0.13299534818E+04  0.13578684355E+04  0.12699999809E+01 0.  1.
       -4    1    3    3    0  502 -0.22018450126E+03  0.16293433338E+03  0.84606341470E+03  0.88929957055E+03  0.12699999809E+01 0. -1.
</event>
<event>
 5   0  0.1815681E-05  0.2218215E+04  0.7818609E-02  0.8510884E-01
        1   -1    0    0  501    0  0.00000000000E+00  0.00000000000E+00  0.13940468873E+04  0.13940468873E+04  0.50400001928E-02 0. -1.
       -1   -1    0    0    0  501  0.00000000000E+00  0.00000000000E+00 -0.88240933291E+03  0.88240933293E+03  0.50400001928E-02 0.  1.
    10030    2    1    2    0    0  0.00000000000E+00  0.00000000000E+00  0.51163755434E+03  0.22764562202E+04  0.22182154844E+04 0.  0.
        2    1    3    3  502    0  0.42424107098E+03  0.92954819399E+03  0.69851418121E+03  0.12377246837E+04  0.25500000920E-02 0. -1.
       -2    1    3    3    0  502 -0.42424107098E+03 -0.92954819399E+03 -0.18687662687E+03  0.10387315365E+04  0.25500000920E-02 0.  1.
</event>
<event>
 5   0  0.1786228E-05  0.2186719E+04  0.7818609E-02  0.8523976E-01
        1   -1    0    0  501    0  0.00000000000E+00  0.00000000000E+00  0.70740494231E+03  0.70740494233E+03  0.50400001928E-02 0.  1.
       -1   -1    0    0    0  501  0.00000000000E+00  0.00000000000E+00 -0.16898881645E+04  0.16898881645E+04  0.50400001928E-02 0. -1.
    10030    2    1    2    0    0  0.00000000000E+00  0.00000000000E+00 -0.98248322219E+03  0.23972931068E+04  0.21867192225E+04 0.  0.
        5    1    3    3  502    0  0.33965831575E+03 -0.27097942359E+03  0.60867542115E+03  0.74786728621E+03  0.46999998093E+01 0.  1.
       -5    1    3    3    0  502 -0.33965831575E+03  0.27097942359E+03 -0.15911586433E+04  0.16494258206E+04  0.46999998093E+01 0. -1.
</event>
<event>
 5   0  0.1788413E-05  0.2206699E+04  0.7818609E-02  0.8515645E-01
       -1   -1    0    0    0  501  0.00000000000E+00  0.00000000000E+00  0.97056984795E+03  0.97056984797E+03  0.50400001928E-02 0. -1.
        1   -1    0    0  501    0  0.00000000000E+00  0.00000000000E+00 -0.12542941753E+04  0.12542941753E+04  0.50400001928E-02 0.  1.
    10030    2    1    2    0    0  0.00000000000E+00  0.00000000000E+00 -0.28372432732E+03  0.22248640232E+04  0.22066989890E+04 0.  0.
        1    1    3    3  502    0  0.10819561244E+04 -0.17095936828E+03 -0.83944155076E+01  0.10954116245E+04  0.50400001928E-02 0. -1.
       -1    1    3    3    0  502 -0.10819561244E+04  0.17095936828E+03 -0.27532991181E+03  0.11294523988E+04  0.50400001928E-02 0.  1.
</event>
<event>
 5   0  0.4029532E-05  0.2197459E+04  0.7818609E-02  0.8519487E-01
       -2   -1    0    0    0  501  0.00000000000E+00  0.00000000000E+00  0.66967302573E+03  0.66967302573E+03  0.25500000920E-02 0. -1.
        2   -1    0    0  501    0  0.00000000000E+00  0.00000000000E+00 -0.18026798479E+04  0.18026798479E+04  0.25500000920E-02 0.  1.
    10030    2    1    2    0    0  0.00000000000E+00  0.00000000000E+00 -0.11330068221E+04  0.24723528736E+04  0.21974585941E+04 0.  0.
        3    1    3    3  502    0 -0.10957816573E+04 -0.25343506605E+02 -0.48062439115E+03  0.11968206003E+04  0.10100000352E+00 0. -1.
       -3    1    3    3    0  502  0.10957816573E+04  0.25343506605E+02 -0.65238243098E+03  0.12755322733E+04  0.10100000352E+00 0.  1.
</event>
<event>
 5   0  0.4029532E-05  0.2119858E+04  0.7818609E-02  0.8552546E-01
       -2   -1    0    0    0  501  0.00000000000E+00  0.00000000000E+00  0.71528471787E+03  0.71528471788E+03  0.25500000920E-02 0. -1.
        2   -1    0    0  501    0  0.00000000000E+00  0.00000000000E+00 -0.15706321176E+04  0.15706321176E+04  0.25500000920E-02 0.  1.
    10030    2    1    2    0    0  0.00000000000E+00  0.00000000000E+00 -0.85534739973E+03  0.22859168355E+04  0.21198576850E+04 0.  0.
        3    1    3    3  502    0  0.45445607414E+03  0.80753218279E+03 -0.98258222356E+03  0.13505948267E+04  0.10100000352E+00 0.  1.
       -3    1    3    3    0  502 -0.45445607414E+03 -0.80753218279E+03  0.12723482384E+03  0.93532200881E+03  0.10100000352E+00 0. -1.
</event>
<event>
 5   0  0.1786228E-05  0.2197125E+04  0.7818609E-02  0.8519626E-01
        1   -1    0    0  501    0  0.00000000000E+00  0.00000000000E+00  0.22812298991E+04  0.22812298991E+04  0.50400001928E-02 0.  1.
       -1   -1    0    0    0  501  0.00000000000E+00  0.00000000000E+00 -0.52903034076E+03  0.52903034078E+03  0.50400001928E-02 0. -1.
    10030    2    1    2    0    0  0.00000000000E+00  0.00000000000E+00  0.17521995584E+04  0.28102602399E+04  0.21971252408E+04 0.  0.
        5    1    3    3  502    0 -0.44720079077E+03  0.85822339320E+03  0.21113272650E+03  0.99052261867E+03  0.46999998093E+01 0. -1.
       -5    1    3    3    0  502  0.44720079077E+03 -0.85822339320E+03  0.15410668319E+04  0.18197376213E+04  0.46999998093E+01 0.  1.
</event>
<event>
 5   0  0.1884407E-05  0.2189078E+04  0.7818609E-02  0.8522988E-01
        1   -1    0    0  501    0  0.00000000000E+00  0.00000000000E+00  0.17547132683E+04  0.17547132683E+04  0.50400001928E-02 0.  1.
       -1   -1    0    0    0  501  0.00000000000E+00  0.00000000000E+00 -0.68274171965E+03  0.68274171967E+03  0.50400001928E-02 0. -1.
    10030    2    1    2    0    0  0.00000000000E+00  0.00000000000E+00  0.10719715486E+04  0.24374549880E+04  0.21890783032E+04 0.  0.
        3    1    3    3  502    0 -0.36272888253E+03 -0.67192193588E+03  0.14091589212E+04  0.16027414656E+04  0.10100000352E+00 0.  1.
       -3    1    3    3    0  502  0.36272888253E+03  0.67192193588E+03 -0.33718737251E+03  0.83471352242E+03  0.10100000352E+00 0. -1.
</event>
<event>
 5   0  0.1884407E-05  0.2208698E+04  0.7818609E-02  0.8514816E-01
       -1   -1    0    0    0  501  0.00000000000E+00  0.00000000000E+00  0.98836663297E+03  0.98836663299E+03  0.50400001928E-02 0. -1.
        1   -1    0    0  501    0  0.00000000000E+00  0.00000000000E+00 -0.12339419561E+04  0.12339419561E+04  0.50400001928E-02 0.  1.
    10030    2    1    2    0    0  0.00000000000E+00  0.00000000000E+00 -0.24557532308E+03  0.22223085891E+04  0.22086983102E+04 0.  0.
        3    1    3    3  502    0 -0.49524206762E+03  0.98507855070E+03 -0.18596462569E+03  0.11181356397E+04  0.10100000352E+00 0. -1.
       -3    1    3    3    0  502  0.49524206762E+03 -0.98507855070E+03 -0.59610697393E+02  0.11041729493E+04  0.10100000352E+00 0.  1.
</event>
<event>
 5   0  0.4143281E-05  0.2165051E+04  0.7818609E-02  0.8533117E-01
        2   -1    0    0  501    0  0.00000000000E+00  0.00000000000E+00  0.21660158334E+04  0.21660158334E+04  0.25500000920E-02 0. -1.
       -2   -1    0    0    0  501  0.00000000000E+00  0.00000000000E+00 -0.54102140501E+03  0.54102140501E+03  0.25500000920E-02 0.  1.
    10030    2    1    2    0    0  0.00000000000E+00  0.00000000000E+00  0.16249944284E+04  0.27070372385E+04  0.21650505116E+04 0.  0.
        2    1    3    3  502    0 -0.49067295004E+03  0.39693610692E+03 -0.28718790043E+03  0.69339390467E+03  0.25500000920E-02 0.  1.
       -2    1    3    3    0  502  0.49067295004E+03 -0.39693610692E+03  0.19121823289E+04  0.20136433338E+04  0.25500000920E-02 0. -1.
</event>
<event>
 5   0  0.4143281E-05  0.2204483E+04  0.7818609E-02  0.8516565E-01
        2   -1    0    0  501    0  0.00000000000E+00  0.00000000000E+00  0.14985940472E+04  0.14985940472E+04  0.25500000920E-02 0.  1.
       -2   -1    0    0    0  501  0.00000000000E+00  0.00000000000E+00 -0.81071736575E+03  0.81071736575E+03  0.25500000920E-02 0. -1.
    10030    2    1    2    0    0  0.00000000000E+00  0.00000000000E+00  0.68787668148E+03  0.23093114130E+04  0.22044829038E+04 0.  0.
        2    1    3    3  502    0 -0.67428546734E+03  0.13130068773E+03 -0.55904665863E+03  0.88568274715E+03  0.25500000920E-02 0. -1.
       -2    1    3    3    0  502  0.67428546734E+03 -0.13130068773E+03  0.12469233401E+04  0.14236286658E+04  0.25500000920E-02 0.  1.
</event>
<event>
 5   0  0.1866935E-05  0.2203164E+04  0.7818609E-02  0.8517113E-01
       -1   -1    0    0    0  501  0.00000000000E+00  0.00000000000E+00  0.95903950540E+03  0.95903950541E+03  0.50400001928E-02 0.  1.
        1   -1    0    0  501    0  0.00000000000E+00  0.00000000000E+00 -0.12653101908E+04  0.12653101908E+04  0.50400001928E-02 0. -1.
    10030    2    1    2    0    0  0.00000000000E+00  0.00000000000E+00 -0.30627068538E+03  0.22243496962E+04  0.22031635977E+04 0.  0.
        4    1    3    3  502    0 -0.17977767408E+03 -0.82619175708E+03  0.55974809421E+03  0.10140179355E+04  0.12699999809E+01 0.  1.
       -4    1    3    3    0  502  0.17977767408E+03  0.82619175708E+03 -0.86601877959E+03  0.12103317607E+04  0.12699999809E+01 0. -1.
</event>
<event>
 5   0  0.3963414E-05  0.2198615E+04  0.7818609E-02  0.8519005E-01
       -2   -1    0    0    0  501  0.00000000000E+00  0.00000000000E+00  0.10190588593E+04  0.10190588593E+04  0.25500000920E-02 0.  1.
        2   -1    0    0  501    0  0.00000000000E+00  0.00000000000E+00 -0.11858750767E+04  0.11858750767E+04  0.25500000920E-02 0. -1.
    10030    2    1    2    0    0  0.00000000000E+00  0.00000000000E+00 -0.16681621738E+03  0.22049339360E+04  0.21986145664E+04 0.  0.
        1    1    3    3  502    0 -0.41925843908E+03 -0.10069027440E+04  0.54266212204E+02  0.10920510961E+04  0.50400001928E-02 0.  1.
       -1    1    3    3    0  502  0.41925843908E+03  0.10069027440E+04 -0.22108242959E+03  0.11128828399E+04  0.50400001928E-02 0. -1.
</event>
<event>
 5   0  0.1433375E-05  0.2193519E+04  0.7818609E-02  0.8521131E-01
       -3   -1    0    0    0  501  0.00000000000E+00  0.00000000000E+00  0.18279332122E+04  0.18279332150E+04  0.10100000352E+00 0. -1.
        3   -1    0    0  501    0  0.00000000000E+00  0.00000000000E+00 -0.65805526768E+03  0.65805527543E+03  0.10100000352E+00 0.  1.
    10030    2    1    2    0    0  0.00000000000E+00  0.00000000000E+00  0.11698779445E+04  0.24859884904E+04  0.21935187187E+04 0.  0.
        3    1    3    3  502    0 -0.17670227760E+03 -0.19966615595E+03  0.17906433867E+04  0.18103850467E+04  0.10100000352E+00 0. -1.
       -3    1    3    3    0  502  0.17670227760E+03  0.19966615595E+03 -0.62076544220E+03  0.67560344372E+03  0.10100000352E+00 0.  1.
</event>
<event>
 5   0  0.4027923E-05  0.2201510E+04  0.7818609E-02  0.8517800E-01
        2   -1    0    0  501    0  0.00000000000E+00  0.00000000000E+00  0.13358917701E+04  0.13358917701E+04  0.25500000920E-02 0. -1.
       -2   -1    0    0    0  501  0.00000000000E+00  0.00000000000E+00 -0.90700558332E+03  0.90700558333E+03  0.25500000920E-02 0.  1.
    10030    2    1    2    0    0  0.00000000000E+00  0.00000000000E+00  0.42888618674E+03  0.22428973534E+04  0.22015097494E+04 0.  0.
        5    1    3    3  502    0 -0.81238960909E+03 -0.73843310148E+03  0.13307370253E+03  0.11058892452E+04  0.46999998093E+01 0. -1.
       -5    1    3    3    0  502  0.81238960909E+03  0.73843310148E+03  0.29581248421E+03  0.11370081082E+04  0.46999998093E+01 0.  1.
</event>
<event>
 5   0  0.4027923E-05  0.2204930E+04  0.7818609E-02  0.8516379E-01
       -2   -1    0    0    0  501  0.00000000000E+00  0.00000000000E+00  0.66129954692E+03  0.66129954692E+03  0.25500000920E-02 0.  1.
        2   -1    0    0  501    0  0.00000000000E+00  0.00000000000E+00 -0.18379401527E+04  0.18379401527E+04  0.25500000920E-02 0. -1.
    10030    2    1    2    0    0  0.00000000000E+00  0.00000000000E+00 -0.11766406058E+04  0.24992396996E+04  0.22049299220E+04 0.  0.
        5    1    3    3  502    0  0.67901171503E+03 -0.28216267753E+03  0.34274359310E+03  0.81127550582E+03  0.46999998093E+01 0.  1.
       -5    1    3    3    0  502 -0.67901171503E+03  0.28216267753E+03 -0.15193841989E+04  0.16879641938E+04  0.46999998093E+01 0. -1.
</event>
<event>
 5   0  0.4143281E-05  0.2192508E+04  0.7818609E-02  0.8521553E-01
        2   -1    0    0  501    0  0.00000000000E+00  0.00000000000E+00  0.23953695444E+04  0.23953695444E+04  0.25500000920E-02 0. -1.
       -2   -1    0    0    0  501  0.00000000000E+00  0.00000000000E+00 -0.50170646481E+03  0.50170646482E+03  0.25500000920E-02 0.  1.
    10030    2    1    2    0    0  0.00000000000E+00  0.00000000000E+00  0.18936630796E+04  0.28970760093E+04  0.21925075928E+04 0.  0.
        2    1    3    3  502    0  0.21000993350E+03  0.37690783336E+03 -0.38479361270E+03  0.57812612067E+03  0.25500000920E-02 0.  1.
       -2    1    3    3    0  502 -0.21000993350E+03 -0.37690783336E+03  0.22784566923E+04  0.23189498886E+04  0.25500000920E-02 0. -1.
</event>
<event>
 5   0  0.1786228E-05  0.2204721E+04  0.7818609E-02  0.8516466E-01
       -1   -1    0    0    0  501  0.00000000000E+00  0.00000000000E+00  0.12813879575E+04  0.12813879575E+04  0.50400001928E-02 0. -1.
        1   -1    0    0  501    0  0.00000000000E+00  0.00000000000E+00 -0.94834524587E+03  0.94834524588E+03  0.50400001928E-02 0.  1.
    10030    2    1    2    0    0  0.00000000000E+00  0.00000000000E+00  0.33304271166E+03  0.22297332034E+04  0.22047205516E+04 0.  0.
        5    1    3    3  502    0 -0.24334147757E+03  0.38153099185E+03 -0.85006662236E+03  0.96302457129E+03  0.46999998093E+01 0.  1.
       -5    1    3    3    0  502  0.24334147757E+03 -0.38153099185E+03  0.11831093340E+04  0.12667086321E+04  0.46999998093E+01 0. -1.
</event>
<event>
 5   0  0.4029532E-05  0.2210416E+04  0.7818609E-02  0.8514105E-01
        2   -1    0    0  501    0  0.00000000000E+00  0.00000000000E+00  0.11731085352E+04  0.11731085352E+04  0.25500000920E-02 0. -1.
       -2   -1    0    0    0  501  0.00000000000E+00  0.00000000000E+00 -0.10412377835E+04  0.10412377835E+04  0.25500000920E-02 0.  1.
    10030    2    1    2    0    0  0.00000000000E+00  0.00000000000E+00  0.13187075168E+03  0.22143463186E+04  0.22104161879E+04 0.  0.
        3    1    3    3  502    0  0.28846622175E+03 -0.51631729117E+03  0.10012380559E+04  0.11628731492E+04  0.10100000352E+00 0. -1.
       -3    1    3    3    0  502 -0.28846622175E+03  0.51631729117E+03 -0.86936730423E+03  0.10514731695E+04  0.10100000352E+00 0.  1.
</event>
<event>
 5   0  0.1884407E-05  0.2221765E+04  0.7818609E-02  0.8509423E-01
       -1   -1    0    0    0  501  0.00000000000E+00  0.00000000000E+00  0.48253670501E+03  0.48253670504E+03  0.50400001928E-02 0. -1.
        1   -1    0    0  501    0  0.00000000000E+00  0.00000000000E+00 -0.25574415036E+04  0.25574415036E+04  0.50400001928E-02 0.  1.
    10030    2    1    2    0    0  0.00000000000E+00  0.00000000000E+00 -0.20749047985E+04  0.30399782086E+04  0.22217645208E+04 0.  0.
        3    1    3    3  502    0  0.44212955863E+03  0.10028082937E+04 -0.78905782816E+03  0.13504500313E+04  0.10100000352E+00 0. -1.
       -3    1    3    3    0  502 -0.44212955863E+03 -0.10028082937E+04 -0.12858469704E+04  0.16895281773E+04  0.10100000352E+00 0.  1.
</event>
<event>
 5   0  0.4132460E-05  0.2205354E+04  0.7818609E-02  0.8516203E-01
       -2   -1    0    0    0  501  0.00000000000E+00  0.00000000000E+00  0.70980014317E+03  0.70980014318E+03  0.25500000920E-02 0.  1.
        2   -1    0    0  501    0  0.00000000000E+00  0.00000000000E+00 -0.17130118076E+04  0.17130118076E+04  0.25500000920E-02 0. -1.
    10030    2    1    2    0    0  0.00000000000E+00  0.00000000000E+00 -0.10032116644E+04  0.24228119508E+04  0.22053535103E+04 0.  0.
        4    1    3    3  502    0  0.77095969566E+03  0.56239912695E+03  0.10534004532E+03  0.96008841695E+03  0.12699999809E+01 0.  1.
       -4    1    3    3    0  502 -0.77095969566E+03 -0.56239912695E+03 -0.11085517097E+04  0.14627235338E+04  0.12699999809E+01 0. -1.
</event>
<event>
 5   0  0.1815681E-05  0.2181605E+04  0.7818609E-02  0.8526124E-01
       -1   -1    0    0    0  501  0.00000000000E+00  0.00000000000E+00  0.11071861374E+04  0.11071861374E+04  0.50400001928E-02 0.  1.
        1   -1    0    0  501    0  0.00000000000E+00  0.00000000000E+00 -0.10746610954E+04  0.10746610955E+04  0.50400001928E-02 0. -1.
    10030    2    1    2    0    0  0.00000000000E+00  0.00000000000E+00  0.32525041930E+02  0.21818472328E+04  0.21816047921E+04 0.  0.
        2    1    3    3  502    0 -0.12052011517E+03  0.12188511633E+03  0.10936328039E+04  0.11069840963E+04  0.25500000920E-02 0.  1.
       -2    1    3    3    0  502  0.12052011517E+03 -0.12188511633E+03 -0.10611077620E+04  0.10748631365E+04  0.25500000920E-02 0. -1.
</event>
<event>
 5   0  0.1788413E-05  0.2185723E+04  0.7818609E-02  0.8524394E-01
        1   -1    0    0  501    0  0.00000000000E+00  0.00000000000E+00  0.86964458284E+03  0.86964458286E+03  0.50400001928E-02 0.  1.
       -1   -1    0    0    0  501  0.00000000000E+00  0.00000000000E+00 -0.13733732239E+04  0.13733732239E+04  0.50400001928E-02 0. -1.
    10030    2    1    2    0    0  0.00000000000E+00  0.00000000000E+00 -0.50372864105E+03  0.22430178068E+04  0.21857232985E+04 0.  0.
        1    1    3    3  502    0 -0.99556628758E+03  0.80623126023E+02  0.20326350296E+03  0.10192979805E+04  0.50400001928E-02 0.  1.
       -1    1    3    3    0  502  0.99556628758E+03 -0.80623126023E+02 -0.70699214401E+03  0.12237198262E+04  0.50400001928E-02 0. -1.
</event>
<event>
 5   0  0.4027923E-05  0.2228941E+04  0.7818609E-02  0.8506478E-01
       -2   -1    0    0    0  501  0.00000000000E+00  0.00000000000E+00  0.89348233765E+03  0.89348233765E+03  0.25500000920E-02 0.  1.
        2   -1    0    0  501    0  0.00000000000E+00  0.00000000000E+00 -0.13901167988E+04  0.13901167988E+04  0.25500000920E-02 0. -1.
    10030    2    1    2    0    0  0.00000000000E+00  0.00000000000E+00 -0.49663446118E+03  0.22835991365E+04  0.22289412796E+04 0.  0.
        5    1    3    3  502    0 -0.81313001452E+03 -0.48453593497E+03 -0.85101762756E+03  0.12728741435E+04  0.46999998093E+01 0. -1.
       -5    1    3    3    0  502  0.81313001452E+03  0.48453593497E+03  0.35438316638E+03  0.10107249930E+04  0.46999998093E+01 0.  1.
</event>
<event>
 5   0  0.1786228E-05  0.2314075E+04  0.7818609E-02  0.8472392E-01
        1   -1    0    0  501    0  0.00000000000E+00  0.00000000000E+00  0.17764242876E+04  0.17764242876E+04  0.50400001928E-02 0.  1.
       -1   -1    0    0    0  501  0.00000000000E+00  0.00000000000E+00 -0.75361276012E+03  0.75361276013E+03  0.50400001928E-02 0. -1.
    10030    2    1    2    0    0  0.00000000000E+00  0.00000000000E+00  0.10228115275E+04  0.25300370477E+04  0.23140752023E+04 0.  0.
        5    1    3    3  502    0 -0.85084126080E+03 -0.10113511185E+01 -0.34584918406E+03  0.91845828540E+03  0.46999998093E+01 0. -1.
       -5    1    3    3    0  502  0.85084126080E+03  0.10113511185E+01  0.13686607115E+04  0.16115787623E+04  0.46999998093E+01 0.  1.
</event>
<event>
 5   0  0.4029532E-05  0.2153302E+04  0.7818609E-02  0.8538120E-01
       -2   -1    0    0    0  501  0.00000000000E+00  0.00000000000E+00  0.12583627528E+04  0.12583627528E+04  0.25500000920E-02 0.  1.
        2   -1    0    0  501    0  0.00000000000E+00  0.00000000000E+00 -0.92117914441E+03  0.92117914441E+03  0.25500000920E-02 0. -1.
    10030    2    1    2    0    0  0.00000000000E+00  0.00000000000E+00  0.33718360840E+03  0.21795418972E+04  0.21533021376E+04 0.  0.
        3    1    3    3  502    0 -0.32716781410E+03  0.96400847064E+03 -0.18614489322E+03  0.10348918018E+04  0.10100000352E+00 0.  1.
       -3    1    3    3    0  502  0.32716781410E+03 -0.96400847064E+03  0.52332850161E+03  0.11446500954E+04  0.10100000352E+00 0. -1.
</event>
<event>
 5   0  0.3963414E-05  0.2193091E+04  0.7818609E-02  0.8521309E-01
        2   -1    0    0  501    0  0.00000000000E+00  0.00000000000E+00  0.10477003812E+04  0.10477003812E+04  0.25500000920E-02 0.  1.
       -2   -1    0    0    0  501  0.00000000000E+00  0.00000000000E+00 -0.11476673527E+04  0.11476673527E+04  0.25500000920E-02 0. -1.
    10030    2    1    2    0    0  0.00000000000E+00  0.00000000000E+00 -0.99966971448E+02  0.21953677339E+04  0.21930905343E+04 0.  0.
        1    1    3    3  502    0  0.30650697521E+03 -0.98716124340E+03  0.31642619343E+03  0.10809992517E+04  0.50400001928E-02 0.  1.
       -1    1    3    3    0  502 -0.30650697521E+03  0.98716124340E+03 -0.41639316488E+03  0.11143684822E+04  0.50400001928E-02 0. -1.
</event>
<event>
 5   0  0.1815681E-05  0.2293398E+04  0.7818609E-02  0.8480529E-01
        1   -1    0    0  501    0  0.00000000000E+00  0.00000000000E+00  0.22292923055E+04  0.22292923055E+04  0.50400001928E-02 0. -1.
       -1   -1    0    0    0  501  0.00000000000E+00  0.00000000000E+00 -0.58983660024E+03  0.58983660026E+03  0.50400001928E-02 0.  1.
    10030    2    1    2    0    0  0.00000000000E+00  0.00000000000E+00  0.16394557053E+04  0.28191289058E+04  0.22933976493E+04 0.  0.
        2    1    3    3  502    0 -0.37330103999E+02 -0.11099065087E+04  0.46851829875E+03  0.12053196219E+04  0.25500000920E-02 0. -1.
       -2    1    3    3    0  502  0.37330103999E+02  0.11099065087E+04  0.11709374065E+04  0.16138092839E+04  0.25500000920E-02 0.  1.
</event>
<event>
 5   0  0.1815681E-05  0.2189548E+04  0.7818609E-02  0.8522791E-01
        1   -1    0    0  501    0  0.00000000000E+00  0.00000000000E+00  0.19885993748E+04  0.19885993748E+04  0.50400001928E-02 0. -1.
       -1   -1    0    0    0  501  0.00000000000E+00  0.00000000000E+00 -0.60270071610E+03  0.60270071612E+03  0.50400001928E-02 0.  1.
    10030    2    1    2    0    0  0.00000000000E+00  0.00000000000E+00  0.13858986587E+04  0.25913000910E+04  0.21895481427E+04 0.  0.
        2    1    3    3  502    0  0.19496717832E+03 -0.10368546969E+04  0.34699380344E+03  0.11106235018E+04  0.25500000920E-02 0. -1.
       -2    1    3    3    0  502 -0.19496717832E+03  0.10368546969E+04  0.10389048553E+04  0.14806765891E+04  0.25500000920E-02 0.  1.
</event>
<event>
 5   0  0.4029532E-05  0.2200152E+04  0.7818609E-02  0.8518365E-01
       -2   -1    0    0    0  501  0.00000000000E+00  0.00000000000E+00  0.13007322961E+04  0.13007322961E+04  0.25500000920E-02 0. -1.
        2   -1    0    0  501    0  0.00000000000E+00  0.00000000000E+00 -0.93037417489E+03  0.93037417490E+03  0.25500000920E-02 0.  1.
    10030    2    1    2    0    0  0.00000000000E+00  0.00000000000E+00  0.37035812118E+03  0.22311064710E+04  0.22001524826E+04 0.  0.
        3    1    3    3  502    0  0.48287521605E+03 -0.96934182539E+03 -0.10868775718E+02  0.10830097826E+04  0.10100000352E+00 0.  1.
       -3    1    3    3    0  502 -0.48287521605E+03  0.96934182539E+03  0.38122689689E+03  0.11480966884E+04  0.10100000352E+00 0. -1.
</event>
<event>
 5   0  0.4029532E-05  0.2187853E+04  0.7818609E-02  0.8523501E-01
        2   -1    0    0  501    0  0.00000000000E+00  0.00000000000E+00  0.94539219555E+03  0.94539219555E+03  0.25500000920E-02 0. -1.
       -2   -1    0    0    0  501  0.00000000000E+00  0.00000000000E+00 -0.12657978485E+04  0.12657978486E+04  0.25500000920E-02 0.  1.
    10030    2    1    2    0    0  0.00000000000E+00  0.00000000000E+00 -0.32040565300E+03  0.22111900441E+04  0.21878532009E+04 0.  0.
        3    1    3    3  502    0  0.21675092773E+03 -0.41235643018E+02 -0.12430762895E+04  0.12625054513E+04  0.10100000352E+00 0.  1.
       -3    1    3    3    0  502 -0.21675092773E+03  0.41235643018E+02  0.92267063649E+03  0.94868459278E+03  0.10100000352E+00 0. -1.
</event>
<event>
 5   0  0.1866935E-05  0.2265282E+04  0.7818609E-02  0.8491737E-01
        1   -1    0    0  501    0  0.00000000000E+00  0.00000000000E+00  0.15145868514E+04  0.15145868514E+04  0.50400001928E-02 0.  1.
       -1   -1    0    0    0  501  0.00000000000E+00  0.00000000000E+00 -0.84701338107E+03  0.84701338109E+03  0.50400001928E-02 0. -1.
    10030    2    1    2    0    0  0.00000000000E+00  0.00000000000E+00  0.66757347035E+03  0.23616002325E+04  0.22652817308E+04 0.  0.
        4    1    3    3  502    0  0.32301260347E+03 -0.10652717137E+04  0.11577114072E+03  0.11191718081E+04  0.12699999809E+01 0. -1.
       -4    1    3    3    0  502 -0.32301260347E+03  0.10652717137E+04  0.55180232963E+03  0.12424284245E+04  0.12699999809E+01 0.  1.
</event>
<event>
 5   0  0.1866935E-05  0.2196614E+04  0.7818609E-02  0.8519839E-01
        1   -1    0    0  501    0  0.00000000000E+00  0.00000000000E+00  0.15591378465E+04  0.15591378465E+04  0.50400001928E-02 0. -1.
       -1   -1    0    0    0  501  0.00000000000E+00  0.00000000000E+00 -0.77368260287E+03  0.77368260289E+03  0.50400001928E-02 0.  1.
    10030    2    1    2    0    0  0.00000000000E+00  0.00000000000E+00  0.78545524364E+03  0.23328204494E+04  0.21966136004E+04 0.  0.
        4    1    3    3  502    0  0.41766282955E+03 -0.25823796766E+03 -0.65060889177E+03  0.81512123644E+03  0.12699999809E+01 0.  1.
       -4    1    3    3    0  502 -0.41766282955E+03  0.25823796766E+03  0.14360641354E+04  0.15176992130E+04  0.12699999809E+01 0. -1.
</event>
<event>
 5   0  0.1788413E-05  0.2192046E+04  0.7818609E-02  0.8521746E-01
        1   -1    0    0  501    0  0.00000000000E+00  0.00000000000E+00  0.10198479261E+04  0.10198479261E+04  0.50400001928E-02 0. -1.
       -1   -1    0    0    0  501  0.00000000000E+00  0.00000000000E+00 -0.11778882431E+04  0.11778882431E+04  0.50400001928E-02 0.  1.
    10030    2    1    2    0    0  0.00000000000E+00  0.00000000000E+00 -0.15804031708E+03  0.21977361692E+04  0.21920464246E+04 0.  0.
        1    1    3    3  502    0  0.35566521815E+03 -0.27392914624E+03 -0.10814814118E+04  0.11709555792E+04  0.50400001928E-02 0.  1.
       -1    1    3    3    0  502 -0.35566521815E+03  0.27392914624E+03  0.92344109467E+03  0.10267805900E+04  0.50400001928E-02 0. -1.
</event>
<event>
 5   0  0.1788413E-05  0.2188717E+04  0.7818609E-02  0.8523139E-01
        1   -1    0    0  501    0  0.00000000000E+00  0.00000000000E+00  0.30062318439E+04  0.30062318439E+04  0.50400001928E-02 0. -1.
       -1   -1    0    0    0  501  0.00000000000E+00  0.00000000000E+00 -0.39837943955E+03  0.39837943958E+03  0.50400001928E-02 0.  1.
    10030    2    1    2    0    0  0.00000000000E+00  0.00000000000E+00  0.26078524044E+04  0.34046112835E+04  0.21887173935E+04 0.  0.
        1    1    3    3  502    0  0.15801400403E+03  0.37567045127E+03  0.28837824235E+04  0.29124384593E+04  0.50400001928E-02 0. -1.
       -1    1    3    3    0  502 -0.15801400403E+03 -0.37567045127E+03 -0.27593001908E+03  0.49217282420E+03  0.50400001928E-02 0.  1.
</event>
<event>
 5   0  0.1815681E-05  0.2217061E+04  0.7818609E-02  0.8511360E-01
       -1   -1    0    0    0  501  0.00000000000E+00  0.00000000000E+00  0.72932096991E+03  0.72932096993E+03  0.50400001928E-02 0. -1.
        1   -1    0    0  501    0  0.00000000000E+00  0.00000000000E+00 -0.16849103088E+04  0.16849103088E+04  0.50400001928E-02 0.  1.
    10030    2    1    2    0    0  0.00000000000E+00  0.00000000000E+00 -0.95558933885E+03  0.24142312787E+04  0.22170614972E+04 0.  0.
        2    1    3    3  502    0 -0.35407369966E+03 -0.87943212013E+03 -0.11034066663E+04  0.14547423517E+04  0.25500000920E-02 0.  1.
       -2    1    3    3    0  502  0.35407369966E+03  0.87943212013E+03  0.14781732742E+03  0.95948892698E+03  0.25500000920E-02 0. -1.
</event>
<event>
 5   0  0.1786228E-05  0.2294716E+04  0.7818609E-02  0.8480008E-01
       -1   -1    0    0    0  501  0.00000000000E+00  0.00000000000E+00  0.10387155251E+04  0.10387155251E+04  0.50400001928E-02 0.  1.
        1   -1    0    0  501    0  0.00000000000E+00  0.00000000000E+00 -0.12673632562E+04  0.12673632562E+04  0.50400001928E-02 0. -1.
    10030    2    1    2    0    0  0.00000000000E+00  0.00000000000E+00 -0.22864773106E+03  0.23060787813E+04  0.22947155730E+04 0.  0.
        5    1    3    3  502    0  0.97231871360E+03  0.21696598727E+03 -0.68629061411E+03  0.12097498987E+04  0.46999998093E+01 0. -1.
       -5    1    3    3    0  502 -0.97231871360E+03 -0.21696598727E+03  0.45764288306E+03  0.10963288826E+04  0.46999998093E+01 0.  1.
</event>
<event>
 5   0  0.1815681E-05  0.2233788E+04  0.7818609E-02  0.8504495E-01
       -1   -1    0    0    0  501  0.00000000000E+00  0.00000000000E+00  0.92596283018E+03  0.92596283019E+03  0.50400001928E-02 0.  1.
        1   -1    0    0  501    0  0.00000000000E+00  0.00000000000E+00 -0.13471948017E+04  0.13471948017E+04  0.50400001928E-02 0. -1.
    10030    2    1    2    0    0  0.00000000000E+00  0.00000000000E+00 -0.42123197150E+03  0.22731576319E+04  0.22337880932E+04 0.  0.
        2    1    3    3  502    0  0.74030401710E+03  0.40585205120E+03  0.53349402015E+03  0.99869003937E+03  0.25500000920E-02 0.  1.
       -2    1    3    3    0  502 -0.74030401710E+03 -0.40585205120E+03 -0.95472599165E+03  0.12744675925E+04  0.25500000920E-02 0. -1.
</event>
<event>
 5   0  0.3963414E-05  0.2202211E+04  0.7818609E-02  0.8517508E-01
       -2   -1    0    0    0  501  0.00000000000E+00  0.00000000000E+00  0.83712742200E+03  0.83712742200E+03  0.25500000920E-02 0. -1.
        2   -1    0    0  501    0  0.00000000000E+00  0.00000000000E+00 -0.14483261355E+04  0.14483261355E+04  0.25500000920E-02 0.  1.
    10030    2    1    2    0    0  0.00000000000E+00  0.00000000000E+00 -0.61119871347E+03  0.22854535575E+04  0.22022111833E+04 0.  0.
        1    1    3    3  502    0  0.54108080088E+03  0.91468594407E+03 -0.65857329165E+01  0.10627615825E+04  0.50400001928E-02 0.  1.
       -1    1    3    3    0  502 -0.54108080088E+03 -0.91468594407E+03 -0.60461298055E+03  0.12226919750E+04  0.50400001928E-02 0. -1.
</event>
<event>
 5   0  0.3963414E-05  0.2192053E+04  0.7818609E-02  0.8521743E-01
       -2   -1    0    0    0  501  0.00000000000E+00  0.00000000000E+00  0.81959193907E+03  0.81959193908E+03  0.25500000920E-02 0. -1.
        2   -1    0    0  501    0  0.00000000000E+00  0.00000000000E+00 -0.14656983437E+04  0.14656983437E+04  0.25500000920E-02 0.  1.
    10030    2    1    2    0    0  0.00000000000E+00  0.00000000000E+00 -0.64610640464E+03  0.22852902828E+04  0.21920534187E+04 0.  0.
        1    1    3    3  502    0  0.28141711747E+03  0.35875781443E+03 -0.13621264169E+04  0.14364160745E+04  0.50400001928E-02 0.  1.
       -1    1    3    3    0  502 -0.28141711747E+03 -0.35875781443E+03  0.71602001229E+03  0.84887420826E+03  0.50400001928E-02 0. -1.
</event>
<event>
 5   0  0.4143281E-05  0.2082310E+04  0.7818609E-02  0.8569076E-01
       -2   -1    0    0    0  501  0.00000000000E+00  0.00000000000E+00  0.99719981237E+03  0.99719981237E+03  0.25500000920E-02 0. -1.
        2   -1    0    0  501    0  0.00000000000E+00  0.00000000000E+00 -0.10870474689E+04  0.10870474689E+04  0.25500000920E-02 0.  1.
    10030    2    1    2    0    0  0.00000000000E+00  0.00000000000E+00 -0.89847656504E+02  0.20842472813E+04  0.20823098060E+04 0.  0.
        2    1    3    3  502    0  0.10336390648E+04 -0.89455312415E+02 -0.13213447238E+03  0.10458831139E+04  0.25500000920E-02 0.  1.
       -2    1    3    3    0  502 -0.10336390648E+04  0.89455312415E+02  0.42286815872E+02  0.10383641673E+04  0.25500000920E-02 0. -1.
</event>
<event>
 5   0  0.1866935E-05  0.2209796E+04  0.7818609E-02  0.8514362E-01
       -1   -1    0    0    0  501  0.00000000000E+00  0.00000000000E+00  0.75858029604E+03  0.75858029606E+03  0.50400001928E-02 0. -1.
        1   -1    0    0  501    0  0.00000000000E+00  0.00000000000E+00 -0.16093217462E+04  0.16093217462E+04  0.50400001928E-02 0.  1.
    10030    2    1    2    0    0  0.00000000000E+00  0.00000000000E+00 -0.85074145012E+03  0.23679020422E+04  0.22097961595E+04 0.  0.
        4    1    3    3  502    0  0.46747639072E+03  0.43718135066E+03 -0.13904399686E+04  0.15306817528E+04  0.12699999809E+01 0.  1.
       -4    1    3    3    0  502 -0.46747639072E+03 -0.43718135066E+03  0.53969851847E+03  0.83722028940E+03  0.12699999809E+01 0. -1.
</event>
<event>
 5   0  0.1866935E-05  0.2197251E+04  0.7818609E-02  0.8519573E-01
        1   -1    0    0  501    0  0.00000000000E+00  0.00000000000E+00  0.19090508968E+04  0.19090508968E+04  0.50400001928E-02 0.  1.
       -1   -1    0    0    0  501  0.00000000000E+00  0.00000000000E+00 -0.63223959411E+03  0.63223959413E+03  0.50400001928E-02 0. -1.
    10030    2    1    2    0    0  0.00000000000E+00  0.00000000000E+00  0.12768113027E+04  0.25412904910E+04  0.21972506131E+04 0.  0.
        4    1    3    3  502    0  0.48589846940E+03 -0.23374308096E+03  0.17454881996E+04  0.18268726881E+04  0.12699999809E+01 0.  1.
       -4    1    3    3    0  502 -0.48589846940E+03  0.23374308096E+03 -0.46867689693E+03  0.71441780288E+03  0.12699999809E+01 0. -1.
</event>
<event>
 5   0  0.1788413E-05  0.2204732E+04  0.7818609E-02  0.8516461E-01
        1   -1    0    0  501    0  0.00000000000E+00  0.00000000000E+00  0.19282972755E+04  0.19282972755E+04  0.50400001928E-02 0. -1.
       -1   -1    0    0    0  501  0.00000000000E+00  0.00000000000E+00 -0.63019872966E+03  0.63019872968E+03  0.50400001928E-02 0.  1.
    10030    2    1    2    0    0  0.00000000000E+00  0.00000000000E+00  0.12980985458E+04  0.25584960052E+04  0.22047317238E+04 0.  0.
        1    1    3    3  502    0  0.63387719906E+03  0.88566958214E+03  0.84666652458E+03  0.13795126372E+04  0.50400001928E-02 0. -1.
       -1    1    3    3    0  502 -0.63387719906E+03 -0.88566958214E+03  0.45143202125E+03  0.11789833680E+04  0.50400001928E-02 0.  1.
</event>
<event>
 5   0  0.1815681E-05  0.2203811E+04  0.7818609E-02  0.8516844E-01
       -1   -1    0    0    0  501  0.00000000000E+00  0.00000000000E+00  0.56165242052E+03  0.56165242054E+03  0.50400001928E-02 0. -1.
        1   -1    0    0  501    0  0.00000000000E+00  0.00000000000E+00 -0.21618270242E+04  0.21618270242E+04  0.50400001928E-02 0.  1.
    10030    2    1    2    0    0  0.00000000000E+00  0.00000000000E+00 -0.16001746037E+04  0.27234794448E+04  0.22038106824E+04 0.  0.
        2    1    3    3  502    0  0.44331669863E+03 -0.99373356385E+03 -0.58547215365E+03  0.12356430447E+04  0.25500000920E-02 0.  1.
       -2    1    3    3    0  502 -0.44331669863E+03  0.99373356385E+03 -0.10147024500E+04  0.14878364001E+04  0.25500000920E-02 0. -1.
</event>
<event>
 5   0  0.1815681E-05  0.2405294E+04  0.7818609E-02  0.8437524E-01
        1   -1    0    0  501    0  0.00000000000E+00  0.00000000000E+00  0.13246187688E+04  0.13246187688E+04  0.50400001928E-02 0. -1.
       -1   -1    0    0    0  501  0.00000000000E+00  0.00000000000E+00 -0.10919066973E+04  0.10919066973E+04  0.50400001928E-02 0.  1.
    10030    2    1    2    0    0  0.00000000000E+00  0.00000000000E+00  0.23271207145E+03  0.24165254661E+04  0.24052942482E+04 0.  0.
        2    1    3    3  502    0 -0.11539940120E+04  0.28902782789E+03 -0.60878690446E+02  0.11911949799E+04  0.25500000920E-02 0.  1.
       -2    1    3    3    0  502  0.11539940120E+04 -0.28902782789E+03  0.29359076190E+03  0.12253304863E+04  0.25500000920E-02 0. -1.
</event>
<event>
 5   0  0.4029532E-05  0.2035910E+04  0.7818609E-02  0.8590013E-01
        2   -1    0    0  501    0  0.00000000000E+00  0.00000000000E+00  0.15436422924E+04  0.15436422924E+04  0.25500000920E-02 0.  1.
       -2   -1    0    0    0  501  0.00000000000E+00  0.00000000000E+00 -0.67129021117E+03  0.67129021117E+03  0.25500000920E-02 0. -1.
    10030    2    1    2    0    0  0.00000000000E+00  0.00000000000E+00  0.87235208123E+03  0.22149325036E+04  0.20359095858E+04 0.  0.
        3    1    3    3  502    0  0.62670985060E+03  0.43213587331E+02 -0.43525685417E+03  0.76425204630E+03  0.10100000352E+00 0. -1.
       -3    1    3    3    0  502 -0.62670985060E+03 -0.43213587331E+02  0.13076089354E+04  0.14506804573E+04  0.10100000352E+00 0.  1.
</event>
<event>
 5   0  0.3963414E-05  0.2194235E+04  0.7818609E-02  0.8520832E-01
        2   -1    0    0  501    0  0.00000000000E+00  0.00000000000E+00  0.11358841828E+04  0.11358841828E+04  0.25500000920E-02 0.  1.
       -2   -1    0    0    0  501  0.00000000000E+00  0.00000000000E+00 -0.10596737642E+04  0.10596737642E+04  0.25500000920E-02 0. -1.
    10030    2    1    2    0    0  0.00000000000E+00  0.00000000000E+00  0.76210418637E+02  0.21955579470E+04  0.21942348713E+04 0.  0.
        1    1    3    3  502    0 -0.54699511683E+03 -0.65507233925E+03 -0.65176192000E+03  0.10738328678E+04  0.50400001928E-02 0.  1.
       -1    1    3    3    0  502  0.54699511683E+03  0.65507233925E+03  0.72797233863E+03  0.11217250792E+04  0.50400001928E-02 0. -1.
</event>
<event>
 5   0  0.4029532E-05  0.2212418E+04  0.7818609E-02  0.8513277E-01
        2   -1    0    0  501    0  0.00000000000E+00  0.00000000000E+00  0.19117839853E+04  0.19117839853E+04  0.25500000920E-02 0.  1.
       -2   -1    0    0    0  501  0.00000000000E+00  0.00000000000E+00 -0.64008186733E+03  0.64008186733E+03  0.25500000920E-02 0. -1.
    10030    2    1    2    0    0  0.00000000000E+00  0.00000000000E+00  0.12717021180E+04  0.25518658526E+04  0.22124179200E+04 0.  0.
        3    1    3    3  502    0  0.14724789280E+03  0.10962682792E+04  0.61905011145E+03  0.12675603073E+04  0.10100000352E+00 0.  1.
       -3    1    3    3    0  502 -0.14724789280E+03 -0.10962682792E+04  0.65265200651E+03  0.12843055453E+04  0.10100000352E+00 0. -1.
</event>
<event>
 5   0  0.1788413E-05  0.2160775E+04  0.7818609E-02  0.8534934E-01
       -1   -1    0    0    0  501  0.00000000000E+00  0.00000000000E+00  0.11441004277E+04  0.11441004277E+04  0.50400001928E-02 0. -1.
        1   -1    0    0  501    0  0.00000000000E+00  0.00000000000E+00 -0.10202225252E+04  0.10202225252E+04  0.50400001928E-02 0.  1.
    10030    2    1    2    0    0  0.00000000000E+00  0.00000000000E+00  0.12387790257E+03  0.21643229529E+04  0.21607748864E+04 0.  0.
        1    1    3    3  502    0  0.14503903951E+03  0.94361464333E+03  0.56852836871E+03  0.11111567955E+04  0.50400001928E-02 0. -1.
       -1    1    3    3    0  502 -0.14503903951E+03 -0.94361464333E+03 -0.44465046614E+03  0.10531661574E+04  0.50400001928E-02 0.  1.
</event>
<event>
 5   0  0.4143281E-05  0.2205830E+04  0.7818609E-02  0.8516005E-01
       -2   -1    0    0    0  501  0.00000000000E+00  0.00000000000E+00  0.58954227187E+03  0.58954227188E+03  0.25500000920E-02 0. -1.
        2   -1    0    0  501    0  0.00000000000E+00  0.00000000000E+00 -0.20633323470E+04  0.20633323470E+04  0.25500000920E-02 0.  1.
    10030    2    1    2    0    0  0.00000000000E+00  0.00000000000E+00 -0.14737900751E+04  0.26528746189E+04  0.22058301290E+04 0.  0.
        2    1    3    3  502    0 -0.77008213644E+03  0.54960367580E+03 -0.55151650395E+02  0.94769847623E+03  0.25500000920E-02 0. -1.
       -2    1    3    3    0  502  0.77008213644E+03 -0.54960367580E+03 -0.14186384247E+04  0.17051761427E+04  0.25500000920E-02 0.  1.
</event>
<event>
 5   0  0.4143281E-05  0.2198553E+04  0.7818609E-02  0.8519031E-01
       -2   -1    0    0    0  501  0.00000000000E+00  0.00000000000E+00  0.77542379106E+03  0.77542379107E+03  0.25500000920E-02 0. -1.
        2   -1    0    0  501    0  0.00000000000E+00  0.00000000000E+00 -0.15583851696E+04  0.15583851696E+04  0.25500000920E-02 0.  1.
    10030    2    1    2    0    0  0.00000000000E+00  0.00000000000E+00 -0.78296137851E+03  0.23338089606E+04  0.21985531025E+04 0.  0.
        2    1    3    3  502    0 -0.71943629970E+03  0.82601489733E+03 -0.48946158753E+03  0.11997757481E+04  0.25500000920E-02 0.  1.
       -2    1    3    3    0  502  0.71943629970E+03 -0.82601489733E+03 -0.29349979099E+03  0.11340332126E+04  0.25500000920E-02 0. -1.
</event>
<event>
 5   0  0.1788413E-05  0.2204072E+04  0.7818609E-02  0.8516735E-01
        1   -1    0    0  501    0  0.00000000000E+00  0.00000000000E+00  0.86989558199E+03  0.86989558200E+03  0.50400001928E-02 0.  1.
       -1   -1    0    0    0  501  0.00000000000E+00  0.00000000000E+00 -0.13961250253E+04  0.13961250253E+04  0.50400001928E-02 0. -1.
    10030    2    1    2    0    0  0.00000000000E+00  0.00000000000E+00 -0.52622944330E+03  0.22660206073E+04  0.22040716789E+04 0.  0.
        1    1    3    3  502    0  0.53121070943E+03  0.82314865363E+03 -0.78200253685E+03  0.12535096695E+04  0.50400001928E-02 0. -1.
       -1    1    3    3    0  502 -0.53121070943E+03 -0.82314865363E+03  0.25577309355E+03  0.10125109378E+04  0.50400001928E-02 0.  1.
</event>
<event>
 5   0  0.1866935E-05  0.2196841E+04  0.7818609E-02  0.8519744E-01
       -1   -1    0    0    0  501  0.00000000000E+00  0.00000000000E+00  0.63058510707E+03  0.63058510709E+03  0.50400001928E-02 0. -1.
        1   -1    0    0  501    0  0.00000000000E+00  0.00000000000E+00 -0.19133466527E+04  0.19133466527E+04  0.50400001928E-02 0.  1.
    10030    2    1    2    0    0  0.00000000000E+00  0.00000000000E+00 -0.12827615456E+04  0.25439317598E+04  0.21968412814E+04 0.  0.
        4    1    3    3  502    0  0.32035091483E+03  0.94822802941E+03 -0.11737648933E+03  0.10077400248E+04  0.12699999809E+01 0. -1.
       -4    1    3    3    0  502 -0.32035091483E+03 -0.94822802941E+03 -0.11653850563E+04  0.15361917350E+04  0.12699999809E+01 0.  1.
</event>
<event>
 5   0  0.1786228E-05  0.2224297E+04  0.7818609E-02  0.8508383E-01
        1   -1    0    0  501    0  0.00000000000E+00  0.00000000000E+00  0.10393730975E+04  0.10393730975E+04  0.50400001928E-02 0.  1.
       -1   -1    0    0    0  501  0.00000000000E+00  0.00000000000E+00 -0.11900193566E+04  0.11900193566E+04  0.50400001928E-02 0. -1.
    10030    2    1    2    0    0  0.00000000000E+00  0.00000000000E+00 -0.15064625907E+03  0.22293924541E+04  0.22242968370E+04 0.  0.
        5    1    3    3  502    0 -0.16489405402E+03  0.85692560325E+03 -0.76635198236E+03  0.11613909718E+04  0.46999998093E+01 0. -1.
       -5    1    3    3    0  502  0.16489405402E+03 -0.85692560325E+03  0.61570572329E+03  0.10680014823E+04  0.46999998093E+01 0.  1.
</event>
<event>
 5   0  0.4132460E-05  0.2199058E+04  0.7818609E-02  0.8518820E-01
       -2   -1    0    0    0  501  0.00000000000E+00  0.00000000000E+00  0.11028763457E+04  0.11028763457E+04  0.25500000920E-02 0. -1.
        2   -1    0    0  501    0  0.00000000000E+00  0.00000000000E+00 -0.10961913274E+04  0.10961913274E+04  0.25500000920E-02 0.  1.
    10030    2    1    2    0    0  0.00000000000E+00  0.00000000000E+00  0.66850183630E+01  0.21990676731E+04  0.21990575121E+04 0.  0.
        4    1    3    3  502    0  0.31285540765E+03 -0.52990350513E+03  0.91454683014E+03  0.11023038366E+04  0.12699999809E+01 0. -1.
       -4    1    3    3    0  502 -0.31285540765E+03  0.52990350513E+03 -0.90786181177E+03  0.10967638365E+04  0.12699999809E+01 0.  1.
</event>
<event>
 5   0  0.1786228E-05  0.2228811E+04  0.7818609E-02  0.8506531E-01
       -1   -1    0    0    0  501  0.00000000000E+00  0.00000000000E+00  0.10706692357E+04  0.10706692357E+04  0.50400001928E-02 0. -1.
        1   -1    0    0  501    0  0.00000000000E+00  0.00000000000E+00 -0.11599281057E+04  0.11599281057E+04  0.50400001928E-02 0.  1.
    10030    2    1    2    0    0  0.00000000000E+00  0.00000000000E+00 -0.89258869976E+02  0.22305973414E+04  0.22288107487E+04 0.  0.
        5    1    3    3  502    0 -0.24882353708E+03  0.99497374713E+03 -0.48085879070E+03  0.11327546851E+04  0.46999998093E+01 0.  1.
       -5    1    3    3    0  502  0.24882353708E+03 -0.99497374713E+03  0.39159992073E+03  0.10978426563E+04  0.46999998093E+01 0. -1.
</event>
<event>
 5   0  0.3963414E-05  0.2211818E+04  0.7818609E-02  0.8513525E-01
       -2   -1    0    0    0  501  0.00000000000E+00  0.00000000000E+00  0.15733174147E+04  0.15733174147E+04  0.25500000920E-02 0. -1.
        2   -1    0    0  501    0  0.00000000000E+00  0.00000000000E+00 -0.77736031539E+03  0.77736031540E+03  0.25500000920E-02 0.  1.
    10030    2    1    2    0    0  0.00000000000E+00  0.00000000000E+00  0.79595709927E+03  0.23506777301E+04  0.22118178240E+04 0.  0.
        1    1    3    3  502    0  0.10835357699E+04 -0.75854614090E+02  0.61895222989E+03  0.12501622095E+04  0.50400001928E-02 0. -1.
       -1    1    3    3    0  502 -0.10835357699E+04  0.75854614090E+02  0.17700486939E+03  0.11005155206E+04  0.50400001928E-02 0.  1.
</event>
<event>
 5   0  0.1786228E-05  0.2206463E+04  0.7818609E-02  0.8515743E-01
        1   -1    0    0  501    0  0.00000000000E+00  0.00000000000E+00  0.12080391060E+04  0.12080391061E+04  0.50400001928E-02 0. -1.
       -1   -1    0    0    0  501  0.00000000000E+00  0.00000000000E+00 -0.10075171756E+04  0.10075171756E+04  0.50400001928E-02 0.  1.
    10030    2    1    2    0    0  0.00000000000E+00  0.00000000000E+00  0.20052193046E+03  0.22155562817E+04  0.22064633676E+04 0.  0.
        5    1    3    3  502    0 -0.10858582224E+04 -0.17760585821E+03  0.18100464796E+03  0.11150859575E+04  0.46999998093E+01 0.  1.
       -5    1    3    3    0  502  0.10858582224E+04  0.17760585821E+03  0.19517282491E+02  0.11004703242E+04  0.46999998093E+01 0. -1.
</event>
<event>
 5   0  0.1884407E-05  0.2161583E+04  0.7818609E-02  0.8534590E-01
        1   -1    0    0  501    0  0.00000000000E+00  0.00000000000E+00  0.18204980872E+04  0.18204980872E+04  0.50400001928E-02 0. -1.
       -1   -1    0    0    0  501  0.00000000000E+00  0.00000000000E+00 -0.64164322313E+03  0.64164322315E+03  0.50400001928E-02 0.  1.
    10030    2    1    2    0    0  0.00000000000E+00  0.00000000000E+00  0.11788548640E+04  0.24621413103E+04  0.21615829944E+04 0.  0.
        3    1    3    3  502    0  0.42045997370E+03 -0.69344714028E+03 -0.22437629354E+03  0.84142751152E+03  0.10100000352E+00 0.  1.
       -3    1    3    3    0  502 -0.42045997370E+03  0.69344714028E+03  0.14032311576E+04  0.16207137988E+04  0.10100000352E+00 0. -1.
</event>
<event>
 5   0  0.1884407E-05  0.2200147E+04  0.7818609E-02  0.8518367E-01
       -1   -1    0    0    0  501  0.00000000000E+00  0.00000000000E+00  0.58042257679E+03  0.58042257681E+03  0.50400001928E-02 0. -1.
        1   -1    0    0  501    0  0.00000000000E+00  0.00000000000E+00 -0.20849659491E+04  0.20849659491E+04  0.50400001928E-02 0.  1.
    10030    2    1    2    0    0  0.00000000000E+00  0.00000000000E+00 -0.15045433723E+04  0.26653885259E+04  0.22001466394E+04 0.  0.
        3    1    3    3  502    0  0.46672881616E+03  0.41466360767E+03  0.34500543353E+03  0.71330950837E+03  0.10100000352E+00 0. -1.
       -3    1    3    3    0  502 -0.46672881616E+03 -0.41466360767E+03 -0.18495488059E+04  0.19520790176E+04  0.10100000352E+00 0.  1.
</event>
<event>
 5   0  0.1786228E-05  0.2195506E+04  0.7818609E-02  0.8520301E-01
        1   -1    0    0  501    0  0.00000000000E+00  0.00000000000E+00  0.17691231826E+04  0.17691231826E+04  0.50400001928E-02 0. -1.
       -1   -1    0    0    0  501  0.00000000000E+00  0.00000000000E+00 -0.68116293907E+03  0.68116293909E+03  0.50400001928E-02 0.  1.
    10030    2    1    2    0    0  0.00000000000E+00  0.00000000000E+00  0.10879602435E+04  0.24502861217E+04  0.21955055424E+04 0.  0.
        5    1    3    3  502    0 -0.36459580796E+03 -0.73766819793E+03  0.13549048512E+04  0.15852046301E+04  0.46999998093E+01 0. -1.
       -5    1    3    3    0  502  0.36459580796E+03  0.73766819793E+03 -0.26694460774E+03  0.86508149155E+03  0.46999998093E+01 0.  1.
</event>
<event>
 5   0  0.4132460E-05  0.2192536E+04  0.7818609E-02  0.8521541E-01
       -2   -1    0    0    0  501  0.00000000000E+00  0.00000000000E+00  0.99612329904E+03  0.99612329904E+03  0.25500000920E-02 0.  1.
        2   -1    0    0  501    0  0.00000000000E+00  0.00000000000E+00 -0.12064804930E+04  0.12064804930E+04  0.25500000920E-02 0. -1.
    10030    2    1    2    0    0  0.00000000000E+00  0.00000000000E+00 -0.21035719396E+03  0.22026037920E+04  0.21925358186E+04 0.  0.
        4    1    3    3  502    0 -0.78688082741E+03 -0.71341975172E+03 -0.37781481086E+03  0.11273397105E+04  0.12699999809E+01 0.  1.
       -4    1    3    3    0  502  0.78688082741E+03  0.71341975172E+03  0.16745761690E+03  0.10752640815E+04  0.12699999809E+01 0. -1.
</event>
<event>
 5   0  0.4029532E-05  0.2195936E+04  0.7818609E-02  0.8520121E-01
        2   -1    0    0  501    0  0.00000000000E+00  0.00000000000E+00  0.22307077232E+04  0.22307077232E+04  0.25500000920E-02 0. -1.
       -2   -1    0    0    0  501  0.00000000000E+00  0.00000000000E+00 -0.54042666641E+03  0.54042666642E+03  0.25500000920E-02 0.  1.
    10030    2    1    2    0    0  0.00000000000E+00  0.00000000000E+00  0.16902810568E+04  0.27711343896E+04  0.21959361909E+04 0.  0.
        3    1    3    3  502    0 -0.89524727095E+03 -0.82736612889E+02  0.16404825338E+04  0.18706939827E+04  0.10100000352E+00 0. -1.
       -3    1    3    3    0  502  0.89524727095E+03  0.82736612889E+02  0.49798523019E+02  0.90044040688E+03  0.10100000352E+00 0.  1.
</event>
<event>
 5   0  0.4143281E-05  0.2190572E+04  0.7818609E-02  0.8522363E-01
       -2   -1    0    0    0  501  0.00000000000E+00  0.00000000000E+00  0.14257239387E+04  0.14257239387E+04  0.25500000920E-02 0. -1.
        2   -1    0    0  501    0  0.00000000000E+00  0.00000000000E+00 -0.84143294158E+03  0.84143294158E+03  0.25500000920E-02 0.  1.
    10030    2    1    2    0    0  0.00000000000E+00  0.00000000000E+00  0.58429099710E+03  0.22671568803E+04  0.21905716949E+04 0.  0.
        2    1    3    3  502    0 -0.18805928135E+03 -0.87353297281E+03  0.94771397431E+03  0.13025313528E+04  0.25500000920E-02 0. -1.
       -2    1    3    3    0  502  0.18805928135E+03  0.87353297281E+03 -0.36342297721E+03  0.96462552747E+03  0.25500000920E-02 0.  1.
</event>
<event>
 5   0  0.3963414E-05  0.2194769E+04  0.7818609E-02  0.8520608E-01
       -2   -1    0    0    0  501  0.00000000000E+00  0.00000000000E+00  0.53763109225E+03  0.53763109225E+03  0.25500000920E-02 0. -1.
        2   -1    0    0  501    0  0.00000000000E+00  0.00000000000E+00 -0.22399240586E+04  0.22399240586E+04  0.25500000920E-02 0.  1.
    10030    2    1    2    0    0  0.00000000000E+00  0.00000000000E+00 -0.17022929664E+04  0.27775551509E+04  0.21947690705E+04 0.  0.
        1    1    3    3  502    0 -0.20161192519E+03 -0.84843090890E+02 -0.22120559475E+04  0.22228444016E+04  0.50400001928E-02 0.  1.
       -1    1    3    3    0  502  0.20161192519E+03  0.84843090890E+02  0.50976298115E+03  0.55471074934E+03  0.50400001928E-02 0. -1.
</event>
<event>
 5   0  0.4027923E-05  0.2228174E+04  0.7818609E-02  0.8506792E-01
       -2   -1    0    0    0  501  0.00000000000E+00  0.00000000000E+00  0.12130941385E+04  0.12130941385E+04  0.25500000920E-02 0. -1.
        2   -1    0    0  501    0  0.00000000000E+00  0.00000000000E+00 -0.10231606275E+04  0.10231606275E+04  0.25500000920E-02 0.  1.
    10030    2    1    2    0    0  0.00000000000E+00  0.00000000000E+00  0.18993351093E+03  0.22362547660E+04  0.22281742840E+04 0.  0.
        5    1    3    3  502    0 -0.23566777069E+02 -0.28901381932E+03 -0.98461244169E+03  0.10264346697E+04  0.46999998093E+01 0.  1.
       -5    1    3    3    0  502  0.23566777069E+02  0.28901381932E+03  0.11745459526E+04  0.12098200964E+04  0.46999998093E+01 0. -1.
</event>
<event>
 5   0  0.4029532E-05  0.2200518E+04  0.7818609E-02  0.8518213E-01
        2   -1    0    0  501    0  0.00000000000E+00  0.00000000000E+00  0.18539529938E+04  0.18539529938E+04  0.25500000920E-02 0. -1.
       -2   -1    0    0    0  501  0.00000000000E+00  0.00000000000E+00 -0.65296686519E+03  0.65296686519E+03  0.25500000920E-02 0.  1.
    10030    2    1    2    0    0  0.00000000000E+00  0.00000000000E+00  0.12009861286E+04  0.25069198590E+04  0.22005180068E+04 0.  0.
        3    1    3    3  502    0  0.28467956401E+03 -0.47505006885E+02  0.18100592309E+04  0.18329248783E+04  0.10100000352E+00 0. -1.
       -3    1    3    3    0  502 -0.28467956401E+03  0.47505006885E+02 -0.60907310231E+03  0.67399498069E+03  0.10100000352E+00 0.  1.
</event>
<event>
 5   0  0.1788413E-05  0.2151266E+04  0.7818609E-02  0.8538991E-01
        1   -1    0    0  501    0  0.00000000000E+00  0.00000000000E+00  0.11449740729E+04  0.11449740729E+04  0.50400001928E-02 0.  1.
       -1   -1    0    0    0  501  0.00000000000E+00  0.00000000000E+00 -0.10104913552E+04  0.10104913552E+04  0.50400001928E-02 0. -1.
    10030    2    1    2    0    0  0.00000000000E+00  0.00000000000E+00  0.13448271769E+03  0.21554654282E+04  0.21512660483E+04 0.  0.
        1    1    3    3  502    0 -0.98745487102E+03 -0.40419850481E+03 -0.69196586195E+02  0.10692201463E+04  0.50400001928E-02 0. -1.
       -1    1    3    3    0  502  0.98745487102E+03  0.40419850481E+03  0.20367930389E+03  0.10862452819E+04  0.50400001928E-02 0.  1.
</event>
<event>
 5   0  0.1884407E-05  0.2207777E+04  0.7818609E-02  0.8515198E-01
       -1   -1    0    0    0  501  0.00000000000E+00  0.00000000000E+00  0.80839347494E+03  0.80839347495E+03  0.50400001928E-02 0.  1.
        1   -1    0    0  501    0  0.00000000000E+00  0.00000000000E+00 -0.15073962427E+04  0.15073962427E+04  0.50400001928E-02 0. -1.
    10030    2    1    2    0    0  0.00000000000E+00  0.00000000000E+00 -0.69900276780E+03  0.23157897177E+04  0.22077765166E+04 0.  0.
        3    1    3    3  502    0  0.93678936563E+02 -0.61109215985E+03 -0.13087708351E+04  0.14474427380E+04  0.10100000352E+00 0. -1.
       -3    1    3    3    0  502 -0.93678936563E+02  0.61109215985E+03  0.60976806728E+03  0.86834697965E+03  0.10100000352E+00 0.  1.
</event>
<event>
 5   0  0.1786228E-05  0.2204070E+04  0.7818609E-02  0.8516736E-01
       -1   -1    0    0    0  501  0.00000000000E+00  0.00000000000E+00  0.61859945900E+03  0.61859945902E+03  0.50400001928E-02 0. -1.
        1   -1    0    0  501    0  0.00000000000E+00  0.00000000000E+00 -0.19632751064E+04  0.19632751064E+04  0.50400001928E-02 0.  1.
    10030    2    1    2    0    0  0.00000000000E+00  0.00000000000E+00 -0.13446756474E+04  0.25818745654E+04  0.22040697981E+04 0.  0.
        5    1    3    3  502    0 -0.59153682865E+03  0.83557779273E+03 -0.19456130369E+03  0.10421047252E+04  0.46999998093E+01 0. -1.
       -5    1    3    3    0  502  0.59153682865E+03 -0.83557779273E+03 -0.11501143437E+04  0.15397698403E+04  0.46999998093E+01 0.  1.
</event>
<event>
 5   0  0.1884407E-05  0.2204964E+04  0.7818609E-02  0.8516365E-01
       -1   -1    0    0    0  501  0.00000000000E+00  0.00000000000E+00  0.63121612182E+03  0.63121612184E+03  0.50400001928E-02 0. -1.
        1   -1    0    0  501    0  0.00000000000E+00  0.00000000000E+00 -0.19255948448E+04  0.19255948448E+04  0.50400001928E-02 0.  1.
    10030    2    1    2    0    0  0.00000000000E+00  0.00000000000E+00 -0.12943787230E+04  0.25568109666E+04  0.22049639545E+04 0.  0.
        3    1    3    3  502    0  0.10963326954E+04  0.73916458211E+02 -0.54310231297E+03  0.12257116930E+04  0.10100000352E+00 0. -1.
       -3    1    3    3    0  502 -0.10963326954E+04 -0.73916458211E+02 -0.75127640998E+03  0.13310992736E+04  0.10100000352E+00 0.  1.
</event>
<event>
 5   0  0.4143281E-05  0.2190760E+04  0.7818609E-02  0.8522284E-01
       -2   -1    0    0    0  501  0.00000000000E+00  0.00000000000E+00  0.13989092968E+04  0.13989092968E+04  0.25500000920E-02 0.  1.
        2   -1    0    0  501    0  0.00000000000E+00  0.00000000000E+00 -0.85770918178E+03  0.85770918178E+03  0.25500000920E-02 0. -1.
    10030    2    1    2    0    0  0.00000000000E+00  0.00000000000E+00  0.54120011506E+03  0.22566184786E+04  0.21907600036E+04 0.  0.
        2    1    3    3  502    0  0.26855295714E+03  0.10569822652E+04  0.37627632224E+03  0.11536533580E+04  0.25500000920E-02 0.  1.
       -2    1    3    3    0  502 -0.26855295714E+03 -0.10569822652E+04  0.16492379282E+03  0.11029651206E+04  0.25500000920E-02 0. -1.
</event>
<event>
 5   0  0.4029532E-05  0.2204637E+04  0.7818609E-02  0.8516501E-01
       -2   -1    0    0    0  501  0.00000000000E+00  0.00000000000E+00  0.78163810520E+03  0.78163810520E+03  0.25500000920E-02 0.  1.
        2   -1    0    0  501    0  0.00000000000E+00  0.00000000000E+00 -0.15545630272E+04  0.15545630272E+04  0.25500000920E-02 0. -1.
    10030    2    1    2    0    0  0.00000000000E+00  0.00000000000E+00 -0.77292492197E+03  0.23362011324E+04  0.22046366585E+04 0.  0.
        3    1    3    3  502    0  0.67506124144E+03 -0.86551490287E+03 -0.27901127763E+03  0.11325506744E+04  0.10100000352E+00 0. -1.
       -3    1    3    3    0  502 -0.67506124144E+03  0.86551490287E+03 -0.49391364433E+03  0.12036504580E+04  0.10100000352E+00 0.  1.
</event>
<event>
 5   0  0.1884407E-05  0.2317664E+04  0.7818609E-02  0.8470989E-01
       -1   -1    0    0    0  501  0.00000000000E+00  0.00000000000E+00  0.70144030879E+03  0.70144030881E+03  0.50400001928E-02 0. -1.
        1   -1    0    0  501    0  0.00000000000E+00  0.00000000000E+00 -0.19144775807E+04  0.19144775807E+04  0.50400001928E-02 0.  1.
    10030    2    1    2    0    0  0.00000000000E+00  0.00000000000E+00 -0.12130372719E+04  0.26159178895E+04  0.23176641218E+04 0.  0.
        3    1    3    3  502    0 -0.19472588327E+03  0.32171527162E+03 -0.18436920840E+04  0.18816533678E+04  0.10100000352E+00 0.  1.
       -3    1    3    3    0  502  0.19472588327E+03 -0.32171527162E+03  0.63065481212E+03  0.73426452173E+03  0.10100000352E+00 0. -1.
</event>
<event>
 5   0  0.1815681E-05  0.2172922E+04  0.7818609E-02  0.8529784E-01
       -1   -1    0    0    0  501  0.00000000000E+00  0.00000000000E+00  0.80287744486E+03  0.80287744488E+03  0.50400001928E-02 0. -1.
        1   -1    0    0  501    0  0.00000000000E+00  0.00000000000E+00 -0.14702086532E+04  0.14702086532E+04  0.50400001928E-02 0.  1.
    10030    2    1    2    0    0  0.00000000000E+00  0.00000000000E+00 -0.66733120831E+03  0.22730860981E+04  0.21729218733E+04 0.  0.
        2    1    3    3  502    0 -0.45077062890E+03 -0.77486634801E+03  0.30845821228E+03  0.94802873684E+03  0.25500000920E-02 0. -1.
       -2    1    3    3    0  502  0.45077062890E+03  0.77486634801E+03 -0.97578942059E+03  0.13250573612E+04  0.25500000920E-02 0.  1.
</event>
<event>
 5   0  0.4143281E-05  0.2195896E+04  0.7818609E-02  0.8520138E-01
        2   -1    0    0  501    0  0.00000000000E+00  0.00000000000E+00  0.11488902391E+04  0.11488902391E+04  0.25500000920E-02 0.  1.
       -2   -1    0    0    0  501  0.00000000000E+00  0.00000000000E+00 -0.10492643448E+04  0.10492643448E+04  0.25500000920E-02 0. -1.
    10030    2    1    2    0    0  0.00000000000E+00  0.00000000000E+00  0.99625894248E+02  0.21981545839E+04  0.21958957753E+04 0.  0.
        2    1    3    3  502    0  0.52139509884E+03  0.39043331329E+03  0.93457649151E+03  0.11391770010E+04  0.25500000920E-02 0.  1.
       -2    1    3    3    0  502 -0.52139509884E+03 -0.39043331329E+03 -0.83495059726E+03  0.10589775829E+04  0.25500000920E-02 0. -1.
</event>
<event>
 5   0  0.1866935E-05  0.2191231E+04  0.7818609E-02  0.8522087E-01
        1   -1    0    0  501    0  0.00000000000E+00  0.00000000000E+00  0.72054388609E+03  0.72054388611E+03  0.50400001928E-02 0. -1.
       -1   -1    0    0    0  501  0.00000000000E+00  0.00000000000E+00 -0.16659263079E+04  0.16659263079E+04  0.50400001928E-02 0.  1.
    10030    2    1    2    0    0  0.00000000000E+00  0.00000000000E+00 -0.94538242181E+03  0.23864701940E+04  0.21912307189E+04 0.  0.
        4    1    3    3  502    0 -0.55150181375E+03 -0.88604340981E+03 -0.10960365521E+03  0.10494006617E+04  0.12699999809E+01 0.  1.
       -4    1    3    3    0  502  0.55150181375E+03  0.88604340981E+03 -0.83577876660E+03  0.13370695323E+04  0.12699999809E+01 0. -1.
</event>
<event>
 5   0  0.3963414E-05  0.2196311E+04  0.7818609E-02  0.8519965E-01
       -2   -1    0    0    0  501  0.00000000000E+00  0.00000000000E+00  0.10944291071E+04  0.10944291071E+04  0.25500000920E-02 0.  1.
        2   -1    0    0  501    0  0.00000000000E+00  0.00000000000E+00 -0.11018948092E+04  0.11018948092E+04  0.25500000920E-02 0. -1.
    10030    2    1    2    0    0  0.00000000000E+00  0.00000000000E+00 -0.74657021902E+01  0.21963239163E+04  0.21963112276E+04 0.  0.
        1    1    3    3  502    0  0.97625930123E+03  0.13953771162E+03  0.47937733579E+03  0.10965197793E+04  0.50400001928E-02 0.  1.
       -1    1    3    3    0  502 -0.97625930123E+03 -0.13953771162E+03 -0.48684303798E+03  0.10998041370E+04  0.50400001928E-02 0. -1.
</event>
<event>
 5   0  0.1866935E-05  0.2201008E+04  0.7818609E-02  0.8518009E-01
        1   -1    0    0  501    0  0.00000000000E+00  0.00000000000E+00  0.13228400873E+04  0.13228400873E+04  0.50400001928E-02 0.  1.
       -1   -1    0    0    0  501  0.00000000000E+00  0.00000000000E+00 -0.91553660888E+03  0.91553660889E+03  0.50400001928E-02 0. -1.
    10030    2    1    2    0    0  0.00000000000E+00  0.00000000000E+00  0.40730347842E+03  0.22383766962E+04  0.22010075217E+04 0.  0.
        4    1    3    3  502    0 -0.71667226151E+03  0.69410693022E+03  0.67597583059E+03  0.12051342238E+04  0.12699999809E+01 0.  1.
       -4    1    3    3    0  502  0.71667226151E+03 -0.69410693022E+03 -0.26867235217E+03  0.10332424724E+04  0.12699999809E+01 0. -1.
</event>
<event>
 5   0  0.1788413E-05  0.2171209E+04  0.7818609E-02  0.8530508E-01
        1   -1    0    0  501    0  0.00000000000E+00  0.00000000000E+00  0.89221456117E+03  0.89221456118E+03  0.50400001928E-02 0.  1.
       -1   -1    0    0    0  501  0.00000000000E+00  0.00000000000E+00 -0.13209118790E+04  0.13209118790E+04  0.50400001928E-02 0. -1.
    10030    2    1    2    0    0  0.00000000000E+00  0.00000000000E+00 -0.42869731782E+03  0.22131264402E+04  0.21712087071E+04 0.  0.
        1    1    3    3  502    0 -0.70559088232E+03  0.67108458210E+03 -0.70353471138E+03  0.12013218135E+04  0.50400001928E-02 0. -1.
       -1    1    3    3    0  502  0.70559088232E+03 -0.67108458210E+03  0.27483739356E+03  0.10118046266E+04  0.50400001928E-02 0.  1.
</event>
<event>
 5   0  0.1815681E-05  0.2069686E+04  0.7818609E-02  0.8574716E-01
        1   -1    0    0  501    0  0.00000000000E+00  0.00000000000E+00  0.10168496176E+04  0.10168496176E+04  0.50400001928E-02 0. -1.
       -1   -1    0    0    0  501  0.00000000000E+00  0.00000000000E+00 -0.10531546097E+04  0.10531546097E+04  0.50400001928E-02 0.  1.
    10030    2    1    2    0    0  0.00000000000E+00  0.00000000000E+00 -0.36304992068E+02  0.20700042273E+04  0.20696858333E+04 0.  0.
        2    1    3    3  502    0  0.60449659534E+03  0.80911339521E+03  0.20731341946E+03  0.10310477554E+04  0.25500000920E-02 0. -1.
       -2    1    3    3    0  502 -0.60449659534E+03 -0.80911339521E+03 -0.24361841153E+03  0.10389564719E+04  0.25500000920E-02 0.  1.
</event>
<event>
 5   0  0.3963414E-05  0.2197712E+04  0.7818609E-02  0.8519381E-01
       -2   -1    0    0    0  501  0.00000000000E+00  0.00000000000E+00  0.11406048531E+04  0.11406048531E+04  0.25500000920E-02 0.  1.
        2   -1    0    0  501    0  0.00000000000E+00  0.00000000000E+00 -0.10586349720E+04  0.10586349720E+04  0.25500000920E-02 0. -1.
    10030    2    1    2    0    0  0.00000000000E+00  0.00000000000E+00  0.81969881137E+02  0.21992398251E+04  0.21977117069E+04 0.  0.
        1    1    3    3  502    0 -0.93646687251E+03 -0.50364198045E+03  0.31841179443E+03  0.11099601428E+04  0.50400001928E-02 0.  1.
       -1    1    3    3    0  502  0.93646687251E+03  0.50364198045E+03 -0.23644191329E+03  0.10892796822E+04  0.50400001928E-02 0. -1.
</event>
<event>
 5   0  0.4027923E-05  0.2254684E+04  0.7818609E-02  0.8496006E-01
       -2   -1    0    0    0  501  0.00000000000E+00  0.00000000000E+00  0.16031755011E+04  0.16031755011E+04  0.25500000920E-02 0. -1.
        2   -1    0    0  501    0  0.00000000000E+00  0.00000000000E+00 -0.79273930552E+03  0.79273930552E+03  0.25500000920E-02 0.  1.
    10030    2    1    2    0    0  0.00000000000E+00  0.00000000000E+00  0.81043619560E+03  0.23959148066E+04  0.22546842204E+04 0.  0.
        5    1    3    3  502    0 -0.36499410202E+03 -0.75679258803E+03  0.12039114219E+04  0.14681214247E+04  0.46999998093E+01 0. -1.
       -5    1    3    3    0  502  0.36499410202E+03  0.75679258803E+03 -0.39347522635E+03  0.92779338193E+03  0.46999998093E+01 0.  1.
</event>
<event>
 5   0  0.1786228E-05  0.2198126E+04  0.7818609E-02  0.8519208E-01
       -1   -1    0    0    0  501  0.00000000000E+00  0.00000000000E+00  0.75054468954E+03  0.75054468956E+03  0.50400001928E-02 0. -1.
        1   -1    0    0  501    0  0.00000000000E+00  0.00000000000E+00 -0.16094176907E+04  0.16094176907E+04  0.50400001928E-02 0.  1.
    10030    2    1    2    0    0  0.00000000000E+00  0.00000000000E+00 -0.85887300115E+03  0.23599623803E+04  0.21981263849E+04 0.  0.
        5    1    3    3  502    0  0.26636192953E+03 -0.40037810749E+03  0.63158837870E+03  0.79383705920E+03  0.46999998093E+01 0. -1.
       -5    1    3    3    0  502 -0.26636192953E+03  0.40037810749E+03 -0.14904613798E+04  0.15661253211E+04  0.46999998093E+01 0.  1.
</event>
<event>
 5   0  0.4132460E-05  0.2194237E+04  0.7818609E-02  0.8520831E-01
       -2   -1    0    0    0  501  0.00000000000E+00  0.00000000000E+00  0.80219983358E+03  0.80219983358E+03  0.25500000920E-02 0. -1.
        2   -1    0    0  501    0  0.00000000000E+00  0.00000000000E+00 -0.15004600279E+04  0.15004600279E+04  0.25500000920E-02 0.  1.
    10030    2    1    2    0    0  0.00000000000E+00  0.00000000000E+00 -0.69826019436E+03  0.23026598615E+04  0.21942368010E+04 0.  0.
        4    1    3    3  502    0  0.63540144769E+03 -0.84071685241E+03 -0.28883215483E+02  0.10542180413E+04  0.12699999809E+01 0. -1.
       -4    1    3    3    0  502 -0.63540144769E+03  0.84071685241E+03 -0.66937697887E+03  0.12484418202E+04  0.12699999809E+01 0.  1.
</event>
<event>
 5   0  0.1788413E-05  0.2199307E+04  0.7818609E-02  0.8518716E-01
       -1   -1    0    0    0  501  0.00000000000E+00  0.00000000000E+00  0.13333482576E+04  0.13333482576E+04  0.50400001928E-02 0.  1.
        1   -1    0    0  501    0  0.00000000000E+00  0.00000000000E+00 -0.90691849885E+03  0.90691849886E+03  0.50400001928E-02 0. -1.
    10030    2    1    2    0    0  0.00000000000E+00  0.00000000000E+00  0.42642975877E+03  0.22402667565E+04  0.21993073457E+04 0.  0.
        1    1    3    3  502    0 -0.32540298297E+03  0.24860006799E+03  0.12527847515E+04  0.13180131747E+04  0.50400001928E-02 0.  1.
       -1    1    3    3    0  502  0.32540298297E+03 -0.24860006799E+03 -0.82635499271E+03  0.92225358179E+03  0.50400001928E-02 0. -1.
</event>
<event>
 5   0  0.1786228E-05  0.2196471E+04  0.7818609E-02  0.8519898E-01
       -1   -1    0    0    0  501  0.00000000000E+00  0.00000000000E+00  0.91748380993E+03  0.91748380994E+03  0.50400001928E-02 0.  1.
        1   -1    0    0  501    0  0.00000000000E+00  0.00000000000E+00 -0.13145964525E+04  0.13145964525E+04  0.50400001928E-02 0. -1.
    10030    2    1    2    0    0  0.00000000000E+00  0.00000000000E+00 -0.39711264257E+03  0.22320802625E+04  0.21964707708E+04 0.  0.
        5    1    3    3  502    0 -0.20712234005E+03 -0.10359156481E+04  0.10643936251E+03  0.10617779060E+04  0.46999998093E+01 0.  1.
       -5    1    3    3    0  502  0.20712234005E+03  0.10359156481E+04 -0.50355200508E+03  0.11703023565E+04  0.46999998093E+01 0. -1.
</event>
<event>
 5   0  0.1815681E-05  0.2209356E+04  0.7818609E-02  0.8514544E-01
        1   -1    0    0  501    0  0.00000000000E+00  0.00000000000E+00  0.16833327302E+04  0.16833327302E+04  0.50400001928E-02 0. -1.
       -1   -1    0    0    0  501  0.00000000000E+00  0.00000000000E+00 -0.72493904689E+03  0.72493904691E+03  0.50400001928E-02 0.  1.
    10030    2    1    2    0    0  0.00000000000E+00  0.00000000000E+00  0.95839368327E+03  0.24082717771E+04  0.22093561280E+04 0.  0.
        2    1    3    3  502    0 -0.82505695849E+03  0.12441475481E+03 -0.30994181337E+03  0.89009097493E+03  0.25500000920E-02 0.  1.
       -2    1    3    3    0  502  0.82505695849E+03 -0.12441475481E+03  0.12683354966E+04  0.15181808021E+04  0.25500000920E-02 0. -1.
</event>
<event>
 5   0  0.1815681E-05  0.2198692E+04  0.7818609E-02  0.8518973E-01
       -1   -1    0    0    0  501  0.00000000000E+00  0.00000000000E+00  0.57849189264E+03  0.57849189266E+03  0.50400001928E-02 0.  1.
        1   -1    0    0  501    0  0.00000000000E+00  0.00000000000E+00 -0.20891590121E+04  0.20891590121E+04  0.50400001928E-02 0. -1.
    10030    2    1    2    0    0  0.00000000000E+00  0.00000000000E+00 -0.15106671194E+04  0.26676509048E+04  0.21986919302E+04 0.  0.
        2    1    3    3  502    0  0.80829579099E+03 -0.74353386328E+03 -0.81448514095E+03  0.13673224698E+04  0.25500000920E-02 0. -1.
       -2    1    3    3    0  502 -0.80829579099E+03  0.74353386328E+03 -0.69618197850E+03  0.13003284350E+04  0.25500000920E-02 0.  1.
</event>
<event>
 5   0  0.1786228E-05  0.2195664E+04  0.7818609E-02  0.8520235E-01
        1   -1    0    0  501    0  0.00000000000E+00  0.00000000000E+00  0.77003881751E+03  0.77003881752E+03  0.50400001928E-02 0. -1.
       -1   -1    0    0    0  501  0.00000000000E+00  0.00000000000E+00 -0.15651609312E+04  0.15651609312E+04  0.50400001928E-02 0.  1.
    10030    2    1    2    0    0  0.00000000000E+00  0.00000000000E+00 -0.79512211366E+03  0.23351997487E+04  0.21956636105E+04 0.  0.
        5    1    3    3  502    0  0.61509628197E+03 -0.18399880476E+03  0.54954484960E+03  0.84511574827E+03  0.46999998093E+01 0. -1.
       -5    1    3    3    0  502 -0.61509628197E+03  0.18399880476E+03 -0.13446669633E+04  0.14900840004E+04  0.46999998093E+01 0.  1.
</event>
<event>
 5   0  0.1786228E-05  0.2178000E+04  0.7818609E-02  0.8527641E-01
       -1   -1    0    0    0  501  0.00000000000E+00  0.00000000000E+00  0.89616455832E+03  0.89616455834E+03  0.50400001928E-02 0. -1.
        1   -1    0    0  501    0  0.00000000000E+00  0.00000000000E+00 -0.13233293877E+04  0.13233293877E+04  0.50400001928E-02 0.  1.
    10030    2    1    2    0    0  0.00000000000E+00  0.00000000000E+00 -0.42716482938E+03  0.22194939461E+04  0.21779999048E+04 0.  0.
        5    1    3    3  502    0  0.93306158384E+03  0.44933274861E+03  0.12957469392E+03  0.10437027975E+04  0.46999998093E+01 0. -1.
       -5    1    3    3    0  502 -0.93306158384E+03 -0.44933274861E+03 -0.55673952330E+03  0.11757911485E+04  0.46999998093E+01 0.  1.
</event>
<event>
 5   0  0.1815681E-05  0.2217995E+04  0.7818609E-02  0.8510975E-01
       -1   -1    0    0    0  501  0.00000000000E+00  0.00000000000E+00  0.67422206035E+03  0.67422206037E+03  0.50400001928E-02 0. -1.
        1   -1    0    0  501    0  0.00000000000E+00  0.00000000000E+00 -0.18241404944E+04  0.18241404944E+04  0.50400001928E-02 0.  1.
    10030    2    1    2    0    0  0.00000000000E+00  0.00000000000E+00 -0.11499184341E+04  0.24983625548E+04  0.22179952773E+04 0.  0.
        2    1    3    3  502    0 -0.59780320467E+03  0.84295415005E+03 -0.12168007684E+03  0.10405510135E+04  0.25500000920E-02 0.  1.
       -2    1    3    3    0  502  0.59780320467E+03 -0.84295415005E+03 -0.10282383572E+04  0.14578115413E+04  0.25500000920E-02 0. -1.
</event>
<event>
 5   0  0.1815681E-05  0.2216078E+04  0.7818609E-02  0.8511766E-01
       -1   -1    0    0    0  501  0.00000000000E+00  0.00000000000E+00  0.10892217349E+04  0.10892217349E+04  0.50400001928E-02 0. -1.
        1   -1    0    0  501    0  0.00000000000E+00  0.00000000000E+00 -0.11271817693E+04  0.11271817693E+04  0.50400001928E-02 0.  1.
    10030    2    1    2    0    0  0.00000000000E+00  0.00000000000E+00 -0.37960034454E+02  0.22164035042E+04  0.22160784123E+04 0.  0.
        2    1    3    3  502    0  0.29063758294E+03  0.25030446818E+03  0.10207052351E+04  0.10903952075E+04  0.25500000920E-02 0. -1.
       -2    1    3    3    0  502 -0.29063758294E+03 -0.25030446818E+03 -0.10586652696E+04  0.11260082968E+04  0.25500000920E-02 0.  1.
</event>
<event>
 5   0  0.1433375E-05  0.2197030E+04  0.7818609E-02  0.8519665E-01
       -4   -1    0    0    0  501  0.00000000000E+00  0.00000000000E+00  0.50486489041E+03  0.50486648777E+03  0.12699999809E+01 0. -1.
        4   -1    0    0  501    0  0.00000000000E+00  0.00000000000E+00 -0.23902095428E+04  0.23902098802E+04  0.12699999809E+01 0.  1.
    10030    2    1    2    0    0  0.00000000000E+00  0.00000000000E+00 -0.18853446524E+04  0.28950763680E+04  0.21970304318E+04 0.  0.
        1    1    3    3  502    0 -0.26859268610E+02  0.76382308122E+03  0.97067117750E+02  0.77043438727E+03  0.50400001928E-02 0. -1.
       -1    1    3    3    0  502  0.26859268610E+02 -0.76382308122E+03 -0.19824117702E+04  0.21246419807E+04  0.50400001928E-02 0.  1.
</event>
<event>
 5   0  0.3963414E-05  0.2195966E+04  0.7818609E-02  0.8520109E-01
        2   -1    0    0  501    0  0.00000000000E+00  0.00000000000E+00  0.11001725545E+04  0.11001725545E+04  0.25500000920E-02 0. -1.
       -2   -1    0    0    0  501  0.00000000000E+00  0.00000000000E+00 -0.10957977745E+04  0.10957977745E+04  0.25500000920E-02 0.  1.
    10030    2    1    2    0    0  0.00000000000E+00  0.00000000000E+00  0.43747799088E+01  0.21959703290E+04  0.21959659713E+04 0.  0.
        1    1    3    3  502    0 -0.78223729498E+03 -0.27605152953E+03 -0.71716583196E+03  0.10965520796E+04  0.50400001928E-02 0.  1.
       -1    1    3    3    0  502  0.78223729498E+03  0.27605152953E+03  0.72154061187E+03  0.10994182494E+04  0.50400001928E-02 0. -1.
</event>
<event>
 5   0  0.1786228E-05  0.2279640E+04  0.7818609E-02  0.8485992E-01
       -1   -1    0    0    0  501  0.00000000000E+00  0.00000000000E+00  0.13066579965E+04  0.13066579965E+04  0.50400001928E-02 0.  1.
        1   -1    0    0  501    0  0.00000000000E+00  0.00000000000E+00 -0.99428435634E+03  0.99428435635E+03  0.50400001928E-02 0. -1.
    10030    2    1    2    0    0  0.00000000000E+00  0.00000000000E+00  0.31237364014E+03  0.23009423528E+04  0.22796399760E+04 0.  0.
        5    1    3    3  502    0  0.69753782699E+03  0.87997642939E+03 -0.41216781682E+02  0.11236718602E+04  0.46999998093E+01 0.  1.
       -5    1    3    3    0  502 -0.69753782699E+03 -0.87997642939E+03  0.35359042182E+03  0.11772704926E+04  0.46999998093E+01 0. -1.
</event>
<event>
 5   0  0.1815681E-05  0.2192331E+04  0.7818609E-02  0.8521627E-01
        1   -1    0    0  501    0  0.00000000000E+00  0.00000000000E+00  0.13675101077E+04  0.13675101077E+04  0.50400001928E-02 0. -1.
       -1   -1    0    0    0  501  0.00000000000E+00  0.00000000000E+00 -0.87866208770E+03  0.87866208772E+03  0.50400001928E-02 0.  1.
    10030    2    1    2    0    0  0.00000000000E+00  0.00000000000E+00  0.48884801995E+03  0.22461721954E+04  0.21923314404E+04 0.  0.
        2    1    3    3  502    0 -0.76542005918E+03  0.22938441130E+03  0.10132487783E+04  0.12904100751E+04  0.25500000920E-02 0. -1.
       -2    1    3    3    0  502  0.76542005918E+03 -0.22938441130E+03 -0.52440075838E+03  0.95576212027E+03  0.25500000920E-02 0.  1.
</event>
<event>
 5   0  0.1788413E-05  0.2210519E+04  0.7818609E-02  0.8514063E-01
        1   -1    0    0  501    0  0.00000000000E+00  0.00000000000E+00  0.14593008567E+04  0.14593008567E+04  0.50400001928E-02 0.  1.
       -1   -1    0    0    0  501  0.00000000000E+00  0.00000000000E+00 -0.83711216843E+03  0.83711216845E+03  0.50400001928E-02 0. -1.
    10030    2    1    2    0    0  0.00000000000E+00  0.00000000000E+00  0.62218868829E+03  0.22964130252E+04  0.22105189477E+04 0.  0.
        1    1    3    3  502    0 -0.92611107562E+03 -0.43401179653E+03  0.74636244978E+03  0.12661377770E+04  0.50400001928E-02 0. -1.
       -1    1    3    3    0  502  0.92611107562E+03  0.43401179653E+03 -0.12417376149E+03  0.10302752482E+04  0.50400001928E-02 0.  1.
</event>
<event>
 5   0  0.4027923E-05  0.2191455E+04  0.7818609E-02  0.8521993E-01
        2   -1    0    0  501    0  0.00000000000E+00  0.00000000000E+00  0.14103320514E+04  0.14103320514E+04  0.25500000920E-02 0. -1.
       -2   -1    0    0    0  501  0.00000000000E+00  0.00000000000E+00 -0.85130218275E+03  0.85130218275E+03  0.25500000920E-02 0.  1.
    10030    2    1    2    0    0  0.00000000000E+00  0.00000000000E+00  0.55902986861E+03  0.22616342341E+04  0.21914549995E+04 0.  0.
        5    1    3    3  502    0  0.25654574910E+03 -0.59071602130E+03  0.11943770443E+04  0.13569523769E+04  0.46999998093E+01 0. -1.
       -5    1    3    3    0  502 -0.25654574910E+03  0.59071602130E+03 -0.63534717566E+03  0.90468185724E+03  0.46999998093E+01 0.  1.
</event>
<event>
 5   0  0.4027923E-05  0.2186442E+04  0.7818609E-02  0.8524092E-01
       -2   -1    0    0    0  501  0.00000000000E+00  0.00000000000E+00  0.62716752336E+03  0.62716752337E+03  0.25500000920E-02 0.  1.
        2   -1    0    0  501    0  0.00000000000E+00  0.00000000000E+00 -0.19056032858E+04  0.19056032858E+04  0.25500000920E-02 0. -1.
    10030    2    1    2    0    0  0.00000000000E+00  0.00000000000E+00 -0.12784357625E+04  0.25327708092E+04  0.21864423096E+04 0.  0.
        5    1    3    3  502    0  0.10212425645E+04  0.99240530201E+02 -0.10762355459E+04  0.14869734694E+04  0.46999998093E+01 0. -1.
       -5    1    3    3    0  502 -0.10212425645E+04 -0.99240530201E+02 -0.20220021657E+03  0.10457973398E+04  0.46999998093E+01 0.  1.
</event>
<event>
 5   0  0.4132460E-05  0.2198830E+04  0.7818609E-02  0.8518915E-01
       -2   -1    0    0    0  501  0.00000000000E+00  0.00000000000E+00  0.45202315392E+03  0.45202315393E+03  0.25500000920E-02 0. -1.
        2   -1    0    0  501    0  0.00000000000E+00  0.00000000000E+00 -0.26740070632E+04  0.26740070632E+04  0.25500000920E-02 0.  1.
    10030    2    1    2    0    0  0.00000000000E+00  0.00000000000E+00 -0.22219839093E+04  0.31260302171E+04  0.21988297854E+04 0.  0.
        4    1    3    3  502    0 -0.12950593805E+03  0.18375078763E+03  0.41899849449E+03  0.47549709908E+03  0.12699999809E+01 0. -1.
       -4    1    3    3    0  502  0.12950593805E+03 -0.18375078763E+03 -0.26409824038E+04  0.26505331181E+04  0.12699999809E+01 0.  1.
</event>
<event>
 5   0  0.1786228E-05  0.2179299E+04  0.7818609E-02  0.8527094E-01
        1   -1    0    0  501    0  0.00000000000E+00  0.00000000000E+00  0.12510915020E+04  0.12510915020E+04  0.50400001928E-02 0. -1.
       -1   -1    0    0    0  501  0.00000000000E+00  0.00000000000E+00 -0.94903994838E+03  0.94903994839E+03  0.50400001928E-02 0.  1.
    10030    2    1    2    0    0  0.00000000000E+00  0.00000000000E+00  0.30205155360E+03  0.22001314504E+04  0.21792987996E+04 0.  0.
        5    1    3    3  502    0 -0.10406573407E+04  0.18252880090E+02  0.47661900270E+03  0.11447657542E+04  0.46999998093E+01 0. -1.
       -5    1    3    3    0  502  0.10406573407E+04 -0.18252880090E+02 -0.17456744910E+03  0.10553656962E+04  0.46999998093E+01 0.  1.
</event>
<event>
 5   0  0.4143281E-05  0.2193492E+04  0.7818609E-02  0.8521142E-01
        2   -1    0    0  501    0  0.00000000000E+00  0.00000000000E+00  0.13282164231E+04  0.13282164231E+04  0.25500000920E-02 0.  1.
       -2   -1    0    0    0  501  0.00000000000E+00  0.00000000000E+00 -0.90561423898E+03  0.90561423898E+03  0.25500000920E-02 0. -1.
    10030    2    1    2    0    0  0.00000000000E+00  0.00000000000E+00  0.42260218411E+03  0.22338306621E+04  0.21934919240E+04 0.  0.
        2    1    3    3  502    0  0.28868080944E+03  0.60073592170E+03 -0.67571118103E+03  0.94910792723E+03  0.25500000920E-02 0. -1.
       -2    1    3    3    0  502 -0.28868080944E+03 -0.60073592170E+03  0.10983133651E+04  0.12847227348E+04  0.25500000920E-02 0.  1.
</event>
<event>
 5   0  0.1815681E-05  0.2202748E+04  0.7818609E-02  0.8517285E-01
       -1   -1    0    0    0  501  0.00000000000E+00  0.00000000000E+00  0.94794699912E+03  0.94794699914E+03  0.50400001928E-02 0. -1.
        1   -1    0    0  501    0  0.00000000000E+00  0.00000000000E+00 -0.12796329278E+04  0.12796329278E+04  0.50400001928E-02 0.  1.
    10030    2    1    2    0    0  0.00000000000E+00  0.00000000000E+00 -0.33168592868E+03  0.22275799270E+04  0.22027475515E+04 0.  0.
        2    1    3    3  502    0  0.67967248130E+03 -0.85769174266E+03 -0.40207208648E+02  0.10950828402E+04  0.25500000920E-02 0.  1.
       -2    1    3    3    0  502 -0.67967248130E+03  0.85769174266E+03 -0.29147872004E+03  0.11324970868E+04  0.25500000920E-02 0. -1.
</event>
<event>
 5   0  0.4143281E-05  0.2188059E+04  0.7818609E-02  0.8523415E-01
        2   -1    0    0  501    0  0.00000000000E+00  0.00000000000E+00  0.13944332846E+04  0.13944332846E+04  0.25500000920E-02 0. -1.
       -2   -1    0    0    0  501  0.00000000000E+00  0.00000000000E+00 -0.85834210534E+03  0.85834210535E+03  0.25500000920E-02 0.  1.
    10030    2    1    2    0    0  0.00000000000E+00  0.00000000000E+00  0.53609117927E+03  0.22527753900E+04  0.21880592325E+04 0.  0.
        2    1    3    3  502    0  0.10240396369E+04  0.22788284948E+03  0.58756801360E+03  0.12024241937E+04  0.25500000920E-02 0. -1.
       -2    1    3    3    0  502 -0.10240396369E+04 -0.22788284948E+03 -0.51476834321E+02  0.10503511963E+04  0.25500000920E-02 0.  1.
</event>
<event>
 5   0  0.1786228E-05  0.2196046E+04  0.7818609E-02  0.8520076E-01
       -1   -1    0    0    0  501  0.00000000000E+00  0.00000000000E+00  0.88644367397E+03  0.88644367398E+03  0.50400001928E-02 0. -1.
        1   -1    0    0  501    0  0.00000000000E+00  0.00000000000E+00 -0.13601027955E+04  0.13601027955E+04  0.50400001928E-02 0.  1.
    10030    2    1    2    0    0  0.00000000000E+00  0.00000000000E+00 -0.47365912154E+03  0.22465464695E+04  0.21960460096E+04 0.  0.
        5    1    3    3  502    0 -0.51395812910E+03  0.79452081525E+03  0.33294908629E+03  0.10031417987E+04  0.46999998093E+01 0.  1.
       -5    1    3    3    0  502  0.51395812910E+03 -0.79452081525E+03 -0.80660820783E+03  0.12434046708E+04  0.46999998093E+01 0. -1.
</event>
<event>
 5   0  0.4132460E-05  0.2207518E+04  0.7818609E-02  0.8515305E-01
        2   -1    0    0  501    0  0.00000000000E+00  0.00000000000E+00  0.17869757849E+04  0.17869757849E+04  0.25500000920E-02 0. -1.
       -2   -1    0    0    0  501  0.00000000000E+00  0.00000000000E+00 -0.68175739915E+03  0.68175739915E+03  0.25500000920E-02 0.  1.
    10030    2    1    2    0    0  0.00000000000E+00  0.00000000000E+00  0.11052183858E+04  0.24687331841E+04  0.22075180303E+04 0.  0.
        4    1    3    3  502    0 -0.34680421322E+03  0.69453264973E+03  0.14300767093E+04  0.16271969061E+04  0.12699999809E+01 0. -1.
       -4    1    3    3    0  502  0.34680421322E+03 -0.69453264973E+03 -0.32485832355E+03  0.84153627796E+03  0.12699999809E+01 0.  1.
</event>
<event>
 5   0  0.1788413E-05  0.2211795E+04  0.7818609E-02  0.8513535E-01
       -1   -1    0    0    0  501  0.00000000000E+00  0.00000000000E+00  0.15783526960E+04  0.15783526960E+04  0.50400001928E-02 0.  1.
        1   -1    0    0  501    0  0.00000000000E+00  0.00000000000E+00 -0.77486414058E+03  0.77486414060E+03  0.50400001928E-02 0. -1.
    10030    2    1    2    0    0  0.00000000000E+00  0.00000000000E+00  0.80348855538E+03  0.23532168366E+04  0.22117946607E+04 0.  0.
        1    1    3    3  502    0 -0.93441136852E+03 -0.20544239973E+03  0.99189802076E+03  0.13781120669E+04  0.50400001928E-02 0.  1.
       -1    1    3    3    0  502  0.93441136852E+03  0.20544239973E+03 -0.18840946538E+03  0.97510476971E+03  0.50400001928E-02 0. -1.
</event>
<event>
 5   0  0.1786228E-05  0.2206560E+04  0.7818609E-02  0.8515703E-01
       -1   -1    0    0    0  501  0.00000000000E+00  0.00000000000E+00  0.60466849070E+03  0.60466849072E+03  0.50400001928E-02 0.  1.
        1   -1    0    0  501    0  0.00000000000E+00  0.00000000000E+00 -0.20130480538E+04  0.20130480538E+04  0.50400001928E-02 0. -1.
    10030    2    1    2    0    0  0.00000000000E+00  0.00000000000E+00 -0.14083795631E+04  0.26177165445E+04  0.22065599728E+04 0.  0.
        5    1    3    3  502    0 -0.10597891639E+04  0.60998781728E+01 -0.10679405961E+04  0.15045628891E+04  0.46999998093E+01 0.  1.
       -5    1    3    3    0  502  0.10597891639E+04 -0.60998781728E+01 -0.34043896696E+03  0.11131536554E+04  0.46999998093E+01 0. -1.
</event>
<event>
 5   0  0.1788413E-05  0.2206532E+04  0.7818609E-02  0.8515714E-01
       -1   -1    0    0    0  501  0.00000000000E+00  0.00000000000E+00  0.54659360624E+03  0.54659360626E+03  0.50400001928E-02 0.  1.
        1   -1    0    0  501    0  0.00000000000E+00  0.00000000000E+00 -0.22268764186E+04  0.22268764186E+04  0.50400001928E-02 0. -1.
    10030    2    1    2    0    0  0.00000000000E+00  0.00000000000E+00 -0.16802828123E+04  0.27734700249E+04  0.22065324945E+04 0.  0.
        1    1    3    3  502    0 -0.10161131755E+04 -0.21063033786E+03 -0.36925943100E+03  0.11014552429E+04  0.50400001928E-02 0.  1.
       -1    1    3    3    0  502  0.10161131755E+04  0.21063033786E+03 -0.13110233814E+04  0.16720147820E+04  0.50400001928E-02 0. -1.
</event>
<event>
 5   0  0.4143281E-05  0.2195207E+04  0.7818609E-02  0.8520426E-01
        2   -1    0    0  501    0  0.00000000000E+00  0.00000000000E+00  0.15128958747E+04  0.15128958747E+04  0.25500000920E-02 0.  1.
       -2   -1    0    0    0  501  0.00000000000E+00  0.00000000000E+00 -0.79630957512E+03  0.79630957513E+03  0.25500000920E-02 0. -1.
    10030    2    1    2    0    0  0.00000000000E+00  0.00000000000E+00  0.71658629956E+03  0.23092054498E+04  0.21952070255E+04 0.  0.
        2    1    3    3  502    0  0.18886928262E+03  0.24340168902E+01 -0.77908462210E+03  0.80165477529E+03  0.25500000920E-02 0. -1.
       -2    1    3    3    0  502 -0.18886928262E+03 -0.24340168902E+01  0.14956709217E+04  0.15075506745E+04  0.25500000920E-02 0.  1.
</event>
<event>
 5   0  0.4029532E-05  0.2147476E+04  0.7818609E-02  0.8540614E-01
        2   -1    0    0  501    0  0.00000000000E+00  0.00000000000E+00  0.76009355968E+03  0.76009355968E+03  0.25500000920E-02 0.  1.
       -2   -1    0    0    0  501  0.00000000000E+00  0.00000000000E+00 -0.15168040769E+04  0.15168040769E+04  0.25500000920E-02 0. -1.
    10030    2    1    2    0    0  0.00000000000E+00  0.00000000000E+00 -0.75671051720E+03  0.22768976366E+04  0.21474757369E+04 0.  0.
        3    1    3    3  502    0 -0.63054385063E+02  0.94032185741E+02 -0.15104578350E+04  0.15146949491E+04  0.10100000352E+00 0. -1.
       -3    1    3    3    0  502  0.63054385063E+02 -0.94032185741E+02  0.75374731780E+03  0.76220268743E+03  0.10100000352E+00 0.  1.
</event>
<event>
 5   0  0.1786228E-05  0.2211741E+04  0.7818609E-02  0.8513557E-01
        1   -1    0    0  501    0  0.00000000000E+00  0.00000000000E+00  0.16458385163E+04  0.16458385163E+04  0.50400001928E-02 0.  1.
       -1   -1    0    0    0  501  0.00000000000E+00  0.00000000000E+00 -0.74305571108E+03  0.74305571110E+03  0.50400001928E-02 0. -1.
    10030    2    1    2    0    0  0.00000000000E+00  0.00000000000E+00  0.90278280524E+03  0.23888942274E+04  0.22117411323E+04 0.  0.
        5    1    3    3  502    0  0.60564687683E+03  0.33998854771E+03 -0.47807383904E+03  0.84319454313E+03  0.46999998093E+01 0. -1.
       -5    1    3    3    0  502 -0.60564687683E+03 -0.33998854771E+03  0.13808566443E+04  0.15456996843E+04  0.46999998093E+01 0.  1.
</event>
<event>
 5   0  0.4027923E-05  0.2340202E+04  0.7818609E-02  0.8462236E-01
       -2   -1    0    0    0  501  0.00000000000E+00  0.00000000000E+00  0.77369586668E+03  0.77369586669E+03  0.25500000920E-02 0.  1.
        2   -1    0    0  501    0  0.00000000000E+00  0.00000000000E+00 -0.17696059644E+04  0.17696059644E+04  0.25500000920E-02 0. -1.
    10030    2    1    2    0    0  0.00000000000E+00  0.00000000000E+00 -0.99591009770E+03  0.25433018311E+04  0.23402024018E+04 0.  0.
        5    1    3    3  502    0 -0.74600764353E+03 -0.88606680994E+02  0.47697004145E+03  0.88988822812E+03  0.46999998093E+01 0.  1.
       -5    1    3    3    0  502  0.74600764353E+03  0.88606680994E+02 -0.14728801391E+04  0.16534136029E+04  0.46999998093E+01 0. -1.
</event>
<event>
 5   0  0.4027923E-05  0.2202101E+04  0.7818609E-02  0.8517554E-01
       -2   -1    0    0    0  501  0.00000000000E+00  0.00000000000E+00  0.79074284995E+03  0.79074284996E+03  0.25500000920E-02 0.  1.
        2   -1    0    0  501    0  0.00000000000E+00  0.00000000000E+00 -0.15331311861E+04  0.15331311861E+04  0.25500000920E-02 0. -1.
    10030    2    1    2    0    0  0.00000000000E+00  0.00000000000E+00 -0.74238833618E+03  0.23238740361E+04  0.22021012906E+04 0.  0.
        5    1    3    3  502    0  0.93994377618E+02 -0.17352229920E+03 -0.15143047596E+04  0.15271168673E+04  0.46999998093E+01 0. -1.
       -5    1    3    3    0  502 -0.93994377618E+02  0.17352229920E+03  0.77191642342E+03  0.79675716883E+03  0.46999998093E+01 0.  1.
</event>
<event>
 5   0  0.4027923E-05  0.2188470E+04  0.7818609E-02  0.8523243E-01
       -2   -1    0    0    0  501  0.00000000000E+00  0.00000000000E+00  0.11972211047E+04  0.11972211047E+04  0.25500000920E-02 0. -1.
        2   -1    0    0  501    0  0.00000000000E+00  0.00000000000E+00 -0.10001078054E+04  0.10001078054E+04  0.25500000920E-02 0.  1.
    10030    2    1    2    0    0  0.00000000000E+00  0.00000000000E+00  0.19711329932E+03  0.21973289101E+04  0.21884699419E+04 0.  0.
        5    1    3    3  502    0  0.16259824702E+03  0.64137698421E+03 -0.77647880615E+03  0.10201686391E+04  0.46999998093E+01 0.  1.
       -5    1    3    3    0  502 -0.16259824702E+03 -0.64137698421E+03  0.97359210547E+03  0.11771602710E+04  0.46999998093E+01 0. -1.
</event>
<event>
 5   0  0.1788413E-05  0.2202299E+04  0.7818609E-02  0.8517472E-01
        1   -1    0    0  501    0  0.00000000000E+00  0.00000000000E+00  0.13065045634E+04  0.13065045634E+04  0.50400001928E-02 0. -1.
       -1   -1    0    0    0  501  0.00000000000E+00  0.00000000000E+00 -0.92807220699E+03  0.92807220700E+03  0.50400001928E-02 0.  1.
    10030    2    1    2    0    0  0.00000000000E+00  0.00000000000E+00  0.37843235639E+03  0.22345767704E+04  0.22022993199E+04 0.  0.
        1    1    3    3  502    0  0.29703281423E+02 -0.85268821437E+03 -0.51709761689E+03  0.99767200084E+03  0.50400001928E-02 0.  1.
       -1    1    3    3    0  502 -0.29703281423E+02  0.85268821437E+03  0.89552997329E+03  0.12369047695E+04  0.50400001928E-02 0. -1.
</event>
<event>
 5   0  0.4132460E-05  0.2202646E+04  0.7818609E-02  0.8517328E-01
       -2   -1    0    0    0  501  0.00000000000E+00  0.00000000000E+00  0.62663527383E+03  0.62663527384E+03  0.25500000920E-02 0. -1.
        2   -1    0    0  501    0  0.00000000000E+00  0.00000000000E+00 -0.19355952550E+04  0.19355952550E+04  0.25500000920E-02 0.  1.
    10030    2    1    2    0    0  0.00000000000E+00  0.00000000000E+00 -0.13089599812E+04  0.25622305289E+04  0.22026459204E+04 0.  0.
        4    1    3    3  502    0 -0.11108878602E+03  0.26838479772E+03  0.58127365606E+03  0.64980904438E+03  0.12699999809E+01 0. -1.
       -4    1    3    3    0  502  0.11108878602E+03 -0.26838479772E+03 -0.18902336373E+04  0.19124214845E+04  0.12699999809E+01 0.  1.
</event>
<event>
 5   0  0.1788413E-05  0.2268406E+04  0.7818609E-02  0.8490483E-01
        1   -1    0    0  501    0  0.00000000000E+00  0.00000000000E+00  0.97392285006E+03  0.97392285007E+03  0.50400001928E-02 0. -1.
       -1   -1    0    0    0  501  0.00000000000E+00  0.00000000000E+00 -0.13208604127E+04  0.13208604127E+04  0.50400001928E-02 0.  1.
    10030    2    1    2    0    0  0.00000000000E+00  0.00000000000E+00 -0.34693756260E+03  0.22947832627E+04  0.22684057288E+04 0.  0.
        1    1    3    3  502    0  0.83619226178E+03  0.75822924806E+03 -0.61332877788E+02  0.11304383279E+04  0.50400001928E-02 0. -1.
       -1    1    3    3    0  502 -0.83619226178E+03 -0.75822924806E+03 -0.28560468481E+03  0.11643449348E+04  0.50400001928E-02 0.  1.
</event>
<event>
 5   0  0.1788413E-05  0.2198440E+04  0.7818609E-02  0.8519078E-01
       -1   -1    0    0    0  501  0.00000000000E+00  0.00000000000E+00  0.59187547135E+03  0.59187547138E+03  0.50400001928E-02 0. -1.
        1   -1    0    0  501    0  0.00000000000E+00  0.00000000000E+00 -0.20414508196E+04  0.20414508196E+04  0.50400001928E-02 0.  1.
    10030    2    1    2    0    0  0.00000000000E+00  0.00000000000E+00 -0.14495753482E+04  0.26333262909E+04  0.21984400525E+04 0.  0.
        1    1    3    3  502    0 -0.10371331142E+04 -0.24184585099E+03 -0.39861612536E+03  0.11371144743E+04  0.50400001928E-02 0. -1.
       -1    1    3    3    0  502  0.10371331142E+04  0.24184585099E+03 -0.10509592228E+04  0.14962118167E+04  0.50400001928E-02 0.  1.
</event>
<event>
 5   0  0.1815681E-05  0.2204025E+04  0.7818609E-02  0.8516755E-01
       -1   -1    0    0    0  501  0.00000000000E+00  0.00000000000E+00  0.12381285851E+04  0.12381285851E+04  0.50400001928E-02 0. -1.
        1   -1    0    0  501    0  0.00000000000E+00  0.00000000000E+00 -0.98086061518E+03  0.98086061519E+03  0.50400001928E-02 0.  1.
    10030    2    1    2    0    0  0.00000000000E+00  0.00000000000E+00  0.25726796988E+03  0.22189892003E+04  0.22040250140E+04 0.  0.
        2    1    3    3  502    0  0.39529168617E+03  0.77761355531E+03  0.80662519352E+03  0.11881004004E+04  0.25500000920E-02 0.  1.
       -2    1    3    3    0  502 -0.39529168617E+03 -0.77761355531E+03 -0.54935722363E+03  0.10308887999E+04  0.25500000920E-02 0. -1.
</event>
<event>
 5   0  0.4132460E-05  0.1993655E+04  0.7818609E-02  0.8609593E-01
        2   -1    0    0  501    0  0.00000000000E+00  0.00000000000E+00  0.12687082371E+04  0.12687082371E+04  0.25500000920E-02 0. -1.
       -2   -1    0    0    0  501  0.00000000000E+00  0.00000000000E+00 -0.78321015926E+03  0.78321015927E+03  0.25500000920E-02 0.  1.
    10030    2    1    2    0    0  0.00000000000E+00  0.00000000000E+00  0.48549807781E+03  0.20519183963E+04  0.19936551160E+04 0.  0.
        4    1    3    3  502    0 -0.96389559332E+02 -0.98812495393E+03  0.15079778854E+03  0.10042028967E+04  0.12699999809E+01 0.  1.
       -4    1    3    3    0  502  0.96389559332E+02  0.98812495393E+03  0.33470028926E+03  0.10477154997E+04  0.12699999809E+01 0. -1.
</event>
<event>
 5   0  0.1866935E-05  0.2197027E+04  0.7818609E-02  0.8519667E-01
        1   -1    0    0  501    0  0.00000000000E+00  0.00000000000E+00  0.17690098186E+04  0.17690098187E+04  0.50400001928E-02 0. -1.
       -1   -1    0    0    0  501  0.00000000000E+00  0.00000000000E+00 -0.68215105983E+03  0.68215105985E+03  0.50400001928E-02 0.  1.
    10030    2    1    2    0    0  0.00000000000E+00  0.00000000000E+00  0.10868587588E+04  0.24511608785E+04  0.21970270118E+04 0.  0.
        4    1    3    3  502    0  0.55115688557E+03 -0.93994417311E+03  0.69906997606E+03  0.12945923704E+04  0.12699999809E+01 0. -1.
       -4    1    3    3    0  502 -0.55115688557E+03  0.93994417311E+03  0.38778878276E+03  0.11565685081E+04  0.12699999809E+01 0.  1.
</event>
<event>
 5   0  0.1884407E-05  0.2211368E+04  0.7818609E-02  0.8513711E-01
       -1   -1    0    0    0  501  0.00000000000E+00  0.00000000000E+00  0.73811559758E+03  0.73811559759E+03  0.50400001928E-02 0.  1.
        1   -1    0    0  501    0  0.00000000000E+00  0.00000000000E+00 -0.16562954516E+04  0.16562954516E+04  0.50400001928E-02 0. -1.
    10030    2    1    2    0    0  0.00000000000E+00  0.00000000000E+00 -0.91817985406E+03  0.23944110492E+04  0.22113683611E+04 0.  0.
        3    1    3    3  502    0  0.59614937553E+03 -0.92082681384E+03 -0.30897284979E+03  0.11396404394E+04  0.10100000352E+00 0.  1.
       -3    1    3    3    0  502 -0.59614937553E+03  0.92082681384E+03 -0.60920700427E+03  0.12547706098E+04  0.10100000352E+00 0. -1.
</event>
<event>
 5   0  0.3963414E-05  0.2191392E+04  0.7818609E-02  0.8522019E-01
        2   -1    0    0  501    0  0.00000000000E+00  0.00000000000E+00  0.12681583034E+04  0.12681583034E+04  0.25500000920E-02 0.  1.
       -2   -1    0    0    0  501  0.00000000000E+00  0.00000000000E+00 -0.94668778994E+03  0.94668778994E+03  0.25500000920E-02 0. -1.
    10030    2    1    2    0    0  0.00000000000E+00  0.00000000000E+00  0.32147051344E+03  0.22148460933E+04  0.21913922347E+04 0.  0.
        1    1    3    3  502    0 -0.88291208038E+03 -0.43854013895E+03  0.64407818030E+03  0.11775771302E+04  0.50400001928E-02 0.  1.
       -1    1    3    3    0  502  0.88291208038E+03  0.43854013895E+03 -0.32260766686E+03  0.10372689631E+04  0.50400001928E-02 0. -1.
</event>
<event>
 5   0  0.4027923E-05  0.2201352E+04  0.7818609E-02  0.8517866E-01
       -2   -1    0    0    0  501  0.00000000000E+00  0.00000000000E+00  0.61122962799E+03  0.61122962799E+03  0.25500000920E-02 0.  1.
        2   -1    0    0  501    0  0.00000000000E+00  0.00000000000E+00 -0.19820495949E+04  0.19820495949E+04  0.25500000920E-02 0. -1.
    10030    2    1    2    0    0  0.00000000000E+00  0.00000000000E+00 -0.13708199669E+04  0.25932792229E+04  0.22013517997E+04 0.  0.
        5    1    3    3  502    0 -0.39156002655E+00  0.84847388044E+02 -0.19781793741E+04  0.19800037774E+04  0.46999998093E+01 0. -1.
       -5    1    3    3    0  502  0.39156002655E+00 -0.84847388044E+02  0.60735940715E+03  0.61327544548E+03  0.46999998093E+01 0.  1.
</event>
<event>
 5   0  0.1866935E-05  0.2197537E+04  0.7818609E-02  0.8519454E-01
       -1   -1    0    0    0  501  0.00000000000E+00  0.00000000000E+00  0.23566549941E+04  0.23566549941E+04  0.50400001928E-02 0. -1.
        1   -1    0    0  501    0  0.00000000000E+00  0.00000000000E+00 -0.51229055249E+03  0.51229055251E+03  0.50400001928E-02 0.  1.
    10030    2    1    2    0    0  0.00000000000E+00  0.00000000000E+00  0.18443644416E+04  0.28689455466E+04  0.21975368839E+04 0.  0.
        4    1    3    3  502    0  0.43297058157E+02 -0.10915747314E+04  0.76837105941E+03  0.13355919015E+04  0.12699999809E+01 0.  1.
       -4    1    3    3    0  502 -0.43297058157E+02  0.10915747314E+04  0.10759933822E+04  0.15333536451E+04  0.12699999809E+01 0. -1.
</event>
<event>
 5   0  0.4132460E-05  0.2208661E+04  0.7818609E-02  0.8514832E-01
        2   -1    0    0  501    0  0.00000000000E+00  0.00000000000E+00  0.21687412280E+04  0.21687412280E+04  0.25500000920E-02 0.  1.
       -2   -1    0    0    0  501  0.00000000000E+00  0.00000000000E+00 -0.56232865701E+03  0.56232865701E+03  0.25500000920E-02 0. -1.
    10030    2    1    2    0    0  0.00000000000E+00  0.00000000000E+00  0.16064125710E+04  0.27310698851E+04  0.22086605372E+04 0.  0.
        4    1    3    3  502    0 -0.46660320819E+03 -0.71581831966E+03 -0.61858888000E+02  0.85670447389E+03  0.12699999809E+01 0. -1.
       -4    1    3    3    0  502  0.46660320819E+03  0.71581831966E+03  0.16682714590E+04  0.18743654112E+04  0.12699999809E+01 0.  1.
</event>
<event>
 5   0  0.4143281E-05  0.2211570E+04  0.7818609E-02  0.8513628E-01
        2   -1    0    0  501    0  0.00000000000E+00  0.00000000000E+00  0.18605593712E+04  0.18605593713E+04  0.25500000920E-02 0. -1.
       -2   -1    0    0    0  501  0.00000000000E+00  0.00000000000E+00 -0.65720023887E+03  0.65720023888E+03  0.25500000920E-02 0.  1.
    10030    2    1    2    0    0  0.00000000000E+00  0.00000000000E+00  0.12033591324E+04  0.25177596101E+04  0.22115696356E+04 0.  0.
        2    1    3    3  502    0  0.26828341485E+03  0.95972190050E+03  0.56033402370E+02  0.99808910383E+03  0.25500000920E-02 0.  1.
       -2    1    3    3    0  502 -0.26828341485E+03 -0.95972190050E+03  0.11473257300E+04  0.15196705063E+04  0.25500000920E-02 0. -1.
</event>
<event>
 5   0  0.1788413E-05  0.2183272E+04  0.7818609E-02  0.8525423E-01
       -1   -1    0    0    0  501  0.00000000000E+00  0.00000000000E+00  0.10298073733E+04  0.10298073733E+04  0.50400001928E-02 0.  1.
        1   -1    0    0  501    0  0.00000000000E+00  0.00000000000E+00 -0.11571770006E+04  0.11571770006E+04  0.50400001928E-02 0. -1.
    10030    2    1    2    0    0  0.00000000000E+00  0.00000000000E+00 -0.12736962734E+03  0.21869843739E+04  0.21832722299E+04 0.  0.
        1    1    3    3  502    0  0.16640147973E+03 -0.74879575623E+03 -0.84171958424E+03  0.11388048101E+04  0.50400001928E-02 0. -1.
       -1    1    3    3    0  502 -0.16640147973E+03  0.74879575623E+03  0.71434995691E+03  0.10481795638E+04  0.50400001928E-02 0.  1.
</event>
<event>
 5   0  0.4143281E-05  0.2214493E+04  0.7818609E-02  0.8512420E-01
        2   -1    0    0  501    0  0.00000000000E+00  0.00000000000E+00  0.13372838331E+04  0.13372838331E+04  0.25500000920E-02 0. -1.
       -2   -1    0    0    0  501  0.00000000000E+00  0.00000000000E+00 -0.91678017975E+03  0.91678017976E+03  0.25500000920E-02 0.  1.
    10030    2    1    2    0    0  0.00000000000E+00  0.00000000000E+00  0.42050365331E+03  0.22540640128E+04  0.22144934526E+04 0.  0.
        2    1    3    3  502    0  0.57400217745E+03  0.83058690602E+03 -0.25245015355E+03  0.10407133074E+04  0.25500000920E-02 0.  1.
       -2    1    3    3    0  502 -0.57400217745E+03 -0.83058690602E+03  0.67295380686E+03  0.12133507054E+04  0.25500000920E-02 0. -1.
</event>
<event>
 5   0  0.1815681E-05  0.2196107E+04  0.7818609E-02  0.8520050E-01
        1   -1    0    0  501    0  0.00000000000E+00  0.00000000000E+00  0.10579237057E+04  0.10579237057E+04  0.50400001928E-02 0. -1.
       -1   -1    0    0    0  501  0.00000000000E+00  0.00000000000E+00 -0.11397057143E+04  0.11397057143E+04  0.50400001928E-02 0.  1.
    10030    2    1    2    0    0  0.00000000000E+00  0.00000000000E+00 -0.81782008558E+02  0.21976294200E+04  0.21961071856E+04 0.  0.
        2    1    3    3  502    0 -0.30374636068E+03 -0.95264437903E+03 -0.49499903801E+03  0.11157137680E+04  0.25500000920E-02 0.  1.
       -2    1    3    3    0  502  0.30374636068E+03  0.95264437903E+03  0.41321702945E+03  0.10819156520E+04  0.25500000920E-02 0. -1.
</event>
<event>
 5   0  0.1866935E-05  0.2203465E+04  0.7818609E-02  0.8516987E-01
       -1   -1    0    0    0  501  0.00000000000E+00  0.00000000000E+00  0.53591356138E+03  0.53591356140E+03  0.50400001928E-02 0.  1.
        1   -1    0    0  501    0  0.00000000000E+00  0.00000000000E+00 -0.22649438837E+04  0.22649438837E+04  0.50400001928E-02 0. -1.
    10030    2    1    2    0    0  0.00000000000E+00  0.00000000000E+00 -0.17290303223E+04  0.28008574451E+04  0.22034646746E+04 0.  0.
        4    1    3    3  502    0  0.16509155312E+03 -0.62879799098E+03  0.26611333444E+03  0.70246711955E+03  0.12699999809E+01 0.  1.
       -4    1    3    3    0  502 -0.16509155312E+03  0.62879799098E+03 -0.19951436567E+04  0.20983903255E+04  0.12699999809E+01 0. -1.
</event>
<event>
 5   0  0.3963414E-05  0.2198993E+04  0.7818609E-02  0.8518847E-01
       -2   -1    0    0    0  501  0.00000000000E+00  0.00000000000E+00  0.12381823937E+04  0.12381823937E+04  0.25500000920E-02 0. -1.
        2   -1    0    0  501    0  0.00000000000E+00  0.00000000000E+00 -0.97634470339E+03  0.97634470340E+03  0.25500000920E-02 0.  1.
    10030    2    1    2    0    0  0.00000000000E+00  0.00000000000E+00  0.26183769031E+03  0.22145270971E+04  0.21989932441E+04 0.  0.
        1    1    3    3  502    0  0.13804762018E+03 -0.21965747610E+03  0.12069168647E+04  0.12344856704E+04  0.50400001928E-02 0. -1.
       -1    1    3    3    0  502 -0.13804762018E+03  0.21965747610E+03 -0.94507917434E+03  0.98004142669E+03  0.50400001928E-02 0.  1.
</event>
<event>
 5   0  0.4143281E-05  0.2192045E+04  0.7818609E-02  0.8521747E-01
       -2   -1    0    0    0  501  0.00000000000E+00  0.00000000000E+00  0.74618590977E+03  0.74618590977E+03  0.25500000920E-02 0. -1.
        2   -1    0    0  501    0  0.00000000000E+00  0.00000000000E+00 -0.16098738536E+04  0.16098738536E+04  0.25500000920E-02 0.  1.
    10030    2    1    2    0    0  0.00000000000E+00  0.00000000000E+00 -0.86368794383E+03  0.23560597634E+04  0.21920448773E+04 0.  0.
        2    1    3    3  502    0  0.59368992904E+03 -0.33915274414E+03 -0.13525430042E+04  0.15155411225E+04  0.25500000920E-02 0.  1.
       -2    1    3    3    0  502 -0.59368992904E+03  0.33915274414E+03  0.48885506035E+03  0.84051864092E+03  0.25500000920E-02 0. -1.
</event>
<event>
 5   0  0.1788413E-05  0.2228486E+04  0.7818609E-02  0.8506664E-01
       -1   -1    0    0    0  501  0.00000000000E+00  0.00000000000E+00  0.59563377696E+03  0.59563377698E+03  0.50400001928E-02 0. -1.
        1   -1    0    0  501    0  0.00000000000E+00  0.00000000000E+00 -0.20843971978E+04  0.20843971978E+04  0.50400001928E-02 0.  1.
    10030    2    1    2    0    0  0.00000000000E+00  0.00000000000E+00 -0.14887634209E+04  0.26800309748E+04  0.22284859216E+04 0.  0.
        1    1    3    3  502    0  0.39135260708E+03 -0.28844436550E+03  0.46135342354E+03  0.67022682466E+03  0.50400001928E-02 0. -1.
       -1    1    3    3    0  502 -0.39135260708E+03  0.28844436550E+03 -0.19501168444E+04  0.20098041502E+04  0.50400001928E-02 0.  1.
</event>
<event>
 5   0  0.1815681E-05  0.2195788E+04  0.7818609E-02  0.8520183E-01
       -1   -1    0    0    0  501  0.00000000000E+00  0.00000000000E+00  0.56378870766E+03  0.56378870768E+03  0.50400001928E-02 0.  1.
        1   -1    0    0  501    0  0.00000000000E+00  0.00000000000E+00 -0.21379842318E+04  0.21379842318E+04  0.50400001928E-02 0. -1.
    10030    2    1    2    0    0  0.00000000000E+00  0.00000000000E+00 -0.15741955241E+04  0.27017729395E+04  0.21957881201E+04 0.  0.
        2    1    3    3  502    0  0.92770545443E+03 -0.43511617491E+03 -0.12721571587E+04  0.16335076775E+04  0.25500000920E-02 0. -1.
       -2    1    3    3    0  502 -0.92770545443E+03  0.43511617491E+03 -0.30203836543E+03  0.10682652620E+04  0.25500000920E-02 0.  1.
</event>
<event>
 5   0  0.3963414E-05  0.2244452E+04  0.7818609E-02  0.8500151E-01
       -2   -1    0    0    0  501  0.00000000000E+00  0.00000000000E+00  0.65915087957E+03  0.65915087957E+03  0.25500000920E-02 0.  1.
        2   -1    0    0  501    0  0.00000000000E+00  0.00000000000E+00 -0.19106271908E+04  0.19106271908E+04  0.25500000920E-02 0. -1.
    10030    2    1    2    0    0  0.00000000000E+00  0.00000000000E+00 -0.12514763112E+04  0.25697780704E+04  0.22444523549E+04 0.  0.
        1    1    3    3  502    0 -0.26197343162E+03 -0.10769521426E+04 -0.82711729413E+03  0.13829602361E+04  0.50400001928E-02 0.  1.
       -1    1    3    3    0  502  0.26197343162E+03  0.10769521426E+04 -0.42435901709E+03  0.11868178343E+04  0.50400001928E-02 0. -1.
</event>
<event>
 5   0  0.1815681E-05  0.2201496E+04  0.7818609E-02  0.8517806E-01
       -1   -1    0    0    0  501  0.00000000000E+00  0.00000000000E+00  0.69845142997E+03  0.69845142999E+03  0.50400001928E-02 0.  1.
        1   -1    0    0  501    0  0.00000000000E+00  0.00000000000E+00 -0.17347602212E+04  0.17347602213E+04  0.50400001928E-02 0. -1.
    10030    2    1    2    0    0  0.00000000000E+00  0.00000000000E+00 -0.10363087913E+04  0.24332116512E+04  0.22014956345E+04 0.  0.
        2    1    3    3  502    0  0.18483229208E+03 -0.63752994411E+03  0.45235568099E+03  0.80326400888E+03  0.25500000920E-02 0.  1.
       -2    1    3    3    0  502 -0.18483229208E+03  0.63752994411E+03 -0.14886644723E+04  0.16299476424E+04  0.25500000920E-02 0. -1.
</event>
<event>
 5   0  0.1884407E-05  0.2204469E+04  0.7818609E-02  0.8516570E-01
       -1   -1    0    0    0  501  0.00000000000E+00  0.00000000000E+00  0.62945762004E+03  0.62945762006E+03  0.50400001928E-02 0.  1.
        1   -1    0    0  501    0  0.00000000000E+00  0.00000000000E+00 -0.19301071050E+04  0.19301071050E+04  0.50400001928E-02 0. -1.
    10030    2    1    2    0    0  0.00000000000E+00  0.00000000000E+00 -0.13006494850E+04  0.25595647251E+04  0.22044687567E+04 0.  0.
        3    1    3    3  502    0  0.13812255911E+03 -0.46444841038E+03  0.49916237518E+03  0.69566748827E+03  0.10100000352E+00 0.  1.
       -3    1    3    3    0  502 -0.13812255911E+03  0.46444841038E+03 -0.17998118601E+04  0.18638972368E+04  0.10100000352E+00 0. -1.
</event>
<event>
 5   0  0.4132460E-05  0.2202067E+04  0.7818609E-02  0.8517568E-01
        2   -1    0    0  501    0  0.00000000000E+00  0.00000000000E+00  0.14691520417E+04  0.14691520417E+04  0.25500000920E-02 0. -1.
       -2   -1    0    0    0  501  0.00000000000E+00  0.00000000000E+00 -0.82515240340E+03  0.82515240341E+03  0.25500000920E-02 0.  1.
    10030    2    1    2    0    0  0.00000000000E+00  0.00000000000E+00  0.64399963834E+03  0.22943044451E+04  0.22020666095E+04 0.  0.
        4    1    3    3  502    0  0.80586014878E+03 -0.26049671370E+03  0.10550349304E+04  0.13529114659E+04  0.12699999809E+01 0. -1.
       -4    1    3    3    0  502 -0.80586014878E+03  0.26049671370E+03 -0.41103529204E+03  0.94139297928E+03  0.12699999809E+01 0.  1.
</event>
<event>
 5   0  0.4132460E-05  0.2192825E+04  0.7818609E-02  0.8521420E-01
        2   -1    0    0  501    0  0.00000000000E+00  0.00000000000E+00  0.14560912678E+04  0.14560912678E+04  0.25500000920E-02 0.  1.
       -2   -1    0    0    0  501  0.00000000000E+00  0.00000000000E+00 -0.82558034057E+03  0.82558034058E+03  0.25500000920E-02 0. -1.
    10030    2    1    2    0    0  0.00000000000E+00  0.00000000000E+00  0.63051092727E+03  0.22816716084E+04  0.21928249586E+04 0.  0.
        4    1    3    3  502    0  0.37135364026E+03 -0.92440646476E+03 -0.16121483177E+03  0.10091692985E+04  0.12699999809E+01 0. -1.
       -4    1    3    3    0  502 -0.37135364026E+03  0.92440646476E+03  0.79172575904E+03  0.12725023099E+04  0.12699999809E+01 0.  1.
</event>
<event>
 5   0  0.4132460E-05  0.2242738E+04  0.7818609E-02  0.8500847E-01
        2   -1    0    0  501    0  0.00000000000E+00  0.00000000000E+00  0.17774490713E+04  0.17774490713E+04  0.25500000920E-02 0.  1.
       -2   -1    0    0    0  501  0.00000000000E+00  0.00000000000E+00 -0.70745691556E+03  0.70745691557E+03  0.25500000920E-02 0. -1.
    10030    2    1    2    0    0  0.00000000000E+00  0.00000000000E+00  0.10699921557E+04  0.24849059868E+04  0.22427381814E+04 0.  0.
        4    1    3    3  502    0  0.71852986129E+03  0.68511551617E+03  0.11126330561E+04  0.14911815324E+04  0.12699999809E+01 0.  1.
       -4    1    3    3    0  502 -0.71852986129E+03 -0.68511551617E+03 -0.42640900427E+02  0.99372445444E+03  0.12699999809E+01 0. -1.
</event>
<event>
 5   0  0.4029532E-05  0.2197259E+04  0.7818609E-02  0.8519570E-01
        2   -1    0    0  501    0  0.00000000000E+00  0.00000000000E+00  0.10772939097E+04  0.10772939097E+04  0.25500000920E-02 0. -1.
       -2   -1    0    0    0  501  0.00000000000E+00  0.00000000000E+00 -0.11203879390E+04  0.11203879390E+04  0.25500000920E-02 0.  1.
    10030    2    1    2    0    0  0.00000000000E+00  0.00000000000E+00 -0.43094029283E+02  0.21976818487E+04  0.21972592957E+04 0.  0.
        3    1    3    3  502    0  0.93995421544E+03 -0.35398187544E+03  0.42370148319E+03  0.10901101102E+04  0.10100000352E+00 0. -1.
       -3    1    3    3    0  502 -0.93995421544E+03  0.35398187544E+03 -0.46679551248E+03  0.11075717385E+04  0.10100000352E+00 0.  1.
</event>
<event>
 5   0  0.1788413E-05  0.2178819E+04  0.7818609E-02  0.8527296E-01
        1   -1    0    0  501    0  0.00000000000E+00  0.00000000000E+00  0.12736188920E+04  0.12736188921E+04  0.50400001928E-02 0. -1.
       -1   -1    0    0    0  501  0.00000000000E+00  0.00000000000E+00 -0.93184306799E+03  0.93184306801E+03  0.50400001928E-02 0.  1.
    10030    2    1    2    0    0  0.00000000000E+00  0.00000000000E+00  0.34177582405E+03  0.22054619601E+04  0.21788188872E+04 0.  0.
        1    1    3    3  502    0 -0.62207000358E+03 -0.71983839761E+03  0.70810798014E+03  0.11859828496E+04  0.50400001928E-02 0. -1.
       -1    1    3    3    0  502  0.62207000358E+03  0.71983839761E+03 -0.36633215608E+03  0.10194791104E+04  0.50400001928E-02 0.  1.
</event>
<event>
 5   0  0.4143281E-05  0.2200120E+04  0.7818609E-02  0.8518378E-01
       -2   -1    0    0    0  501  0.00000000000E+00  0.00000000000E+00  0.13312557852E+04  0.13312557852E+04  0.25500000920E-02 0. -1.
        2   -1    0    0  501    0  0.00000000000E+00  0.00000000000E+00 -0.90901541921E+03  0.90901541921E+03  0.25500000920E-02 0.  1.
    10030    2    1    2    0    0  0.00000000000E+00  0.00000000000E+00  0.42224036595E+03  0.22402712044E+04  0.22001200291E+04 0.  0.
        2    1    3    3  502    0  0.95473762091E+03 -0.22348314238E+03 -0.29664176580E+03  0.10244339788E+04  0.25500000920E-02 0.  1.
       -2    1    3    3    0  502 -0.95473762091E+03  0.22348314238E+03  0.71888213175E+03  0.12158372256E+04  0.25500000920E-02 0. -1.
</event>
<event>
 5   0  0.3963414E-05  0.2005968E+04  0.7818609E-02  0.8603836E-01
        2   -1    0    0  501    0  0.00000000000E+00  0.00000000000E+00  0.11561327130E+04  0.11561327130E+04  0.25500000920E-02 0. -1.
       -2   -1    0    0    0  501  0.00000000000E+00  0.00000000000E+00 -0.87012191533E+03  0.87012191533E+03  0.25500000920E-02 0.  1.
    10030    2    1    2    0    0  0.00000000000E+00  0.00000000000E+00  0.28601079767E+03  0.20262546283E+04  0.20059675078E+04 0.  0.
        1    1    3    3  502    0  0.92102790866E+03  0.10596165130E+03 -0.24356082370E+03  0.95856254619E+03  0.50400001928E-02 0.  1.
       -1    1    3    3    0  502 -0.92102790866E+03 -0.10596165130E+03  0.52957162137E+03  0.10676920821E+04  0.50400001928E-02 0. -1.
</event>
<event>
 5   0  0.1815681E-05  0.2193276E+04  0.7818609E-02  0.8521232E-01
        1   -1    0    0  501    0  0.00000000000E+00  0.00000000000E+00  0.20988356775E+04  0.20988356775E+04  0.50400001928E-02 0.  1.
       -1   -1    0    0    0  501  0.00000000000E+00  0.00000000000E+00 -0.57299157219E+03  0.57299157221E+03  0.50400001928E-02 0. -1.
    10030    2    1    2    0    0  0.00000000000E+00  0.00000000000E+00  0.15258441053E+04  0.26718272497E+04  0.21932762294E+04 0.  0.
        2    1    3    3  502    0  0.78540029624E+03 -0.49578186217E+03  0.52641129232E+02  0.93028187593E+03  0.25500000920E-02 0. -1.
       -2    1    3    3    0  502 -0.78540029624E+03  0.49578186217E+03  0.14732029760E+04  0.17415453738E+04  0.25500000920E-02 0.  1.
</event>
<event>
 5   0  0.1815681E-05  0.2200413E+04  0.7818609E-02  0.8518256E-01
       -1   -1    0    0    0  501  0.00000000000E+00  0.00000000000E+00  0.10097465486E+04  0.10097465486E+04  0.50400001928E-02 0.  1.
        1   -1    0    0  501    0  0.00000000000E+00  0.00000000000E+00 -0.11987702179E+04  0.11987702179E+04  0.50400001928E-02 0. -1.
    10030    2    1    2    0    0  0.00000000000E+00  0.00000000000E+00 -0.18902366933E+03  0.22085167665E+04  0.22004127704E+04 0.  0.
        2    1    3    3  502    0 -0.10624243303E+04  0.13080607602E+03  0.16058638905E+03  0.10824249052E+04  0.25500000920E-02 0.  1.
       -2    1    3    3    0  502  0.10624243303E+04 -0.13080607602E+03 -0.34961005838E+03  0.11260918613E+04  0.25500000920E-02 0. -1.
</event>
<event>
 5   0  0.3963414E-05  0.2212320E+04  0.7818609E-02  0.8513318E-01
        2   -1    0    0  501    0  0.00000000000E+00  0.00000000000E+00  0.22636535348E+04  0.22636535348E+04  0.25500000920E-02 0.  1.
       -2   -1    0    0    0  501  0.00000000000E+00  0.00000000000E+00 -0.54053775649E+03  0.54053775650E+03  0.25500000920E-02 0. -1.
    10030    2    1    2    0    0  0.00000000000E+00  0.00000000000E+00  0.17231157783E+04  0.28041912913E+04  0.22123202329E+04 0.  0.
        1    1    3    3  502    0  0.71677469087E+03  0.24067921039E+02 -0.20591727753E+03  0.74615490852E+03  0.50400001928E-02 0. -1.
       -1    1    3    3    0  502 -0.71677469087E+03 -0.24067921039E+02  0.19290330559E+04  0.20580363828E+04  0.50400001928E-02 0.  1.
</event>
<event>
 5   0  0.4132460E-05  0.2201195E+04  0.7818609E-02  0.8517931E-01
        2   -1    0    0  501    0  0.00000000000E+00  0.00000000000E+00  0.96983299515E+03  0.96983299515E+03  0.25500000920E-02 0.  1.
       -2   -1    0    0    0  501  0.00000000000E+00  0.00000000000E+00 -0.12489931182E+04  0.12489931182E+04  0.25500000920E-02 0. -1.
    10030    2    1    2    0    0  0.00000000000E+00  0.00000000000E+00 -0.27916012301E+03  0.22188261133E+04  0.22011948907E+04 0.  0.
        4    1    3    3  502    0  0.95829795853E+03 -0.52713458544E+03 -0.15683902030E+02  0.10938251442E+04  0.12699999809E+01 0. -1.
       -4    1    3    3    0  502 -0.95829795853E+03  0.52713458544E+03 -0.26347622098E+03  0.11250009691E+04  0.12699999809E+01 0.  1.
</event>
<event>
 5   0  0.4132460E-05  0.2140961E+04  0.7818609E-02  0.8543411E-01
       -2   -1    0    0    0  501  0.00000000000E+00  0.00000000000E+00  0.70960272112E+03  0.70960272113E+03  0.25500000920E-02 0. -1.
        2   -1    0    0  501    0  0.00000000000E+00  0.00000000000E+00 -0.16148878221E+04  0.16148878221E+04  0.25500000920E-02 0.  1.
    10030    2    1    2    0    0  0.00000000000E+00  0.00000000000E+00 -0.90528510099E+03  0.23244905432E+04  0.21409612728E+04 0.  0.
        4    1    3    3  502    0  0.85365020780E+03  0.53098050918E+03 -0.53326441920E+02  0.10067295072E+04  0.12699999809E+01 0. -1.
       -4    1    3    3    0  502 -0.85365020780E+03 -0.53098050918E+03 -0.85195865907E+03  0.13177610360E+04  0.12699999809E+01 0.  1.
</event>
<event>
 5   0  0.1884407E-05  0.2135672E+04  0.7818609E-02  0.8545690E-01
        1   -1    0    0  501    0  0.00000000000E+00  0.00000000000E+00  0.11545325932E+04  0.11545325932E+04  0.50400001928E-02 0. -1.
       -1   -1    0    0    0  501  0.00000000000E+00  0.00000000000E+00 -0.98764975522E+03  0.98764975523E+03  0.50400001928E-02 0.  1.
    10030    2    1    2    0    0  0.00000000000E+00  0.00000000000E+00  0.16688283802E+03  0.21421823485E+04  0.21356721032E+04 0.  0.
        3    1    3    3  502    0 -0.23119161323E+02  0.77759577095E+03  0.81716571910E+03  0.11282506376E+04  0.10100000352E+00 0. -1.
       -3    1    3    3    0  502  0.23119161323E+02 -0.77759577095E+03 -0.65028288109E+03  0.10139317108E+04  0.10100000352E+00 0.  1.
</event>
<event>
 5   0  0.1786228E-05  0.2212989E+04  0.7818609E-02  0.8513041E-01
        1   -1    0    0  501    0  0.00000000000E+00  0.00000000000E+00  0.11001080784E+04  0.11001080784E+04  0.50400001928E-02 0.  1.
       -1   -1    0    0    0  501  0.00000000000E+00  0.00000000000E+00 -0.11129184526E+04  0.11129184527E+04  0.50400001928E-02 0. -1.
    10030    2    1    2    0    0  0.00000000000E+00  0.00000000000E+00 -0.12810374240E+02  0.22130265311E+04  0.22129894536E+04 0.  0.
        5    1    3    3  502    0  0.86799928773E+03 -0.30433620932E+02 -0.69195261043E+03  0.11104816405E+04  0.46999998093E+01 0.  1.
       -5    1    3    3    0  502 -0.86799928773E+03  0.30433620932E+02  0.67914223619E+03  0.11025448906E+04  0.46999998093E+01 0. -1.
</event>
<event>
 5   0  0.4143281E-05  0.2193494E+04  0.7818609E-02  0.8521141E-01
       -2   -1    0    0    0  501  0.00000000000E+00  0.00000000000E+00  0.91535164739E+03  0.91535164740E+03  0.25500000920E-02 0.  1.
        2   -1    0    0  501    0  0.00000000000E+00  0.00000000000E+00 -0.13140896148E+04  0.13140896148E+04  0.25500000920E-02 0. -1.
    10030    2    1    2    0    0  0.00000000000E+00  0.00000000000E+00 -0.39873796743E+03  0.22294412622E+04  0.21934941019E+04 0.  0.
        2    1    3    3  502    0 -0.50077413553E+03 -0.46672676420E+03  0.67155491201E+03  0.95895495571E+03  0.25500000920E-02 0.  1.
       -2    1    3    3    0  502  0.50077413553E+03  0.46672676420E+03 -0.10702928794E+04  0.12704863065E+04  0.25500000920E-02 0. -1.
</event>
<event>
 5   0  0.1815681E-05  0.2181369E+04  0.7818609E-02  0.8526223E-01
        1   -1    0    0  501    0  0.00000000000E+00  0.00000000000E+00  0.53387016549E+03  0.53387016551E+03  0.50400001928E-02 0. -1.
       -1   -1    0    0    0  501  0.00000000000E+00  0.00000000000E+00 -0.22282441097E+04  0.22282441097E+04  0.50400001928E-02 0.  1.
    10030    2    1    2    0    0  0.00000000000E+00  0.00000000000E+00 -0.16943739442E+04  0.27621142752E+04  0.21813693421E+04 0.  0.
        2    1    3    3  502    0  0.27360502053E+03 -0.44411100295E+03  0.36568561571E+03  0.63704023400E+03  0.25500000920E-02 0. -1.
       -2    1    3    3    0  502 -0.27360502053E+03  0.44411100295E+03 -0.20600595599E+04  0.21250740412E+04  0.25500000920E-02 0.  1.
</event>
<event>
 5   0  0.1815681E-05  0.2170804E+04  0.7818609E-02  0.8530679E-01
       -1   -1    0    0    0  501  0.00000000000E+00  0.00000000000E+00  0.10109335475E+04  0.10109335475E+04  0.50400001928E-02 0.  1.
        1   -1    0    0  501    0  0.00000000000E+00  0.00000000000E+00 -0.11653562515E+04  0.11653562516E+04  0.50400001928E-02 0. -1.
    10030    2    1    2    0    0  0.00000000000E+00  0.00000000000E+00 -0.15442270401E+03  0.21762897991E+04  0.21708042100E+04 0.  0.
        2    1    3    3  502    0 -0.54866284577E+03 -0.54231857449E+03  0.68823449606E+03  0.10338312610E+04  0.25500000920E-02 0. -1.
       -2    1    3    3    0  502  0.54866284577E+03  0.54231857449E+03 -0.84265720006E+03  0.11424585381E+04  0.25500000920E-02 0.  1.
</event>
<event>
 5   0  0.1788413E-05  0.2188220E+04  0.7818609E-02  0.8523347E-01
        1   -1    0    0  501    0  0.00000000000E+00  0.00000000000E+00  0.12118573802E+04  0.12118573802E+04  0.50400001928E-02 0. -1.
       -1   -1    0    0    0  501  0.00000000000E+00  0.00000000000E+00 -0.98780339098E+03  0.98780339100E+03  0.50400001928E-02 0.  1.
    10030    2    1    2    0    0  0.00000000000E+00  0.00000000000E+00  0.22405398918E+03  0.21996607712E+04  0.21882201256E+04 0.  0.
        1    1    3    3  502    0  0.37670136907E+03  0.15215356157E+03  0.11332232692E+04  0.12038478332E+04  0.50400001928E-02 0. -1.
       -1    1    3    3    0  502 -0.37670136907E+03 -0.15215356157E+03 -0.90916927997E+03  0.99581293796E+03  0.50400001928E-02 0.  1.
</event>
<event>
 5   0  0.4143281E-05  0.2196989E+04  0.7818609E-02  0.8519683E-01
        2   -1    0    0  501    0  0.00000000000E+00  0.00000000000E+00  0.13898928938E+04  0.13898928938E+04  0.25500000920E-02 0. -1.
       -2   -1    0    0    0  501  0.00000000000E+00  0.00000000000E+00 -0.86818895983E+03  0.86818895983E+03  0.25500000920E-02 0.  1.
    10030    2    1    2    0    0  0.00000000000E+00  0.00000000000E+00  0.52170393393E+03  0.22580818536E+04  0.21969885441E+04 0.  0.
        2    1    3    3  502    0 -0.77347871252E+03 -0.16626017658E+03 -0.52242783834E+03  0.94807310442E+03  0.25500000920E-02 0.  1.
       -2    1    3    3    0  502  0.77347871252E+03  0.16626017658E+03  0.10441317723E+04  0.13100087492E+04  0.25500000920E-02 0. -1.
</event>
<event>
 5   0  0.4132460E-05  0.2190352E+04  0.7818609E-02  0.8522455E-01
        2   -1    0    0  501    0  0.00000000000E+00  0.00000000000E+00  0.15894321626E+04  0.15894321626E+04  0.25500000920E-02 0.  1.
       -2   -1    0    0    0  501  0.00000000000E+00  0.00000000000E+00 -0.75461568609E+03  0.75461568610E+03  0.25500000920E-02 0. -1.
    10030    2    1    2    0    0  0.00000000000E+00  0.00000000000E+00  0.83481647650E+03  0.23440478487E+04  0.21903519734E+04 0.  0.
        4    1    3    3  502    0 -0.17991111065E+03 -0.65159326422E+03 -0.50471964316E+03  0.84361443848E+03  0.12699999809E+01 0. -1.
       -4    1    3    3    0  502  0.17991111065E+03  0.65159326422E+03  0.13395361197E+04  0.15004334102E+04  0.12699999809E+01 0.  1.
</event>
<event>
 5   0  0.1788413E-05  0.2181564E+04  0.7818609E-02  0.8526141E-01
        1   -1    0    0  501    0  0.00000000000E+00  0.00000000000E+00  0.12109911268E+04  0.12109911268E+04  0.50400001928E-02 0.  1.
       -1   -1    0    0    0  501  0.00000000000E+00  0.00000000000E+00 -0.98250506417E+03  0.98250506418E+03  0.50400001928E-02 0. -1.
    10030    2    1    2    0    0  0.00000000000E+00  0.00000000000E+00  0.22848606265E+03  0.21934961910E+04  0.21815635813E+04 0.  0.
        1    1    3    3  502    0 -0.88024270761E+03  0.62239734485E+03  0.28128189872E+03  0.11141477396E+04  0.50400001928E-02 0. -1.
       -1    1    3    3    0  502  0.88024270761E+03 -0.62239734485E+03 -0.52795836067E+02  0.10793484514E+04  0.50400001928E-02 0.  1.
</event>
<event>
 5   0  0.3963414E-05  0.2237753E+04  0.7818609E-02  0.8502877E-01
        2   -1    0    0  501    0  0.00000000000E+00  0.00000000000E+00  0.15229755079E+04  0.15229755079E+04  0.25500000920E-02 0. -1.
       -2   -1    0    0    0  501  0.00000000000E+00  0.00000000000E+00 -0.82199898233E+03  0.82199898234E+03  0.25500000920E-02 0.  1.
    10030    2    1    2    0    0  0.00000000000E+00  0.00000000000E+00  0.70097652552E+03  0.23449744902E+04  0.22377527277E+04 0.  0.
        1    1    3    3  502    0 -0.39946606096E+03  0.98627498629E+03 -0.11873439156E+02  0.10641674967E+04  0.50400001928E-02 0.  1.
       -1    1    3    3    0  502  0.39946606096E+03 -0.98627498629E+03  0.71284996468E+03  0.12808069935E+04  0.50400001928E-02 0. -1.
</event>
<event>
 5   0  0.1815681E-05  0.2115496E+04  0.7818609E-02  0.8554448E-01
       -1   -1    0    0    0  501  0.00000000000E+00  0.00000000000E+00  0.19169390043E+04  0.19169390043E+04  0.50400001928E-02 0.  1.
        1   -1    0    0  501    0  0.00000000000E+00  0.00000000000E+00 -0.58365501547E+03  0.58365501550E+03  0.50400001928E-02 0. -1.
    10030    2    1    2    0    0  0.00000000000E+00  0.00000000000E+00  0.13332839888E+04  0.25005940198E+04  0.21154962200E+04 0.  0.
        2    1    3    3  502    0  0.17554550713E+03  0.58367138893E+03  0.16885005584E+04  0.17951386161E+04  0.25500000920E-02 0.  1.
       -2    1    3    3    0  502 -0.17554550713E+03 -0.58367138893E+03 -0.35521656955E+03  0.70545540371E+03  0.25500000920E-02 0. -1.
</event>
<event>
 5   0  0.1788413E-05  0.2224280E+04  0.7818609E-02  0.8508390E-01
       -1   -1    0    0    0  501  0.00000000000E+00  0.00000000000E+00  0.66309746835E+03  0.66309746837E+03  0.50400001928E-02 0. -1.
        1   -1    0    0  501    0  0.00000000000E+00  0.00000000000E+00 -0.18652695164E+04  0.18652695164E+04  0.50400001928E-02 0.  1.
    10030    2    1    2    0    0  0.00000000000E+00  0.00000000000E+00 -0.12021720480E+04  0.25283669847E+04  0.22242801030E+04 0.  0.
        1    1    3    3  502    0 -0.63094671014E+03 -0.91153017807E+03 -0.50021614328E+03  0.12162225153E+04  0.50400001928E-02 0. -1.
       -1    1    3    3    0  502  0.63094671014E+03  0.91153017807E+03 -0.70195590473E+03  0.13121444695E+04  0.50400001928E-02 0.  1.
</event>
<event>
 5   0  0.1788413E-05  0.2166344E+04  0.7818609E-02  0.8532569E-01
       -1   -1    0    0    0  501  0.00000000000E+00  0.00000000000E+00  0.78663181352E+03  0.78663181354E+03  0.50400001928E-02 0.  1.
        1   -1    0    0  501    0  0.00000000000E+00  0.00000000000E+00 -0.14915001809E+04  0.14915001809E+04  0.50400001928E-02 0. -1.
    10030    2    1    2    0    0  0.00000000000E+00  0.00000000000E+00 -0.70486836734E+03  0.22781319944E+04  0.21663439175E+04 0.  0.
        1    1    3    3  502    0 -0.67836401995E+03 -0.59832690692E+03  0.27420836725E+03  0.94517885069E+03  0.50400001928E-02 0.  1.
       -1    1    3    3    0  502  0.67836401995E+03  0.59832690692E+03 -0.97907673459E+03  0.13329531437E+04  0.50400001928E-02 0. -1.
</event>
<event>
 5   0  0.1788413E-05  0.2122926E+04  0.7818609E-02  0.8551211E-01
        1   -1    0    0  501    0  0.00000000000E+00  0.00000000000E+00  0.12701590435E+04  0.12701590435E+04  0.50400001928E-02 0. -1.
       -1   -1    0    0    0  501  0.00000000000E+00  0.00000000000E+00 -0.88705699378E+03  0.88705699380E+03  0.50400001928E-02 0.  1.
    10030    2    1    2    0    0  0.00000000000E+00  0.00000000000E+00  0.38310204969E+03  0.21572160373E+04  0.21229257761E+04 0.  0.
        1    1    3    3  502    0 -0.26556246164E+03  0.63967306412E+03  0.10089054866E+04  0.12237627756E+04  0.50400001928E-02 0. -1.
       -1    1    3    3    0  502  0.26556246164E+03 -0.63967306412E+03 -0.62580343694E+03  0.93345326166E+03  0.50400001928E-02 0.  1.
</event>
<event>
 5   0  0.1788413E-05  0.2238092E+04  0.7818609E-02  0.8502739E-01
        1   -1    0    0  501    0  0.00000000000E+00  0.00000000000E+00  0.13756299366E+04  0.13756299366E+04  0.50400001928E-02 0. -1.
       -1   -1    0    0    0  501  0.00000000000E+00  0.00000000000E+00 -0.91032047624E+03  0.91032047625E+03  0.50400001928E-02 0.  1.
    10030    2    1    2    0    0  0.00000000000E+00  0.00000000000E+00  0.46530946040E+03  0.22859504129E+04  0.22380921331E+04 0.  0.
        1    1    3    3  502    0 -0.22219596205E+03  0.20005661738E+03  0.13340786486E+04  0.13671720946E+04  0.50400001928E-02 0. -1.
       -1    1    3    3    0  502  0.22219596205E+03 -0.20005661738E+03 -0.86876918820E+03  0.91877831825E+03  0.50400001928E-02 0.  1.
</event>
<event>
 5   0  0.1815681E-05  0.2199515E+04  0.7818609E-02  0.8518630E-01
       -1   -1    0    0    0  501  0.00000000000E+00  0.00000000000E+00  0.12378025747E+04  0.12378025747E+04  0.50400001928E-02 0.  1.
        1   -1    0    0  501    0  0.00000000000E+00  0.00000000000E+00 -0.97710762850E+03  0.97710762851E+03  0.50400001928E-02 0. -1.
    10030    2    1    2    0    0  0.00000000000E+00  0.00000000000E+00  0.26069494620E+03  0.22149102032E+04  0.21995147995E+04 0.  0.
        2    1    3    3  502    0 -0.41627263883E+03 -0.92947569661E+03 -0.28759777010E+03  0.10582629436E+04  0.25500000920E-02 0. -1.
       -2    1    3    3    0  502  0.41627263883E+03  0.92947569661E+03  0.54829271629E+03  0.11566472596E+04  0.25500000920E-02 0.  1.
</event>
<event>
 5   0  0.1866935E-05  0.2180598E+04  0.7818609E-02  0.8526547E-01
       -1   -1    0    0    0  501  0.00000000000E+00  0.00000000000E+00  0.88540361586E+03  0.88540361588E+03  0.50400001928E-02 0. -1.
        1   -1    0    0  501    0  0.00000000000E+00  0.00000000000E+00 -0.13426099452E+04  0.13426099452E+04  0.50400001928E-02 0.  1.
    10030    2    1    2    0    0  0.00000000000E+00  0.00000000000E+00 -0.45720632934E+03  0.22280135611E+04  0.21805978081E+04 0.  0.
        4    1    3    3  502    0  0.27602892172E+03 -0.49845514233E+03  0.72117987527E+03  0.91910365027E+03  0.12699999809E+01 0. -1.
       -4    1    3    3    0  502 -0.27602892172E+03  0.49845514233E+03 -0.11783862046E+04  0.13089099108E+04  0.12699999809E+01 0.  1.
</event>
<event>
 5   0  0.4143281E-05  0.2231363E+04  0.7818609E-02  0.8505486E-01
        2   -1    0    0  501    0  0.00000000000E+00  0.00000000000E+00  0.17695972993E+04  0.17695972993E+04  0.25500000920E-02 0.  1.
       -2   -1    0    0    0  501  0.00000000000E+00  0.00000000000E+00 -0.70340603413E+03  0.70340603413E+03  0.25500000920E-02 0. -1.
    10030    2    1    2    0    0  0.00000000000E+00  0.00000000000E+00  0.10661912652E+04  0.24730033334E+04  0.22313631872E+04 0.  0.
        2    1    3    3  502    0 -0.11787740799E+03 -0.66679547732E+03 -0.44962569871E+03  0.81281889793E+03  0.25500000920E-02 0. -1.
       -2    1    3    3    0  502  0.11787740799E+03  0.66679547732E+03  0.15158169639E+04  0.16601844355E+04  0.25500000920E-02 0.  1.
</event>
<event>
 5   0  0.1815681E-05  0.2202387E+04  0.7818609E-02  0.8517435E-01
       -1   -1    0    0    0  501  0.00000000000E+00  0.00000000000E+00  0.92457586047E+03  0.92457586049E+03  0.50400001928E-02 0. -1.
        1   -1    0    0  501    0  0.00000000000E+00  0.00000000000E+00 -0.13115501849E+04  0.13115501849E+04  0.50400001928E-02 0.  1.
    10030    2    1    2    0    0  0.00000000000E+00  0.00000000000E+00 -0.38697432442E+03  0.22361260454E+04  0.22023874689E+04 0.  0.
        2    1    3    3  502    0  0.74146764975E+03 -0.48140724602E+03  0.47315346908E+03  0.10026970716E+04  0.25500000920E-02 0.  1.
       -2    1    3    3    0  502 -0.74146764975E+03  0.48140724602E+03 -0.86012779349E+03  0.12334289738E+04  0.25500000920E-02 0. -1.
</event>
<event>
 5   0  0.1786228E-05  0.2211178E+04  0.7818609E-02  0.8513790E-01
        1   -1    0    0  501    0  0.00000000000E+00  0.00000000000E+00  0.11542470442E+04  0.11542470442E+04  0.50400001928E-02 0.  1.
       -1   -1    0    0    0  501  0.00000000000E+00  0.00000000000E+00 -0.10589826453E+04  0.10589826453E+04  0.50400001928E-02 0. -1.
    10030    2    1    2    0    0  0.00000000000E+00  0.00000000000E+00  0.95264398843E+02  0.22132296895E+04  0.22111784987E+04 0.  0.
        5    1    3    3  502    0  0.27681929781E+03 -0.53788965543E+03 -0.87861874486E+03  0.10667460775E+04  0.46999998093E+01 0. -1.
       -5    1    3    3    0  502 -0.27681929781E+03  0.53788965543E+03  0.97388314371E+03  0.11464836120E+04  0.46999998093E+01 0.  1.
</event>
<event>
 5   0  0.3963414E-05  0.2160164E+04  0.7818609E-02  0.8535194E-01
       -2   -1    0    0    0  501  0.00000000000E+00  0.00000000000E+00  0.12847469901E+04  0.12847469901E+04  0.25500000920E-02 0.  1.
        2   -1    0    0  501    0  0.00000000000E+00  0.00000000000E+00 -0.90802114184E+03  0.90802114184E+03  0.25500000920E-02 0. -1.
    10030    2    1    2    0    0  0.00000000000E+00  0.00000000000E+00  0.37672584826E+03  0.21927681319E+04  0.21601642798E+04 0.  0.
        1    1    3    3  502    0 -0.89002412532E+03 -0.37646620642E+03  0.67804170965E+03  0.11805127311E+04  0.50400001928E-02 0.  1.
       -1    1    3    3    0  502  0.89002412532E+03  0.37646620642E+03 -0.30131586138E+03  0.10122554009E+04  0.50400001928E-02 0. -1.
</event>
<event>
 5   0  0.3963414E-05  0.2197610E+04  0.7818609E-02  0.8519423E-01
        2   -1    0    0  501    0  0.00000000000E+00  0.00000000000E+00  0.25749654412E+04  0.25749654412E+04  0.25500000920E-02 0.  1.
       -2   -1    0    0    0  501  0.00000000000E+00  0.00000000000E+00 -0.46888890047E+03  0.46888890048E+03  0.25500000920E-02 0. -1.
    10030    2    1    2    0    0  0.00000000000E+00  0.00000000000E+00  0.21060765408E+04  0.30438543417E+04  0.21976102607E+04 0.  0.
        1    1    3    3  502    0  0.68052936519E+03 -0.81267094537E+01 -0.14181361274E+03  0.69519591561E+03  0.50400001928E-02 0. -1.
       -1    1    3    3    0  502 -0.68052936519E+03  0.81267094537E+01  0.22478901535E+04  0.23486584261E+04  0.50400001928E-02 0.  1.
</event>
<event>
 5   0  0.4143281E-05  0.2201784E+04  0.7818609E-02  0.8517686E-01
       -2   -1    0    0    0  501  0.00000000000E+00  0.00000000000E+00  0.15281060424E+04  0.15281060424E+04  0.25500000920E-02 0. -1.
        2   -1    0    0  501    0  0.00000000000E+00  0.00000000000E+00 -0.79311490828E+03  0.79311490829E+03  0.25500000920E-02 0.  1.
    10030    2    1    2    0    0  0.00000000000E+00  0.00000000000E+00  0.73499113411E+03  0.23212209507E+04  0.22017844433E+04 0.  0.
        2    1    3    3  502    0 -0.21326269665E+02  0.82427321803E+02 -0.78963874446E+03  0.79421560040E+03  0.25500000920E-02 0.  1.
       -2    1    3    3    0  502  0.21326269665E+02 -0.82427321803E+02  0.15246298786E+04  0.15270053503E+04  0.25500000920E-02 0. -1.
</event>
<event>
 5   0  0.4027923E-05  0.2193954E+04  0.7818609E-02  0.8520949E-01
        2   -1    0    0  501    0  0.00000000000E+00  0.00000000000E+00  0.14519211731E+04  0.14519211731E+04  0.25500000920E-02 0.  1.
       -2   -1    0    0    0  501  0.00000000000E+00  0.00000000000E+00 -0.82880446821E+03  0.82880446821E+03  0.25500000920E-02 0. -1.
    10030    2    1    2    0    0  0.00000000000E+00  0.00000000000E+00  0.62311670490E+03  0.22807256413E+04  0.21939541980E+04 0.  0.
        5    1    3    3  502    0 -0.15676208815E+03 -0.87972898441E+03 -0.34987605377E+03  0.95965242734E+03  0.46999998093E+01 0. -1.
       -5    1    3    3    0  502  0.15676208815E+03  0.87972898441E+03  0.97299275866E+03  0.13210732140E+04  0.46999998093E+01 0.  1.
</event>
<event>
 5   0  0.1866935E-05  0.2174263E+04  0.7818609E-02  0.8529217E-01
        1   -1    0    0  501    0  0.00000000000E+00  0.00000000000E+00  0.41374449206E+03  0.41374449209E+03  0.50400001928E-02 0. -1.
       -1   -1    0    0    0  501  0.00000000000E+00  0.00000000000E+00 -0.28564852775E+04  0.28564852775E+04  0.50400001928E-02 0.  1.
    10030    2    1    2    0    0  0.00000000000E+00  0.00000000000E+00 -0.24427407855E+04  0.32702297696E+04  0.21742631398E+04 0.  0.
        4    1    3    3  502    0 -0.10420066777E+04 -0.12246765790E+03 -0.79310249789E+03  0.13152145941E+04  0.12699999809E+01 0. -1.
       -4    1    3    3    0  502  0.10420066777E+04  0.12246765790E+03 -0.16496382876E+04  0.19550151755E+04  0.12699999809E+01 0.  1.
</event>
<event>
 5   0  0.3963414E-05  0.2189760E+04  0.7818609E-02  0.8522702E-01
        2   -1    0    0  501    0  0.00000000000E+00  0.00000000000E+00  0.22951267542E+04  0.22951267542E+04  0.25500000920E-02 0. -1.
       -2   -1    0    0    0  501  0.00000000000E+00  0.00000000000E+00 -0.52230758599E+03  0.52230758600E+03  0.25500000920E-02 0.  1.
    10030    2    1    2    0    0  0.00000000000E+00  0.00000000000E+00  0.17728191682E+04  0.28174343402E+04  0.21897599088E+04 0.  0.
        1    1    3    3  502    0 -0.68776375935E+02  0.64467739396E+03  0.20215906226E+04  0.21230091327E+04  0.50400001928E-02 0. -1.
       -1    1    3    3    0  502  0.68776375935E+02 -0.64467739396E+03 -0.24877145443E+03  0.69442520745E+03  0.50400001928E-02 0.  1.
</event>
<event>
 5   0  0.1788413E-05  0.2197015E+04  0.7818609E-02  0.8519672E-01
       -1   -1    0    0    0  501  0.00000000000E+00  0.00000000000E+00  0.11966510195E+04  0.11966510195E+04  0.50400001928E-02 0.  1.
        1   -1    0    0  501    0  0.00000000000E+00  0.00000000000E+00 -0.10084129240E+04  0.10084129240E+04  0.50400001928E-02 0. -1.
    10030    2    1    2    0    0  0.00000000000E+00  0.00000000000E+00  0.18823809542E+03  0.22050639435E+04  0.21970146596E+04 0.  0.
        1    1    3    3  502    0 -0.68625732260E+03 -0.76683682191E+03  0.47988452559E+03  0.11354633337E+04  0.50400001928E-02 0.  1.
       -1    1    3    3    0  502  0.68625732260E+03  0.76683682191E+03 -0.29164643017E+03  0.10696006098E+04  0.50400001928E-02 0. -1.
</event>
<event>
 5   0  0.1815681E-05  0.2211059E+04  0.7818609E-02  0.8513839E-01
        1   -1    0    0  501    0  0.00000000000E+00  0.00000000000E+00  0.11549136544E+04  0.11549136544E+04  0.50400001928E-02 0.  1.
       -1   -1    0    0    0  501  0.00000000000E+00  0.00000000000E+00 -0.10582569297E+04  0.10582569297E+04  0.50400001928E-02 0. -1.
    10030    2    1    2    0    0  0.00000000000E+00  0.00000000000E+00  0.96656724704E+02  0.22131705841E+04  0.22110589119E+04 0.  0.
        2    1    3    3  502    0  0.92585597524E+03  0.49377594377E+03  0.39675765002E+03  0.11218023901E+04  0.25500000920E-02 0.  1.
       -2    1    3    3    0  502 -0.92585597524E+03 -0.49377594377E+03 -0.30010092531E+03  0.10913681940E+04  0.25500000920E-02 0. -1.
</event>
<event>
 5   0  0.1788413E-05  0.2231105E+04  0.7818609E-02  0.8505592E-01
       -1   -1    0    0    0  501  0.00000000000E+00  0.00000000000E+00  0.67545947856E+03  0.67545947858E+03  0.50400001928E-02 0.  1.
        1   -1    0    0  501    0  0.00000000000E+00  0.00000000000E+00 -0.18423858526E+04  0.18423858526E+04  0.50400001928E-02 0. -1.
    10030    2    1    2    0    0  0.00000000000E+00  0.00000000000E+00 -0.11669263740E+04  0.25178453311E+04  0.22311046478E+04 0.  0.
        1    1    3    3  502    0 -0.21153194737E+03  0.49615924824E+03  0.51852752197E+03  0.74819152323E+03  0.50400001928E-02 0.  1.
       -1    1    3    3    0  502  0.21153194737E+03 -0.49615924824E+03 -0.16854538960E+04  0.17696538079E+04  0.50400001928E-02 0. -1.
</event>
<event>
 5   0  0.1786228E-05  0.2181805E+04  0.7818609E-02  0.8526040E-01
        1   -1    0    0  501    0  0.00000000000E+00  0.00000000000E+00  0.11695465700E+04  0.11695465700E+04  0.50400001928E-02 0.  1.
       -1   -1    0    0    0  501  0.00000000000E+00  0.00000000000E+00 -0.10175463700E+04  0.10175463700E+04  0.50400001928E-02 0. -1.
    10030    2    1    2    0    0  0.00000000000E+00  0.00000000000E+00  0.15200020002E+03  0.21870929400E+04  0.21818046355E+04 0.  0.
        5    1    3    3  502    0 -0.80543740271E+03 -0.12650786446E+03 -0.65054084100E+03  0.10430527912E+04  0.46999998093E+01 0. -1.
       -5    1    3    3    0  502  0.80543740271E+03  0.12650786446E+03  0.80254104101E+03  0.11440401488E+04  0.46999998093E+01 0.  1.
</event>
<event>
 5   0  0.1815681E-05  0.2197116E+04  0.7818609E-02  0.8519630E-01
        1   -1    0    0  501    0  0.00000000000E+00  0.00000000000E+00  0.62752131887E+03  0.62752131889E+03  0.50400001928E-02 0.  1.
       -1   -1    0    0    0  501  0.00000000000E+00  0.00000000000E+00 -0.19231687228E+04  0.19231687228E+04  0.50400001928E-02 0. -1.
    10030    2    1    2    0    0  0.00000000000E+00  0.00000000000E+00 -0.12956474040E+04  0.25506900417E+04  0.21971157215E+04 0.  0.
        2    1    3    3  502    0 -0.76386865586E+03 -0.52480777117E+02  0.26671813735E+03  0.81079474602E+03  0.25500000920E-02 0.  1.
       -2    1    3    3    0  502  0.76386865586E+03  0.52480777117E+02 -0.15623655413E+04  0.17398952957E+04  0.25500000920E-02 0. -1.
</event>
<event>
 5   0  0.3963414E-05  0.2115530E+04  0.7818609E-02  0.8554433E-01
        2   -1    0    0  501    0  0.00000000000E+00  0.00000000000E+00  0.13073598602E+04  0.13073598602E+04  0.25500000920E-02 0. -1.
       -2   -1    0    0    0  501  0.00000000000E+00  0.00000000000E+00 -0.85582161135E+03  0.85582161135E+03  0.25500000920E-02 0.  1.
    10030    2    1    2    0    0  0.00000000000E+00  0.00000000000E+00  0.45153824887E+03  0.21631814716E+04  0.21155300255E+04 0.  0.
        1    1    3    3  502    0  0.10254114916E+04  0.16298093978E+02 -0.39166320161E+02  0.10262886318E+04  0.50400001928E-02 0.  1.
       -1    1    3    3    0  502 -0.10254114916E+04 -0.16298093978E+02  0.49070456903E+03  0.11368928398E+04  0.50400001928E-02 0. -1.
</event>
<event>
 5   0  0.4029532E-05  0.2214307E+04  0.7818609E-02  0.8512497E-01
       -2   -1    0    0    0  501  0.00000000000E+00  0.00000000000E+00  0.94119696612E+03  0.94119696613E+03  0.25500000920E-02 0. -1.
        2   -1    0    0  501    0  0.00000000000E+00  0.00000000000E+00 -0.13023722194E+04  0.13023722194E+04  0.25500000920E-02 0.  1.
    10030    2    1    2    0    0  0.00000000000E+00  0.00000000000E+00 -0.36117525327E+03  0.22435691855E+04  0.22143069179E+04 0.  0.
        3    1    3    3  502    0 -0.14075129784E+03  0.10974957480E+04 -0.14159626163E+03  0.11155076675E+04  0.10100000352E+00 0. -1.
       -3    1    3    3    0  502  0.14075129784E+03 -0.10974957480E+04 -0.21957899164E+03  0.11280615180E+04  0.10100000352E+00 0.  1.
</event>
<event>
 5   0  0.1788413E-05  0.2202223E+04  0.7818609E-02  0.8517503E-01
        1   -1    0    0  501    0  0.00000000000E+00  0.00000000000E+00  0.98707572986E+03  0.98707572987E+03  0.50400001928E-02 0. -1.
       -1   -1    0    0    0  501  0.00000000000E+00  0.00000000000E+00 -0.12283220252E+04  0.12283220252E+04  0.50400001928E-02 0.  1.
    10030    2    1    2    0    0  0.00000000000E+00  0.00000000000E+00 -0.24124629535E+03  0.22153977551E+04  0.22022232944E+04 0.  0.
        1    1    3    3  502    0  0.42714562704E+03 -0.59413563057E+03 -0.94834327301E+03  0.11978336686E+04  0.50400001928E-02 0.  1.
       -1    1    3    3    0  502 -0.42714562704E+03  0.59413563057E+03  0.70709697766E+03  0.10175640865E+04  0.50400001928E-02 0. -1.
</event>
<event>
 5   0  0.1815681E-05  0.2210892E+04  0.7818609E-02  0.8513908E-01
       -1   -1    0    0    0  501  0.00000000000E+00  0.00000000000E+00  0.11865112521E+04  0.11865112522E+04  0.50400001928E-02 0. -1.
        1   -1    0    0  501    0  0.00000000000E+00  0.00000000000E+00 -0.10299192093E+04  0.10299192093E+04  0.50400001928E-02 0.  1.
    10030    2    1    2    0    0  0.00000000000E+00  0.00000000000E+00  0.15659204286E+03  0.22164304615E+04  0.22108918840E+04 0.  0.
        2    1    3    3  502    0  0.77660556383E+03 -0.43744946205E+03 -0.57720167600E+03  0.10619039544E+04  0.25500000920E-02 0.  1.
       -2    1    3    3    0  502 -0.77660556383E+03  0.43744946205E+03  0.73379371886E+03  0.11545265070E+04  0.25500000920E-02 0. -1.
</event>
<event>
 5   0  0.1788413E-05  0.2189797E+04  0.7818609E-02  0.8522687E-01
       -1   -1    0    0    0  501  0.00000000000E+00  0.00000000000E+00  0.52471152980E+03  0.52471152982E+03  0.50400001928E-02 0.  1.
        1   -1    0    0  501    0  0.00000000000E+00  0.00000000000E+00 -0.22846889247E+04  0.22846889247E+04  0.50400001928E-02 0. -1.
    10030    2    1    2    0    0  0.00000000000E+00  0.00000000000E+00 -0.17599773949E+04  0.28094004545E+04  0.21897969046E+04 0.  0.
        1    1    3    3  502    0 -0.68966209051E+02  0.20057412089E+03  0.49810309667E+03  0.54138065250E+03  0.50400001928E-02 0.  1.
       -1    1    3    3    0  502  0.68966209051E+02 -0.20057412089E+03 -0.22580804916E+04  0.22680198020E+04  0.50400001928E-02 0. -1.
</event>
<event>
 5   0  0.1815681E-05  0.2234585E+04  0.7818609E-02  0.8504169E-01
        1   -1    0    0  501    0  0.00000000000E+00  0.00000000000E+00  0.95630510422E+03  0.95630510423E+03  0.50400001928E-02 0. -1.
       -1   -1    0    0    0  501  0.00000000000E+00  0.00000000000E+00 -0.13053809825E+04  0.13053809825E+04  0.50400001928E-02 0.  1.
    10030    2    1    2    0    0  0.00000000000E+00  0.00000000000E+00 -0.34907587830E+03  0.22616860868E+04  0.22345849696E+04 0.  0.
        2    1    3    3  502    0  0.81892715694E+02 -0.87202814763E+03 -0.87663897127E+03  0.12392075666E+04  0.25500000920E-02 0.  1.
       -2    1    3    3    0  502 -0.81892715694E+02  0.87202814763E+03  0.52756309297E+03  0.10224785202E+04  0.25500000920E-02 0. -1.
</event>
<event>
 5   0  0.1884407E-05  0.2195929E+04  0.7818609E-02  0.8520124E-01
        1   -1    0    0  501    0  0.00000000000E+00  0.00000000000E+00  0.12036040217E+04  0.12036040217E+04  0.50400001928E-02 0. -1.
       -1   -1    0    0    0  501  0.00000000000E+00  0.00000000000E+00 -0.10015970970E+04  0.10015970970E+04  0.50400001928E-02 0.  1.
    10030    2    1    2    0    0  0.00000000000E+00  0.00000000000E+00  0.20200692472E+03  0.22052011187E+04  0.21959292285E+04 0.  0.
        3    1    3    3  502    0 -0.27933756462E+03  0.66092848707E+03  0.93557826629E+03  0.11790515861E+04  0.10100000352E+00 0. -1.
       -3    1    3    3    0  502  0.27933756462E+03 -0.66092848707E+03 -0.73357134157E+03  0.10261495327E+04  0.10100000352E+00 0.  1.
</event>
<event>
 5   0  0.3963414E-05  0.2051598E+04  0.7818609E-02  0.8582870E-01
       -2   -1    0    0    0  501  0.00000000000E+00  0.00000000000E+00  0.93525050183E+03  0.93525050183E+03  0.25500000920E-02 0. -1.
        2   -1    0    0  501    0  0.00000000000E+00  0.00000000000E+00 -0.11251141569E+04  0.11251141569E+04  0.25500000920E-02 0.  1.
    10030    2    1    2    0    0  0.00000000000E+00  0.00000000000E+00 -0.18986365504E+03  0.20603646587E+04  0.20515979916E+04 0.  0.
        1    1    3    3  502    0  0.61593071644E+03  0.64203042539E+03 -0.60769154593E+03  0.10774333991E+04  0.50400001928E-02 0.  1.
       -1    1    3    3    0  502 -0.61593071644E+03 -0.64203042539E+03  0.41782789089E+03  0.98293125955E+03  0.50400001928E-02 0. -1.
</event>
<event>
 5   0  0.1786228E-05  0.2211393E+04  0.7818609E-02  0.8513701E-01
        1   -1    0    0  501    0  0.00000000000E+00  0.00000000000E+00  0.10564681128E+04  0.10564681128E+04  0.50400001928E-02 0.  1.
       -1   -1    0    0    0  501  0.00000000000E+00  0.00000000000E+00 -0.11572191007E+04  0.11572191007E+04  0.50400001928E-02 0. -1.
    10030    2    1    2    0    0  0.00000000000E+00  0.00000000000E+00 -0.10075098786E+03  0.22136872135E+04  0.22113932979E+04 0.  0.
        5    1    3    3  502    0  0.10538751245E+04  0.85827544680E+01 -0.38511217612E+03  0.11220783930E+04  0.46999998093E+01 0. -1.
       -5    1    3    3    0  502 -0.10538751245E+04 -0.85827544680E+01  0.28436118827E+03  0.10916088206E+04  0.46999998093E+01 0.  1.
</event>
<event>
 5   0  0.4143281E-05  0.2207173E+04  0.7818609E-02  0.8515448E-01
       -2   -1    0    0    0  501  0.00000000000E+00  0.00000000000E+00  0.10988996434E+04  0.10988996434E+04  0.25500000920E-02 0.  1.
        2   -1    0    0  501    0  0.00000000000E+00  0.00000000000E+00 -0.11082933903E+04  0.11082933903E+04  0.25500000920E-02 0. -1.
    10030    2    1    2    0    0  0.00000000000E+00  0.00000000000E+00 -0.93937469412E+01  0.22071930337E+04  0.22071730438E+04 0.  0.
        2    1    3    3  502    0 -0.44726141609E+03 -0.78593330742E+03 -0.63729194287E+03  0.11062888224E+04  0.25500000920E-02 0. -1.
       -2    1    3    3    0  502  0.44726141609E+03  0.78593330742E+03  0.62789819593E+03  0.11009042113E+04  0.25500000920E-02 0.  1.
</event>
<event>
 5   0  0.1815681E-05  0.2210054E+04  0.7818609E-02  0.8514255E-01
       -1   -1    0    0    0  501  0.00000000000E+00  0.00000000000E+00  0.75444762160E+03  0.75444762162E+03  0.50400001928E-02 0. -1.
        1   -1    0    0  501    0  0.00000000000E+00  0.00000000000E+00 -0.16185141712E+04  0.16185141712E+04  0.50400001928E-02 0.  1.
    10030    2    1    2    0    0  0.00000000000E+00  0.00000000000E+00 -0.86406654962E+03  0.23729617928E+04  0.22100535442E+04 0.  0.
        2    1    3    3  502    0  0.22627956567E+03  0.44950347317E+03 -0.14883328870E+04  0.15711112617E+04  0.25500000920E-02 0.  1.
       -2    1    3    3    0  502 -0.22627956567E+03 -0.44950347317E+03  0.62426633738E+03  0.80185053110E+03  0.25500000920E-02 0. -1.
</event>
<event>
 5   0  0.4029532E-05  0.2198200E+04  0.7818609E-02  0.8519178E-01
        2   -1    0    0  501    0  0.00000000000E+00  0.00000000000E+00  0.15204845289E+04  0.15204845289E+04  0.25500000920E-02 0. -1.
       -2   -1    0    0    0  501  0.00000000000E+00  0.00000000000E+00 -0.79449694963E+03  0.79449694964E+03  0.25500000920E-02 0.  1.
    10030    2    1    2    0    0  0.00000000000E+00  0.00000000000E+00  0.72598757931E+03  0.23149814786E+04  0.21981995544E+04 0.  0.
        3    1    3    3  502    0  0.32762900471E+03 -0.18566981861E+02  0.14676899180E+04  0.15039279249E+04  0.10100000352E+00 0. -1.
       -3    1    3    3    0  502 -0.32762900471E+03  0.18566981861E+02 -0.74170233871E+03  0.81105355371E+03  0.10100000352E+00 0.  1.
</event>
<event>
 5   0  0.1788413E-05  0.2187506E+04  0.7818609E-02  0.8523646E-01
       -1   -1    0    0    0  501  0.00000000000E+00  0.00000000000E+00  0.12107897161E+04  0.12107897162E+04  0.50400001928E-02 0. -1.
        1   -1    0    0  501    0  0.00000000000E+00  0.00000000000E+00 -0.98802935235E+03  0.98802935236E+03  0.50400001928E-02 0.  1.
    10030    2    1    2    0    0  0.00000000000E+00  0.00000000000E+00  0.22276036379E+03  0.21988190685E+04  0.21875061409E+04 0.  0.
        1    1    3    3  502    0 -0.87652932849E+03 -0.52569739403E+03 -0.28003623101E+03  0.10597554928E+04  0.50400001928E-02 0.  1.
       -1    1    3    3    0  502  0.87652932849E+03  0.52569739403E+03  0.50279659481E+03  0.11390635757E+04  0.50400001928E-02 0. -1.
</event>
<event>
 5   0  0.4029532E-05  0.2205433E+04  0.7818609E-02  0.8516170E-01
        2   -1    0    0  501    0  0.00000000000E+00  0.00000000000E+00  0.13103113747E+04  0.13103113747E+04  0.25500000920E-02 0. -1.
       -2   -1    0    0    0  501  0.00000000000E+00  0.00000000000E+00 -0.92801139263E+03  0.92801139264E+03  0.25500000920E-02 0.  1.
    10030    2    1    2    0    0  0.00000000000E+00  0.00000000000E+00  0.38229998203E+03  0.22383227673E+04  0.22054331852E+04 0.  0.
        3    1    3    3  502    0  0.59864792143E+03 -0.66243106254E+03  0.84794034385E+03  0.12313395484E+04  0.10100000352E+00 0. -1.
       -3    1    3    3    0  502 -0.59864792143E+03  0.66243106254E+03 -0.46564036182E+03  0.10069832189E+04  0.10100000352E+00 0.  1.
</event>
<event>
 5   0  0.1884407E-05  0.2194329E+04  0.7818609E-02  0.8520792E-01
        1   -1    0    0  501    0  0.00000000000E+00  0.00000000000E+00  0.10208101095E+04  0.10208101095E+04  0.50400001928E-02 0. -1.
       -1   -1    0    0    0  501  0.00000000000E+00  0.00000000000E+00 -0.11792301408E+04  0.11792301408E+04  0.50400001928E-02 0.  1.
    10030    2    1    2    0    0  0.00000000000E+00  0.00000000000E+00 -0.15842003129E+03  0.22000402504E+04  0.21943290995E+04 0.  0.
        3    1    3    3  502    0 -0.27135988632E+03 -0.62169930371E+03 -0.94379066756E+03  0.11622766652E+04  0.10100000352E+00 0.  1.
       -3    1    3    3    0  502  0.27135988632E+03  0.62169930371E+03  0.78537063627E+03  0.10377635851E+04  0.10100000352E+00 0. -1.
</event>
<event>
 5   0  0.1786228E-05  0.2179354E+04  0.7818609E-02  0.8527071E-01
        1   -1    0    0  501    0  0.00000000000E+00  0.00000000000E+00  0.10323336926E+04  0.10323336926E+04  0.50400001928E-02 0. -1.
       -1   -1    0    0    0  501  0.00000000000E+00  0.00000000000E+00 -0.11502059503E+04  0.11502059504E+04  0.50400001928E-02 0.  1.
    10030    2    1    2    0    0  0.00000000000E+00  0.00000000000E+00 -0.11787225777E+03  0.21825396430E+04  0.21793543594E+04 0.  0.
        5    1    3    3  502    0  0.29369859654E+03 -0.55346628603E+03  0.83387709659E+03  0.10430517234E+04  0.46999998093E+01 0. -1.
       -5    1    3    3    0  502 -0.29369859654E+03  0.55346628603E+03 -0.95174935436E+03  0.11394879196E+04  0.46999998093E+01 0.  1.
</event>
<event>
 5   0  0.1884407E-05  0.2175160E+04  0.7818609E-02  0.8528839E-01
        1   -1    0    0  501    0  0.00000000000E+00  0.00000000000E+00  0.89352718647E+03  0.89352718648E+03  0.50400001928E-02 0.  1.
       -1   -1    0    0    0  501  0.00000000000E+00  0.00000000000E+00 -0.13237758706E+04  0.13237758706E+04  0.50400001928E-02 0. -1.
    10030    2    1    2    0    0  0.00000000000E+00  0.00000000000E+00 -0.43024868413E+03  0.22173030571E+04  0.21751595153E+04 0.  0.
        3    1    3    3  502    0 -0.10631682434E+04 -0.66988425701E+02  0.82456999846E+01  0.10653084833E+04  0.10100000352E+00 0. -1.
       -3    1    3    3    0  502  0.10631682434E+04  0.66988425701E+02 -0.43849438411E+03  0.11519945738E+04  0.10100000352E+00 0.  1.
</event>
<event>
 5   0  0.4027923E-05  0.2209566E+04  0.7818609E-02  0.8514457E-01
        2   -1    0    0  501    0  0.00000000000E+00  0.00000000000E+00  0.19023924062E+04  0.19023924062E+04  0.25500000920E-02 0.  1.
       -2   -1    0    0    0  501  0.00000000000E+00  0.00000000000E+00 -0.64158452970E+03  0.64158452971E+03  0.25500000920E-02 0. -1.
    10030    2    1    2    0    0  0.00000000000E+00  0.00000000000E+00  0.12608078765E+04  0.25439769359E+04  0.22095660544E+04 0.  0.
        5    1    3    3  502    0 -0.70061288427E+03  0.24948283142E+03  0.15710080628E+04  0.17381566443E+04  0.46999998093E+01 0.  1.
       -5    1    3    3    0  502  0.70061288427E+03 -0.24948283142E+03 -0.31020018630E+03  0.80582029160E+03  0.46999998093E+01 0. -1.
</event>
<event>
 5   0  0.3963414E-05  0.2190828E+04  0.7818609E-02  0.8522256E-01
        2   -1    0    0  501    0  0.00000000000E+00  0.00000000000E+00  0.16593536174E+04  0.16593536174E+04  0.25500000920E-02 0. -1.
       -2   -1    0    0    0  501  0.00000000000E+00  0.00000000000E+00 -0.72313177904E+03  0.72313177904E+03  0.25500000920E-02 0.  1.
    10030    2    1    2    0    0  0.00000000000E+00  0.00000000000E+00  0.93622183835E+03  0.23824853964E+04  0.21908275454E+04 0.  0.
        1    1    3    3  502    0  0.10211740192E+04  0.29180812029E+03  0.75987844740E+03  0.13058957123E+04  0.50400001928E-02 0. -1.
       -1    1    3    3    0  502 -0.10211740192E+04 -0.29180812029E+03  0.17634339096E+03  0.10765896842E+04  0.50400001928E-02 0.  1.
</event>
<event>
 5   0  0.3963414E-05  0.2234166E+04  0.7818609E-02  0.8504341E-01
       -2   -1    0    0    0  501  0.00000000000E+00  0.00000000000E+00  0.14563424364E+04  0.14563424364E+04  0.25500000920E-02 0. -1.
        2   -1    0    0  501    0  0.00000000000E+00  0.00000000000E+00 -0.85685515886E+03  0.85685515886E+03  0.25500000920E-02 0.  1.
    10030    2    1    2    0    0  0.00000000000E+00  0.00000000000E+00  0.59948727757E+03  0.23131975953E+04  0.22341660903E+04 0.  0.
        1    1    3    3  502    0 -0.84269734384E+03 -0.45627188888E+03 -0.29462931765E+03  0.10025613621E+04  0.50400001928E-02 0.  1.
       -1    1    3    3    0  502  0.84269734384E+03  0.45627188888E+03  0.89411659522E+03  0.13106362332E+04  0.50400001928E-02 0. -1.
</event>
<event>
 5   0  0.1815681E-05  0.2217862E+04  0.7818609E-02  0.8511030E-01
       -1   -1    0    0    0  501  0.00000000000E+00  0.00000000000E+00  0.68691302364E+03  0.68691302366E+03  0.50400001928E-02 0.  1.
        1   -1    0    0  501    0  0.00000000000E+00  0.00000000000E+00 -0.17902232713E+04  0.17902232713E+04  0.50400001928E-02 0. -1.
    10030    2    1    2    0    0  0.00000000000E+00  0.00000000000E+00 -0.11033102476E+04  0.24771362949E+04  0.22178617453E+04 0.  0.
        2    1    3    3  502    0  0.42726689201E+03 -0.20940345894E+03  0.56710082239E+03  0.74027707541E+03  0.25500000920E-02 0.  1.
       -2    1    3    3    0  502 -0.42726689201E+03  0.20940345894E+03 -0.16704110700E+04  0.17368592195E+04  0.25500000920E-02 0. -1.
</event>
<event>
 5   0  0.1433375E-05  0.2213635E+04  0.7818609E-02  0.8512774E-01
       -4   -1    0    0    0  501  0.00000000000E+00  0.00000000000E+00  0.14303737075E+04  0.14303742713E+04  0.12699999809E+01 0. -1.
        4   -1    0    0  501    0  0.00000000000E+00  0.00000000000E+00 -0.85644982197E+03  0.85645076359E+03  0.12699999809E+01 0.  1.
    10030    2    1    2    0    0  0.00000000000E+00  0.00000000000E+00  0.57392388558E+03  0.22868250349E+04  0.22136350453E+04 0.  0.
        2    1    3    3  502    0 -0.10182257327E+04 -0.30646271080E+03  0.60426878634E+03  0.12230469337E+04  0.25500000920E-02 0. -1.
       -2    1    3    3    0  502  0.10182257327E+04  0.30646271080E+03 -0.30344900767E+02  0.10637781013E+04  0.25500000920E-02 0.  1.
</event>
<event>
 5   0  0.4143281E-05  0.2210220E+04  0.7818609E-02  0.8514186E-01
       -2   -1    0    0    0  501  0.00000000000E+00  0.00000000000E+00  0.85809999124E+03  0.85809999125E+03  0.25500000920E-02 0. -1.
        2   -1    0    0  501    0  0.00000000000E+00  0.00000000000E+00 -0.14232232566E+04  0.14232232566E+04  0.25500000920E-02 0.  1.
    10030    2    1    2    0    0  0.00000000000E+00  0.00000000000E+00 -0.56512326532E+03  0.22813232478E+04  0.22102197755E+04 0.  0.
        2    1    3    3  502    0  0.56903683705E+03 -0.94694378160E+03 -0.25406145764E+03  0.11336016371E+04  0.25500000920E-02 0. -1.
       -2    1    3    3    0  502 -0.56903683705E+03  0.94694378160E+03 -0.31106180768E+03  0.11477216107E+04  0.25500000920E-02 0.  1.
</event>
<event>
 5   0  0.1786228E-05  0.2203508E+04  0.7818609E-02  0.8516969E-01
       -1   -1    0    0    0  501  0.00000000000E+00  0.00000000000E+00  0.12614057567E+04  0.12614057567E+04  0.50400001928E-02 0. -1.
        1   -1    0    0  501    0  0.00000000000E+00  0.00000000000E+00 -0.96230893423E+03  0.96230893424E+03  0.50400001928E-02 0.  1.
    10030    2    1    2    0    0  0.00000000000E+00  0.00000000000E+00  0.29909682248E+03  0.22237146910E+04  0.22035081388E+04 0.  0.
        5    1    3    3  502    0 -0.90914969382E+03 -0.13446892005E+03 -0.46364591044E+03  0.10293807248E+04  0.46999998093E+01 0.  1.
       -5    1    3    3    0  502  0.90914969382E+03  0.13446892005E+03  0.76274273293E+03  0.11943339662E+04  0.46999998093E+01 0. -1.
</event>
<event>
 5   0  0.1866935E-05  0.2197529E+04  0.7818609E-02  0.8519457E-01
       -1   -1    0    0    0  501  0.00000000000E+00  0.00000000000E+00  0.11691855379E+04  0.11691855380E+04  0.50400001928E-02 0. -1.
        1   -1    0    0  501    0  0.00000000000E+00  0.00000000000E+00 -0.10325846588E+04  0.10325846589E+04  0.50400001928E-02 0.  1.
    10030    2    1    2    0    0  0.00000000000E+00  0.00000000000E+00  0.13660087910E+03  0.22017701968E+04  0.21975286572E+04 0.  0.
        4    1    3    3  502    0 -0.57016630641E+03 -0.36181616804E+03 -0.80013714315E+03  0.10470060254E+04  0.12699999809E+01 0.  1.
       -4    1    3    3    0  502  0.57016630641E+03  0.36181616804E+03  0.93673802225E+03  0.11547641714E+04  0.12699999809E+01 0. -1.
</event>
<event>
 5   0  0.1884407E-05  0.2225766E+04  0.7818609E-02  0.8507780E-01
       -1   -1    0    0    0  501  0.00000000000E+00  0.00000000000E+00  0.79003172927E+03  0.79003172928E+03  0.50400001928E-02 0. -1.
        1   -1    0    0  501    0  0.00000000000E+00  0.00000000000E+00 -0.15676698370E+04  0.15676698370E+04  0.50400001928E-02 0.  1.
    10030    2    1    2    0    0  0.00000000000E+00  0.00000000000E+00 -0.77763810772E+03  0.23577015663E+04  0.22257663060E+04 0.  0.
        3    1    3    3  502    0 -0.79575701171E+03 -0.26048674763E+03  0.38772972328E+03  0.92272255629E+03  0.10100000352E+00 0. -1.
       -3    1    3    3    0  502  0.79575701171E+03  0.26048674763E+03 -0.11653678310E+04  0.14349790100E+04  0.10100000352E+00 0.  1.
</event>
<event>
 5   0  0.1786228E-05  0.2169364E+04  0.7818609E-02  0.8531289E-01
        1   -1    0    0  501    0  0.00000000000E+00  0.00000000000E+00  0.11810387461E+04  0.11810387461E+04  0.50400001928E-02 0. -1.
       -1   -1    0    0    0  501  0.00000000000E+00  0.00000000000E+00 -0.99618636207E+03  0.99618636208E+03  0.50400001928E-02 0.  1.
    10030    2    1    2    0    0  0.00000000000E+00  0.00000000000E+00  0.18485238402E+03  0.21772251082E+04  0.21693636781E+04 0.  0.
        5    1    3    3  502    0  0.42235100228E+03 -0.79539816055E+03  0.69916142106E+03  0.11401260394E+04  0.46999998093E+01 0. -1.
       -5    1    3    3    0  502 -0.42235100228E+03  0.79539816055E+03 -0.51430903704E+03  0.10370990688E+04  0.46999998093E+01 0.  1.
</event>
<event>
 5   0  0.4143281E-05  0.2195705E+04  0.7818609E-02  0.8520218E-01
       -2   -1    0    0    0  501  0.00000000000E+00  0.00000000000E+00  0.64773649934E+03  0.64773649935E+03  0.25500000920E-02 0.  1.
        2   -1    0    0  501    0  0.00000000000E+00  0.00000000000E+00 -0.18607562041E+04  0.18607562041E+04  0.25500000920E-02 0. -1.
    10030    2    1    2    0    0  0.00000000000E+00  0.00000000000E+00 -0.12130197047E+04  0.25084927034E+04  0.21957046338E+04 0.  0.
        2    1    3    3  502    0 -0.11634787103E+03 -0.35065663770E+03  0.57458194335E+03  0.68311149477E+03  0.25500000920E-02 0.  1.
       -2    1    3    3    0  502  0.11634787103E+03  0.35065663770E+03 -0.17876016481E+04  0.18253812086E+04  0.25500000920E-02 0. -1.
</event>
<event>
 5   0  0.4143281E-05  0.2181450E+04  0.7818609E-02  0.8526189E-01
        2   -1    0    0  501    0  0.00000000000E+00  0.00000000000E+00  0.97170628097E+03  0.97170628098E+03  0.25500000920E-02 0.  1.
       -2   -1    0    0    0  501  0.00000000000E+00  0.00000000000E+00 -0.12243218655E+04  0.12243218655E+04  0.25500000920E-02 0. -1.
    10030    2    1    2    0    0  0.00000000000E+00  0.00000000000E+00 -0.25261558454E+03  0.21960281465E+04  0.21814502026E+04 0.  0.
        2    1    3    3  502    0 -0.60549990614E+03 -0.55553038971E+03 -0.84834360309E+03  0.11810719788E+04  0.25500000920E-02 0. -1.
       -2    1    3    3    0  502  0.60549990614E+03  0.55553038971E+03  0.59572801855E+03  0.10149561677E+04  0.25500000920E-02 0.  1.
</event>
<event>
 5   0  0.1866935E-05  0.2201491E+04  0.7818609E-02  0.8517808E-01
        1   -1    0    0  501    0  0.00000000000E+00  0.00000000000E+00  0.14696988580E+04  0.14696988580E+04  0.50400001928E-02 0.  1.
       -1   -1    0    0    0  501  0.00000000000E+00  0.00000000000E+00 -0.82441427285E+03  0.82441427287E+03  0.50400001928E-02 0. -1.
    10030    2    1    2    0    0  0.00000000000E+00  0.00000000000E+00  0.64528458515E+03  0.22941131309E+04  0.22014910541E+04 0.  0.
        4    1    3    3  502    0  0.49521153786E+03 -0.47843315858E+03 -0.57227064592E+03  0.89533684138E+03  0.12699999809E+01 0. -1.
       -4    1    3    3    0  502 -0.49521153786E+03  0.47843315858E+03  0.12175552311E+04  0.13987762895E+04  0.12699999809E+01 0.  1.
</event>
<event>
 5   0  0.1788413E-05  0.2173962E+04  0.7818609E-02  0.8529344E-01
        1   -1    0    0  501    0  0.00000000000E+00  0.00000000000E+00  0.11960334763E+04  0.11960334763E+04  0.50400001928E-02 0. -1.
       -1   -1    0    0    0  501  0.00000000000E+00  0.00000000000E+00 -0.98787220734E+03  0.98787220736E+03  0.50400001928E-02 0.  1.
    10030    2    1    2    0    0  0.00000000000E+00  0.00000000000E+00  0.20816126892E+03  0.21839056836E+04  0.21739624930E+04 0.  0.
        1    1    3    3  502    0  0.93426294891E+03 -0.14719886914E+03 -0.43410607395E+03  0.10406550092E+04  0.50400001928E-02 0.  1.
       -1    1    3    3    0  502 -0.93426294891E+03  0.14719886914E+03  0.64226734287E+03  0.11432506744E+04  0.50400001928E-02 0. -1.
</event>
<event>
 5   0  0.1788413E-05  0.2205374E+04  0.7818609E-02  0.8516195E-01
       -1   -1    0    0    0  501  0.00000000000E+00  0.00000000000E+00  0.72805547542E+03  0.72805547544E+03  0.50400001928E-02 0. -1.
        1   -1    0    0  501    0  0.00000000000E+00  0.00000000000E+00 -0.16700911186E+04  0.16700911186E+04  0.50400001928E-02 0.  1.
    10030    2    1    2    0    0  0.00000000000E+00  0.00000000000E+00 -0.94203564315E+03  0.23981465940E+04  0.22053743295E+04 0.  0.
        1    1    3    3  502    0  0.62193882685E+03 -0.65186308893E+03  0.22030966801E+03  0.92750727269E+03  0.50400001928E-02 0. -1.
       -1    1    3    3    0  502 -0.62193882685E+03  0.65186308893E+03 -0.11623453112E+04  0.14706393213E+04  0.50400001928E-02 0.  1.
</event>
<event>
 5   0  0.1786228E-05  0.2193709E+04  0.7818609E-02  0.8521051E-01
       -1   -1    0    0    0  501  0.00000000000E+00  0.00000000000E+00  0.86489438140E+03  0.86489438141E+03  0.50400001928E-02 0. -1.
        1   -1    0    0  501    0  0.00000000000E+00  0.00000000000E+00 -0.13910245631E+04  0.13910245631E+04  0.50400001928E-02 0.  1.
    10030    2    1    2    0    0  0.00000000000E+00  0.00000000000E+00 -0.52613018167E+03  0.22559189445E+04  0.21937085759E+04 0.  0.
        5    1    3    3  502    0 -0.75750733855E+03  0.60030429887E+03  0.27018082634E+03  0.10035947330E+04  0.46999998093E+01 0. -1.
       -5    1    3    3    0  502  0.75750733855E+03 -0.60030429887E+03 -0.79631100802E+03  0.12523242115E+04  0.46999998093E+01 0.  1.
</event>
<event>
 5   0  0.3963414E-05  0.2190345E+04  0.7818609E-02  0.8522457E-01
       -2   -1    0    0    0  501  0.00000000000E+00  0.00000000000E+00  0.11822913421E+04  0.11822913421E+04  0.25500000920E-02 0. -1.
        2   -1    0    0  501    0  0.00000000000E+00  0.00000000000E+00 -0.10144733434E+04  0.10144733434E+04  0.25500000920E-02 0.  1.
    10030    2    1    2    0    0  0.00000000000E+00  0.00000000000E+00  0.16781799869E+03  0.21967646855E+04  0.21903452246E+04 0.  0.
        1    1    3    3  502    0  0.96114151659E+03 -0.39564743621E+03  0.42999009330E+03  0.11248206031E+04  0.50400001928E-02 0. -1.
       -1    1    3    3    0  502 -0.96114151659E+03  0.39564743621E+03 -0.26217209461E+03  0.10719440825E+04  0.50400001928E-02 0.  1.
</event>
<event>
 5   0  0.4029532E-05  0.2199884E+04  0.7818609E-02  0.8518476E-01
        2   -1    0    0  501    0  0.00000000000E+00  0.00000000000E+00  0.84027769251E+03  0.84027769251E+03  0.25500000920E-02 0.  1.
       -2   -1    0    0    0  501  0.00000000000E+00  0.00000000000E+00 -0.14398485526E+04  0.14398485526E+04  0.25500000920E-02 0. -1.
    10030    2    1    2    0    0  0.00000000000E+00  0.00000000000E+00 -0.59957086008E+03  0.22801262451E+04  0.21998841964E+04 0.  0.
        3    1    3    3  502    0  0.46449748235E+02 -0.84336095440E+03 -0.10300833061E+04  0.13320986849E+04  0.10100000352E+00 0. -1.
       -3    1    3    3    0  502 -0.46449748235E+02  0.84336095440E+03  0.43051244605E+03  0.94802756021E+03  0.10100000352E+00 0.  1.
</event>
<event>
 5   0  0.3963414E-05  0.2195282E+04  0.7818609E-02  0.8520394E-01
       -2   -1    0    0    0  501  0.00000000000E+00  0.00000000000E+00  0.73752600926E+03  0.73752600927E+03  0.25500000920E-02 0. -1.
        2   -1    0    0  501    0  0.00000000000E+00  0.00000000000E+00 -0.16335914599E+04  0.16335914599E+04  0.25500000920E-02 0.  1.
    10030    2    1    2    0    0  0.00000000000E+00  0.00000000000E+00 -0.89606545064E+03  0.23711174692E+04  0.21952823875E+04 0.  0.
        1    1    3    3  502    0  0.23426160734E+03  0.69934941047E+03  0.43000564935E+03  0.85374056779E+03  0.50400001928E-02 0. -1.
       -1    1    3    3    0  502 -0.23426160734E+03 -0.69934941047E+03 -0.13260711000E+04  0.15173769014E+04  0.50400001928E-02 0.  1.
</event>
<event>
 5   0  0.4029532E-05  0.2188964E+04  0.7818609E-02  0.8523036E-01
       -2   -1    0    0    0  501  0.00000000000E+00  0.00000000000E+00  0.98647330630E+03  0.98647330630E+03  0.25500000920E-02 0.  1.
        2   -1    0    0  501    0  0.00000000000E+00  0.00000000000E+00 -0.12143161662E+04  0.12143161662E+04  0.25500000920E-02 0. -1.
    10030    2    1    2    0    0  0.00000000000E+00  0.00000000000E+00 -0.22784285986E+03  0.22007894725E+04  0.21889636665E+04 0.  0.
        3    1    3    3  502    0  0.73680698342E+03 -0.29456647491E+03 -0.87180854446E+03  0.11788571107E+04  0.10100000352E+00 0. -1.
       -3    1    3    3    0  502 -0.73680698342E+03  0.29456647491E+03  0.64396568460E+03  0.10219323618E+04  0.10100000352E+00 0.  1.
</event>
<event>
 5   0  0.4027923E-05  0.2205128E+04  0.7818609E-02  0.8516297E-01
       -2   -1    0    0    0  501  0.00000000000E+00  0.00000000000E+00  0.85402455828E+03  0.85402455829E+03  0.25500000920E-02 0. -1.
        2   -1    0    0  501    0  0.00000000000E+00  0.00000000000E+00 -0.14234340573E+04  0.14234340573E+04  0.25500000920E-02 0.  1.
    10030    2    1    2    0    0  0.00000000000E+00  0.00000000000E+00 -0.56940949903E+03  0.22774586156E+04  0.22051282430E+04 0.  0.
        5    1    3    3  502    0  0.29757858642E+03 -0.10422198972E+04 -0.49344868025E+03  0.11909194008E+04  0.46999998093E+01 0.  1.
       -5    1    3    3    0  502 -0.29757858642E+03  0.10422198972E+04 -0.75960818776E+02  0.10865392148E+04  0.46999998093E+01 0. -1.
</event>
<event>
 5   0  0.4027923E-05  0.2214085E+04  0.7818609E-02  0.8512589E-01
       -2   -1    0    0    0  501  0.00000000000E+00  0.00000000000E+00  0.11534879804E+04  0.11534879804E+04  0.25500000920E-02 0. -1.
        2   -1    0    0  501    0  0.00000000000E+00  0.00000000000E+00 -0.10624668388E+04  0.10624668388E+04  0.25500000920E-02 0.  1.
    10030    2    1    2    0    0  0.00000000000E+00  0.00000000000E+00  0.91021141580E+02  0.22159548192E+04  0.22140846670E+04 0.  0.
        5    1    3    3  502    0 -0.94904729199E+01 -0.99749666482E+03 -0.43492715617E+03  0.10882432571E+04  0.46999998093E+01 0.  1.
       -5    1    3    3    0  502  0.94904729199E+01  0.99749666482E+03  0.52594829775E+03  0.11277115621E+04  0.46999998093E+01 0. -1.
</event>
<event>
 5   0  0.1788413E-05  0.2231498E+04  0.7818609E-02  0.8505431E-01
       -1   -1    0    0    0  501  0.00000000000E+00  0.00000000000E+00  0.93404970156E+03  0.93404970157E+03  0.50400001928E-02 0.  1.
        1   -1    0    0  501    0  0.00000000000E+00  0.00000000000E+00 -0.13327941515E+04  0.13327941515E+04  0.50400001928E-02 0. -1.
    10030    2    1    2    0    0  0.00000000000E+00  0.00000000000E+00 -0.39874444996E+03  0.22668438531E+04  0.22314981331E+04 0.  0.
        1    1    3    3  502    0  0.36673300266E+03 -0.10504044303E+04 -0.28468711966E+03  0.11484290655E+04  0.50400001928E-02 0. -1.
       -1    1    3    3    0  502 -0.36673300266E+03  0.10504044303E+04 -0.11405733030E+03  0.11184147876E+04  0.50400001928E-02 0.  1.
</event>
<event>
 5   0  0.3963414E-05  0.2208618E+04  0.7818609E-02  0.8514850E-01
        2   -1    0    0  501    0  0.00000000000E+00  0.00000000000E+00  0.11248122369E+04  0.11248122369E+04  0.25500000920E-02 0.  1.
       -2   -1    0    0    0  501  0.00000000000E+00  0.00000000000E+00 -0.10841790790E+04  0.10841790790E+04  0.25500000920E-02 0. -1.
    10030    2    1    2    0    0  0.00000000000E+00  0.00000000000E+00  0.40633157938E+02  0.22089913159E+04  0.22086175722E+04 0.  0.
        1    1    3    3  502    0  0.29139263311E+03 -0.41730232661E+03  0.10005063968E+04  0.11225257006E+04  0.50400001928E-02 0.  1.
       -1    1    3    3    0  502 -0.29139263311E+03  0.41730232661E+03 -0.95987323891E+03  0.10864656153E+04  0.50400001928E-02 0. -1.
</event>
<event>
 5   0  0.1884407E-05  0.2140954E+04  0.7818609E-02  0.8543414E-01
       -1   -1    0    0    0  501  0.00000000000E+00  0.00000000000E+00  0.72550916703E+03  0.72550916705E+03  0.50400001928E-02 0.  1.
        1   -1    0    0  501    0  0.00000000000E+00  0.00000000000E+00 -0.15794711641E+04  0.15794711641E+04  0.50400001928E-02 0. -1.
    10030    2    1    2    0    0  0.00000000000E+00  0.00000000000E+00 -0.85396199708E+03  0.23049803312E+04  0.21409538142E+04 0.  0.
        3    1    3    3  502    0 -0.77362774351E+02 -0.48842398541E+03 -0.14491279943E+04  0.15311808980E+04  0.10100000352E+00 0. -1.
       -3    1    3    3    0  502  0.77362774351E+02  0.48842398541E+03  0.59516599719E+03  0.77379943318E+03  0.10100000352E+00 0.  1.
</event>
<event>
 5   0  0.1815681E-05  0.2220288E+04  0.7818609E-02  0.8510031E-01
       -1   -1    0    0    0  501  0.00000000000E+00  0.00000000000E+00  0.10675708614E+04  0.10675708614E+04  0.50400001928E-02 0.  1.
        1   -1    0    0  501    0  0.00000000000E+00  0.00000000000E+00 -0.11544151845E+04  0.11544151845E+04  0.50400001928E-02 0. -1.
    10030    2    1    2    0    0  0.00000000000E+00  0.00000000000E+00 -0.86844323091E+02  0.22219860459E+04  0.22202882812E+04 0.  0.
        2    1    3    3  502    0 -0.13148885832E+03 -0.85864040269E+03 -0.73523025850E+03  0.11380317192E+04  0.25500000920E-02 0. -1.
       -2    1    3    3    0  502  0.13148885832E+03  0.85864040269E+03  0.64838593541E+03  0.10839543266E+04  0.25500000920E-02 0.  1.
</event>
<event>
 5   0  0.1866935E-05  0.2208871E+04  0.7818609E-02  0.8514745E-01
       -1   -1    0    0    0  501  0.00000000000E+00  0.00000000000E+00  0.12124725914E+04  0.12124725914E+04  0.50400001928E-02 0. -1.
        1   -1    0    0  501    0  0.00000000000E+00  0.00000000000E+00 -0.10060249865E+04  0.10060249865E+04  0.50400001928E-02 0.  1.
    10030    2    1    2    0    0  0.00000000000E+00  0.00000000000E+00  0.20644760495E+03  0.22184975779E+04  0.22088709536E+04 0.  0.
        4    1    3    3  502    0  0.24175500052E+03  0.83928778524E+03  0.78213325519E+03  0.11724263339E+04  0.12699999809E+01 0. -1.
       -4    1    3    3    0  502 -0.24175500052E+03 -0.83928778524E+03 -0.57568565024E+03  0.10460712440E+04  0.12699999809E+01 0.  1.
</event>
<event>
 5   0  0.4132460E-05  0.2202791E+04  0.7818609E-02  0.8517267E-01
       -2   -1    0    0    0  501  0.00000000000E+00  0.00000000000E+00  0.64687176111E+03  0.64687176111E+03  0.25500000920E-02 0.  1.
        2   -1    0    0  501    0  0.00000000000E+00  0.00000000000E+00 -0.18752906352E+04  0.18752906353E+04  0.25500000920E-02 0. -1.
    10030    2    1    2    0    0  0.00000000000E+00  0.00000000000E+00 -0.12284188741E+04  0.25221623964E+04  0.22027914616E+04 0.  0.
        4    1    3    3  502    0  0.45210571092E+03 -0.81969520967E+03  0.50247883467E+02  0.93745734478E+03  0.12699999809E+01 0.  1.
       -4    1    3    3    0  502 -0.45210571092E+03  0.81969520967E+03 -0.12786667576E+04  0.15847050516E+04  0.12699999809E+01 0. -1.
</event>
<event>
 5   0  0.1786228E-05  0.2214725E+04  0.7818609E-02  0.8512324E-01
       -1   -1    0    0    0  501  0.00000000000E+00  0.00000000000E+00  0.62901235232E+03  0.62901235235E+03  0.50400001928E-02 0.  1.
        1   -1    0    0  501    0  0.00000000000E+00  0.00000000000E+00 -0.19494868422E+04  0.19494868422E+04  0.50400001928E-02 0. -1.
    10030    2    1    2    0    0  0.00000000000E+00  0.00000000000E+00 -0.13204744899E+04  0.25784991946E+04  0.22147246370E+04 0.  0.
        5    1    3    3  502    0  0.84530913357E+02  0.73620476825E+03 -0.16182455401E+04  0.17798549531E+04  0.46999998093E+01 0. -1.
       -5    1    3    3    0  502 -0.84530913357E+02 -0.73620476825E+03  0.29777105018E+03  0.79864424147E+03  0.46999998093E+01 0.  1.
</event>
<event>
 5   0  0.1786228E-05  0.2160579E+04  0.7818609E-02  0.8535018E-01
        1   -1    0    0  501    0  0.00000000000E+00  0.00000000000E+00  0.74342295876E+03  0.74342295878E+03  0.50400001928E-02 0.  1.
       -1   -1    0    0    0  501  0.00000000000E+00  0.00000000000E+00 -0.15697997921E+04  0.15697997921E+04  0.50400001928E-02 0. -1.
    10030    2    1    2    0    0  0.00000000000E+00  0.00000000000E+00 -0.82637683330E+03  0.23132227508E+04  0.21605788170E+04 0.  0.
        5    1    3    3  502    0 -0.52658155335E+03 -0.47336890292E+03  0.46031784917E+03  0.84455956738E+03  0.46999998093E+01 0.  1.
       -5    1    3    3    0  502  0.52658155335E+03  0.47336890292E+03 -0.12866946825E+04  0.14686631835E+04  0.46999998093E+01 0. -1.
</event>
<event>
 5   0  0.1786228E-05  0.2178560E+04  0.7818609E-02  0.8527405E-01
        1   -1    0    0  501    0  0.00000000000E+00  0.00000000000E+00  0.20082939818E+04  0.20082939818E+04  0.50400001928E-02 0. -1.
       -1   -1    0    0    0  501  0.00000000000E+00  0.00000000000E+00 -0.59081535580E+03  0.59081535583E+03  0.50400001928E-02 0.  1.
    10030    2    1    2    0    0  0.00000000000E+00  0.00000000000E+00  0.14174786260E+04  0.25991093376E+04  0.21785600046E+04 0.  0.
        5    1    3    3  502    0  0.10755304124E+04  0.58105491012E+01  0.91437665667E+03  0.14117032942E+04  0.46999998093E+01 0. -1.
       -5    1    3    3    0  502 -0.10755304124E+04 -0.58105491012E+01  0.50310196932E+03  0.11874060435E+04  0.46999998093E+01 0.  1.
</event>
<event>
 5   0  0.4027923E-05  0.2150745E+04  0.7818609E-02  0.8539213E-01
       -2   -1    0    0    0  501  0.00000000000E+00  0.00000000000E+00  0.10161485696E+04  0.10161485696E+04  0.25500000920E-02 0.  1.
        2   -1    0    0  501    0  0.00000000000E+00  0.00000000000E+00 -0.11380484187E+04  0.11380484187E+04  0.25500000920E-02 0. -1.
    10030    2    1    2    0    0  0.00000000000E+00  0.00000000000E+00 -0.12189984909E+03  0.21541969883E+04  0.21507452409E+04 0.  0.
        5    1    3    3  502    0 -0.33811284932E+03  0.73557667125E+03 -0.76990710759E+03  0.11172163544E+04  0.46999998093E+01 0. -1.
       -5    1    3    3    0  502  0.33811284932E+03 -0.73557667125E+03  0.64800725850E+03  0.10369806340E+04  0.46999998093E+01 0.  1.
</event>
<event>
 5   0  0.3963414E-05  0.2213969E+04  0.7818609E-02  0.8512636E-01
        2   -1    0    0  501    0  0.00000000000E+00  0.00000000000E+00  0.16188648049E+04  0.16188648049E+04  0.25500000920E-02 0.  1.
       -2   -1    0    0    0  501  0.00000000000E+00  0.00000000000E+00 -0.75695958649E+03  0.75695958649E+03  0.25500000920E-02 0. -1.
    10030    2    1    2    0    0  0.00000000000E+00  0.00000000000E+00  0.86190521839E+03  0.23758243914E+04  0.22139694969E+04 0.  0.
        1    1    3    3  502    0  0.96734940239E+03 -0.25381322183E+03 -0.78325566519E+02  0.10031554776E+04  0.50400001928E-02 0. -1.
       -1    1    3    3    0  502 -0.96734940239E+03  0.25381322183E+03  0.94023078491E+03  0.13726689138E+04  0.50400001928E-02 0.  1.
</event>
<event>
 5   0  0.1815681E-05  0.2220097E+04  0.7818609E-02  0.8510110E-01
        1   -1    0    0  501    0  0.00000000000E+00  0.00000000000E+00  0.10498676969E+04  0.10498676969E+04  0.50400001928E-02 0. -1.
       -1   -1    0    0    0  501  0.00000000000E+00  0.00000000000E+00 -0.11736786845E+04  0.11736786845E+04  0.50400001928E-02 0.  1.
    10030    2    1    2    0    0  0.00000000000E+00  0.00000000000E+00 -0.12381098761E+03  0.22235463813E+04  0.22200966982E+04 0.  0.
        2    1    3    3  502    0  0.98192165816E+03  0.43312661730E+03  0.22215207069E+03  0.10959563640E+04  0.25500000920E-02 0. -1.
       -2    1    3    3    0  502 -0.98192165816E+03 -0.43312661730E+03 -0.34596305830E+03  0.11275900173E+04  0.25500000920E-02 0.  1.
</event>
<event>
 5   0  0.4027923E-05  0.2191191E+04  0.7818609E-02  0.8522103E-01
       -2   -1    0    0    0  501  0.00000000000E+00  0.00000000000E+00  0.16900871103E+04  0.16900871103E+04  0.25500000920E-02 0.  1.
        2   -1    0    0  501    0  0.00000000000E+00  0.00000000000E+00 -0.71021765237E+03  0.71021765237E+03  0.25500000920E-02 0. -1.
    10030    2    1    2    0    0  0.00000000000E+00  0.00000000000E+00  0.97986945795E+03  0.24003047627E+04  0.21911911827E+04 0.  0.
        5    1    3    3  502    0  0.46843418965E+03  0.14049899135E+03 -0.58400219703E+03  0.76174222197E+03  0.46999998093E+01 0. -1.
       -5    1    3    3    0  502 -0.46843418965E+03 -0.14049899135E+03  0.15638716550E+04  0.16385625407E+04  0.46999998093E+01 0.  1.
</event>
<event>
 5   0  0.3963414E-05  0.2183230E+04  0.7818609E-02  0.8525441E-01
        2   -1    0    0  501    0  0.00000000000E+00  0.00000000000E+00  0.19851369734E+04  0.19851369734E+04  0.25500000920E-02 0.  1.
       -2   -1    0    0    0  501  0.00000000000E+00  0.00000000000E+00 -0.60027285175E+03  0.60027285175E+03  0.25500000920E-02 0. -1.
    10030    2    1    2    0    0  0.00000000000E+00  0.00000000000E+00  0.13848641216E+04  0.25854098251E+04  0.21832304799E+04 0.  0.
        1    1    3    3  502    0 -0.91976756087E+03 -0.35047027884E+03  0.13343581460E+03  0.99328087620E+03  0.50400001928E-02 0. -1.
       -1    1    3    3    0  502  0.91976756087E+03  0.35047027884E+03  0.12514283070E+04  0.15921289489E+04  0.50400001928E-02 0.  1.
</event>
<event>
 5   0  0.1433375E-05  0.2221452E+04  0.7818609E-02  0.8509552E-01
       -3   -1    0    0    0  501  0.00000000000E+00  0.00000000000E+00  0.59256012756E+03  0.59256013617E+03  0.10100000352E+00 0. -1.
        3   -1    0    0  501    0  0.00000000000E+00  0.00000000000E+00 -0.20820033470E+04  0.20820033494E+04  0.10100000352E+00 0.  1.
    10030    2    1    2    0    0  0.00000000000E+00  0.00000000000E+00 -0.14894432194E+04  0.26745634856E+04  0.22214519429E+04 0.  0.
        3    1    3    3  502    0  0.97561270150E+03  0.22542297379E+03 -0.16596776208E+03  0.10149783095E+04  0.10100000352E+00 0. -1.
       -3    1    3    3    0  502 -0.97561270150E+03 -0.22542297379E+03 -0.13234754574E+04  0.16595851761E+04  0.10100000352E+00 0.  1.
</event>
<event>
 5   0  0.3963414E-05  0.2209513E+04  0.7818609E-02  0.8514479E-01
        2   -1    0    0  501    0  0.00000000000E+00  0.00000000000E+00  0.42934872068E+03  0.42934872069E+03  0.25500000920E-02 0.  1.
       -2   -1    0    0    0  501  0.00000000000E+00  0.00000000000E+00 -0.28426473760E+04  0.28426473760E+04  0.25500000920E-02 0. -1.
    10030    2    1    2    0    0  0.00000000000E+00  0.00000000000E+00 -0.24132986553E+04  0.32719960967E+04  0.22095130814E+04 0.  0.
        1    1    3    3  502    0 -0.42009407564E+03 -0.77994519833E+01  0.30640825496E+03  0.52002488650E+03  0.50400001928E-02 0.  1.
       -1    1    3    3    0  502  0.42009407564E+03  0.77994519833E+01 -0.27197069103E+04  0.27519712102E+04  0.50400001928E-02 0. -1.
</event>
<event>
 5   0  0.4029532E-05  0.2192575E+04  0.7818609E-02  0.8521525E-01
       -2   -1    0    0    0  501  0.00000000000E+00  0.00000000000E+00  0.10823737709E+04  0.10823737709E+04  0.25500000920E-02 0. -1.
        2   -1    0    0  501    0  0.00000000000E+00  0.00000000000E+00 -0.11103799265E+04  0.11103799265E+04  0.25500000920E-02 0.  1.
    10030    2    1    2    0    0  0.00000000000E+00  0.00000000000E+00 -0.28006155552E+02  0.21927536974E+04  0.21925748409E+04 0.  0.
        3    1    3    3  502    0  0.54250399795E+03  0.95256148640E+03 -0.26736940790E+02  0.10965394874E+04  0.10100000352E+00 0.  1.
       -3    1    3    3    0  502 -0.54250399795E+03 -0.95256148640E+03 -0.12692147627E+01  0.10962142100E+04  0.10100000352E+00 0. -1.
</event>
<event>
 5   0  0.1866935E-05  0.2177993E+04  0.7818609E-02  0.8527644E-01
        1   -1    0    0  501    0  0.00000000000E+00  0.00000000000E+00  0.11920273817E+04  0.11920273818E+04  0.50400001928E-02 0.  1.
       -1   -1    0    0    0  501  0.00000000000E+00  0.00000000000E+00 -0.99487096697E+03  0.99487096698E+03  0.50400001928E-02 0. -1.
    10030    2    1    2    0    0  0.00000000000E+00  0.00000000000E+00  0.19715641478E+03  0.21868983487E+04  0.21779930523E+04 0.  0.
        4    1    3    3  502    0 -0.42275622059E+03 -0.49417027643E+02  0.11050473312E+04  0.11841858308E+04  0.12699999809E+01 0.  1.
       -4    1    3    3    0  502  0.42275622059E+03  0.49417027643E+02 -0.90789091643E+03  0.10027125180E+04  0.12699999809E+01 0. -1.
</event>
<event>
 5   0  0.1866935E-05  0.2179696E+04  0.7818609E-02  0.8526927E-01
        1   -1    0    0  501    0  0.00000000000E+00  0.00000000000E+00  0.14220242143E+04  0.14220242143E+04  0.50400001928E-02 0.  1.
       -1   -1    0    0    0  501  0.00000000000E+00  0.00000000000E+00 -0.83526643634E+03  0.83526643635E+03  0.50400001928E-02 0. -1.
    10030    2    1    2    0    0  0.00000000000E+00  0.00000000000E+00  0.58675777797E+03  0.22572906507E+04  0.21796963989E+04 0.  0.
        4    1    3    3  502    0 -0.95019536725E+03  0.49902342869E+03  0.97237853205E+02  0.10776606290E+04  0.12699999809E+01 0. -1.
       -4    1    3    3    0  502  0.95019536725E+03 -0.49902342869E+03  0.48951992476E+03  0.11796300216E+04  0.12699999809E+01 0.  1.
</event>
<event>
 5   0  0.1788413E-05  0.2202470E+04  0.7818609E-02  0.8517401E-01
       -1   -1    0    0    0  501  0.00000000000E+00  0.00000000000E+00  0.47746874994E+03  0.47746874997E+03  0.50400001928E-02 0. -1.
        1   -1    0    0  501    0  0.00000000000E+00  0.00000000000E+00 -0.25398911250E+04  0.25398911250E+04  0.50400001928E-02 0.  1.
    10030    2    1    2    0    0  0.00000000000E+00  0.00000000000E+00 -0.20624223751E+04  0.30173598750E+04  0.22024701047E+04 0.  0.
        1    1    3    3  502    0 -0.30457684856E+03 -0.40912901699E+03  0.30589040419E+03  0.59474578487E+03  0.50400001928E-02 0. -1.
       -1    1    3    3    0  502  0.30457684856E+03  0.40912901699E+03 -0.23683127792E+04  0.24226140901E+04  0.50400001928E-02 0.  1.
</event>
<event>
 5   0  0.4027923E-05  0.2199789E+04  0.7818609E-02  0.8518516E-01
       -2   -1    0    0    0  501  0.00000000000E+00  0.00000000000E+00  0.40320279551E+03  0.40320279552E+03  0.25500000920E-02 0. -1.
        2   -1    0    0  501    0  0.00000000000E+00  0.00000000000E+00 -0.30003967453E+04  0.30003967453E+04  0.25500000920E-02 0.  1.
    10030    2    1    2    0    0  0.00000000000E+00  0.00000000000E+00 -0.25971939498E+04  0.34035995408E+04  0.21997894039E+04 0.  0.
        5    1    3    3  502    0 -0.61905991627E+03 -0.90258799574E+03 -0.14669973794E+04  0.18303015246E+04  0.46999998093E+01 0.  1.
       -5    1    3    3    0  502  0.61905991627E+03  0.90258799574E+03 -0.11301965704E+04  0.15732980162E+04  0.46999998093E+01 0. -1.
</event>
<event>
 5   0  0.1788413E-05  0.2204684E+04  0.7818609E-02  0.8516481E-01
       -1   -1    0    0    0  501  0.00000000000E+00  0.00000000000E+00  0.11989275422E+04  0.11989275422E+04  0.50400001928E-02 0. -1.
        1   -1    0    0  501    0  0.00000000000E+00  0.00000000000E+00 -0.10135375761E+04  0.10135375761E+04  0.50400001928E-02 0.  1.
    10030    2    1    2    0    0  0.00000000000E+00  0.00000000000E+00  0.18538996613E+03  0.22124651183E+04  0.22046842087E+04 0.  0.
        1    1    3    3  502    0  0.54069125203E+03 -0.49304792781E+03 -0.73466290592E+03  0.10369054318E+04  0.50400001928E-02 0.  1.
       -1    1    3    3    0  502 -0.54069125203E+03  0.49304792781E+03  0.92005287205E+03  0.11755596865E+04  0.50400001928E-02 0. -1.
</event>
<event>
 5   0  0.4027923E-05  0.2204330E+04  0.7818609E-02  0.8516628E-01
       -2   -1    0    0    0  501  0.00000000000E+00  0.00000000000E+00  0.11849100832E+04  0.11849100832E+04  0.25500000920E-02 0.  1.
        2   -1    0    0  501    0  0.00000000000E+00  0.00000000000E+00 -0.10251977453E+04  0.10251977453E+04  0.25500000920E-02 0. -1.
    10030    2    1    2    0    0  0.00000000000E+00  0.00000000000E+00  0.15971233791E+03  0.22101078285E+04  0.22043295086E+04 0.  0.
        5    1    3    3  502    0 -0.23076842528E+03 -0.43573685980E+03  0.10681501489E+04  0.11764724849E+04  0.46999998093E+01 0.  1.
       -5    1    3    3    0  502  0.23076842528E+03  0.43573685980E+03 -0.90843781098E+03  0.10336353436E+04  0.46999998093E+01 0. -1.
</event>
<event>
 5   0  0.3963414E-05  0.2206139E+04  0.7818609E-02  0.8515877E-01
       -2   -1    0    0    0  501  0.00000000000E+00  0.00000000000E+00  0.99184731876E+03  0.99184731876E+03  0.25500000920E-02 0. -1.
        2   -1    0    0  501    0  0.00000000000E+00  0.00000000000E+00 -0.12267636516E+04  0.12267636516E+04  0.25500000920E-02 0.  1.
    10030    2    1    2    0    0  0.00000000000E+00  0.00000000000E+00 -0.23491633287E+03  0.22186109704E+04  0.22061389246E+04 0.  0.
        1    1    3    3  502    0 -0.73963093851E+03  0.81652058820E+03 -0.62353846766E+02  0.11034707963E+04  0.50400001928E-02 0. -1.
       -1    1    3    3    0  502  0.73963093851E+03 -0.81652058820E+03 -0.17256248611E+03  0.11151401741E+04  0.50400001928E-02 0.  1.
</event>
<event>
 5   0  0.4132460E-05  0.2208961E+04  0.7818609E-02  0.8514708E-01
        2   -1    0    0  501    0  0.00000000000E+00  0.00000000000E+00  0.11791416360E+04  0.11791416360E+04  0.25500000920E-02 0.  1.
       -2   -1    0    0    0  501  0.00000000000E+00  0.00000000000E+00 -0.10345468873E+04  0.10345468873E+04  0.25500000920E-02 0. -1.
    10030    2    1    2    0    0  0.00000000000E+00  0.00000000000E+00  0.14459474874E+03  0.22136885233E+04  0.22089611216E+04 0.  0.
        4    1    3    3  502    0  0.22814986741E+03 -0.99329494726E+03 -0.35427599033E+03  0.10789811419E+04  0.12699999809E+01 0.  1.
       -4    1    3    3    0  502 -0.22814986741E+03  0.99329494726E+03  0.49887073907E+03  0.11347073814E+04  0.12699999809E+01 0. -1.
</event>
<event>
 5   0  0.4027923E-05  0.2204635E+04  0.7818609E-02  0.8516501E-01
        2   -1    0    0  501    0  0.00000000000E+00  0.00000000000E+00  0.23438513606E+04  0.23438513606E+04  0.25500000920E-02 0.  1.
       -2   -1    0    0    0  501  0.00000000000E+00  0.00000000000E+00 -0.51842202013E+03  0.51842202014E+03  0.25500000920E-02 0. -1.
    10030    2    1    2    0    0  0.00000000000E+00  0.00000000000E+00  0.18254293404E+04  0.28622733807E+04  0.22046352599E+04 0.  0.
        5    1    3    3  502    0 -0.83759538715E+03  0.93589421452E+02  0.18351067420E+04  0.20193969043E+04  0.46999998093E+01 0. -1.
       -5    1    3    3    0  502  0.83759538715E+03 -0.93589421452E+02 -0.96774016231E+01  0.84287647640E+03  0.46999998093E+01 0.  1.
</event>
<event>
 5   0  0.1866935E-05  0.2196468E+04  0.7818609E-02  0.8519900E-01
       -1   -1    0    0    0  501  0.00000000000E+00  0.00000000000E+00  0.61979696184E+03  0.61979696186E+03  0.50400001928E-02 0. -1.
        1   -1    0    0  501    0  0.00000000000E+00  0.00000000000E+00 -0.19459887273E+04  0.19459887273E+04  0.50400001928E-02 0.  1.
    10030    2    1    2    0    0  0.00000000000E+00  0.00000000000E+00 -0.13261917655E+04  0.25657856892E+04  0.21964679838E+04 0.  0.
        4    1    3    3  502    0  0.10770975865E+04  0.62313600331E+02 -0.90276168922E+03  0.14067702286E+04  0.12699999809E+01 0.  1.
       -4    1    3    3    0  502 -0.10770975865E+04 -0.62313600331E+02 -0.42343007628E+03  0.11590154606E+04  0.12699999809E+01 0. -1.
</event>
<event>
 5   0  0.3963414E-05  0.2198125E+04  0.7818609E-02  0.8519209E-01
       -2   -1    0    0    0  501  0.00000000000E+00  0.00000000000E+00  0.73419655805E+03  0.73419655806E+03  0.25500000920E-02 0. -1.
        2   -1    0    0  501    0  0.00000000000E+00  0.00000000000E+00 -0.16452519838E+04  0.16452519838E+04  0.25500000920E-02 0.  1.
    10030    2    1    2    0    0  0.00000000000E+00  0.00000000000E+00 -0.91105542574E+03  0.23794485419E+04  0.21981249679E+04 0.  0.
        1    1    3    3  502    0  0.41479047360E+03 -0.46131860445E+02  0.64508266063E+03  0.76831694281E+03  0.50400001928E-02 0. -1.
       -1    1    3    3    0  502 -0.41479047360E+03  0.46131860445E+02 -0.15561380864E+04  0.16111315990E+04  0.50400001928E-02 0.  1.
</event>
<event>
 5   0  0.1866935E-05  0.2190227E+04  0.7818609E-02  0.8522507E-01
       -1   -1    0    0    0  501  0.00000000000E+00  0.00000000000E+00  0.12220698282E+04  0.12220698282E+04  0.50400001928E-02 0. -1.
        1   -1    0    0  501    0  0.00000000000E+00  0.00000000000E+00 -0.98134613900E+03  0.98134613901E+03  0.50400001928E-02 0.  1.
    10030    2    1    2    0    0  0.00000000000E+00  0.00000000000E+00  0.24072368923E+03  0.22034159673E+04  0.21902269358E+04 0.  0.
        4    1    3    3  502    0 -0.91219001797E+03 -0.40332123371E+03  0.57531648582E+03  0.11514118803E+04  0.12699999809E+01 0. -1.
       -4    1    3    3    0  502  0.91219001797E+03  0.40332123371E+03 -0.33459279660E+03  0.10520040869E+04  0.12699999809E+01 0.  1.
</event>
<event>
 5   0  0.1815681E-05  0.2336367E+04  0.7818609E-02  0.8463719E-01
       -1   -1    0    0    0  501  0.00000000000E+00  0.00000000000E+00  0.83074041625E+03  0.83074041627E+03  0.50400001928E-02 0. -1.
        1   -1    0    0  501    0  0.00000000000E+00  0.00000000000E+00 -0.16426938994E+04  0.16426938994E+04  0.50400001928E-02 0.  1.
    10030    2    1    2    0    0  0.00000000000E+00  0.00000000000E+00 -0.81195348314E+03  0.24734343157E+04  0.23363665926E+04 0.  0.
        2    1    3    3  502    0 -0.11363187537E+04  0.41198607687E+02 -0.12243064727E+03  0.11436375731E+04  0.25500000920E-02 0. -1.
       -2    1    3    3    0  502  0.11363187537E+04 -0.41198607687E+02 -0.68952283587E+03  0.13297967425E+04  0.25500000920E-02 0.  1.
</event>
<event>
 5   0  0.1815681E-05  0.2197551E+04  0.7818609E-02  0.8519448E-01
       -1   -1    0    0    0  501  0.00000000000E+00  0.00000000000E+00  0.75532450702E+03  0.75532450703E+03  0.50400001928E-02 0.  1.
        1   -1    0    0  501    0  0.00000000000E+00  0.00000000000E+00 -0.15983956631E+04  0.15983956631E+04  0.50400001928E-02 0. -1.
    10030    2    1    2    0    0  0.00000000000E+00  0.00000000000E+00 -0.84307115612E+03  0.23537201702E+04  0.21975508334E+04 0.  0.
        2    1    3    3  502    0  0.36825048710E+03 -0.62710906865E+03  0.46066928807E+03  0.86086607448E+03  0.25500000920E-02 0.  1.
       -2    1    3    3    0  502 -0.36825048710E+03  0.62710906865E+03 -0.13037404442E+04  0.14928540957E+04  0.25500000920E-02 0. -1.
</event>
<event>
 5   0  0.1788413E-05  0.2196338E+04  0.7818609E-02  0.8519954E-01
        1   -1    0    0  501    0  0.00000000000E+00  0.00000000000E+00  0.12893435420E+04  0.12893435420E+04  0.50400001928E-02 0. -1.
       -1   -1    0    0    0  501  0.00000000000E+00  0.00000000000E+00 -0.93534020865E+03  0.93534020867E+03  0.50400001928E-02 0.  1.
    10030    2    1    2    0    0  0.00000000000E+00  0.00000000000E+00  0.35400333339E+03  0.22246837507E+04  0.21963377315E+04 0.  0.
        1    1    3    3  502    0  0.50356781061E+03  0.35296411006E+03 -0.74458178153E+03  0.96569468896E+03  0.50400001928E-02 0.  1.
       -1    1    3    3    0  502 -0.50356781061E+03 -0.35296411006E+03  0.10985851149E+04  0.12589890618E+04  0.50400001928E-02 0. -1.
</event>
<event>
 5   0  0.1866935E-05  0.2207260E+04  0.7818609E-02  0.8515412E-01
       -1   -1    0    0    0  501  0.00000000000E+00  0.00000000000E+00  0.64293134075E+03  0.64293134077E+03  0.50400001928E-02 0.  1.
        1   -1    0    0  501    0  0.00000000000E+00  0.00000000000E+00 -0.18944474981E+04  0.18944474982E+04  0.50400001928E-02 0. -1.
    10030    2    1    2    0    0  0.00000000000E+00  0.00000000000E+00 -0.12515161574E+04  0.25373788389E+04  0.22072604468E+04 0.  0.
        4    1    3    3  502    0  0.52095184583E+03  0.53917932475E+03 -0.15567548895E+04  0.17278867350E+04  0.12699999809E+01 0. -1.
       -4    1    3    3    0  502 -0.52095184583E+03 -0.53917932475E+03  0.30523873212E+03  0.80949210397E+03  0.12699999809E+01 0.  1.
</event>
<event>
 5   0  0.4132460E-05  0.2136203E+04  0.7818609E-02  0.8545461E-01
        2   -1    0    0  501    0  0.00000000000E+00  0.00000000000E+00  0.18352560427E+04  0.18352560427E+04  0.25500000920E-02 0. -1.
       -2   -1    0    0    0  501  0.00000000000E+00  0.00000000000E+00 -0.62162496308E+03  0.62162496309E+03  0.25500000920E-02 0.  1.
    10030    2    1    2    0    0  0.00000000000E+00  0.00000000000E+00  0.12136310797E+04  0.24568810058E+04  0.21362031456E+04 0.  0.
        4    1    3    3  502    0  0.50927276502E+03  0.56819845372E+03  0.14664308408E+04  0.16530666217E+04  0.12699999809E+01 0. -1.
       -4    1    3    3    0  502 -0.50927276502E+03 -0.56819845372E+03 -0.25279976115E+03  0.80381438413E+03  0.12699999809E+01 0.  1.
</event>
<event>
 5   0  0.4132460E-05  0.2206011E+04  0.7818609E-02  0.8515930E-01
       -2   -1    0    0    0  501  0.00000000000E+00  0.00000000000E+00  0.78205746049E+03  0.78205746050E+03  0.25500000920E-02 0.  1.
        2   -1    0    0  501    0  0.00000000000E+00  0.00000000000E+00 -0.15556673337E+04  0.15556673337E+04  0.25500000920E-02 0. -1.
    10030    2    1    2    0    0  0.00000000000E+00  0.00000000000E+00 -0.77360987319E+03  0.23377247942E+04  0.22060111009E+04 0.  0.
        4    1    3    3  502    0  0.52302672198E+03  0.88115143564E+03 -0.81938706885E+03  0.13120143238E+04  0.12699999809E+01 0. -1.
       -4    1    3    3    0  502 -0.52302672198E+03 -0.88115143564E+03  0.45777195661E+02  0.10257104703E+04  0.12699999809E+01 0.  1.
</event>
<event>
 5   0  0.1786228E-05  0.2199212E+04  0.7818609E-02  0.8518756E-01
        1   -1    0    0  501    0  0.00000000000E+00  0.00000000000E+00  0.15489473355E+04  0.15489473355E+04  0.50400001928E-02 0. -1.
       -1   -1    0    0    0  501  0.00000000000E+00  0.00000000000E+00 -0.78061597267E+03  0.78061597268E+03  0.50400001928E-02 0.  1.
    10030    2    1    2    0    0  0.00000000000E+00  0.00000000000E+00  0.76833136287E+03  0.23295633082E+04  0.21992117051E+04 0.  0.
        5    1    3    3  502    0  0.64230049885E+03 -0.55157161513E+03 -0.35908535726E+03  0.91964425798E+03  0.46999998093E+01 0. -1.
       -5    1    3    3    0  502 -0.64230049885E+03  0.55157161513E+03  0.11274167201E+04  0.14099190503E+04  0.46999998093E+01 0.  1.
</event>
<event>
 5   0  0.4143281E-05  0.2275985E+04  0.7818609E-02  0.8487450E-01
        2   -1    0    0  501    0  0.00000000000E+00  0.00000000000E+00  0.75667565742E+03  0.75667565743E+03  0.25500000920E-02 0.  1.
       -2   -1    0    0    0  501  0.00000000000E+00  0.00000000000E+00 -0.17114691633E+04  0.17114691633E+04  0.25500000920E-02 0. -1.
    10030    2    1    2    0    0  0.00000000000E+00  0.00000000000E+00 -0.95479350583E+03  0.24681448207E+04  0.22759851092E+04 0.  0.
        2    1    3    3  502    0 -0.12245304111E+03  0.35363477045E+03 -0.16428301748E+04  0.16849164019E+04  0.25500000920E-02 0. -1.
       -2    1    3    3    0  502  0.12245304111E+03 -0.35363477045E+03  0.68803666897E+03  0.78322841879E+03  0.25500000920E-02 0.  1.
</event>
<event>
 5   0  0.1786228E-05  0.2209711E+04  0.7818609E-02  0.8514397E-01
        1   -1    0    0  501    0  0.00000000000E+00  0.00000000000E+00  0.17178626473E+04  0.17178626473E+04  0.50400001928E-02 0. -1.
       -1   -1    0    0    0  501  0.00000000000E+00  0.00000000000E+00 -0.71059566876E+03  0.71059566878E+03  0.50400001928E-02 0.  1.
    10030    2    1    2    0    0  0.00000000000E+00  0.00000000000E+00  0.10072669785E+04  0.24284583161E+04  0.22097110732E+04 0.  0.
        5    1    3    3  502    0  0.55842617842E+02 -0.55507233019E+03 -0.54442846791E+03  0.77951788714E+03  0.46999998093E+01 0.  1.
       -5    1    3    3    0  502 -0.55842617842E+02  0.55507233019E+03  0.15516954464E+04  0.16489404289E+04  0.46999998093E+01 0. -1.
</event>
<event>
 5   0  0.3963414E-05  0.2206783E+04  0.7818609E-02  0.8515610E-01
        2   -1    0    0  501    0  0.00000000000E+00  0.00000000000E+00  0.12903709179E+04  0.12903709179E+04  0.25500000920E-02 0. -1.
       -2   -1    0    0    0  501  0.00000000000E+00  0.00000000000E+00 -0.94350583103E+03  0.94350583104E+03  0.25500000920E-02 0.  1.
    10030    2    1    2    0    0  0.00000000000E+00  0.00000000000E+00  0.34686508691E+03  0.22338767490E+04  0.22067827127E+04 0.  0.
        1    1    3    3  502    0 -0.66226966048E+02  0.93982228952E+03 -0.40791853546E+03  0.10266691183E+04  0.50400001928E-02 0.  1.
       -1    1    3    3    0  502  0.66226966048E+02 -0.93982228952E+03  0.75478362237E+03  0.12072076307E+04  0.50400001928E-02 0. -1.
</event>
<event>
 5   0  0.4132460E-05  0.2192494E+04  0.7818609E-02  0.8521559E-01
        2   -1    0    0  501    0  0.00000000000E+00  0.00000000000E+00  0.70392575283E+03  0.70392575284E+03  0.25500000920E-02 0. -1.
       -2   -1    0    0    0  501  0.00000000000E+00  0.00000000000E+00 -0.17072216826E+04  0.17072216826E+04  0.25500000920E-02 0.  1.
    10030    2    1    2    0    0  0.00000000000E+00  0.00000000000E+00 -0.10032959297E+04  0.24111474354E+04  0.21924938387E+04 0.  0.
        4    1    3    3  502    0 -0.14990178421E+03 -0.54748053392E+03 -0.15330208396E+04  0.16347354488E+04  0.12699999809E+01 0.  1.
       -4    1    3    3    0  502  0.14990178421E+03  0.54748053392E+03  0.52972490988E+03  0.77641198662E+03  0.12699999809E+01 0. -1.
</event>
<event>
 5   0  0.1884407E-05  0.2178618E+04  0.7818609E-02  0.8527381E-01
        1   -1    0    0  501    0  0.00000000000E+00  0.00000000000E+00  0.66209151824E+03  0.66209151826E+03  0.50400001928E-02 0.  1.
       -1   -1    0    0    0  501  0.00000000000E+00  0.00000000000E+00 -0.17921909751E+04  0.17921909751E+04  0.50400001928E-02 0. -1.
    10030    2    1    2    0    0  0.00000000000E+00  0.00000000000E+00 -0.11300994568E+04  0.24542824933E+04  0.21786183178E+04 0.  0.
        3    1    3    3  502    0 -0.70278877034E+03 -0.49439408173E+03 -0.13192850651E+04  0.15744366157E+04  0.10100000352E+00 0. -1.
       -3    1    3    3    0  502  0.70278877034E+03  0.49439408173E+03  0.18918560828E+03  0.87984587760E+03  0.10100000352E+00 0.  1.
</event>
<event>
 5   0  0.4132460E-05  0.2198186E+04  0.7818609E-02  0.8519184E-01
        2   -1    0    0  501    0  0.00000000000E+00  0.00000000000E+00  0.97201604744E+03  0.97201604745E+03  0.25500000920E-02 0. -1.
       -2   -1    0    0    0  501  0.00000000000E+00  0.00000000000E+00 -0.12427832094E+04  0.12427832094E+04  0.25500000920E-02 0.  1.
    10030    2    1    2    0    0  0.00000000000E+00  0.00000000000E+00 -0.27076716196E+03  0.22147992569E+04  0.21981858184E+04 0.  0.
        4    1    3    3  502    0 -0.66263482815E+03  0.19435942126E+03 -0.99691508537E+03  0.12127249484E+04  0.12699999809E+01 0.  1.
       -4    1    3    3    0  502  0.66263482815E+03 -0.19435942126E+03  0.72614792341E+03  0.10020743085E+04  0.12699999809E+01 0. -1.
</event>
<event>
 5   0  0.4027923E-05  0.2204796E+04  0.7818609E-02  0.8516434E-01
       -2   -1    0    0    0  501  0.00000000000E+00  0.00000000000E+00  0.10581093224E+04  0.10581093224E+04  0.25500000920E-02 0. -1.
        2   -1    0    0  501    0  0.00000000000E+00  0.00000000000E+00 -0.11485407461E+04  0.11485407461E+04  0.25500000920E-02 0.  1.
    10030    2    1    2    0    0  0.00000000000E+00  0.00000000000E+00 -0.90431423727E+02  0.22066500685E+04  0.22047962904E+04 0.  0.
        5    1    3    3  502    0 -0.65485380782E+03 -0.30449703765E+03 -0.87880712553E+03  0.11374867074E+04  0.46999998093E+01 0.  1.
       -5    1    3    3    0  502  0.65485380782E+03  0.30449703765E+03  0.78837570180E+03  0.10691633611E+04  0.46999998093E+01 0. -1.
</event>
<event>
 5   0  0.3963414E-05  0.2206857E+04  0.7818609E-02  0.8515580E-01
       -2   -1    0    0    0  501  0.00000000000E+00  0.00000000000E+00  0.94956609532E+03  0.94956609532E+03  0.25500000920E-02 0. -1.
        2   -1    0    0  501    0  0.00000000000E+00  0.00000000000E+00 -0.12822213600E+04  0.12822213600E+04  0.25500000920E-02 0.  1.
    10030    2    1    2    0    0  0.00000000000E+00  0.00000000000E+00 -0.33265526468E+03  0.22317874553E+04  0.22068565247E+04 0.  0.
        1    1    3    3  502    0  0.59302670320E+03  0.21788242827E+03  0.74854719427E+03  0.97952862405E+03  0.50400001928E-02 0. -1.
       -1    1    3    3    0  502 -0.59302670320E+03 -0.21788242827E+03 -0.10812024589E+04  0.12522588313E+04  0.50400001928E-02 0.  1.
</event>
<event>
 5   0  0.1866935E-05  0.2110431E+04  0.7818609E-02  0.8556662E-01
       -1   -1    0    0    0  501  0.00000000000E+00  0.00000000000E+00  0.61292413086E+03  0.61292413088E+03  0.50400001928E-02 0. -1.
        1   -1    0    0  501    0  0.00000000000E+00  0.00000000000E+00 -0.18166679211E+04  0.18166679212E+04  0.50400001928E-02 0.  1.
    10030    2    1    2    0    0  0.00000000000E+00  0.00000000000E+00 -0.12037437903E+04  0.24295920520E+04  0.21104308628E+04 0.  0.
        4    1    3    3  502    0  0.54088447028E+02  0.73807706921E+03  0.26407579118E+03  0.78576138654E+03  0.12699999809E+01 0. -1.
       -4    1    3    3    0  502 -0.54088447028E+02 -0.73807706921E+03 -0.14678195815E+04  0.16438306655E+04  0.12699999809E+01 0.  1.
</event>
<event>
 5   0  0.3963414E-05  0.2212554E+04  0.7818609E-02  0.8513221E-01
        2   -1    0    0  501    0  0.00000000000E+00  0.00000000000E+00  0.12244833830E+04  0.12244833830E+04  0.25500000920E-02 0.  1.
       -2   -1    0    0    0  501  0.00000000000E+00  0.00000000000E+00 -0.99948197393E+03  0.99948197393E+03  0.25500000920E-02 0. -1.
    10030    2    1    2    0    0  0.00000000000E+00  0.00000000000E+00  0.22500140905E+03  0.22239653569E+04  0.22125542422E+04 0.  0.
        1    1    3    3  502    0  0.51403136829E+03  0.47277642445E+03  0.97489021602E+03  0.11992317242E+04  0.50400001928E-02 0.  1.
       -1    1    3    3    0  502 -0.51403136829E+03 -0.47277642445E+03 -0.74988880697E+03  0.10247336327E+04  0.50400001928E-02 0. -1.
</event>
<event>
 5   0  0.1815681E-05  0.2200064E+04  0.7818609E-02  0.8518401E-01
       -1   -1    0    0    0  501  0.00000000000E+00  0.00000000000E+00  0.73763311817E+03  0.73763311819E+03  0.50400001928E-02 0.  1.
        1   -1    0    0  501    0  0.00000000000E+00  0.00000000000E+00 -0.16404775872E+04  0.16404775872E+04  0.50400001928E-02 0. -1.
    10030    2    1    2    0    0  0.00000000000E+00  0.00000000000E+00 -0.90284446906E+03  0.23781107054E+04  0.22000641791E+04 0.  0.
        2    1    3    3  502    0 -0.87140115406E+03 -0.36126830121E+03  0.16024909475E+03  0.95683568554E+03  0.25500000920E-02 0.  1.
       -2    1    3    3    0  502  0.87140115406E+03  0.36126830121E+03 -0.10630935638E+04  0.14212750199E+04  0.25500000920E-02 0. -1.
</event>
<event>
 5   0  0.4029532E-05  0.2209599E+04  0.7818609E-02  0.8514443E-01
       -2   -1    0    0    0  501  0.00000000000E+00  0.00000000000E+00  0.13774416487E+04  0.13774416487E+04  0.25500000920E-02 0.  1.
        2   -1    0    0  501    0  0.00000000000E+00  0.00000000000E+00 -0.88612227134E+03  0.88612227134E+03  0.25500000920E-02 0. -1.
    10030    2    1    2    0    0  0.00000000000E+00  0.00000000000E+00  0.49131937737E+03  0.22635639201E+04  0.22095988074E+04 0.  0.
        3    1    3    3  502    0 -0.10113431224E+04 -0.19439412458E+03 -0.16408100166E+03  0.10428454210E+04  0.10100000352E+00 0.  1.
       -3    1    3    3    0  502  0.10113431224E+04  0.19439412458E+03  0.65540037903E+03  0.12207184990E+04  0.10100000352E+00 0. -1.
</event>
<event>
 5   0  0.1866935E-05  0.2199389E+04  0.7818609E-02  0.8518682E-01
       -1   -1    0    0    0  501  0.00000000000E+00  0.00000000000E+00  0.70049094710E+03  0.70049094712E+03  0.50400001928E-02 0.  1.
        1   -1    0    0  501    0  0.00000000000E+00  0.00000000000E+00 -0.17264010709E+04  0.17264010709E+04  0.50400001928E-02 0. -1.
    10030    2    1    2    0    0  0.00000000000E+00  0.00000000000E+00 -0.10259101238E+04  0.24268920180E+04  0.21993892982E+04 0.  0.
        4    1    3    3  502    0 -0.12479081385E+03  0.24666610891E+03  0.66152598018E+03  0.71696244801E+03  0.12699999809E+01 0.  1.
       -4    1    3    3    0  502  0.12479081385E+03 -0.24666610891E+03 -0.16874361040E+04  0.17099295700E+04  0.12699999809E+01 0. -1.
</event>
<event>
 5   0  0.1866935E-05  0.2191489E+04  0.7818609E-02  0.8521979E-01
       -1   -1    0    0    0  501  0.00000000000E+00  0.00000000000E+00  0.67565909211E+03  0.67565909213E+03  0.50400001928E-02 0.  1.
        1   -1    0    0  501    0  0.00000000000E+00  0.00000000000E+00 -0.17770151785E+04  0.17770151785E+04  0.50400001928E-02 0. -1.
    10030    2    1    2    0    0  0.00000000000E+00  0.00000000000E+00 -0.11013560864E+04  0.24526742707E+04  0.21914894134E+04 0.  0.
        4    1    3    3  502    0  0.28062195899E+03  0.81987649807E+03  0.19984864443E+03  0.88931841853E+03  0.12699999809E+01 0.  1.
       -4    1    3    3    0  502 -0.28062195899E+03 -0.81987649807E+03 -0.13012047309E+04  0.15633558522E+04  0.12699999809E+01 0. -1.
</event>
<event>
 5   0  0.3963414E-05  0.2195266E+04  0.7818609E-02  0.8520401E-01
       -2   -1    0    0    0  501  0.00000000000E+00  0.00000000000E+00  0.76640846666E+03  0.76640846666E+03  0.25500000920E-02 0. -1.
        2   -1    0    0  501    0  0.00000000000E+00  0.00000000000E+00 -0.15720054559E+04  0.15720054559E+04  0.25500000920E-02 0.  1.
    10030    2    1    2    0    0  0.00000000000E+00  0.00000000000E+00 -0.80559698924E+03  0.23384139226E+04  0.21952660805E+04 0.  0.
        1    1    3    3  502    0  0.80228099362E+03 -0.16481938072E+03 -0.11811861355E+04  0.14373659617E+04  0.50400001928E-02 0.  1.
       -1    1    3    3    0  502 -0.80228099362E+03  0.16481938072E+03  0.37558914629E+03  0.90104796089E+03  0.50400001928E-02 0. -1.
</event>
<event>
 5   0  0.4132460E-05  0.2259249E+04  0.7818609E-02  0.8494164E-01
        2   -1    0    0  501    0  0.00000000000E+00  0.00000000000E+00  0.16491745019E+04  0.16491745019E+04  0.25500000920E-02 0.  1.
       -2   -1    0    0    0  501  0.00000000000E+00  0.00000000000E+00 -0.77375150932E+03  0.77375150933E+03  0.25500000920E-02 0. -1.
    10030    2    1    2    0    0  0.00000000000E+00  0.00000000000E+00  0.87542299255E+03  0.24229260112E+04  0.22592487778E+04 0.  0.
        4    1    3    3  502    0 -0.85654903796E+03 -0.20948222762E+03  0.11949009879E+04  0.14850417643E+04  0.12699999809E+01 0.  1.
       -4    1    3    3    0  502  0.85654903796E+03  0.20948222762E+03 -0.31947799532E+03  0.93788424686E+03  0.12699999809E+01 0. -1.
</event>
<event>
 5   0  0.1786228E-05  0.2164858E+04  0.7818609E-02  0.8533199E-01
        1   -1    0    0  501    0  0.00000000000E+00  0.00000000000E+00  0.15567316320E+04  0.15567316321E+04  0.50400001928E-02 0.  1.
       -1   -1    0    0    0  501  0.00000000000E+00  0.00000000000E+00 -0.75263583189E+03  0.75263583191E+03  0.50400001928E-02 0. -1.
    10030    2    1    2    0    0  0.00000000000E+00  0.00000000000E+00  0.80409580015E+03  0.23093674640E+04  0.21648575075E+04 0.  0.
        5    1    3    3  502    0  0.67644235229E+02  0.70354501286E+03 -0.47248017624E+03  0.85018288304E+03  0.46999998093E+01 0. -1.
       -5    1    3    3    0  502 -0.67644235229E+02 -0.70354501286E+03  0.12765759764E+04  0.14591845809E+04  0.46999998093E+01 0.  1.
</event>
<event>
 5   0  0.3963414E-05  0.2199070E+04  0.7818609E-02  0.8518815E-01
       -2   -1    0    0    0  501  0.00000000000E+00  0.00000000000E+00  0.59653959895E+03  0.59653959896E+03  0.25500000920E-02 0. -1.
        2   -1    0    0  501    0  0.00000000000E+00  0.00000000000E+00 -0.20266510553E+04  0.20266510553E+04  0.25500000920E-02 0.  1.
    10030    2    1    2    0    0  0.00000000000E+00  0.00000000000E+00 -0.14301114564E+04  0.26231906543E+04  0.21990703561E+04 0.  0.
        1    1    3    3  502    0  0.60267109058E+03  0.89557875635E+03 -0.46568205174E+03  0.11756417505E+04  0.50400001928E-02 0.  1.
       -1    1    3    3    0  502 -0.60267109058E+03 -0.89557875635E+03 -0.96442940465E+03  0.14475489038E+04  0.50400001928E-02 0. -1.
</event>
<event>
 5   0  0.4029532E-05  0.2198859E+04  0.7818609E-02  0.8518903E-01
       -2   -1    0    0    0  501  0.00000000000E+00  0.00000000000E+00  0.12780148083E+04  0.12780148083E+04  0.25500000920E-02 0. -1.
        2   -1    0    0  501    0  0.00000000000E+00  0.00000000000E+00 -0.94579875754E+03  0.94579875754E+03  0.25500000920E-02 0.  1.
    10030    2    1    2    0    0  0.00000000000E+00  0.00000000000E+00  0.33221605074E+03  0.22238135658E+04  0.21988586292E+04 0.  0.
        3    1    3    3  502    0  0.55173757576E+03  0.33434312045E+03  0.10664615491E+04  0.12464108153E+04  0.10100000352E+00 0. -1.
       -3    1    3    3    0  502 -0.55173757576E+03 -0.33434312045E+03 -0.73424549832E+03  0.97740275051E+03  0.10100000352E+00 0.  1.
</event>
<event>
 5   0  0.1788413E-05  0.2199655E+04  0.7818609E-02  0.8518572E-01
        1   -1    0    0  501    0  0.00000000000E+00  0.00000000000E+00  0.12626069412E+04  0.12626069413E+04  0.50400001928E-02 0.  1.
       -1   -1    0    0    0  501  0.00000000000E+00  0.00000000000E+00 -0.95803448017E+03  0.95803448019E+03  0.50400001928E-02 0. -1.
    10030    2    1    2    0    0  0.00000000000E+00  0.00000000000E+00  0.30457246107E+03  0.22206414214E+04  0.21996554136E+04 0.  0.
        1    1    3    3  502    0  0.54223259620E+03  0.42601163720E+03  0.10172680544E+04  0.12289574435E+04  0.50400001928E-02 0.  1.
       -1    1    3    3    0  502 -0.54223259620E+03 -0.42601163720E+03 -0.71269559330E+03  0.99168397796E+03  0.50400001928E-02 0. -1.
</event>
<event>
 5   0  0.1866935E-05  0.2188323E+04  0.7818609E-02  0.8523304E-01
        1   -1    0    0  501    0  0.00000000000E+00  0.00000000000E+00  0.14851684317E+04  0.14851684317E+04  0.50400001928E-02 0.  1.
       -1   -1    0    0    0  501  0.00000000000E+00  0.00000000000E+00 -0.80609678811E+03  0.80609678813E+03  0.50400001928E-02 0. -1.
    10030    2    1    2    0    0  0.00000000000E+00  0.00000000000E+00  0.67907164359E+03  0.22912652198E+04  0.21883231047E+04 0.  0.
        4    1    3    3  502    0  0.75750567247E+03  0.69226709694E+03 -0.57980660019E+02  0.10278190245E+04  0.12699999809E+01 0. -1.
       -4    1    3    3    0  502 -0.75750567247E+03 -0.69226709694E+03  0.73705230361E+03  0.12634461953E+04  0.12699999809E+01 0.  1.
</event>
<event>
 5   0  0.1884407E-05  0.2189424E+04  0.7818609E-02  0.8522843E-01
       -1   -1    0    0    0  501  0.00000000000E+00  0.00000000000E+00  0.96486516167E+03  0.96486516168E+03  0.50400001928E-02 0.  1.
        1   -1    0    0  501    0  0.00000000000E+00  0.00000000000E+00 -0.12420325013E+04  0.12420325013E+04  0.50400001928E-02 0. -1.
    10030    2    1    2    0    0  0.00000000000E+00  0.00000000000E+00 -0.27716733962E+03  0.22068976630E+04  0.21894235681E+04 0.  0.
        3    1    3    3  502    0 -0.34017779926E+03 -0.11013280384E+03  0.90434500456E+03  0.97246597219E+03  0.10100000352E+00 0.  1.
       -3    1    3    3    0  502  0.34017779926E+03  0.11013280384E+03 -0.11815123442E+04  0.12344316908E+04  0.10100000352E+00 0. -1.
</event>
<event>
 5   0  0.1786228E-05  0.2173139E+04  0.7818609E-02  0.8529692E-01
        1   -1    0    0  501    0  0.00000000000E+00  0.00000000000E+00  0.13175982025E+04  0.13175982025E+04  0.50400001928E-02 0.  1.
       -1   -1    0    0    0  501  0.00000000000E+00  0.00000000000E+00 -0.89604916501E+03  0.89604916502E+03  0.50400001928E-02 0. -1.
    10030    2    1    2    0    0  0.00000000000E+00  0.00000000000E+00  0.42154903752E+03  0.22136473676E+04  0.21731385314E+04 0.  0.
        5    1    3    3  502    0  0.26838871271E+03 -0.17662956329E+03  0.12680922539E+04  0.13081706915E+04  0.46999998093E+01 0.  1.
       -5    1    3    3    0  502 -0.26838871271E+03  0.17662956329E+03 -0.84654321636E+03  0.90547667606E+03  0.46999998093E+01 0. -1.
</event>
<event>
 5   0  0.1884407E-05  0.2205286E+04  0.7818609E-02  0.8516231E-01
        1   -1    0    0  501    0  0.00000000000E+00  0.00000000000E+00  0.93124850820E+03  0.93124850821E+03  0.50400001928E-02 0.  1.
       -1   -1    0    0    0  501  0.00000000000E+00  0.00000000000E+00 -0.13055825318E+04  0.13055825318E+04  0.50400001928E-02 0. -1.
    10030    2    1    2    0    0  0.00000000000E+00  0.00000000000E+00 -0.37433402363E+03  0.22368310401E+04  0.22052861811E+04 0.  0.
        3    1    3    3  502    0  0.49069948994E+03  0.29171063705E+02  0.81395937180E+03  0.95087686349E+03  0.10100000352E+00 0.  1.
       -3    1    3    3    0  502 -0.49069948994E+03 -0.29171063705E+02 -0.11882933954E+04  0.12859541766E+04  0.10100000352E+00 0. -1.
</event>
<event>
 5   0  0.4132460E-05  0.2205942E+04  0.7818609E-02  0.8515959E-01
        2   -1    0    0  501    0  0.00000000000E+00  0.00000000000E+00  0.20783009777E+04  0.20783009777E+04  0.25500000920E-02 0.  1.
       -2   -1    0    0    0  501  0.00000000000E+00  0.00000000000E+00 -0.58535560914E+03  0.58535560914E+03  0.25500000920E-02 0. -1.
    10030    2    1    2    0    0  0.00000000000E+00  0.00000000000E+00  0.14929453685E+04  0.26636565868E+04  0.22059420979E+04 0.  0.
        4    1    3    3  502    0 -0.10319035287E+03  0.10423858220E+04  0.11635855772E+04  0.15656147225E+04  0.12699999809E+01 0.  1.
       -4    1    3    3    0  502  0.10319035287E+03 -0.10423858220E+04  0.32935979134E+03  0.10980418644E+04  0.12699999809E+01 0. -1.
</event>
<event>
 5   0  0.3963414E-05  0.2216693E+04  0.7818609E-02  0.8511512E-01
       -2   -1    0    0    0  501  0.00000000000E+00  0.00000000000E+00  0.12083297435E+04  0.12083297435E+04  0.25500000920E-02 0.  1.
        2   -1    0    0  501    0  0.00000000000E+00  0.00000000000E+00 -0.10166359226E+04  0.10166359226E+04  0.25500000920E-02 0. -1.
    10030    2    1    2    0    0  0.00000000000E+00  0.00000000000E+00  0.19169382094E+03  0.22249656662E+04  0.22166925124E+04 0.  0.
        1    1    3    3  502    0 -0.91045937621E+03 -0.63194480636E+03  0.10776174882E+03  0.11135093662E+04  0.50400001928E-02 0.  1.
       -1    1    3    3    0  502  0.91045937621E+03  0.63194480636E+03  0.83932072113E+02  0.11114563000E+04  0.50400001928E-02 0. -1.
</event>
<event>
 5   0  0.1815681E-05  0.2205855E+04  0.7818609E-02  0.8515995E-01
        1   -1    0    0  501    0  0.00000000000E+00  0.00000000000E+00  0.12466089550E+04  0.12466089551E+04  0.50400001928E-02 0.  1.
       -1   -1    0    0    0  501  0.00000000000E+00  0.00000000000E+00 -0.97580628731E+03  0.97580628732E+03  0.50400001928E-02 0. -1.
    10030    2    1    2    0    0  0.00000000000E+00  0.00000000000E+00  0.27080266773E+03  0.22224152424E+04  0.22058548059E+04 0.  0.
        2    1    3    3  502    0  0.24779954357E+03 -0.72344427964E+03  0.93614646997E+03  0.12087789098E+04  0.25500000920E-02 0.  1.
       -2    1    3    3    0  502 -0.24779954357E+03  0.72344427964E+03 -0.66534380224E+03  0.10136363326E+04  0.25500000920E-02 0. -1.
</event>
<event>
 5   0  0.4027923E-05  0.2206346E+04  0.7818609E-02  0.8515791E-01
        2   -1    0    0  501    0  0.00000000000E+00  0.00000000000E+00  0.10058476000E+04  0.10058476000E+04  0.25500000920E-02 0.  1.
       -2   -1    0    0    0  501  0.00000000000E+00  0.00000000000E+00 -0.12099157114E+04  0.12099157114E+04  0.25500000920E-02 0. -1.
    10030    2    1    2    0    0  0.00000000000E+00  0.00000000000E+00 -0.20406811133E+03  0.22157633114E+04  0.22063461329E+04 0.  0.
        5    1    3    3  502    0 -0.59551869918E+03  0.32020579388E+03 -0.97741639493E+03  0.11885029115E+04  0.46999998093E+01 0. -1.
       -5    1    3    3    0  502  0.59551869918E+03 -0.32020579388E+03  0.77334828360E+03  0.10272603999E+04  0.46999998093E+01 0.  1.
</event>
<event>
 5   0  0.1815681E-05  0.2263980E+04  0.7818609E-02  0.8492260E-01
        1   -1    0    0  501    0  0.00000000000E+00  0.00000000000E+00  0.15673123641E+04  0.15673123641E+04  0.50400001928E-02 0.  1.
       -1   -1    0    0    0  501  0.00000000000E+00  0.00000000000E+00 -0.81757896416E+03  0.81757896418E+03  0.50400001928E-02 0. -1.
    10030    2    1    2    0    0  0.00000000000E+00  0.00000000000E+00  0.74973339990E+03  0.23848913283E+04  0.22639802289E+04 0.  0.
        2    1    3    3  502    0 -0.56957485639E+03  0.31246116831E+03  0.13513887325E+04  0.14994328945E+04  0.25500000920E-02 0.  1.
       -2    1    3    3    0  502  0.56957485639E+03 -0.31246116831E+03 -0.60165533258E+03  0.88545843379E+03  0.25500000920E-02 0. -1.
</event>
<event>
 5   0  0.4143281E-05  0.2183108E+04  0.7818609E-02  0.8525492E-01
        2   -1    0    0  501    0  0.00000000000E+00  0.00000000000E+00  0.72376079410E+03  0.72376079410E+03  0.25500000920E-02 0. -1.
       -2   -1    0    0    0  501  0.00000000000E+00  0.00000000000E+00 -0.16462488949E+04  0.16462488949E+04  0.25500000920E-02 0.  1.
    10030    2    1    2    0    0  0.00000000000E+00  0.00000000000E+00 -0.92248810077E+03  0.23700096890E+04  0.21831082497E+04 0.  0.
        2    1    3    3  502    0 -0.18162259031E+03 -0.91301074653E+03  0.15756939878E+03  0.94414167582E+03  0.25500000920E-02 0. -1.
       -2    1    3    3    0  502  0.18162259031E+03  0.91301074653E+03 -0.10800574996E+04  0.14258680132E+04  0.25500000920E-02 0.  1.
</event>
<event>
 5   0  0.4029532E-05  0.2052433E+04  0.7818609E-02  0.8582491E-01
        2   -1    0    0  501    0  0.00000000000E+00  0.00000000000E+00  0.18097435037E+04  0.18097435037E+04  0.25500000920E-02 0.  1.
       -2   -1    0    0    0  501  0.00000000000E+00  0.00000000000E+00 -0.58191704957E+03  0.58191704957E+03  0.25500000920E-02 0. -1.
    10030    2    1    2    0    0  0.00000000000E+00  0.00000000000E+00  0.12278264541E+04  0.23916605532E+04  0.20524332877E+04 0.  0.
        3    1    3    3  502    0  0.86692527669E+03  0.37495485263E+03  0.14639022762E+03  0.95581414815E+03  0.10100000352E+00 0. -1.
       -3    1    3    3    0  502 -0.86692527669E+03 -0.37495485263E+03  0.10814362265E+04  0.14358464051E+04  0.10100000352E+00 0.  1.
</event>
<event>
 5   0  0.1433375E-05  0.2203768E+04  0.7818609E-02  0.8516861E-01
        3   -1    0    0  501    0  0.00000000000E+00  0.00000000000E+00  0.10169587117E+04  0.10169587167E+04  0.10100000352E+00 0.  1.
       -3   -1    0    0    0  501  0.00000000000E+00  0.00000000000E+00 -0.11939017437E+04  0.11939017480E+04  0.10100000352E+00 0. -1.
    10030    2    1    2    0    0  0.00000000000E+00  0.00000000000E+00 -0.17694303204E+03  0.22108604646E+04  0.22037683992E+04 0.  0.
        5    1    3    3  502    0  0.33796687795E+03 -0.67792288191E+03 -0.89125020236E+03  0.11696794679E+04  0.46999998093E+01 0. -1.
       -5    1    3    3    0  502 -0.33796687795E+03  0.67792288191E+03  0.71430717032E+03  0.10411809967E+04  0.46999998093E+01 0.  1.
</event>
<event>
 5   0  0.3963414E-05  0.2231081E+04  0.7818609E-02  0.8505602E-01
        2   -1    0    0  501    0  0.00000000000E+00  0.00000000000E+00  0.20053437586E+04  0.20053437586E+04  0.25500000920E-02 0. -1.
       -2   -1    0    0    0  501  0.00000000000E+00  0.00000000000E+00 -0.62055712766E+03  0.62055712766E+03  0.25500000920E-02 0.  1.
    10030    2    1    2    0    0  0.00000000000E+00  0.00000000000E+00  0.13847866310E+04  0.26259008863E+04  0.22310807810E+04 0.  0.
        1    1    3    3  502    0 -0.90147937149E+03  0.34913141785E+03  0.13475642066E+04  0.16584592534E+04  0.50400001928E-02 0. -1.
       -1    1    3    3    0  502  0.90147937149E+03 -0.34913141785E+03  0.37222424339E+02  0.96744163289E+03  0.50400001928E-02 0.  1.
</event>
<event>
 5   0  0.4132460E-05  0.2217865E+04  0.7818609E-02  0.8511029E-01
       -2   -1    0    0    0  501  0.00000000000E+00  0.00000000000E+00  0.73079230331E+03  0.73079230332E+03  0.25500000920E-02 0. -1.
        2   -1    0    0  501    0  0.00000000000E+00  0.00000000000E+00 -0.16827372620E+04  0.16827372620E+04  0.25500000920E-02 0.  1.
    10030    2    1    2    0    0  0.00000000000E+00  0.00000000000E+00 -0.95194495873E+03  0.24135295654E+04  0.22178651353E+04 0.  0.
        4    1    3    3  502    0 -0.29826316036E+03  0.69219915581E+02  0.68387893753E+03  0.74929588524E+03  0.12699999809E+01 0. -1.
       -4    1    3    3    0  502  0.29826316036E+03 -0.69219915581E+02 -0.16358238963E+04  0.16642336801E+04  0.12699999809E+01 0.  1.
</event>
<event>
 5   0  0.1786228E-05  0.2207283E+04  0.7818609E-02  0.8515403E-01
        1   -1    0    0  501    0  0.00000000000E+00  0.00000000000E+00  0.49180111843E+03  0.49180111846E+03  0.50400001928E-02 0. -1.
       -1   -1    0    0    0  501  0.00000000000E+00  0.00000000000E+00 -0.24766608989E+04  0.24766608989E+04  0.50400001928E-02 0.  1.
    10030    2    1    2    0    0  0.00000000000E+00  0.00000000000E+00 -0.19848597804E+04  0.29684620173E+04  0.22072830359E+04 0.  0.
        5    1    3    3  502    0 -0.50502403853E+01 -0.60140287008E+03  0.25203976367E+03  0.65211735872E+03  0.46999998093E+01 0. -1.
       -5    1    3    3    0  502  0.50502403853E+01  0.60140287008E+03 -0.22368995441E+04  0.23163446586E+04  0.46999998093E+01 0.  1.
</event>
<event>
 5   0  0.1866935E-05  0.2182735E+04  0.7818609E-02  0.8525649E-01
       -1   -1    0    0    0  501  0.00000000000E+00  0.00000000000E+00  0.84386813859E+03  0.84386813861E+03  0.50400001928E-02 0.  1.
        1   -1    0    0  501    0  0.00000000000E+00  0.00000000000E+00 -0.14114562022E+04  0.14114562022E+04  0.50400001928E-02 0. -1.
    10030    2    1    2    0    0  0.00000000000E+00  0.00000000000E+00 -0.56758806359E+03  0.22553243408E+04  0.21827349065E+04 0.  0.
        4    1    3    3  502    0 -0.22437833386E+02  0.81629823338E+03  0.46432557600E+03  0.93938603120E+03  0.12699999809E+01 0.  1.
       -4    1    3    3    0  502  0.22437833386E+02 -0.81629823338E+03 -0.10319136396E+04  0.13159383096E+04  0.12699999809E+01 0. -1.
</event>
<event>
 5   0  0.1786228E-05  0.2193165E+04  0.7818609E-02  0.8521278E-01
        1   -1    0    0  501    0  0.00000000000E+00  0.00000000000E+00  0.20373506724E+04  0.20373506724E+04  0.50400001928E-02 0.  1.
       -1   -1    0    0    0  501  0.00000000000E+00  0.00000000000E+00 -0.59022394832E+03  0.59022394834E+03  0.50400001928E-02 0. -1.
    10030    2    1    2    0    0  0.00000000000E+00  0.00000000000E+00  0.14471267241E+04  0.26275746208E+04  0.21931649806E+04 0.  0.
        5    1    3    3  502    0 -0.23830911111E+03  0.48539069604E+03 -0.41937422903E+03  0.68431878113E+03  0.46999998093E+01 0. -1.
       -5    1    3    3    0  502  0.23830911111E+03 -0.48539069604E+03  0.18665009531E+04  0.19432558396E+04  0.46999998093E+01 0.  1.
</event>
<event>
 5   0  0.4029532E-05  0.2186240E+04  0.7818609E-02  0.8524177E-01
        2   -1    0    0  501    0  0.00000000000E+00  0.00000000000E+00  0.17462093776E+04  0.17462093776E+04  0.25500000920E-02 0. -1.
       -2   -1    0    0    0  501  0.00000000000E+00  0.00000000000E+00 -0.68428890393E+03  0.68428890394E+03  0.25500000920E-02 0.  1.
    10030    2    1    2    0    0  0.00000000000E+00  0.00000000000E+00  0.10619204736E+04  0.24304982815E+04  0.21862403354E+04 0.  0.
        3    1    3    3  502    0 -0.69874129465E+03  0.73692503854E+03  0.81276318069E+02  0.10187756178E+04  0.10100000352E+00 0.  1.
       -3    1    3    3    0  502  0.69874129465E+03 -0.73692503854E+03  0.98064415557E+03  0.14117226637E+04  0.10100000352E+00 0. -1.
</event>
<event>
 5   0  0.4143281E-05  0.2169397E+04  0.7818609E-02  0.8531275E-01
        2   -1    0    0  501    0  0.00000000000E+00  0.00000000000E+00  0.13329082143E+04  0.13329082143E+04  0.25500000920E-02 0.  1.
       -2   -1    0    0    0  501  0.00000000000E+00  0.00000000000E+00 -0.88270958202E+03  0.88270958203E+03  0.25500000920E-02 0. -1.
    10030    2    1    2    0    0  0.00000000000E+00  0.00000000000E+00  0.45019863230E+03  0.22156177963E+04  0.21693970155E+04 0.  0.
        2    1    3    3  502    0  0.10083017057E+04  0.39118087709E+03  0.30978795332E+03  0.11250170596E+04  0.25500000920E-02 0. -1.
       -2    1    3    3    0  502 -0.10083017057E+04 -0.39118087709E+03  0.14041067898E+03  0.10906007368E+04  0.25500000920E-02 0.  1.
</event>
<event>
 5   0  0.4027923E-05  0.2213366E+04  0.7818609E-02  0.8512885E-01
        2   -1    0    0  501    0  0.00000000000E+00  0.00000000000E+00  0.15519417556E+04  0.15519417556E+04  0.25500000920E-02 0. -1.
       -2   -1    0    0    0  501  0.00000000000E+00  0.00000000000E+00 -0.78917078651E+03  0.78917078652E+03  0.25500000920E-02 0.  1.
    10030    2    1    2    0    0  0.00000000000E+00  0.00000000000E+00  0.76277096908E+03  0.23411125421E+04  0.22133658495E+04 0.  0.
        5    1    3    3  502    0  0.22370629498E+03  0.96932815085E+03 -0.13145240133E+03  0.10034656916E+04  0.46999998093E+01 0.  1.
       -5    1    3    3    0  502 -0.22370629498E+03 -0.96932815085E+03  0.89422337041E+03  0.13376468505E+04  0.46999998093E+01 0. -1.
</event>
<event>
 5   0  0.1866935E-05  0.2203312E+04  0.7818609E-02  0.8517051E-01
       -1   -1    0    0    0  501  0.00000000000E+00  0.00000000000E+00  0.10747414243E+04  0.10747414243E+04  0.50400001928E-02 0. -1.
        1   -1    0    0  501    0  0.00000000000E+00  0.00000000000E+00 -0.11292441951E+04  0.11292441951E+04  0.50400001928E-02 0.  1.
    10030    2    1    2    0    0  0.00000000000E+00  0.00000000000E+00 -0.54502770789E+02  0.22039856195E+04  0.22033116118E+04 0.  0.
        4    1    3    3  502    0 -0.42180118415E+03 -0.89008034105E+03 -0.52084396966E+03  0.11141989527E+04  0.12699999809E+01 0.  1.
       -4    1    3    3    0  502  0.42180118415E+03  0.89008034105E+03  0.46634119887E+03  0.10897866668E+04  0.12699999809E+01 0. -1.
</event>
<event>
 5   0  0.1788413E-05  0.2192118E+04  0.7818609E-02  0.8521716E-01
       -1   -1    0    0    0  501  0.00000000000E+00  0.00000000000E+00  0.12328826919E+04  0.12328826919E+04  0.50400001928E-02 0.  1.
        1   -1    0    0  501    0  0.00000000000E+00  0.00000000000E+00 -0.97441954643E+03  0.97441954645E+03  0.50400001928E-02 0. -1.
    10030    2    1    2    0    0  0.00000000000E+00  0.00000000000E+00  0.25846314550E+03  0.22073022384E+04  0.21921176916E+04 0.  0.
        1    1    3    3  502    0 -0.50188625068E+02  0.61269940713E+03 -0.78448205246E+03  0.99666019899E+03  0.50400001928E-02 0. -1.
       -1    1    3    3    0  502  0.50188625068E+02 -0.61269940713E+03  0.10429451980E+04  0.12106420394E+04  0.50400001928E-02 0.  1.
</event>
<event>
 5   0  0.4143281E-05  0.2206206E+04  0.7818609E-02  0.8515849E-01
       -2   -1    0    0    0  501  0.00000000000E+00  0.00000000000E+00  0.88509579392E+03  0.88509579392E+03  0.25500000920E-02 0.  1.
        2   -1    0    0  501    0  0.00000000000E+00  0.00000000000E+00 -0.13748075991E+04  0.13748075991E+04  0.25500000920E-02 0. -1.
    10030    2    1    2    0    0  0.00000000000E+00  0.00000000000E+00 -0.48971180520E+03  0.22599033930E+04  0.22062061766E+04 0.  0.
        2    1    3    3  502    0 -0.15195838104E+02 -0.89326688267E+03  0.41794756975E+03  0.98632489993E+03  0.25500000920E-02 0. -1.
       -2    1    3    3    0  502  0.15195838104E+02  0.89326688267E+03 -0.90765937495E+03  0.12735784931E+04  0.25500000920E-02 0.  1.
</event>
<event>
 5   0  0.1433375E-05  0.2182242E+04  0.7818609E-02  0.8525856E-01
       -3   -1    0    0    0  501  0.00000000000E+00  0.00000000000E+00  0.18253006521E+04  0.18253006549E+04  0.10100000352E+00 0. -1.
        3   -1    0    0  501    0  0.00000000000E+00  0.00000000000E+00 -0.65224595055E+03  0.65224595837E+03  0.10100000352E+00 0.  1.
    10030    2    1    2    0    0  0.00000000000E+00  0.00000000000E+00  0.11730547015E+04  0.24775466132E+04  0.21822419408E+04 0.  0.
        1    1    3    3  502    0 -0.91377774275E+03  0.59584520774E+03  0.61250854327E+03  0.12510747341E+04  0.50400001928E-02 0.  1.
       -1    1    3    3    0  502  0.91377774275E+03 -0.59584520774E+03  0.56054615826E+03  0.12264718791E+04  0.50400001928E-02 0. -1.
</event>
<event>
 5   0  0.1866935E-05  0.2195882E+04  0.7818609E-02  0.8520144E-01
        1   -1    0    0  501    0  0.00000000000E+00  0.00000000000E+00  0.16883442798E+04  0.16883442798E+04  0.50400001928E-02 0. -1.
       -1   -1    0    0    0  501  0.00000000000E+00  0.00000000000E+00 -0.71399782680E+03  0.71399782682E+03  0.50400001928E-02 0.  1.
    10030    2    1    2    0    0  0.00000000000E+00  0.00000000000E+00  0.97434645297E+03  0.24023421066E+04  0.21958817333E+04 0.  0.
        4    1    3    3  502    0 -0.21236511390E+02 -0.38123834492E+03  0.16133667991E+04  0.16579347714E+04  0.12699999809E+01 0. -1.
       -4    1    3    3    0  502  0.21236511390E+02  0.38123834492E+03 -0.63902034609E+03  0.74440733518E+03  0.12699999809E+01 0.  1.
</event>
<event>
 5   0  0.4132460E-05  0.2192180E+04  0.7818609E-02  0.8521690E-01
        2   -1    0    0  501    0  0.00000000000E+00  0.00000000000E+00  0.16327816314E+04  0.16327816314E+04  0.25500000920E-02 0.  1.
       -2   -1    0    0    0  501  0.00000000000E+00  0.00000000000E+00 -0.73580765929E+03  0.73580765929E+03  0.25500000920E-02 0. -1.
    10030    2    1    2    0    0  0.00000000000E+00  0.00000000000E+00  0.89697397212E+03  0.23685892907E+04  0.21921799473E+04 0.  0.
        4    1    3    3  502    0  0.82649640961E+03 -0.33019769563E+03 -0.24274903278E+03  0.92252671457E+03  0.12699999809E+01 0. -1.
       -4    1    3    3    0  502 -0.82649640961E+03  0.33019769563E+03  0.11397230049E+04  0.14460625761E+04  0.12699999809E+01 0.  1.
</event>
<event>
 5   0  0.1786228E-05  0.2195254E+04  0.7818609E-02  0.8520406E-01
        1   -1    0    0  501    0  0.00000000000E+00  0.00000000000E+00  0.13012829050E+04  0.13012829050E+04  0.50400001928E-02 0. -1.
       -1   -1    0    0    0  501  0.00000000000E+00  0.00000000000E+00 -0.92584408549E+03  0.92584408550E+03  0.50400001928E-02 0.  1.
    10030    2    1    2    0    0  0.00000000000E+00  0.00000000000E+00  0.37543881949E+03  0.22271269905E+04  0.21952540456E+04 0.  0.
        5    1    3    3  502    0 -0.77046198995E+03 -0.27823013614E+02  0.98032903839E+03  0.12471779791E+04  0.46999998093E+01 0. -1.
       -5    1    3    3    0  502  0.77046198995E+03  0.27823013614E+02 -0.60489021889E+03  0.97994901140E+03  0.46999998093E+01 0.  1.
</event>
<event>
 5   0  0.4029532E-05  0.2207662E+04  0.7818609E-02  0.8515246E-01
       -2   -1    0    0    0  501  0.00000000000E+00  0.00000000000E+00  0.74964058272E+03  0.74964058272E+03  0.25500000920E-02 0. -1.
        2   -1    0    0  501    0  0.00000000000E+00  0.00000000000E+00 -0.16253698085E+04  0.16253698085E+04  0.25500000920E-02 0.  1.
    10030    2    1    2    0    0  0.00000000000E+00  0.00000000000E+00 -0.87572922576E+03  0.23750103912E+04  0.22076622662E+04 0.  0.
        3    1    3    3  502    0  0.84569001556E+03  0.69551853589E+03 -0.58811364743E+03  0.12429059935E+04  0.10100000352E+00 0.  1.
       -3    1    3    3    0  502 -0.84569001556E+03 -0.69551853589E+03 -0.28761557834E+03  0.11321043977E+04  0.10100000352E+00 0. -1.
</event>
<event>
 5   0  0.3963414E-05  0.2217857E+04  0.7818609E-02  0.8511032E-01
        2   -1    0    0  501    0  0.00000000000E+00  0.00000000000E+00  0.12964771890E+04  0.12964771890E+04  0.25500000920E-02 0.  1.
       -2   -1    0    0    0  501  0.00000000000E+00  0.00000000000E+00 -0.94851030522E+03  0.94851030522E+03  0.25500000920E-02 0. -1.
    10030    2    1    2    0    0  0.00000000000E+00  0.00000000000E+00  0.34796688382E+03  0.22449874943E+04  0.22178565998E+04 0.  0.
        1    1    3    3  502    0 -0.40836120113E+02  0.47118239535E+03 -0.84130260893E+03  0.96512720313E+03  0.50400001928E-02 0. -1.
       -1    1    3    3    0  502  0.40836120113E+02 -0.47118239535E+03  0.11892694928E+04  0.12798602911E+04  0.50400001928E-02 0.  1.
</event>
<event>
 5   0  0.1884407E-05  0.2170643E+04  0.7818609E-02  0.8530747E-01
        1   -1    0    0  501    0  0.00000000000E+00  0.00000000000E+00  0.96523954824E+03  0.96523954826E+03  0.50400001928E-02 0.  1.
       -1   -1    0    0    0  501  0.00000000000E+00  0.00000000000E+00 -0.12203423218E+04  0.12203423218E+04  0.50400001928E-02 0. -1.
    10030    2    1    2    0    0  0.00000000000E+00  0.00000000000E+00 -0.25510277352E+03  0.21855818700E+04  0.21706429199E+04 0.  0.
        3    1    3    3  502    0 -0.10187944837E+03 -0.11013320617E+03 -0.12098509680E+04  0.12191177630E+04  0.10100000352E+00 0. -1.
       -3    1    3    3    0  502  0.10187944837E+03  0.11013320617E+03  0.95474819448E+03  0.96646410702E+03  0.10100000352E+00 0.  1.
</event>
<event>
 5   0  0.1815681E-05  0.2199990E+04  0.7818609E-02  0.8518432E-01
        1   -1    0    0  501    0  0.00000000000E+00  0.00000000000E+00  0.91264423128E+03  0.91264423129E+03  0.50400001928E-02 0.  1.
       -1   -1    0    0    0  501  0.00000000000E+00  0.00000000000E+00 -0.13258053961E+04  0.13258053961E+04  0.50400001928E-02 0. -1.
    10030    2    1    2    0    0  0.00000000000E+00  0.00000000000E+00 -0.41316116479E+03  0.22384496274E+04  0.21999896787E+04 0.  0.
        2    1    3    3  502    0  0.10221721395E+04 -0.23699944395E+03 -0.54247911649E+03  0.11812231843E+04  0.25500000920E-02 0. -1.
       -2    1    3    3    0  502 -0.10221721395E+04  0.23699944395E+03  0.12931795170E+03  0.10572264431E+04  0.25500000920E-02 0.  1.
</event>
<event>
 5   0  0.1866935E-05  0.2155542E+04  0.7818609E-02  0.8537164E-01
        1   -1    0    0  501    0  0.00000000000E+00  0.00000000000E+00  0.76968351542E+03  0.76968351543E+03  0.50400001928E-02 0.  1.
       -1   -1    0    0    0  501  0.00000000000E+00  0.00000000000E+00 -0.15091792021E+04  0.15091792021E+04  0.50400001928E-02 0. -1.
    10030    2    1    2    0    0  0.00000000000E+00  0.00000000000E+00 -0.73949568666E+03  0.22788627175E+04  0.21555420234E+04 0.  0.
        4    1    3    3  502    0  0.20218262725E+03  0.80466487159E+03  0.35752216670E+03  0.90343072945E+03  0.12699999809E+01 0.  1.
       -4    1    3    3    0  502 -0.20218262725E+03 -0.80466487159E+03 -0.10970178534E+04  0.13754319881E+04  0.12699999809E+01 0. -1.
</event>
<event>
 5   0  0.1866935E-05  0.2208329E+04  0.7818609E-02  0.8514970E-01
       -1   -1    0    0    0  501  0.00000000000E+00  0.00000000000E+00  0.71530392805E+03  0.71530392806E+03  0.50400001928E-02 0. -1.
        1   -1    0    0  501    0  0.00000000000E+00  0.00000000000E+00 -0.17044206852E+04  0.17044206852E+04  0.50400001928E-02 0.  1.
    10030    2    1    2    0    0  0.00000000000E+00  0.00000000000E+00 -0.98911675710E+03  0.24197246132E+04  0.22083286088E+04 0.  0.
        4    1    3    3  502    0 -0.93589042724E+03 -0.57071224551E+03 -0.63981487629E+03  0.12692391610E+04  0.12699999809E+01 0. -1.
       -4    1    3    3    0  502  0.93589042724E+03  0.57071224551E+03 -0.34930188082E+03  0.11504854522E+04  0.12699999809E+01 0.  1.
</event>
<event>
 5   0  0.1788413E-05  0.2106469E+04  0.7818609E-02  0.8558399E-01
       -1   -1    0    0    0  501  0.00000000000E+00  0.00000000000E+00  0.84434313872E+03  0.84434313873E+03  0.50400001928E-02 0.  1.
        1   -1    0    0  501    0  0.00000000000E+00  0.00000000000E+00 -0.13138053273E+04  0.13138053273E+04  0.50400001928E-02 0. -1.
    10030    2    1    2    0    0  0.00000000000E+00  0.00000000000E+00 -0.46946218859E+03  0.21581484660E+04  0.21064686219E+04 0.  0.
        1    1    3    3  502    0 -0.16906617306E+03  0.73732256318E+03  0.51610237348E+03  0.91574537563E+03  0.50400001928E-02 0.  1.
       -1    1    3    3    0  502  0.16906617306E+03 -0.73732256318E+03 -0.98556456207E+03  0.12424030904E+04  0.50400001928E-02 0. -1.
</event>
<event>
 5   0  0.4027923E-05  0.2171408E+04  0.7818609E-02  0.8530424E-01
       -2   -1    0    0    0  501  0.00000000000E+00  0.00000000000E+00  0.52392726845E+03  0.52392726846E+03  0.25500000920E-02 0.  1.
        2   -1    0    0  501    0  0.00000000000E+00  0.00000000000E+00 -0.22498411034E+04  0.22498411034E+04  0.25500000920E-02 0. -1.
    10030    2    1    2    0    0  0.00000000000E+00  0.00000000000E+00 -0.17259138349E+04  0.27737683718E+04  0.21714079338E+04 0.  0.
        5    1    3    3  502    0  0.58819024636E+03  0.36682985586E+03  0.20442149554E+03  0.72273241723E+03  0.46999998093E+01 0.  1.
       -5    1    3    3    0  502 -0.58819024636E+03 -0.36682985586E+03 -0.19303353304E+04  0.20510359546E+04  0.46999998093E+01 0. -1.
</event>
<event>
 5   0  0.4143281E-05  0.2212121E+04  0.7818609E-02  0.8513400E-01
       -2   -1    0    0    0  501  0.00000000000E+00  0.00000000000E+00  0.87891889776E+03  0.87891889776E+03  0.25500000920E-02 0.  1.
        2   -1    0    0  501    0  0.00000000000E+00  0.00000000000E+00 -0.13919029674E+04  0.13919029674E+04  0.25500000920E-02 0. -1.
    10030    2    1    2    0    0  0.00000000000E+00  0.00000000000E+00 -0.51298406962E+03  0.22708218651E+04  0.22121209930E+04 0.  0.
        2    1    3    3  502    0  0.90495170067E+03 -0.63459413780E+03 -0.29909663818E+03  0.11450354140E+04  0.25500000920E-02 0. -1.
       -2    1    3    3    0  502 -0.90495170067E+03  0.63459413780E+03 -0.21388743145E+03  0.11257864512E+04  0.25500000920E-02 0.  1.
</event>
<event>
 5   0  0.1815681E-05  0.2183681E+04  0.7818609E-02  0.8525251E-01
        1   -1    0    0  501    0  0.00000000000E+00  0.00000000000E+00  0.13455959549E+04  0.13455959550E+04  0.50400001928E-02 0. -1.
       -1   -1    0    0    0  501  0.00000000000E+00  0.00000000000E+00 -0.88593850823E+03  0.88593850824E+03  0.50400001928E-02 0.  1.
    10030    2    1    2    0    0  0.00000000000E+00  0.00000000000E+00  0.45965744672E+03  0.22315344632E+04  0.21836806296E+04 0.  0.
        2    1    3    3  502    0 -0.29237836124E+03 -0.27129272683E+03  0.12684830453E+04  0.13297120313E+04  0.25500000920E-02 0. -1.
       -2    1    3    3    0  502  0.29237836124E+03  0.27129272683E+03 -0.80882559862E+03  0.90182243194E+03  0.25500000920E-02 0.  1.
</event>
<event>
 5   0  0.1788413E-05  0.2143053E+04  0.7818609E-02  0.8542512E-01
        1   -1    0    0  501    0  0.00000000000E+00  0.00000000000E+00  0.31634844596E+04  0.31634844596E+04  0.50400001928E-02 0.  1.
       -1   -1    0    0    0  501  0.00000000000E+00  0.00000000000E+00 -0.36294426127E+03  0.36294426131E+03  0.50400001928E-02 0. -1.
    10030    2    1    2    0    0  0.00000000000E+00  0.00000000000E+00  0.28005401983E+04  0.35264287209E+04  0.21430525241E+04 0.  0.
        1    1    3    3  502    0 -0.51143615588E+02 -0.98631356610E+03  0.20841766344E+04  0.23063439387E+04  0.50400001928E-02 0.  1.
       -1    1    3    3    0  502  0.51143615588E+02  0.98631356610E+03  0.71636356394E+03  0.12200847822E+04  0.50400001928E-02 0. -1.
</event>
<event>
 5   0  0.1884407E-05  0.2189887E+04  0.7818609E-02  0.8522649E-01
       -1   -1    0    0    0  501  0.00000000000E+00  0.00000000000E+00  0.65325343508E+03  0.65325343510E+03  0.50400001928E-02 0.  1.
        1   -1    0    0  501    0  0.00000000000E+00  0.00000000000E+00 -0.18352781096E+04  0.18352781096E+04  0.50400001928E-02 0. -1.
    10030    2    1    2    0    0  0.00000000000E+00  0.00000000000E+00 -0.11820246745E+04  0.24885315447E+04  0.21898874213E+04 0.  0.
        3    1    3    3  502    0 -0.11772834247E+02 -0.22780949380E+03 -0.18079762259E+04  0.18223100199E+04  0.10100000352E+00 0. -1.
       -3    1    3    3    0  502  0.11772834247E+02  0.22780949380E+03  0.62595155143E+03  0.66622152474E+03  0.10100000352E+00 0.  1.
</event>
<event>
 5   0  0.1788413E-05  0.2212673E+04  0.7818609E-02  0.8513172E-01
       -1   -1    0    0    0  501  0.00000000000E+00  0.00000000000E+00  0.66426027575E+03  0.66426027577E+03  0.50400001928E-02 0. -1.
        1   -1    0    0  501    0  0.00000000000E+00  0.00000000000E+00 -0.18426218909E+04  0.18426218909E+04  0.50400001928E-02 0.  1.
    10030    2    1    2    0    0  0.00000000000E+00  0.00000000000E+00 -0.11783616151E+04  0.25068821666E+04  0.22126730670E+04 0.  0.
        1    1    3    3  502    0  0.35049726423E+03 -0.96485269982E+03 -0.12178420179E+03  0.10337410007E+04  0.50400001928E-02 0. -1.
       -1    1    3    3    0  502 -0.35049726423E+03  0.96485269982E+03 -0.10565774133E+04  0.14731411660E+04  0.50400001928E-02 0.  1.
</event>
<event>
 5   0  0.1866935E-05  0.2199620E+04  0.7818609E-02  0.8518586E-01
        1   -1    0    0  501    0  0.00000000000E+00  0.00000000000E+00  0.13066028219E+04  0.13066028219E+04  0.50400001928E-02 0.  1.
       -1   -1    0    0    0  501  0.00000000000E+00  0.00000000000E+00 -0.92574606970E+03  0.92574606971E+03  0.50400001928E-02 0. -1.
    10030    2    1    2    0    0  0.00000000000E+00  0.00000000000E+00  0.38085675219E+03  0.22323488916E+04  0.21996203555E+04 0.  0.
        4    1    3    3  502    0 -0.65072554112E+03 -0.85093602698E+03 -0.62366113725E+02  0.10730456640E+04  0.12699999809E+01 0. -1.
       -4    1    3    3    0  502  0.65072554112E+03  0.85093602698E+03  0.44322286591E+03  0.11593032277E+04  0.12699999809E+01 0.  1.
</event>
<event>
 5   0  0.1866935E-05  0.2206418E+04  0.7818609E-02  0.8515762E-01
       -1   -1    0    0    0  501  0.00000000000E+00  0.00000000000E+00  0.85327833103E+03  0.85327833105E+03  0.50400001928E-02 0.  1.
        1   -1    0    0  501    0  0.00000000000E+00  0.00000000000E+00 -0.14263459290E+04  0.14263459290E+04  0.50400001928E-02 0. -1.
    10030    2    1    2    0    0  0.00000000000E+00  0.00000000000E+00 -0.57306759798E+03  0.22796242601E+04  0.22064179784E+04 0.  0.
        4    1    3    3  502    0 -0.27804827148E+03 -0.14490009480E+03  0.80627518025E+03  0.86509430580E+03  0.12699999809E+01 0.  1.
       -4    1    3    3    0  502  0.27804827148E+03  0.14490009480E+03 -0.13793427782E+04  0.14145299543E+04  0.12699999809E+01 0. -1.
</event>
<event>
 5   0  0.1884407E-05  0.2200587E+04  0.7818609E-02  0.8518184E-01
       -1   -1    0    0    0  501  0.00000000000E+00  0.00000000000E+00  0.13369677311E+04  0.13369677311E+04  0.50400001928E-02 0.  1.
        1   -1    0    0  501    0  0.00000000000E+00  0.00000000000E+00 -0.90551583869E+03  0.90551583870E+03  0.50400001928E-02 0. -1.
    10030    2    1    2    0    0  0.00000000000E+00  0.00000000000E+00  0.43145189237E+03  0.22424835698E+04  0.22005867002E+04 0.  0.
        3    1    3    3  502    0  0.74625227075E+03 -0.53000157672E+02  0.10378977764E+04  0.12794269314E+04  0.10100000352E+00 0.  1.
       -3    1    3    3    0  502 -0.74625227075E+03  0.53000157672E+02 -0.60644588401E+03  0.96305663839E+03  0.10100000352E+00 0. -1.
</event>
<event>
 5   0  0.4143281E-05  0.2192205E+04  0.7818609E-02  0.8521680E-01
        2   -1    0    0  501    0  0.00000000000E+00  0.00000000000E+00  0.16545712301E+04  0.16545712301E+04  0.25500000920E-02 0.  1.
       -2   -1    0    0    0  501  0.00000000000E+00  0.00000000000E+00 -0.72613389889E+03  0.72613389890E+03  0.25500000920E-02 0. -1.
    10030    2    1    2    0    0  0.00000000000E+00  0.00000000000E+00  0.92843733116E+03  0.23807051290E+04  0.21922046057E+04 0.  0.
        2    1    3    3  502    0  0.31021445117E+03 -0.59986429393E+03  0.14018033404E+04  0.15559957525E+04  0.25500000920E-02 0.  1.
       -2    1    3    3    0  502 -0.31021445117E+03  0.59986429393E+03 -0.47336600921E+03  0.82470937641E+03  0.25500000920E-02 0. -1.
</event>
<event>
 5   0  0.1786228E-05  0.1951399E+04  0.7818609E-02  0.8629687E-01
        1   -1    0    0  501    0  0.00000000000E+00  0.00000000000E+00  0.11042651258E+04  0.11042651258E+04  0.50400001928E-02 0.  1.
       -1   -1    0    0    0  501  0.00000000000E+00  0.00000000000E+00 -0.86210215343E+03  0.86210215345E+03  0.50400001928E-02 0. -1.
    10030    2    1    2    0    0  0.00000000000E+00  0.00000000000E+00  0.24216297239E+03  0.19663672793E+04  0.19513988244E+04 0.  0.
        5    1    3    3  502    0 -0.25844265259E+03  0.75968303408E+03 -0.43820415894E+03  0.91430623527E+03  0.46999998093E+01 0. -1.
       -5    1    3    3    0  502  0.25844265259E+03 -0.75968303408E+03  0.68036713133E+03  0.10520610440E+04  0.46999998093E+01 0.  1.
</event>
<event>
 5   0  0.3963414E-05  0.2164892E+04  0.7818609E-02  0.8533185E-01
       -2   -1    0    0    0  501  0.00000000000E+00  0.00000000000E+00  0.11146939150E+04  0.11146939151E+04  0.25500000920E-02 0.  1.
        2   -1    0    0  501    0  0.00000000000E+00  0.00000000000E+00 -0.10511307886E+04  0.10511307886E+04  0.25500000920E-02 0. -1.
    10030    2    1    2    0    0  0.00000000000E+00  0.00000000000E+00  0.63563126419E+02  0.21658247037E+04  0.21648917701E+04 0.  0.
        1    1    3    3  502    0 -0.54427271529E+03 -0.82100131494E+03  0.48076572408E+03  0.10960892433E+04  0.50400001928E-02 0.  1.
       -1    1    3    3    0  502  0.54427271529E+03  0.82100131494E+03 -0.41720259766E+03  0.10697354604E+04  0.50400001928E-02 0. -1.
</event>
<event>
 5   0  0.1884407E-05  0.2192265E+04  0.7818609E-02  0.8521655E-01
        1   -1    0    0  501    0  0.00000000000E+00  0.00000000000E+00  0.82156784429E+03  0.82156784430E+03  0.50400001928E-02 0.  1.
       -1   -1    0    0    0  501  0.00000000000E+00  0.00000000000E+00 -0.14624552807E+04  0.14624552807E+04  0.50400001928E-02 0. -1.
    10030    2    1    2    0    0  0.00000000000E+00  0.00000000000E+00 -0.64088743641E+03  0.22840231250E+04  0.21922647945E+04 0.  0.
        3    1    3    3  502    0 -0.26051220888E+03  0.89184354414E+03  0.28549598451E+03  0.97198738961E+03  0.10100000352E+00 0.  1.
       -3    1    3    3    0  502  0.26051220888E+03 -0.89184354414E+03 -0.92638342092E+03  0.13120357354E+04  0.10100000352E+00 0. -1.
</event>
<event>
 5   0  0.3963414E-05  0.2176392E+04  0.7818609E-02  0.8528319E-01
        2   -1    0    0  501    0  0.00000000000E+00  0.00000000000E+00  0.16479726101E+04  0.16479726101E+04  0.25500000920E-02 0. -1.
       -2   -1    0    0    0  501  0.00000000000E+00  0.00000000000E+00 -0.71856230835E+03  0.71856230836E+03  0.25500000920E-02 0.  1.
    10030    2    1    2    0    0  0.00000000000E+00  0.00000000000E+00  0.92941030179E+03  0.23665349185E+04  0.21763924305E+04 0.  0.
        1    1    3    3  502    0  0.27855473584E+03  0.89530959846E+03 -0.13581129709E+03  0.94742636991E+03  0.50400001928E-02 0.  1.
       -1    1    3    3    0  502 -0.27855473584E+03 -0.89530959846E+03  0.10652215989E+04  0.14191085486E+04  0.50400001928E-02 0. -1.
</event>
<event>
 5   0  0.1788413E-05  0.2228033E+04  0.7818609E-02  0.8506850E-01
       -1   -1    0    0    0  501  0.00000000000E+00  0.00000000000E+00  0.14508645370E+04  0.14508645370E+04  0.50400001928E-02 0.  1.
        1   -1    0    0  501    0  0.00000000000E+00  0.00000000000E+00 -0.85537492759E+03  0.85537492760E+03  0.50400001928E-02 0. -1.
    10030    2    1    2    0    0  0.00000000000E+00  0.00000000000E+00  0.59548960938E+03  0.23062394646E+04  0.22280333465E+04 0.  0.
        1    1    3    3  502    0  0.49598094222E+03  0.84753905495E+03 -0.24675530056E+03  0.10125254185E+04  0.50400001928E-02 0. -1.
       -1    1    3    3    0  502 -0.49598094222E+03 -0.84753905495E+03  0.84224490994E+03  0.12937140461E+04  0.50400001928E-02 0.  1.
</event>
<event>
 5   0  0.4027923E-05  0.2202144E+04  0.7818609E-02  0.8517536E-01
       -2   -1    0    0    0  501  0.00000000000E+00  0.00000000000E+00  0.16120583272E+04  0.16120583272E+04  0.25500000920E-02 0.  1.
        2   -1    0    0  501    0  0.00000000000E+00  0.00000000000E+00 -0.75205674745E+03  0.75205674746E+03  0.25500000920E-02 0. -1.
    10030    2    1    2    0    0  0.00000000000E+00  0.00000000000E+00  0.86000157979E+03  0.23641150747E+04  0.22021438121E+04 0.  0.
        5    1    3    3  502    0 -0.96875061572E+03  0.49917499965E+03  0.26133419005E+03  0.11207011576E+04  0.46999998093E+01 0. -1.
       -5    1    3    3    0  502  0.96875061572E+03 -0.49917499965E+03  0.59866738974E+03  0.12434139171E+04  0.46999998093E+01 0.  1.
</event>
<event>
 5   0  0.1815681E-05  0.2201820E+04  0.7818609E-02  0.8517671E-01
        1   -1    0    0  501    0  0.00000000000E+00  0.00000000000E+00  0.85419604288E+03  0.85419604289E+03  0.50400001928E-02 0. -1.
       -1   -1    0    0    0  501  0.00000000000E+00  0.00000000000E+00 -0.14188813659E+04  0.14188813659E+04  0.50400001928E-02 0.  1.
    10030    2    1    2    0    0  0.00000000000E+00  0.00000000000E+00 -0.56468532305E+03  0.22730774088E+04  0.22018200182E+04 0.  0.
        2    1    3    3  502    0  0.31527451478E+03 -0.10314524977E+04 -0.54495285731E+02  0.10799361142E+04  0.25500000920E-02 0. -1.
       -2    1    3    3    0  502 -0.31527451478E+03  0.10314524977E+04 -0.51019003732E+03  0.11931412946E+04  0.25500000920E-02 0.  1.
</event>
<event>
 5   0  0.4029532E-05  0.2147413E+04  0.7818609E-02  0.8540640E-01
        2   -1    0    0  501    0  0.00000000000E+00  0.00000000000E+00  0.18957338462E+04  0.18957338462E+04  0.25500000920E-02 0.  1.
       -2   -1    0    0    0  501  0.00000000000E+00  0.00000000000E+00 -0.60812641326E+03  0.60812641327E+03  0.25500000920E-02 0. -1.
    10030    2    1    2    0    0  0.00000000000E+00  0.00000000000E+00  0.12876074329E+04  0.25038602594E+04  0.21474131641E+04 0.  0.
        3    1    3    3  502    0 -0.63092933369E+03  0.62573809306E+03  0.13465245640E+04  0.16133035663E+04  0.10100000352E+00 0.  1.
       -3    1    3    3    0  502  0.63092933369E+03 -0.62573809306E+03 -0.58917131111E+02  0.89055669317E+03  0.10100000352E+00 0. -1.
</event>
<event>
 5   0  0.4143281E-05  0.2210249E+04  0.7818609E-02  0.8514174E-01
        2   -1    0    0  501    0  0.00000000000E+00  0.00000000000E+00  0.13648817594E+04  0.13648817594E+04  0.25500000920E-02 0.  1.
       -2   -1    0    0    0  501  0.00000000000E+00  0.00000000000E+00 -0.89480273458E+03  0.89480273459E+03  0.25500000920E-02 0. -1.
    10030    2    1    2    0    0  0.00000000000E+00  0.00000000000E+00  0.47007902484E+03  0.22596844940E+04  0.22102487921E+04 0.  0.
        2    1    3    3  502    0 -0.96751402829E+03 -0.37633939920E+03  0.62244116663E+03  0.12104328747E+04  0.25500000920E-02 0.  1.
       -2    1    3    3    0  502  0.96751402829E+03  0.37633939920E+03 -0.15236214178E+03  0.10492516193E+04  0.25500000920E-02 0. -1.
</event>
<event>
 5   0  0.1815681E-05  0.2194910E+04  0.7818609E-02  0.8520550E-01
        1   -1    0    0  501    0  0.00000000000E+00  0.00000000000E+00  0.11547269347E+04  0.11547269348E+04  0.50400001928E-02 0.  1.
       -1   -1    0    0    0  501  0.00000000000E+00  0.00000000000E+00 -0.10430234172E+04  0.10430234172E+04  0.50400001928E-02 0. -1.
    10030    2    1    2    0    0  0.00000000000E+00  0.00000000000E+00  0.11170351753E+03  0.21977503520E+04  0.21949097781E+04 0.  0.
        2    1    3    3  502    0 -0.83751270435E+03  0.69293506968E+03 -0.95408938025E+02  0.10911871545E+04  0.25500000920E-02 0. -1.
       -2    1    3    3    0  502  0.83751270435E+03 -0.69293506968E+03  0.20711245555E+03  0.11065631975E+04  0.25500000920E-02 0.  1.
</event>
<event>
 5   0  0.4027923E-05  0.2192336E+04  0.7818609E-02  0.8521625E-01
       -2   -1    0    0    0  501  0.00000000000E+00  0.00000000000E+00  0.78382674934E+03  0.78382674934E+03  0.25500000920E-02 0. -1.
        2   -1    0    0  501    0  0.00000000000E+00  0.00000000000E+00 -0.15329722256E+04  0.15329722256E+04  0.25500000920E-02 0.  1.
    10030    2    1    2    0    0  0.00000000000E+00  0.00000000000E+00 -0.74914547623E+03  0.23167989749E+04  0.21923363213E+04 0.  0.
        5    1    3    3  502    0 -0.37198743898E+03  0.42023000812E+03  0.62047455370E+03  0.83664728307E+03  0.46999998093E+01 0. -1.
       -5    1    3    3    0  502  0.37198743898E+03 -0.42023000812E+03 -0.13696200299E+04  0.14801516918E+04  0.46999998093E+01 0.  1.
</event>
<event>
 5   0  0.4027923E-05  0.2200991E+04  0.7818609E-02  0.8518016E-01
        2   -1    0    0  501    0  0.00000000000E+00  0.00000000000E+00  0.72496105509E+03  0.72496105510E+03  0.25500000920E-02 0. -1.
       -2   -1    0    0    0  501  0.00000000000E+00  0.00000000000E+00 -0.16705592913E+04  0.16705592913E+04  0.25500000920E-02 0.  1.
    10030    2    1    2    0    0  0.00000000000E+00  0.00000000000E+00 -0.94559823616E+03  0.23955203464E+04  0.22009910735E+04 0.  0.
        5    1    3    3  502    0  0.90342928189E+03  0.60196336102E+03 -0.66908245477E+03  0.12752402819E+04  0.46999998093E+01 0. -1.
       -5    1    3    3    0  502 -0.90342928189E+03 -0.60196336102E+03 -0.27651578139E+03  0.11202800644E+04  0.46999998093E+01 0.  1.
</event>
<event>
 5   0  0.4029532E-05  0.2147533E+04  0.7818609E-02  0.8540589E-01
        2   -1    0    0  501    0  0.00000000000E+00  0.00000000000E+00  0.76932820038E+03  0.76932820038E+03  0.25500000920E-02 0. -1.
       -2   -1    0    0    0  501  0.00000000000E+00  0.00000000000E+00 -0.14986772137E+04  0.14986772137E+04  0.25500000920E-02 0.  1.
    10030    2    1    2    0    0  0.00000000000E+00  0.00000000000E+00 -0.72934901334E+03  0.22680054141E+04  0.21475331371E+04 0.  0.
        3    1    3    3  502    0  0.83479768225E+02 -0.12105320871E+03  0.75864439075E+03  0.77276391793E+03  0.10100000352E+00 0. -1.
       -3    1    3    3    0  502 -0.83479768225E+02  0.12105320871E+03 -0.14879934041E+04  0.14952414962E+04  0.10100000352E+00 0.  1.
</event>
<event>
 5   0  0.3963414E-05  0.2230160E+04  0.7818609E-02  0.8505979E-01
        2   -1    0    0  501    0  0.00000000000E+00  0.00000000000E+00  0.11025319641E+04  0.11025319641E+04  0.25500000920E-02 0.  1.
       -2   -1    0    0    0  501  0.00000000000E+00  0.00000000000E+00 -0.11277704869E+04  0.11277704869E+04  0.25500000920E-02 0. -1.
    10030    2    1    2    0    0  0.00000000000E+00  0.00000000000E+00 -0.25238522772E+02  0.22303024510E+04  0.22301596444E+04 0.  0.
        1    1    3    3  502    0  0.51963199350E+03 -0.97224779192E+03 -0.18031968987E+03  0.11170489551E+04  0.50400001928E-02 0. -1.
       -1    1    3    3    0  502 -0.51963199350E+03  0.97224779192E+03  0.15508116710E+03  0.11132534958E+04  0.50400001928E-02 0.  1.
</event>
<event>
 5   0  0.1786228E-05  0.2209301E+04  0.7818609E-02  0.8514567E-01
        1   -1    0    0  501    0  0.00000000000E+00  0.00000000000E+00  0.93437758160E+03  0.93437758161E+03  0.50400001928E-02 0. -1.
       -1   -1    0    0    0  501  0.00000000000E+00  0.00000000000E+00 -0.13059529654E+04  0.13059529655E+04  0.50400001928E-02 0.  1.
    10030    2    1    2    0    0  0.00000000000E+00  0.00000000000E+00 -0.37157538384E+03  0.22403305471E+04  0.22093014041E+04 0.  0.
        5    1    3    3  502    0  0.44926524444E+03  0.86479252150E+03  0.34163815818E+03  0.10326877971E+04  0.46999998093E+01 0. -1.
       -5    1    3    3    0  502 -0.44926524444E+03 -0.86479252150E+03 -0.71321354202E+03  0.12076427500E+04  0.46999998093E+01 0.  1.
</event>
<event>
 5   0  0.1788413E-05  0.2197234E+04  0.7818609E-02  0.8519580E-01
        1   -1    0    0  501    0  0.00000000000E+00  0.00000000000E+00  0.10286463273E+04  0.10286463273E+04  0.50400001928E-02 0.  1.
       -1   -1    0    0    0  501  0.00000000000E+00  0.00000000000E+00 -0.11733471875E+04  0.11733471875E+04  0.50400001928E-02 0. -1.
    10030    2    1    2    0    0  0.00000000000E+00  0.00000000000E+00 -0.14470086018E+03  0.22019935148E+04  0.21972339657E+04 0.  0.
        1    1    3    3  502    0  0.44238094283E+03 -0.60349215796E+03  0.73378967752E+03  0.10480224111E+04  0.50400001928E-02 0.  1.
       -1    1    3    3    0  502 -0.44238094283E+03  0.60349215796E+03 -0.87849053770E+03  0.11539711037E+04  0.50400001928E-02 0. -1.
</event>
<event>
 5   0  0.4143281E-05  0.2204209E+04  0.7818609E-02  0.8516678E-01
        2   -1    0    0  501    0  0.00000000000E+00  0.00000000000E+00  0.11933876349E+04  0.11933876349E+04  0.25500000920E-02 0. -1.
       -2   -1    0    0    0  501  0.00000000000E+00  0.00000000000E+00 -0.10178033146E+04  0.10178033146E+04  0.25500000920E-02 0.  1.
    10030    2    1    2    0    0  0.00000000000E+00  0.00000000000E+00  0.17558432030E+03  0.22111909496E+04  0.22042086022E+04 0.  0.
        2    1    3    3  502    0  0.90199266754E+02 -0.33826937030E+03  0.11361249132E+04  0.11888405667E+04  0.25500000920E-02 0. -1.
       -2    1    3    3    0  502 -0.90199266754E+02  0.33826937030E+03 -0.96054059293E+03  0.10223503828E+04  0.25500000920E-02 0.  1.
</event>
<event>
 5   0  0.1815681E-05  0.2180214E+04  0.7818609E-02  0.8526709E-01
       -1   -1    0    0    0  501  0.00000000000E+00  0.00000000000E+00  0.14744636784E+04  0.14744636784E+04  0.50400001928E-02 0.  1.
        1   -1    0    0  501    0  0.00000000000E+00  0.00000000000E+00 -0.80594293173E+03  0.80594293175E+03  0.50400001928E-02 0. -1.
    10030    2    1    2    0    0  0.00000000000E+00  0.00000000000E+00  0.66852074662E+03  0.22804066101E+04  0.21802142828E+04 0.  0.
        2    1    3    3  502    0 -0.34497454672E+03 -0.42350385686E+03 -0.65247556685E+03  0.85093320537E+03  0.25500000920E-02 0. -1.
       -2    1    3    3    0  502  0.34497454672E+03  0.42350385686E+03  0.13209963135E+04  0.14294734047E+04  0.25500000920E-02 0.  1.
</event>
<event>
 5   0  0.3963414E-05  0.2199888E+04  0.7818609E-02  0.8518475E-01
       -2   -1    0    0    0  501  0.00000000000E+00  0.00000000000E+00  0.14873194429E+04  0.14873194429E+04  0.25500000920E-02 0.  1.
        2   -1    0    0  501    0  0.00000000000E+00  0.00000000000E+00 -0.81346104040E+03  0.81346104041E+03  0.25500000920E-02 0. -1.
    10030    2    1    2    0    0  0.00000000000E+00  0.00000000000E+00  0.67385840252E+03  0.23007804833E+04  0.21998876530E+04 0.  0.
        1    1    3    3  502    0  0.64907011259E+03  0.72525837333E+02 -0.58871804524E+03  0.87928433680E+03  0.50400001928E-02 0. -1.
       -1    1    3    3    0  502 -0.64907011259E+03 -0.72525837333E+02  0.12625764478E+04  0.14214961465E+04  0.50400001928E-02 0.  1.
</event>
<event>
 5   0  0.4027923E-05  0.2203992E+04  0.7818609E-02  0.8516768E-01
       -2   -1    0    0    0  501  0.00000000000E+00  0.00000000000E+00  0.83573475325E+03  0.83573475325E+03  0.25500000920E-02 0.  1.
        2   -1    0    0  501    0  0.00000000000E+00  0.00000000000E+00 -0.14530869004E+04  0.14530869004E+04  0.25500000920E-02 0. -1.
    10030    2    1    2    0    0  0.00000000000E+00  0.00000000000E+00 -0.61735214712E+03  0.22888216536E+04  0.22039920346E+04 0.  0.
        5    1    3    3  502    0 -0.31890666763E+03 -0.60433564284E+03  0.58915169861E+03  0.90224433821E+03  0.46999998093E+01 0.  1.
       -5    1    3    3    0  502  0.31890666763E+03  0.60433564284E+03 -0.12065038457E+04  0.13865773154E+04  0.46999998093E+01 0. -1.
</event>
<event>
 5   0  0.1884407E-05  0.2206628E+04  0.7818609E-02  0.8515675E-01
       -1   -1    0    0    0  501  0.00000000000E+00  0.00000000000E+00  0.88270043065E+03  0.88270043067E+03  0.50400001928E-02 0. -1.
        1   -1    0    0  501    0  0.00000000000E+00  0.00000000000E+00 -0.13790651003E+04  0.13790651003E+04  0.50400001928E-02 0.  1.
    10030    2    1    2    0    0  0.00000000000E+00  0.00000000000E+00 -0.49636466963E+03  0.22617655310E+04  0.22066276151E+04 0.  0.
        3    1    3    3  502    0 -0.79845165378E+03 -0.11656434816E+03  0.52307493014E+03  0.96162346239E+03  0.10100000352E+00 0. -1.
       -3    1    3    3    0  502  0.79845165378E+03  0.11656434816E+03 -0.10194395998E+04  0.13001420686E+04  0.10100000352E+00 0.  1.
</event>
<event>
 5   0  0.1786228E-05  0.2086382E+04  0.7818609E-02  0.8567266E-01
        1   -1    0    0  501    0  0.00000000000E+00  0.00000000000E+00  0.98445973922E+03  0.98445973923E+03  0.50400001928E-02 0. -1.
       -1   -1    0    0    0  501  0.00000000000E+00  0.00000000000E+00 -0.11054258087E+04  0.11054258087E+04  0.50400001928E-02 0.  1.
    10030    2    1    2    0    0  0.00000000000E+00  0.00000000000E+00 -0.12096606945E+03  0.20898855479E+04  0.20863817516E+04 0.  0.
        5    1    3    3  502    0 -0.35988759223E+03  0.51284422865E+03 -0.89596819389E+03  0.10933020518E+04  0.46999998093E+01 0.  1.
       -5    1    3    3    0  502  0.35988759223E+03 -0.51284422865E+03  0.77500212445E+03  0.99658349615E+03  0.46999998093E+01 0. -1.
</event>
<event>
 5   0  0.3963414E-05  0.2199515E+04  0.7818609E-02  0.8518630E-01
       -2   -1    0    0    0  501  0.00000000000E+00  0.00000000000E+00  0.61201874769E+03  0.61201874769E+03  0.25500000920E-02 0. -1.
        2   -1    0    0  501    0  0.00000000000E+00  0.00000000000E+00 -0.19761917007E+04  0.19761917007E+04  0.25500000920E-02 0.  1.
    10030    2    1    2    0    0  0.00000000000E+00  0.00000000000E+00 -0.13641729530E+04  0.25882104484E+04  0.21995148282E+04 0.  0.
        1    1    3    3  502    0  0.52512021120E+03 -0.40471535070E+03  0.35042685309E+03  0.74989647999E+03  0.50400001928E-02 0. -1.
       -1    1    3    3    0  502 -0.52512021120E+03  0.40471535070E+03 -0.17145998061E+04  0.18383139684E+04  0.50400001928E-02 0.  1.
</event>
<event>
 5   0  0.4132460E-05  0.2186506E+04  0.7818609E-02  0.8524066E-01
        2   -1    0    0  501    0  0.00000000000E+00  0.00000000000E+00  0.26186329246E+04  0.26186329246E+04  0.25500000920E-02 0.  1.
       -2   -1    0    0    0  501  0.00000000000E+00  0.00000000000E+00 -0.45642214986E+03  0.45642214986E+03  0.25500000920E-02 0. -1.
    10030    2    1    2    0    0  0.00000000000E+00  0.00000000000E+00  0.21622107748E+04  0.30750550745E+04  0.21865059517E+04 0.  0.
        4    1    3    3  502    0 -0.77653221781E+03 -0.59884014820E+03  0.17608223389E+04  0.20154673727E+04  0.12699999809E+01 0.  1.
       -4    1    3    3    0  502  0.77653221781E+03  0.59884014820E+03  0.40138843585E+03  0.10595877018E+04  0.12699999809E+01 0. -1.
</event>
<event>
 5   0  0.1433375E-05  0.2193105E+04  0.7818609E-02  0.8521304E-01
       -4   -1    0    0    0  501  0.00000000000E+00  0.00000000000E+00  0.11785456080E+04  0.11785462922E+04  0.12699999809E+01 0. -1.
        4   -1    0    0  501    0  0.00000000000E+00  0.00000000000E+00 -0.10202619600E+04  0.10202627504E+04  0.12699999809E+01 0.  1.
    10030    2    1    2    0    0  0.00000000000E+00  0.00000000000E+00  0.15828364794E+03  0.21988090427E+04  0.21931045331E+04 0.  0.
        5    1    3    3  502    0 -0.63789532641E+03  0.30416942970E+03  0.91975890942E+03  0.11599172517E+04  0.46999998093E+01 0. -1.
       -5    1    3    3    0  502  0.63789532641E+03 -0.30416942970E+03 -0.76147526148E+03  0.10388917909E+04  0.46999998093E+01 0.  1.
</event>
<event>
 5   0  0.1866935E-05  0.2226821E+04  0.7818609E-02  0.8507347E-01
       -1   -1    0    0    0  501  0.00000000000E+00  0.00000000000E+00  0.99100442666E+03  0.99100442667E+03  0.50400001928E-02 0. -1.
        1   -1    0    0  501    0  0.00000000000E+00  0.00000000000E+00 -0.12509359909E+04  0.12509359909E+04  0.50400001928E-02 0.  1.
    10030    2    1    2    0    0  0.00000000000E+00  0.00000000000E+00 -0.25993156426E+03  0.22419404176E+04  0.22268211464E+04 0.  0.
        4    1    3    3  502    0  0.33659481973E+03  0.28268700171E+03 -0.11598842428E+04  0.12403794109E+04  0.12699999809E+01 0.  1.
       -4    1    3    3    0  502 -0.33659481973E+03 -0.28268700171E+03  0.89995267849E+03  0.10015610066E+04  0.12699999809E+01 0. -1.
</event>
<event>
 5   0  0.4029532E-05  0.2192140E+04  0.7818609E-02  0.8521707E-01
       -2   -1    0    0    0  501  0.00000000000E+00  0.00000000000E+00  0.83516160293E+03  0.83516160293E+03  0.25500000920E-02 0. -1.
        2   -1    0    0  501    0  0.00000000000E+00  0.00000000000E+00 -0.14384874274E+04  0.14384874274E+04  0.25500000920E-02 0.  1.
    10030    2    1    2    0    0  0.00000000000E+00  0.00000000000E+00 -0.60332582452E+03  0.22736490304E+04  0.21921400190E+04 0.  0.
        3    1    3    3  502    0  0.39133305912E+03  0.76677116878E+03  0.40201001539E+03  0.95010086365E+03  0.10100000352E+00 0. -1.
       -3    1    3    3    0  502 -0.39133305912E+03 -0.76677116878E+03 -0.10053358399E+04  0.13235481667E+04  0.10100000352E+00 0.  1.
</event>
<event>
 5   0  0.1788413E-05  0.2233761E+04  0.7818609E-02  0.8504506E-01
        1   -1    0    0  501    0  0.00000000000E+00  0.00000000000E+00  0.94178491267E+03  0.94178491269E+03  0.50400001928E-02 0.  1.
       -1   -1    0    0    0  501  0.00000000000E+00  0.00000000000E+00 -0.13245293085E+04  0.13245293085E+04  0.50400001928E-02 0. -1.
    10030    2    1    2    0    0  0.00000000000E+00  0.00000000000E+00 -0.38274439579E+03  0.22663142212E+04  0.22337607026E+04 0.  0.
        1    1    3    3  502    0 -0.73978797440E+03  0.44028204954E+03 -0.91328035104E+03  0.12550759060E+04  0.50400001928E-02 0. -1.
       -1    1    3    3    0  502  0.73978797440E+03 -0.44028204954E+03  0.53053595525E+03  0.10112383152E+04  0.50400001928E-02 0.  1.
</event>
<event>
 5   0  0.4027923E-05  0.2193718E+04  0.7818609E-02  0.8521047E-01
        2   -1    0    0  501    0  0.00000000000E+00  0.00000000000E+00  0.15287917411E+04  0.15287917411E+04  0.25500000920E-02 0. -1.
       -2   -1    0    0    0  501  0.00000000000E+00  0.00000000000E+00 -0.78696120754E+03  0.78696120754E+03  0.25500000920E-02 0.  1.
    10030    2    1    2    0    0  0.00000000000E+00  0.00000000000E+00  0.74183053360E+03  0.23157529487E+04  0.21937181174E+04 0.  0.
        5    1    3    3  502    0 -0.19051021169E+02 -0.25857493080E+03  0.14959673168E+04  0.15182767334E+04  0.46999998093E+01 0. -1.
       -5    1    3    3    0  502  0.19051021169E+02  0.25857493080E+03 -0.75413678318E+03  0.79747621531E+03  0.46999998093E+01 0.  1.
</event>
<event>
 5   0  0.1815681E-05  0.2194989E+04  0.7818609E-02  0.8520516E-01
        1   -1    0    0  501    0  0.00000000000E+00  0.00000000000E+00  0.11360637217E+04  0.11360637217E+04  0.50400001928E-02 0.  1.
       -1   -1    0    0    0  501  0.00000000000E+00  0.00000000000E+00 -0.10602351381E+04  0.10602351381E+04  0.50400001928E-02 0. -1.
    10030    2    1    2    0    0  0.00000000000E+00  0.00000000000E+00  0.75828583624E+02  0.21962988598E+04  0.21949894550E+04 0.  0.
        2    1    3    3  502    0  0.80550227489E+03 -0.68105147318E+03  0.34112914340E+03  0.11086181112E+04  0.25500000920E-02 0. -1.
       -2    1    3    3    0  502 -0.80550227489E+03  0.68105147318E+03 -0.26530055977E+03  0.10876807487E+04  0.25500000920E-02 0.  1.
</event>
<event>
 5   0  0.3963414E-05  0.2213171E+04  0.7818609E-02  0.8512966E-01
        2   -1    0    0  501    0  0.00000000000E+00  0.00000000000E+00  0.10571685679E+04  0.10571685679E+04  0.25500000920E-02 0.  1.
       -2   -1    0    0    0  501  0.00000000000E+00  0.00000000000E+00 -0.11583128564E+04  0.11583128564E+04  0.25500000920E-02 0. -1.
    10030    2    1    2    0    0  0.00000000000E+00  0.00000000000E+00 -0.10114428844E+03  0.22154814243E+04  0.22131714291E+04 0.  0.
        1    1    3    3  502    0 -0.27706993872E+03 -0.10031013633E+03  0.10171723286E+04  0.10589945328E+04  0.50400001928E-02 0.  1.
       -1    1    3    3    0  502  0.27706993872E+03  0.10031013633E+03 -0.11183166170E+04  0.11564868915E+04  0.50400001928E-02 0. -1.
</event>
<event>
 5   0  0.4143281E-05  0.2211039E+04  0.7818609E-02  0.8513848E-01
        2   -1    0    0  501    0  0.00000000000E+00  0.00000000000E+00  0.16755855718E+04  0.16755855718E+04  0.25500000920E-02 0.  1.
       -2   -1    0    0    0  501  0.00000000000E+00  0.00000000000E+00 -0.72940054030E+03  0.72940054030E+03  0.25500000920E-02 0. -1.
    10030    2    1    2    0    0  0.00000000000E+00  0.00000000000E+00  0.94618503154E+03  0.24049861121E+04  0.22110386893E+04 0.  0.
        2    1    3    3  502    0  0.17485549103E+03 -0.10915531296E+04  0.46166661715E+03  0.11979978059E+04  0.25500000920E-02 0.  1.
       -2    1    3    3    0  502 -0.17485549103E+03  0.10915531296E+04  0.48451841439E+03  0.12069883062E+04  0.25500000920E-02 0. -1.
</event>
<event>
 5   0  0.1433375E-05  0.2224759E+04  0.7818609E-02  0.8508193E-01
        3   -1    0    0  501    0  0.00000000000E+00  0.00000000000E+00  0.94412803321E+03  0.94412803862E+03  0.10100000352E+00 0.  1.
       -3   -1    0    0    0  501  0.00000000000E+00  0.00000000000E+00 -0.13106152418E+04  0.13106152457E+04  0.10100000352E+00 0. -1.
    10030    2    1    2    0    0  0.00000000000E+00  0.00000000000E+00 -0.36648720857E+03  0.22547432843E+04  0.22247594036E+04 0.  0.
        4    1    3    3  502    0  0.56273707379E+03  0.32854622005E+03 -0.10969322868E+04  0.12758831011E+04  0.12699999809E+01 0. -1.
       -4    1    3    3    0  502 -0.56273707379E+03 -0.32854622005E+03  0.73044507827E+03  0.97886018317E+03  0.12699999809E+01 0.  1.
</event>
<event>
 5   0  0.1866935E-05  0.2186819E+04  0.7818609E-02  0.8523934E-01
       -1   -1    0    0    0  501  0.00000000000E+00  0.00000000000E+00  0.14038076211E+04  0.14038076211E+04  0.50400001928E-02 0. -1.
        1   -1    0    0  501    0  0.00000000000E+00  0.00000000000E+00 -0.85164387165E+03  0.85164387166E+03  0.50400001928E-02 0.  1.
    10030    2    1    2    0    0  0.00000000000E+00  0.00000000000E+00  0.55216374949E+03  0.22554514928E+04  0.21868188380E+04 0.  0.
        4    1    3    3  502    0 -0.64277808501E+03  0.23843543481E+03  0.11545936775E+04  0.13427968187E+04  0.12699999809E+01 0. -1.
       -4    1    3    3    0  502  0.64277808501E+03 -0.23843543481E+03 -0.60242992803E+03  0.91265467414E+03  0.12699999809E+01 0.  1.
</event>
<event>
 5   0  0.1433375E-05  0.2194515E+04  0.7818609E-02  0.8520715E-01
       -3   -1    0    0    0  501  0.00000000000E+00  0.00000000000E+00  0.15990447029E+04  0.15990447061E+04  0.10100000352E+00 0.  1.
        3   -1    0    0  501    0  0.00000000000E+00  0.00000000000E+00 -0.75293314572E+03  0.75293315249E+03  0.10100000352E+00 0. -1.
    10030    2    1    2    0    0  0.00000000000E+00  0.00000000000E+00  0.84611155716E+03  0.23519778586E+04  0.21945147710E+04 0.  0.
        5    1    3    3  502    0 -0.75564448622E+03  0.56643371053E+03  0.10218060719E+04  0.13913861709E+04  0.46999998093E+01 0.  1.
       -5    1    3    3    0  502  0.75564448622E+03 -0.56643371053E+03 -0.17569451470E+03  0.96059168770E+03  0.46999998093E+01 0. -1.
</event>
<event>
 5   0  0.4132460E-05  0.2188217E+04  0.7818609E-02  0.8523348E-01
        2   -1    0    0  501    0  0.00000000000E+00  0.00000000000E+00  0.10230659457E+04  0.10230659457E+04  0.25500000920E-02 0. -1.
       -2   -1    0    0    0  501  0.00000000000E+00  0.00000000000E+00 -0.11700845452E+04  0.11700845452E+04  0.25500000920E-02 0.  1.
    10030    2    1    2    0    0  0.00000000000E+00  0.00000000000E+00 -0.14701859953E+03  0.21931504909E+04  0.21882172212E+04 0.  0.
        4    1    3    3  502    0 -0.12835268254E+03 -0.10794381603E+04  0.50911160190E+02  0.10882346770E+04  0.12699999809E+01 0. -1.
       -4    1    3    3    0  502  0.12835268254E+03  0.10794381603E+04 -0.19792975972E+03  0.11049158139E+04  0.12699999809E+01 0.  1.
</event>
<event>
 5   0  0.4027923E-05  0.2196732E+04  0.7818609E-02  0.8519789E-01
       -2   -1    0    0    0  501  0.00000000000E+00  0.00000000000E+00  0.96333759412E+03  0.96333759412E+03  0.25500000920E-02 0. -1.
        2   -1    0    0  501    0  0.00000000000E+00  0.00000000000E+00 -0.12523212010E+04  0.12523212010E+04  0.25500000920E-02 0.  1.
    10030    2    1    2    0    0  0.00000000000E+00  0.00000000000E+00 -0.28898360685E+03  0.22156587951E+04  0.21967322029E+04 0.  0.
        5    1    3    3  502    0 -0.93159957832E+03 -0.17056451452E+03  0.41655246580E+03  0.10346536013E+04  0.46999998093E+01 0. -1.
       -5    1    3    3    0  502  0.93159957832E+03  0.17056451452E+03 -0.70553607264E+03  0.11810051938E+04  0.46999998093E+01 0.  1.
</event>
<event>
 5   0  0.1788413E-05  0.2201504E+04  0.7818609E-02  0.8517803E-01
        1   -1    0    0  501    0  0.00000000000E+00  0.00000000000E+00  0.23683922881E+04  0.23683922881E+04  0.50400001928E-02 0.  1.
       -1   -1    0    0    0  501  0.00000000000E+00  0.00000000000E+00 -0.51159363656E+03  0.51159363658E+03  0.50400001928E-02 0. -1.
    10030    2    1    2    0    0  0.00000000000E+00  0.00000000000E+00  0.18567986515E+04  0.28799859247E+04  0.22015035076E+04 0.  0.
        1    1    3    3  502    0  0.10179693336E+04  0.39757141535E+03  0.11006131945E+04  0.15510235325E+04  0.50400001928E-02 0.  1.
       -1    1    3    3    0  502 -0.10179693336E+04 -0.39757141535E+03  0.75618545706E+03  0.13289623922E+04  0.50400001928E-02 0. -1.
</event>
<event>
 5   0  0.4132460E-05  0.2247698E+04  0.7818609E-02  0.8498833E-01
        2   -1    0    0  501    0  0.00000000000E+00  0.00000000000E+00  0.13207311252E+04  0.13207311252E+04  0.25500000920E-02 0.  1.
       -2   -1    0    0    0  501  0.00000000000E+00  0.00000000000E+00 -0.95631649590E+03  0.95631649590E+03  0.25500000920E-02 0. -1.
    10030    2    1    2    0    0  0.00000000000E+00  0.00000000000E+00  0.36441462932E+03  0.22770476211E+04  0.22476983443E+04 0.  0.
        4    1    3    3  502    0  0.30938419804E+03 -0.51508689884E+03 -0.77993186246E+03  0.98454477721E+03  0.12699999809E+01 0. -1.
       -4    1    3    3    0  502 -0.30938419804E+03  0.51508689884E+03  0.11443464918E+04  0.12925028439E+04  0.12699999809E+01 0.  1.
</event>
<event>
 5   0  0.1433375E-05  0.2211819E+04  0.7818609E-02  0.8513525E-01
        3   -1    0    0  501    0  0.00000000000E+00  0.00000000000E+00  0.31507694760E+04  0.31507694776E+04  0.10100000352E+00 0.  1.
       -3   -1    0    0    0  501  0.00000000000E+00  0.00000000000E+00 -0.38817068006E+03  0.38817069320E+03  0.10100000352E+00 0. -1.
    10030    2    1    2    0    0  0.00000000000E+00  0.00000000000E+00  0.27625987959E+04  0.35389401708E+04  0.22118194830E+04 0.  0.
        5    1    3    3  502    0  0.60248885421E+03 -0.82245071871E+03  0.20668751660E+04  0.23046503088E+04  0.46999998093E+01 0. -1.
       -5    1    3    3    0  502 -0.60248885421E+03  0.82245071871E+03  0.69572362993E+03  0.12342898620E+04  0.46999998093E+01 0.  1.
</event>
<event>
 5   0  0.1884407E-05  0.2187323E+04  0.7818609E-02  0.8523723E-01
        1   -1    0    0  501    0  0.00000000000E+00  0.00000000000E+00  0.17498056684E+04  0.17498056684E+04  0.50400001928E-02 0. -1.
       -1   -1    0    0    0  501  0.00000000000E+00  0.00000000000E+00 -0.68355913823E+03  0.68355913825E+03  0.50400001928E-02 0.  1.
    10030    2    1    2    0    0  0.00000000000E+00  0.00000000000E+00  0.10662465301E+04  0.24333648066E+04  0.21873231629E+04 0.  0.
        3    1    3    3  502    0  0.55918148274E+03 -0.84702965781E+03  0.98631933449E+03  0.14152628772E+04  0.10100000352E+00 0. -1.
       -3    1    3    3    0  502 -0.55918148274E+03  0.84702965781E+03  0.79927195643E+02  0.10181019294E+04  0.10100000352E+00 0.  1.
</event>
<event>
 5   0  0.1815681E-05  0.2200345E+04  0.7818609E-02  0.8518285E-01
       -1   -1    0    0    0  501  0.00000000000E+00  0.00000000000E+00  0.69135426355E+03  0.69135426357E+03  0.50400001928E-02 0.  1.
        1   -1    0    0  501    0  0.00000000000E+00  0.00000000000E+00 -0.17507371342E+04  0.17507371342E+04  0.50400001928E-02 0. -1.
    10030    2    1    2    0    0  0.00000000000E+00  0.00000000000E+00 -0.10593828706E+04  0.24420913978E+04  0.22003450476E+04 0.  0.
        2    1    3    3  502    0 -0.44933885274E+03 -0.23359264702E+03 -0.16136795434E+04  0.16912813480E+04  0.25500000920E-02 0. -1.
       -2    1    3    3    0  502  0.44933885274E+03  0.23359264702E+03  0.55429667278E+03  0.75081004974E+03  0.25500000920E-02 0.  1.
</event>
<event>
 5   0  0.1815681E-05  0.2196849E+04  0.7818609E-02  0.8519741E-01
        1   -1    0    0  501    0  0.00000000000E+00  0.00000000000E+00  0.15116495021E+04  0.15116495022E+04  0.50400001928E-02 0. -1.
       -1   -1    0    0    0  501  0.00000000000E+00  0.00000000000E+00 -0.79815906942E+03  0.79815906944E+03  0.50400001928E-02 0.  1.
    10030    2    1    2    0    0  0.00000000000E+00  0.00000000000E+00  0.71349043272E+03  0.23098085716E+04  0.21968493439E+04 0.  0.
        2    1    3    3  502    0  0.67385398202E+03 -0.14470855211E+03  0.12560107062E+04  0.14326837223E+04  0.25500000920E-02 0. -1.
       -2    1    3    3    0  502 -0.67385398202E+03  0.14470855211E+03 -0.54252027344E+03  0.87712484929E+03  0.25500000920E-02 0.  1.
</event>
<event>
 5   0  0.1788413E-05  0.2191423E+04  0.7818609E-02  0.8522007E-01
        1   -1    0    0  501    0  0.00000000000E+00  0.00000000000E+00  0.14028860833E+04  0.14028860833E+04  0.50400001928E-02 0.  1.
       -1   -1    0    0    0  501  0.00000000000E+00  0.00000000000E+00 -0.85579519960E+03  0.85579519961E+03  0.50400001928E-02 0. -1.
    10030    2    1    2    0    0  0.00000000000E+00  0.00000000000E+00  0.54709088372E+03  0.22586812829E+04  0.21914225295E+04 0.  0.
        1    1    3    3  502    0  0.33240353992E+03 -0.93450895173E+03  0.75343635342E+03  0.12455783528E+04  0.50400001928E-02 0.  1.
       -1    1    3    3    0  502 -0.33240353992E+03  0.93450895173E+03 -0.20634546970E+03  0.10131029302E+04  0.50400001928E-02 0. -1.
</event>
<event>
 5   0  0.1786228E-05  0.2202253E+04  0.7818609E-02  0.8517491E-01
        1   -1    0    0  501    0  0.00000000000E+00  0.00000000000E+00  0.16243793579E+04  0.16243793580E+04  0.50400001928E-02 0. -1.
       -1   -1    0    0    0  501  0.00000000000E+00  0.00000000000E+00 -0.74642605254E+03  0.74642605256E+03  0.50400001928E-02 0.  1.
    10030    2    1    2    0    0  0.00000000000E+00  0.00000000000E+00  0.87795330540E+03  0.23708054105E+04  0.22022525487E+04 0.  0.
        5    1    3    3  502    0  0.17742469698E+02 -0.69171812127E+03  0.13610779739E+04  0.15268739619E+04  0.46999998093E+01 0. -1.
       -5    1    3    3    0  502 -0.17742469698E+02  0.69171812127E+03 -0.48312466853E+03  0.84393144856E+03  0.46999998093E+01 0.  1.
</event>
<event>
 5   0  0.1815681E-05  0.2166884E+04  0.7818609E-02  0.8532339E-01
       -1   -1    0    0    0  501  0.00000000000E+00  0.00000000000E+00  0.67063001343E+03  0.67063001344E+03  0.50400001928E-02 0. -1.
        1   -1    0    0  501    0  0.00000000000E+00  0.00000000000E+00 -0.17503640171E+04  0.17503640171E+04  0.50400001928E-02 0.  1.
    10030    2    1    2    0    0  0.00000000000E+00  0.00000000000E+00 -0.10797340037E+04  0.24209940305E+04  0.21668840710E+04 0.  0.
        2    1    3    3  502    0  0.92559962833E+03 -0.49894427776E+03 -0.24816205481E+03  0.10804001433E+04  0.25500000920E-02 0. -1.
       -2    1    3    3    0  502 -0.92559962833E+03  0.49894427776E+03 -0.83157194885E+03  0.13405938872E+04  0.25500000920E-02 0.  1.
</event>
<event>
 5   0  0.4132460E-05  0.2059682E+04  0.7818609E-02  0.8579215E-01
       -2   -1    0    0    0  501  0.00000000000E+00  0.00000000000E+00  0.11727404814E+04  0.11727404814E+04  0.25500000920E-02 0. -1.
        2   -1    0    0  501    0  0.00000000000E+00  0.00000000000E+00 -0.90435400675E+03  0.90435400676E+03  0.25500000920E-02 0.  1.
    10030    2    1    2    0    0  0.00000000000E+00  0.00000000000E+00  0.26838647464E+03  0.20770944882E+04  0.20596820660E+04 0.  0.
        4    1    3    3  502    0  0.24403209132E+03 -0.82821340925E+03 -0.43187364021E+03  0.96540435407E+03  0.12699999809E+01 0.  1.
       -4    1    3    3    0  502 -0.24403209132E+03  0.82821340925E+03  0.70026011486E+03  0.11116901341E+04  0.12699999809E+01 0. -1.
</event>
<event>
 5   0  0.4132460E-05  0.2198822E+04  0.7818609E-02  0.8518919E-01
        2   -1    0    0  501    0  0.00000000000E+00  0.00000000000E+00  0.16274150397E+04  0.16274150397E+04  0.25500000920E-02 0. -1.
       -2   -1    0    0    0  501  0.00000000000E+00  0.00000000000E+00 -0.74271422625E+03  0.74271422625E+03  0.25500000920E-02 0.  1.
    10030    2    1    2    0    0  0.00000000000E+00  0.00000000000E+00  0.88470081347E+03  0.23701292660E+04  0.21988217772E+04 0.  0.
        4    1    3    3  502    0  0.52424871097E+03 -0.67637488795E+03 -0.30162764905E+03  0.90735910839E+03  0.12699999809E+01 0.  1.
       -4    1    3    3    0  502 -0.52424871097E+03  0.67637488795E+03  0.11863284625E+04  0.14627701576E+04  0.12699999809E+01 0. -1.
</event>
<event>
 5   0  0.3963414E-05  0.2208033E+04  0.7818609E-02  0.8515092E-01
       -2   -1    0    0    0  501  0.00000000000E+00  0.00000000000E+00  0.60765674019E+03  0.60765674019E+03  0.25500000920E-02 0.  1.
        2   -1    0    0  501    0  0.00000000000E+00  0.00000000000E+00 -0.20058246913E+04  0.20058246913E+04  0.25500000920E-02 0. -1.
    10030    2    1    2    0    0  0.00000000000E+00  0.00000000000E+00 -0.13981679511E+04  0.26134814315E+04  0.22080334176E+04 0.  0.
        1    1    3    3  502    0  0.19987568767E+03  0.94208053384E+03 -0.60160616161E+02  0.96492762554E+03  0.50400001928E-02 0.  1.
       -1    1    3    3    0  502 -0.19987568767E+03 -0.94208053384E+03 -0.13380073350E+04  0.16485538060E+04  0.50400001928E-02 0. -1.
</event>
<event>
 5   0  0.1866935E-05  0.2200151E+04  0.7818609E-02  0.8518365E-01
        1   -1    0    0  501    0  0.00000000000E+00  0.00000000000E+00  0.13681415065E+04  0.13681415065E+04  0.50400001928E-02 0. -1.
       -1   -1    0    0    0  501  0.00000000000E+00  0.00000000000E+00 -0.88453258177E+03  0.88453258178E+03  0.50400001928E-02 0.  1.
    10030    2    1    2    0    0  0.00000000000E+00  0.00000000000E+00  0.48360892468E+03  0.22526740882E+04  0.22001506666E+04 0.  0.
        4    1    3    3  502    0 -0.95001185364E+03  0.11100323064E+03  0.79821108142E+03  0.12457876154E+04  0.12699999809E+01 0. -1.
       -4    1    3    3    0  502  0.95001185364E+03 -0.11100323064E+03 -0.31460215674E+03  0.10068864728E+04  0.12699999809E+01 0.  1.
</event>
<event>
 5   0  0.1866935E-05  0.2211849E+04  0.7818609E-02  0.8513512E-01
       -1   -1    0    0    0  501  0.00000000000E+00  0.00000000000E+00  0.14595378933E+04  0.14595378933E+04  0.50400001928E-02 0. -1.
        1   -1    0    0  501    0  0.00000000000E+00  0.00000000000E+00 -0.83798407280E+03  0.83798407282E+03  0.50400001928E-02 0.  1.
    10030    2    1    2    0    0  0.00000000000E+00  0.00000000000E+00  0.62155382051E+03  0.22975219661E+04  0.22118494599E+04 0.  0.
        4    1    3    3  502    0  0.62259043471E+03 -0.84454800763E+03  0.67386990302E+03  0.12469893527E+04  0.12699999809E+01 0. -1.
       -4    1    3    3    0  502 -0.62259043471E+03  0.84454800763E+03 -0.52316082509E+02  0.10505326135E+04  0.12699999809E+01 0.  1.
</event>
<event>
 5   0  0.4027923E-05  0.2202764E+04  0.7818609E-02  0.8517278E-01
        2   -1    0    0  501    0  0.00000000000E+00  0.00000000000E+00  0.21232192881E+04  0.21232192881E+04  0.25500000920E-02 0. -1.
       -2   -1    0    0    0  501  0.00000000000E+00  0.00000000000E+00 -0.57132235545E+03  0.57132235545E+03  0.25500000920E-02 0.  1.
    10030    2    1    2    0    0  0.00000000000E+00  0.00000000000E+00  0.15518969326E+04  0.26945416435E+04  0.22027643041E+04 0.  0.
        5    1    3    3  502    0 -0.13455839556E+03 -0.35718456500E+02 -0.56050342750E+03  0.57755341933E+03  0.46999998093E+01 0.  1.
       -5    1    3    3    0  502  0.13455839556E+03  0.35718456500E+02  0.21124003601E+04  0.21169882242E+04  0.46999998093E+01 0. -1.
</event>
<event>
 5   0  0.1786228E-05  0.2219224E+04  0.7818609E-02  0.8510469E-01
       -1   -1    0    0    0  501  0.00000000000E+00  0.00000000000E+00  0.69490657472E+03  0.69490657473E+03  0.50400001928E-02 0.  1.
        1   -1    0    0  501    0  0.00000000000E+00  0.00000000000E+00 -0.17718047832E+04  0.17718047832E+04  0.50400001928E-02 0. -1.
    10030    2    1    2    0    0  0.00000000000E+00  0.00000000000E+00 -0.10768982085E+04  0.24667113579E+04  0.22192240022E+04 0.  0.
        5    1    3    3  502    0 -0.17919078726E+03  0.35302283281E+03  0.61372156237E+03  0.73034971407E+03  0.46999998093E+01 0.  1.
       -5    1    3    3    0  502  0.17919078726E+03 -0.35302283281E+03 -0.16906197708E+04  0.17363616439E+04  0.46999998093E+01 0. -1.
</event>
<event>
 5   0  0.1786228E-05  0.2200364E+04  0.7818609E-02  0.8518277E-01
        1   -1    0    0  501    0  0.00000000000E+00  0.00000000000E+00  0.11309555001E+04  0.11309555001E+04  0.50400001928E-02 0.  1.
       -1   -1    0    0    0  501  0.00000000000E+00  0.00000000000E+00 -0.10702456700E+04  0.10702456700E+04  0.50400001928E-02 0. -1.
    10030    2    1    2    0    0  0.00000000000E+00  0.00000000000E+00  0.60709830048E+02  0.22012011701E+04  0.22003638126E+04 0.  0.
        5    1    3    3  502    0 -0.10070430550E+04 -0.43937448798E+03  0.86878466608E+02  0.11021595226E+04  0.46999998093E+01 0.  1.
       -5    1    3    3    0  502  0.10070430550E+04  0.43937448798E+03 -0.26168636559E+02  0.10990416475E+04  0.46999998093E+01 0. -1.
</event>
<event>
 5   0  0.4143281E-05  0.2217834E+04  0.7818609E-02  0.8511042E-01
       -2   -1    0    0    0  501  0.00000000000E+00  0.00000000000E+00  0.16201189472E+04  0.16201189472E+04  0.25500000920E-02 0. -1.
        2   -1    0    0  501    0  0.00000000000E+00  0.00000000000E+00 -0.75901622666E+03  0.75901622667E+03  0.25500000920E-02 0.  1.
    10030    2    1    2    0    0  0.00000000000E+00  0.00000000000E+00  0.86110272054E+03  0.23791351739E+04  0.22178336908E+04 0.  0.
        2    1    3    3  502    0  0.63970222972E+02 -0.17451043555E+03  0.16032905490E+04  0.16140280871E+04  0.25500000920E-02 0. -1.
       -2    1    3    3    0  502 -0.63970222972E+02  0.17451043555E+03 -0.74218782843E+03  0.76510708677E+03  0.25500000920E-02 0.  1.
</event>
<event>
 5   0  0.1884407E-05  0.2207712E+04  0.7818609E-02  0.8515225E-01
        1   -1    0    0  501    0  0.00000000000E+00  0.00000000000E+00  0.13869072025E+04  0.13869072025E+04  0.50400001928E-02 0.  1.
       -1   -1    0    0    0  501  0.00000000000E+00  0.00000000000E+00 -0.87857238573E+03  0.87857238575E+03  0.50400001928E-02 0. -1.
    10030    2    1    2    0    0  0.00000000000E+00  0.00000000000E+00  0.50833481678E+03  0.22654795883E+04  0.22077122727E+04 0.  0.
        3    1    3    3  502    0  0.23725304412E+03  0.74263804201E+03  0.10560872569E+04  0.13126768730E+04  0.10100000352E+00 0.  1.
       -3    1    3    3    0  502 -0.23725304412E+03 -0.74263804201E+03 -0.54775244015E+03  0.95280271530E+03  0.10100000352E+00 0. -1.
</event>
<event>
 5   0  0.4029532E-05  0.2207296E+04  0.7818609E-02  0.8515397E-01
       -2   -1    0    0    0  501  0.00000000000E+00  0.00000000000E+00  0.15719726027E+04  0.15719726027E+04  0.25500000920E-02 0. -1.
        2   -1    0    0  501    0  0.00000000000E+00  0.00000000000E+00 -0.77484761015E+03  0.77484761016E+03  0.25500000920E-02 0.  1.
    10030    2    1    2    0    0  0.00000000000E+00  0.00000000000E+00  0.79712499258E+03  0.23468202129E+04  0.22072962778E+04 0.  0.
        3    1    3    3  502    0  0.62776734329E+03  0.85377427342E+02  0.13593764818E+04  0.14997618384E+04  0.10100000352E+00 0. -1.
       -3    1    3    3    0  502 -0.62776734329E+03 -0.85377427342E+02 -0.56225148926E+03  0.84705837448E+03  0.10100000352E+00 0.  1.
</event>
<event>
 5   0  0.4132460E-05  0.2199020E+04  0.7818609E-02  0.8518836E-01
       -2   -1    0    0    0  501  0.00000000000E+00  0.00000000000E+00  0.17260190770E+04  0.17260190770E+04  0.25500000920E-02 0.  1.
        2   -1    0    0  501    0  0.00000000000E+00  0.00000000000E+00 -0.70041082605E+03  0.70041082605E+03  0.25500000920E-02 0. -1.
    10030    2    1    2    0    0  0.00000000000E+00  0.00000000000E+00  0.10256082509E+04  0.24264299030E+04  0.21990201886E+04 0.  0.
        4    1    3    3  502    0  0.88132201970E+03 -0.10822214698E+03 -0.20269871011E+03  0.91078478000E+03  0.12699999809E+01 0. -1.
       -4    1    3    3    0  502 -0.88132201970E+03  0.10822214698E+03  0.12283069610E+04  0.15156451230E+04  0.12699999809E+01 0.  1.
</event>
<event>
 5   0  0.4132460E-05  0.2223150E+04  0.7818609E-02  0.8508854E-01
        2   -1    0    0  501    0  0.00000000000E+00  0.00000000000E+00  0.20584272975E+04  0.20584272975E+04  0.25500000920E-02 0. -1.
       -2   -1    0    0    0  501  0.00000000000E+00  0.00000000000E+00 -0.60026338359E+03  0.60026338360E+03  0.25500000920E-02 0.  1.
    10030    2    1    2    0    0  0.00000000000E+00  0.00000000000E+00  0.14581639139E+04  0.26586906810E+04  0.22231495986E+04 0.  0.
        4    1    3    3  502    0  0.18633768002E+03 -0.64502438807E+03  0.17885401035E+04  0.19104071574E+04  0.12699999809E+01 0. -1.
       -4    1    3    3    0  502 -0.18633768002E+03  0.64502438807E+03 -0.33037618965E+03  0.74828352367E+03  0.12699999809E+01 0.  1.
</event>
<event>
 5   0  0.1815681E-05  0.2193651E+04  0.7818609E-02  0.8521075E-01
        1   -1    0    0  501    0  0.00000000000E+00  0.00000000000E+00  0.11154826782E+04  0.11154826782E+04  0.50400001928E-02 0.  1.
       -1   -1    0    0    0  501  0.00000000000E+00  0.00000000000E+00 -0.10784808462E+04  0.10784808462E+04  0.50400001928E-02 0. -1.
    10030    2    1    2    0    0  0.00000000000E+00  0.00000000000E+00  0.37001832021E+02  0.21939635244E+04  0.21936514789E+04 0.  0.
        2    1    3    3  502    0 -0.26178444634E+03  0.10582991783E+04  0.13892757696E+03  0.10990127928E+04  0.25500000920E-02 0.  1.
       -2    1    3    3    0  502  0.26178444634E+03 -0.10582991783E+04 -0.10192574494E+03  0.10949507316E+04  0.25500000920E-02 0. -1.
</event>
<event>
 5   0  0.3963414E-05  0.2267740E+04  0.7818609E-02  0.8490751E-01
       -2   -1    0    0    0  501  0.00000000000E+00  0.00000000000E+00  0.76973689020E+03  0.76973689021E+03  0.25500000920E-02 0. -1.
        2   -1    0    0  501    0  0.00000000000E+00  0.00000000000E+00 -0.16702598526E+04  0.16702598526E+04  0.25500000920E-02 0.  1.
    10030    2    1    2    0    0  0.00000000000E+00  0.00000000000E+00 -0.90052296239E+03  0.24399967428E+04  0.22677395131E+04 0.  0.
        1    1    3    3  502    0 -0.77343447323E+03 -0.17567115432E+03 -0.13221206024E+04  0.15417730463E+04  0.50400001928E-02 0.  1.
       -1    1    3    3    0  502  0.77343447323E+03  0.17567115432E+03  0.42159764006E+03  0.89822369651E+03  0.50400001928E-02 0. -1.
</event>
<event>
 5   0  0.1788413E-05  0.2203575E+04  0.7818609E-02  0.8516942E-01
       -1   -1    0    0    0  501  0.00000000000E+00  0.00000000000E+00  0.10993391925E+04  0.10993391925E+04  0.50400001928E-02 0. -1.
        1   -1    0    0  501    0  0.00000000000E+00  0.00000000000E+00 -0.11042412197E+04  0.11042412197E+04  0.50400001928E-02 0.  1.
    10030    2    1    2    0    0  0.00000000000E+00  0.00000000000E+00 -0.49020271509E+01  0.22035804122E+04  0.22035749597E+04 0.  0.
        1    1    3    3  502    0  0.25689020199E+01  0.17943121189E+03 -0.10895293639E+04  0.11042084921E+04  0.50400001928E-02 0.  1.
       -1    1    3    3    0  502 -0.25689020199E+01 -0.17943121189E+03  0.10846273368E+04  0.10993719201E+04  0.50400001928E-02 0. -1.
</event>
<event>
 5   0  0.1786228E-05  0.2218937E+04  0.7818609E-02  0.8510587E-01
        1   -1    0    0  501    0  0.00000000000E+00  0.00000000000E+00  0.24005144537E+04  0.24005144537E+04  0.50400001928E-02 0. -1.
       -1   -1    0    0    0  501  0.00000000000E+00  0.00000000000E+00 -0.51277349877E+03  0.51277349879E+03  0.50400001928E-02 0.  1.
    10030    2    1    2    0    0  0.00000000000E+00  0.00000000000E+00  0.18877409550E+04  0.29132879525E+04  0.22189368583E+04 0.  0.
        5    1    3    3  502    0 -0.10332016822E+04 -0.22322137353E+03  0.50142478540E+03  0.11699497439E+04  0.46999998093E+01 0.  1.
       -5    1    3    3    0  502  0.10332016822E+04  0.22322137353E+03  0.13863161696E+04  0.17433382087E+04  0.46999998093E+01 0. -1.
</event>
<event>
 5   0  0.3963414E-05  0.2222869E+04  0.7818609E-02  0.8508969E-01
        2   -1    0    0  501    0  0.00000000000E+00  0.00000000000E+00  0.26189271819E+04  0.26189271819E+04  0.25500000920E-02 0.  1.
       -2   -1    0    0    0  501  0.00000000000E+00  0.00000000000E+00 -0.47167650294E+03  0.47167650295E+03  0.25500000920E-02 0. -1.
    10030    2    1    2    0    0  0.00000000000E+00  0.00000000000E+00  0.21472506789E+04  0.30906036848E+04  0.22228687902E+04 0.  0.
        1    1    3    3  502    0  0.44170234647E+03  0.25328786624E+03 -0.29997766088E+03  0.59096726061E+03  0.50400001928E-02 0. -1.
       -1    1    3    3    0  502 -0.44170234647E+03 -0.25328786624E+03  0.24472283398E+04  0.24996364242E+04  0.50400001928E-02 0.  1.
</event>
<event>
 5   0  0.1786228E-05  0.2187660E+04  0.7818609E-02  0.8523582E-01
        1   -1    0    0  501    0  0.00000000000E+00  0.00000000000E+00  0.90579100882E+03  0.90579100883E+03  0.50400001928E-02 0.  1.
       -1   -1    0    0    0  501  0.00000000000E+00  0.00000000000E+00 -0.13209056794E+04  0.13209056794E+04  0.50400001928E-02 0. -1.
    10030    2    1    2    0    0  0.00000000000E+00  0.00000000000E+00 -0.41511467058E+03  0.22266966882E+04  0.21876603831E+04 0.  0.
        5    1    3    3  502    0 -0.72117018735E+03  0.75968451771E+03 -0.52819494083E+03  0.11731236044E+04  0.46999998093E+01 0. -1.
       -5    1    3    3    0  502  0.72117018735E+03 -0.75968451771E+03  0.11308027025E+03  0.10535730839E+04  0.46999998093E+01 0.  1.
</event>
<event>
 5   0  0.1884407E-05  0.2210971E+04  0.7818609E-02  0.8513875E-01
        1   -1    0    0  501    0  0.00000000000E+00  0.00000000000E+00  0.95812655614E+03  0.95812655615E+03  0.50400001928E-02 0.  1.
       -1   -1    0    0    0  501  0.00000000000E+00  0.00000000000E+00 -0.12755084541E+04  0.12755084541E+04  0.50400001928E-02 0. -1.
    10030    2    1    2    0    0  0.00000000000E+00  0.00000000000E+00 -0.31738189798E+03  0.22336350103E+04  0.22109713001E+04 0.  0.
        3    1    3    3  502    0 -0.47501978716E+03 -0.74369420925E+03  0.51399760224E+03  0.10212337736E+04  0.10100000352E+00 0.  1.
       -3    1    3    3    0  502  0.47501978716E+03  0.74369420925E+03 -0.83137950022E+03  0.12124012367E+04  0.10100000352E+00 0. -1.
</event>
<event>
 5   0  0.1866935E-05  0.2182537E+04  0.7818609E-02  0.8525732E-01
       -1   -1    0    0    0  501  0.00000000000E+00  0.00000000000E+00  0.34299040985E+04  0.34299040985E+04  0.50400001928E-02 0.  1.
        1   -1    0    0  501    0  0.00000000000E+00  0.00000000000E+00 -0.34720136363E+03  0.34720136367E+03  0.50400001928E-02 0. -1.
    10030    2    1    2    0    0  0.00000000000E+00  0.00000000000E+00  0.30827027348E+04  0.37771054621E+04  0.21825374042E+04 0.  0.
        4    1    3    3  502    0 -0.36575809670E+02  0.19414031051E+03 -0.31599553492E+03  0.37267015041E+03  0.12699999809E+01 0. -1.
       -4    1    3    3    0  502  0.36575809670E+02 -0.19414031051E+03  0.33986982697E+04  0.34044353117E+04  0.12699999809E+01 0.  1.
</event>
<event>
 5   0  0.4027923E-05  0.2233639E+04  0.7818609E-02  0.8504556E-01
        2   -1    0    0  501    0  0.00000000000E+00  0.00000000000E+00  0.15228602595E+04  0.15228602595E+04  0.25500000920E-02 0.  1.
       -2   -1    0    0    0  501  0.00000000000E+00  0.00000000000E+00 -0.81904173978E+03  0.81904173978E+03  0.25500000920E-02 0. -1.
    10030    2    1    2    0    0  0.00000000000E+00  0.00000000000E+00  0.70381851969E+03  0.23419019993E+04  0.22336392872E+04 0.  0.
        5    1    3    3  502    0  0.16333586740E+02 -0.66710833822E+03 -0.58702034870E+03  0.88877179341E+03  0.46999998093E+01 0. -1.
       -5    1    3    3    0  502 -0.16333586740E+02  0.66710833822E+03  0.12908388684E+04  0.14531302058E+04  0.46999998093E+01 0.  1.
</event>
<event>
 5   0  0.3963414E-05  0.2208528E+04  0.7818609E-02  0.8514887E-01
       -2   -1    0    0    0  501  0.00000000000E+00  0.00000000000E+00  0.62735328293E+03  0.62735328294E+03  0.25500000920E-02 0.  1.
        2   -1    0    0  501    0  0.00000000000E+00  0.00000000000E+00 -0.19437195326E+04  0.19437195326E+04  0.25500000920E-02 0. -1.
    10030    2    1    2    0    0  0.00000000000E+00  0.00000000000E+00 -0.13163662497E+04  0.25710728156E+04  0.22085278625E+04 0.  0.
        1    1    3    3  502    0  0.26446091987E+03 -0.10075276883E+04 -0.10848862447E+04  0.15040045827E+04  0.50400001928E-02 0. -1.
       -1    1    3    3    0  502 -0.26446091987E+03  0.10075276883E+04 -0.23148000496E+03  0.10670682328E+04  0.50400001928E-02 0.  1.
</event>
<event>
 5   0  0.1815681E-05  0.2180693E+04  0.7818609E-02  0.8526507E-01
        1   -1    0    0  501    0  0.00000000000E+00  0.00000000000E+00  0.14812505077E+04  0.14812505077E+04  0.50400001928E-02 0.  1.
       -1   -1    0    0    0  501  0.00000000000E+00  0.00000000000E+00 -0.80260263496E+03  0.80260263498E+03  0.50400001928E-02 0. -1.
    10030    2    1    2    0    0  0.00000000000E+00  0.00000000000E+00  0.67864787274E+03  0.22838531427E+04  0.21806930646E+04 0.  0.
        2    1    3    3  502    0  0.18039579371E+03 -0.10752383501E+04  0.35319466269E+03  0.11460482632E+04  0.25500000920E-02 0. -1.
       -2    1    3    3    0  502 -0.18039579371E+03  0.10752383501E+04  0.32545321005E+03  0.11378048795E+04  0.25500000920E-02 0.  1.
</event>
<event>
 5   0  0.1786228E-05  0.2132027E+04  0.7818609E-02  0.8547265E-01
        1   -1    0    0  501    0  0.00000000000E+00  0.00000000000E+00  0.20562610137E+04  0.20562610137E+04  0.50400001928E-02 0. -1.
       -1   -1    0    0    0  501  0.00000000000E+00  0.00000000000E+00 -0.55264620048E+03  0.55264620050E+03  0.50400001928E-02 0.  1.
    10030    2    1    2    0    0  0.00000000000E+00  0.00000000000E+00  0.15036148132E+04  0.26089072142E+04  0.21320270509E+04 0.  0.
        5    1    3    3  502    0 -0.60751598272E+03  0.87299823547E+03  0.66389715907E+03  0.12537875084E+04  0.46999998093E+01 0.  1.
       -5    1    3    3    0  502  0.60751598272E+03 -0.87299823547E+03  0.83971765414E+03  0.13551197058E+04  0.46999998093E+01 0. -1.
</event>
<event>
 5   0  0.4029532E-05  0.2193699E+04  0.7818609E-02  0.8521055E-01
        2   -1    0    0  501    0  0.00000000000E+00  0.00000000000E+00  0.11917499821E+04  0.11917499821E+04  0.25500000920E-02 0. -1.
       -2   -1    0    0    0  501  0.00000000000E+00  0.00000000000E+00 -0.10095063434E+04  0.10095063434E+04  0.25500000920E-02 0.  1.
    10030    2    1    2    0    0  0.00000000000E+00  0.00000000000E+00  0.18224363871E+03  0.22012563255E+04  0.21936993109E+04 0.  0.
        3    1    3    3  502    0 -0.15840910368E+03  0.98335489662E+02 -0.99348829806E+03  0.10108324892E+04  0.10100000352E+00 0.  1.
       -3    1    3    3    0  502  0.15840910368E+03 -0.98335489662E+02  0.11757319368E+04  0.11904238363E+04  0.10100000352E+00 0. -1.
</event>
<event>
 5   0  0.3963414E-05  0.2196297E+04  0.7818609E-02  0.8519971E-01
       -2   -1    0    0    0  501  0.00000000000E+00  0.00000000000E+00  0.55914906503E+03  0.55914906504E+03  0.25500000920E-02 0. -1.
        2   -1    0    0  501    0  0.00000000000E+00  0.00000000000E+00 -0.21567231826E+04  0.21567231826E+04  0.25500000920E-02 0.  1.
    10030    2    1    2    0    0  0.00000000000E+00  0.00000000000E+00 -0.15975741176E+04  0.27158722476E+04  0.21962966567E+04 0.  0.
        1    1    3    3  502    0  0.35177097906E+03 -0.30248378387E+03  0.43201250530E+03  0.63393537997E+03  0.50400001928E-02 0. -1.
       -1    1    3    3    0  502 -0.35177097906E+03  0.30248378387E+03 -0.20295866229E+04  0.20819368677E+04  0.50400001928E-02 0.  1.
</event>
<event>
 5   0  0.1786228E-05  0.2193314E+04  0.7818609E-02  0.8521216E-01
        1   -1    0    0  501    0  0.00000000000E+00  0.00000000000E+00  0.19987356052E+04  0.19987356053E+04  0.50400001928E-02 0.  1.
       -1   -1    0    0    0  501  0.00000000000E+00  0.00000000000E+00 -0.60170857301E+03  0.60170857304E+03  0.50400001928E-02 0. -1.
    10030    2    1    2    0    0  0.00000000000E+00  0.00000000000E+00  0.13970270322E+04  0.26004441783E+04  0.21933137932E+04 0.  0.
        5    1    3    3  502    0 -0.31310397878E+03  0.78630840011E+02 -0.54408393234E+03  0.63266604615E+03  0.46999998093E+01 0. -1.
       -5    1    3    3    0  502  0.31310397878E+03 -0.78630840011E+02  0.19411109646E+04  0.19677781321E+04  0.46999998093E+01 0.  1.
</event>
<event>
 5   0  0.1815681E-05  0.2192908E+04  0.7818609E-02  0.8521386E-01
        1   -1    0    0  501    0  0.00000000000E+00  0.00000000000E+00  0.57860067632E+03  0.57860067634E+03  0.50400001928E-02 0. -1.
       -1   -1    0    0    0  501  0.00000000000E+00  0.00000000000E+00 -0.20777920268E+04  0.20777920268E+04  0.50400001928E-02 0.  1.
    10030    2    1    2    0    0  0.00000000000E+00  0.00000000000E+00 -0.14991913505E+04  0.26563927031E+04  0.21929084541E+04 0.  0.
        2    1    3    3  502    0 -0.40501849023E+03 -0.64491790722E+03  0.20595825290E+03  0.78890930177E+03  0.25500000920E-02 0. -1.
       -2    1    3    3    0  502  0.40501849023E+03  0.64491790722E+03 -0.17051496034E+04  0.18674834013E+04  0.25500000920E-02 0.  1.
</event>
<event>
 5   0  0.1786228E-05  0.2162551E+04  0.7818609E-02  0.8534179E-01
       -1   -1    0    0    0  501  0.00000000000E+00  0.00000000000E+00  0.47856887101E+03  0.47856887104E+03  0.50400001928E-02 0.  1.
        1   -1    0    0  501    0  0.00000000000E+00  0.00000000000E+00 -0.24430270646E+04  0.24430270646E+04  0.50400001928E-02 0. -1.
    10030    2    1    2    0    0  0.00000000000E+00  0.00000000000E+00 -0.19644581936E+04  0.29215959356E+04  0.21625509975E+04 0.  0.
        5    1    3    3  502    0 -0.70251597166E+03 -0.69797942550E+03 -0.15686771671E+04  0.18551210509E+04  0.46999998093E+01 0.  1.
       -5    1    3    3    0  502  0.70251597166E+03  0.69797942550E+03 -0.39578102646E+03  0.10664748847E+04  0.46999998093E+01 0. -1.
</event>
<event>
 5   0  0.1815681E-05  0.2183757E+04  0.7818609E-02  0.8525219E-01
       -1   -1    0    0    0  501  0.00000000000E+00  0.00000000000E+00  0.16457742834E+04  0.16457742834E+04  0.50400001928E-02 0.  1.
        1   -1    0    0  501    0  0.00000000000E+00  0.00000000000E+00 -0.72439996047E+03  0.72439996049E+03  0.50400001928E-02 0. -1.
    10030    2    1    2    0    0  0.00000000000E+00  0.00000000000E+00  0.92137432290E+03  0.23701742439E+04  0.21837571530E+04 0.  0.
        2    1    3    3  502    0  0.79660288067E+03  0.68268657498E+03  0.78910965733E+03  0.13127570836E+04  0.25500000920E-02 0. -1.
       -2    1    3    3    0  502 -0.79660288067E+03 -0.68268657498E+03  0.13226466557E+03  0.10574171603E+04  0.25500000920E-02 0.  1.
</event>
<event>
 5   0  0.1786228E-05  0.2207426E+04  0.7818609E-02  0.8515344E-01
        1   -1    0    0  501    0  0.00000000000E+00  0.00000000000E+00  0.30824135069E+04  0.30824135069E+04  0.50400001928E-02 0.  1.
       -1   -1    0    0    0  501  0.00000000000E+00  0.00000000000E+00 -0.39520396590E+03  0.39520396593E+03  0.50400001928E-02 0. -1.
    10030    2    1    2    0    0  0.00000000000E+00  0.00000000000E+00  0.26872095410E+04  0.34776174728E+04  0.22074256885E+04 0.  0.
        5    1    3    3  502    0  0.30901904560E+03 -0.55508374040E+03 -0.78247198994E+02  0.64012142875E+03  0.46999998093E+01 0. -1.
       -5    1    3    3    0  502 -0.30901904560E+03  0.55508374040E+03  0.27654567400E+04  0.28374960441E+04  0.46999998093E+01 0.  1.
</event>
<event>
 5   0  0.1815681E-05  0.2065197E+04  0.7818609E-02  0.8576731E-01
        1   -1    0    0  501    0  0.00000000000E+00  0.00000000000E+00  0.84806470930E+03  0.84806470932E+03  0.50400001928E-02 0. -1.
       -1   -1    0    0    0  501  0.00000000000E+00  0.00000000000E+00 -0.12572861672E+04  0.12572861672E+04  0.50400001928E-02 0.  1.
    10030    2    1    2    0    0  0.00000000000E+00  0.00000000000E+00 -0.40922145788E+03  0.21053508765E+04  0.20651973542E+04 0.  0.
        2    1    3    3  502    0 -0.97898508218E+03  0.19242249696E+03 -0.47590864975E+03  0.11054081831E+04  0.25500000920E-02 0.  1.
       -2    1    3    3    0  502  0.97898508218E+03 -0.19242249696E+03  0.66687191861E+02  0.99994269337E+03  0.25500000920E-02 0. -1.
</event>
<event>
 5   0  0.4029532E-05  0.2183951E+04  0.7818609E-02  0.8525138E-01
        2   -1    0    0  501    0  0.00000000000E+00  0.00000000000E+00  0.63748101416E+03  0.63748101416E+03  0.25500000920E-02 0. -1.
       -2   -1    0    0    0  501  0.00000000000E+00  0.00000000000E+00 -0.18705041356E+04  0.18705041356E+04  0.25500000920E-02 0.  1.
    10030    2    1    2    0    0  0.00000000000E+00  0.00000000000E+00 -0.12330231214E+04  0.25079851498E+04  0.21839513487E+04 0.  0.
        3    1    3    3  502    0 -0.42856107804E+03 -0.58256132859E+03 -0.15560502256E+04  0.17159063535E+04  0.10100000352E+00 0.  1.
       -3    1    3    3    0  502  0.42856107804E+03  0.58256132859E+03  0.32302710420E+03  0.79207879623E+03  0.10100000352E+00 0. -1.
</event>
<event>
 5   0  0.4143281E-05  0.2199700E+04  0.7818609E-02  0.8518553E-01
       -2   -1    0    0    0  501  0.00000000000E+00  0.00000000000E+00  0.82231541093E+03  0.82231541094E+03  0.25500000920E-02 0.  1.
        2   -1    0    0  501    0  0.00000000000E+00  0.00000000000E+00 -0.14710531718E+04  0.14710531718E+04  0.25500000920E-02 0. -1.
    10030    2    1    2    0    0  0.00000000000E+00  0.00000000000E+00 -0.64873776091E+03  0.22933685828E+04  0.21996997009E+04 0.  0.
        2    1    3    3  502    0 -0.23702742492E+03  0.24165641928E+03 -0.14153954914E+04  0.14553089782E+04  0.25500000920E-02 0. -1.
       -2    1    3    3    0  502  0.23702742492E+03 -0.24165641928E+03  0.76665773044E+03  0.83805960456E+03  0.25500000920E-02 0.  1.
</event>
<event>
 5   0  0.3963414E-05  0.2195986E+04  0.7818609E-02  0.8520101E-01
       -2   -1    0    0    0  501  0.00000000000E+00  0.00000000000E+00  0.75147254226E+03  0.75147254227E+03  0.25500000920E-02 0.  1.
        2   -1    0    0  501    0  0.00000000000E+00  0.00000000000E+00 -0.16043019296E+04  0.16043019296E+04  0.25500000920E-02 0. -1.
    10030    2    1    2    0    0  0.00000000000E+00  0.00000000000E+00 -0.85282938734E+03  0.23557744719E+04  0.21959862018E+04 0.  0.
        1    1    3    3  502    0 -0.52039998056E+03  0.44560453684E+03  0.49404495786E+03  0.84466559267E+03  0.50400001928E-02 0.  1.
       -1    1    3    3    0  502  0.52039998056E+03 -0.44560453684E+03 -0.13468743452E+04  0.15111088792E+04  0.50400001928E-02 0. -1.
</event>
<event>
 5   0  0.1815681E-05  0.2209417E+04  0.7818609E-02  0.8514519E-01
        1   -1    0    0  501    0  0.00000000000E+00  0.00000000000E+00  0.18140076263E+04  0.18140076263E+04  0.50400001928E-02 0.  1.
       -1   -1    0    0    0  501  0.00000000000E+00  0.00000000000E+00 -0.67275376194E+03  0.67275376196E+03  0.50400001928E-02 0. -1.
    10030    2    1    2    0    0  0.00000000000E+00  0.00000000000E+00  0.11412538644E+04  0.24867613883E+04  0.22094166242E+04 0.  0.
        2    1    3    3  502    0  0.91414550334E+03 -0.54441038187E+03  0.90514905641E+03  0.13969035326E+04  0.25500000920E-02 0.  1.
       -2    1    3    3    0  502 -0.91414550334E+03  0.54441038187E+03  0.23610480796E+03  0.10898578556E+04  0.25500000920E-02 0. -1.
</event>
<event>
 5   0  0.4132460E-05  0.2187684E+04  0.7818609E-02  0.8523572E-01
       -2   -1    0    0    0  501  0.00000000000E+00  0.00000000000E+00  0.11842559142E+04  0.11842559142E+04  0.25500000920E-02 0. -1.
        2   -1    0    0  501    0  0.00000000000E+00  0.00000000000E+00 -0.10103305149E+04  0.10103305149E+04  0.25500000920E-02 0.  1.
    10030    2    1    2    0    0  0.00000000000E+00  0.00000000000E+00  0.17392539937E+03  0.21945864291E+04  0.21876836038E+04 0.  0.
        4    1    3    3  502    0 -0.76756071162E+03  0.27192563276E+03  0.81960630126E+03  0.11553566972E+04  0.12699999809E+01 0. -1.
       -4    1    3    3    0  502  0.76756071162E+03 -0.27192563276E+03 -0.64568090189E+03  0.10392297319E+04  0.12699999809E+01 0.  1.
</event>
<event>
 5   0  0.1788413E-05  0.2187860E+04  0.7818609E-02  0.8523498E-01
        1   -1    0    0  501    0  0.00000000000E+00  0.00000000000E+00  0.17034737840E+04  0.17034737840E+04  0.50400001928E-02 0.  1.
       -1   -1    0    0    0  501  0.00000000000E+00  0.00000000000E+00 -0.70249578914E+03  0.70249578916E+03  0.50400001928E-02 0. -1.
    10030    2    1    2    0    0  0.00000000000E+00  0.00000000000E+00  0.10009779948E+04  0.24059695731E+04  0.21878602882E+04 0.  0.
        1    1    3    3  502    0  0.55274743487E+02  0.52413949913E+03  0.15546477179E+04  0.16415562856E+04  0.50400001928E-02 0.  1.
       -1    1    3    3    0  502 -0.55274743487E+02 -0.52413949913E+03 -0.55366972313E+03  0.76441328753E+03  0.50400001928E-02 0. -1.
</event>
<event>
 5   0  0.1866935E-05  0.2197779E+04  0.7818609E-02  0.8519353E-01
        1   -1    0    0  501    0  0.00000000000E+00  0.00000000000E+00  0.12316738558E+04  0.12316738558E+04  0.50400001928E-02 0. -1.
       -1   -1    0    0    0  501  0.00000000000E+00  0.00000000000E+00 -0.98042072902E+03  0.98042072903E+03  0.50400001928E-02 0.  1.
    10030    2    1    2    0    0  0.00000000000E+00  0.00000000000E+00  0.25125312679E+03  0.22120945849E+04  0.21977794063E+04 0.  0.
        4    1    3    3  502    0  0.10280297804E+04 -0.19989169456E+03  0.46059304938E+03  0.11440933044E+04  0.12699999809E+01 0. -1.
       -4    1    3    3    0  502 -0.10280297804E+04  0.19989169456E+03 -0.20933992259E+03  0.10680012805E+04  0.12699999809E+01 0.  1.
</event>
<event>
 5   0  0.4029532E-05  0.2247147E+04  0.7818609E-02  0.8499057E-01
       -2   -1    0    0    0  501  0.00000000000E+00  0.00000000000E+00  0.16746014411E+04  0.16746014411E+04  0.25500000920E-02 0.  1.
        2   -1    0    0  501    0  0.00000000000E+00  0.00000000000E+00 -0.75386142303E+03  0.75386142303E+03  0.25500000920E-02 0. -1.
    10030    2    1    2    0    0  0.00000000000E+00  0.00000000000E+00  0.92074001808E+03  0.24284628641E+04  0.22471470138E+04 0.  0.
        3    1    3    3  502    0  0.85373444720E+03  0.19775280652E+02  0.12494668909E+04  0.15134137206E+04  0.10100000352E+00 0.  1.
       -3    1    3    3    0  502 -0.85373444720E+03 -0.19775280652E+02 -0.32872687278E+03  0.91504914357E+03  0.10100000352E+00 0. -1.
</event>
<event>
 5   0  0.1786228E-05  0.2053798E+04  0.7818609E-02  0.8581873E-01
       -1   -1    0    0    0  501  0.00000000000E+00  0.00000000000E+00  0.52496401516E+03  0.52496401518E+03  0.50400001928E-02 0.  1.
        1   -1    0    0  501    0  0.00000000000E+00  0.00000000000E+00 -0.20087505873E+04  0.20087505873E+04  0.50400001928E-02 0. -1.
    10030    2    1    2    0    0  0.00000000000E+00  0.00000000000E+00 -0.14837865722E+04  0.25337146025E+04  0.20537982119E+04 0.  0.
        5    1    3    3  502    0  0.11956037681E+03  0.19225379920E+03 -0.19775649716E+04  0.19904877578E+04  0.46999998093E+01 0. -1.
       -5    1    3    3    0  502 -0.11956037681E+03 -0.19225379920E+03  0.49377839947E+03  0.54322684469E+03  0.46999998093E+01 0.  1.
</event>
<event>
 5   0  0.4029532E-05  0.2178763E+04  0.7818609E-02  0.8527320E-01
       -2   -1    0    0    0  501  0.00000000000E+00  0.00000000000E+00  0.76039475844E+03  0.76039475845E+03  0.25500000920E-02 0.  1.
        2   -1    0    0  501    0  0.00000000000E+00  0.00000000000E+00 -0.15607050866E+04  0.15607050866E+04  0.25500000920E-02 0. -1.
    10030    2    1    2    0    0  0.00000000000E+00  0.00000000000E+00 -0.80031032812E+03  0.23210998450E+04  0.21787629218E+04 0.  0.
        3    1    3    3  502    0 -0.47957643867E+03  0.39093060220E+03  0.55504285484E+03  0.83119966144E+03  0.10100000352E+00 0.  1.
       -3    1    3    3    0  502  0.47957643867E+03 -0.39093060220E+03 -0.13553531830E+04  0.14899001836E+04  0.10100000352E+00 0. -1.
</event>
<event>
 5   0  0.1866935E-05  0.2232989E+04  0.7818609E-02  0.8504821E-01
       -1   -1    0    0    0  501  0.00000000000E+00  0.00000000000E+00  0.11311074749E+04  0.11311074750E+04  0.50400001928E-02 0.  1.
        1   -1    0    0  501    0  0.00000000000E+00  0.00000000000E+00 -0.11020706789E+04  0.11020706789E+04  0.50400001928E-02 0. -1.
    10030    2    1    2    0    0  0.00000000000E+00  0.00000000000E+00  0.29036796091E+02  0.22331781538E+04  0.22329893710E+04 0.  0.
        4    1    3    3  502    0  0.72173781682E+03 -0.43732400233E+02 -0.83628307697E+03  0.11055265699E+04  0.12699999809E+01 0. -1.
       -4    1    3    3    0  502 -0.72173781682E+03  0.43732400233E+02  0.86531987307E+03  0.11276515839E+04  0.12699999809E+01 0.  1.
</event>
<event>
 5   0  0.1786228E-05  0.2199638E+04  0.7818609E-02  0.8518579E-01
       -1   -1    0    0    0  501  0.00000000000E+00  0.00000000000E+00  0.91414159767E+03  0.91414159769E+03  0.50400001928E-02 0.  1.
        1   -1    0    0  501    0  0.00000000000E+00  0.00000000000E+00 -0.13232109949E+04  0.13232109949E+04  0.50400001928E-02 0. -1.
    10030    2    1    2    0    0  0.00000000000E+00  0.00000000000E+00 -0.40906939718E+03  0.22373525925E+04  0.21996383457E+04 0.  0.
        5    1    3    3  502    0 -0.78424559492E+03 -0.66975869229E+03 -0.59313527894E+03  0.11897266107E+04  0.46999998093E+01 0. -1.
       -5    1    3    3    0  502  0.78424559492E+03  0.66975869229E+03  0.18406588176E+03  0.10476259819E+04  0.46999998093E+01 0.  1.
</event>
<event>
 5   0  0.4027923E-05  0.2174961E+04  0.7818609E-02  0.8528923E-01
       -2   -1    0    0    0  501  0.00000000000E+00  0.00000000000E+00  0.70627449671E+03  0.70627449671E+03  0.25500000920E-02 0. -1.
        2   -1    0    0  501    0  0.00000000000E+00  0.00000000000E+00 -0.16744396506E+04  0.16744396506E+04  0.25500000920E-02 0.  1.
    10030    2    1    2    0    0  0.00000000000E+00  0.00000000000E+00 -0.96816515391E+03  0.23807141473E+04  0.21749611689E+04 0.  0.
        5    1    3    3  502    0  0.31338063043E+02 -0.10436360476E+04 -0.81687299567E+03  0.13256929716E+04  0.46999998093E+01 0. -1.
       -5    1    3    3    0  502 -0.31338063043E+02  0.10436360476E+04 -0.15129215825E+03  0.10550211757E+04  0.46999998093E+01 0.  1.
</event>
<event>
 5   0  0.1788413E-05  0.2206004E+04  0.7818609E-02  0.8515933E-01
       -1   -1    0    0    0  501  0.00000000000E+00  0.00000000000E+00  0.89770869830E+03  0.89770869832E+03  0.50400001928E-02 0.  1.
        1   -1    0    0  501    0  0.00000000000E+00  0.00000000000E+00 -0.13552428138E+04  0.13552428138E+04  0.50400001928E-02 0. -1.
    10030    2    1    2    0    0  0.00000000000E+00  0.00000000000E+00 -0.45753411554E+03  0.22529515122E+04  0.22060038643E+04 0.  0.
        1    1    3    3  502    0  0.73808030821E+03  0.15816085746E+03 -0.10501442170E+04  0.12932827513E+04  0.50400001928E-02 0. -1.
       -1    1    3    3    0  502 -0.73808030821E+03 -0.15816085746E+03  0.59261010149E+03  0.95966876088E+03  0.50400001928E-02 0.  1.
</event>
<event>
 5   0  0.4027923E-05  0.2202508E+04  0.7818609E-02  0.8517385E-01
        2   -1    0    0  501    0  0.00000000000E+00  0.00000000000E+00  0.18703719956E+04  0.18703719956E+04  0.25500000920E-02 0. -1.
       -2   -1    0    0    0  501  0.00000000000E+00  0.00000000000E+00 -0.64840586740E+03  0.64840586741E+03  0.25500000920E-02 0.  1.
    10030    2    1    2    0    0  0.00000000000E+00  0.00000000000E+00  0.12219661282E+04  0.25187778630E+04  0.22025078217E+04 0.  0.
        5    1    3    3  502    0 -0.78216782714E+02  0.73789412743E+03  0.15415440779E+04  0.17108436055E+04  0.46999998093E+01 0. -1.
       -5    1    3    3    0  502  0.78216782714E+02 -0.73789412743E+03 -0.31957794975E+03  0.80793425745E+03  0.46999998093E+01 0.  1.
</event>
<event>
 5   0  0.1815681E-05  0.2200747E+04  0.7818609E-02  0.8518117E-01
       -1   -1    0    0    0  501  0.00000000000E+00  0.00000000000E+00  0.10639085172E+04  0.10639085172E+04  0.50400001928E-02 0. -1.
        1   -1    0    0  501    0  0.00000000000E+00  0.00000000000E+00 -0.11380885479E+04  0.11380885480E+04  0.50400001928E-02 0.  1.
    10030    2    1    2    0    0  0.00000000000E+00  0.00000000000E+00 -0.74180030755E+02  0.22019970652E+04  0.22007472363E+04 0.  0.
        2    1    3    3  502    0  0.88951020410E+03  0.35010473708E+03  0.50821524549E+03  0.10826284986E+04  0.25500000920E-02 0. -1.
       -2    1    3    3    0  502 -0.88951020410E+03 -0.35010473708E+03 -0.58239527624E+03  0.11193685666E+04  0.25500000920E-02 0.  1.
</event>
<event>
 5   0  0.1884407E-05  0.2154140E+04  0.7818609E-02  0.8537762E-01
       -1   -1    0    0    0  501  0.00000000000E+00  0.00000000000E+00  0.41754114168E+03  0.41754114171E+03  0.50400001928E-02 0. -1.
        1   -1    0    0  501    0  0.00000000000E+00  0.00000000000E+00 -0.27783599514E+04  0.27783599515E+04  0.50400001928E-02 0.  1.
    10030    2    1    2    0    0  0.00000000000E+00  0.00000000000E+00 -0.23608188098E+04  0.31959010932E+04  0.21541398155E+04 0.  0.
        3    1    3    3  502    0 -0.15331663242E+03  0.32118565640E+03 -0.26886008683E+04  0.27120547294E+04  0.10100000352E+00 0.  1.
       -3    1    3    3    0  502  0.15331663242E+03 -0.32118565640E+03  0.32778205856E+03  0.48384636381E+03  0.10100000352E+00 0. -1.
</event>
<event>
 5   0  0.1786228E-05  0.2208134E+04  0.7818609E-02  0.8515050E-01
       -1   -1    0    0    0  501  0.00000000000E+00  0.00000000000E+00  0.67594245960E+03  0.67594245962E+03  0.50400001928E-02 0. -1.
        1   -1    0    0  501    0  0.00000000000E+00  0.00000000000E+00 -0.18033548163E+04  0.18033548163E+04  0.50400001928E-02 0.  1.
    10030    2    1    2    0    0  0.00000000000E+00  0.00000000000E+00 -0.11274123567E+04  0.24792972759E+04  0.22081341355E+04 0.  0.
        5    1    3    3  502    0  0.36615459518E+03 -0.37135931069E+03 -0.16563286611E+04  0.17364975234E+04  0.46999998093E+01 0.  1.
       -5    1    3    3    0  502 -0.36615459518E+03  0.37135931069E+03  0.52891630443E+03  0.74279975249E+03  0.46999998093E+01 0. -1.
</event>
<event>
 5   0  0.4143281E-05  0.2205378E+04  0.7818609E-02  0.8516193E-01
        2   -1    0    0  501    0  0.00000000000E+00  0.00000000000E+00  0.21351888357E+04  0.21351888357E+04  0.25500000920E-02 0. -1.
       -2   -1    0    0    0  501  0.00000000000E+00  0.00000000000E+00 -0.56946871205E+03  0.56946871205E+03  0.25500000920E-02 0.  1.
    10030    2    1    2    0    0  0.00000000000E+00  0.00000000000E+00  0.15657201237E+04  0.27046575478E+04  0.22053781864E+04 0.  0.
        2    1    3    3  502    0 -0.87580526664E+03  0.54820455585E+03  0.12552360587E+04  0.16257861677E+04  0.25500000920E-02 0. -1.
       -2    1    3    3    0  502  0.87580526664E+03 -0.54820455585E+03  0.31048406502E+03  0.10788713801E+04  0.25500000920E-02 0.  1.
</event>
<event>
 5   0  0.3963414E-05  0.2208327E+04  0.7818609E-02  0.8514970E-01
       -2   -1    0    0    0  501  0.00000000000E+00  0.00000000000E+00  0.63222900008E+03  0.63222900009E+03  0.25500000920E-02 0.  1.
        2   -1    0    0  501    0  0.00000000000E+00  0.00000000000E+00 -0.19283787487E+04  0.19283787487E+04  0.25500000920E-02 0. -1.
    10030    2    1    2    0    0  0.00000000000E+00  0.00000000000E+00 -0.12961497486E+04  0.25606077488E+04  0.22083269396E+04 0.  0.
        1    1    3    3  502    0 -0.71254642578E+02  0.83498313516E+02  0.62588663417E+03  0.63543943166E+03  0.50400001928E-02 0.  1.
       -1    1    3    3    0  502  0.71254642578E+02 -0.83498313516E+02 -0.19220363828E+04  0.19251683171E+04  0.50400001928E-02 0. -1.
</event>
<event>
 5   0  0.1788413E-05  0.2200631E+04  0.7818609E-02  0.8518166E-01
       -1   -1    0    0    0  501  0.00000000000E+00  0.00000000000E+00  0.22873882270E+04  0.22873882270E+04  0.50400001928E-02 0.  1.
        1   -1    0    0  501    0  0.00000000000E+00  0.00000000000E+00 -0.52929097610E+03  0.52929097612E+03  0.50400001928E-02 0. -1.
    10030    2    1    2    0    0  0.00000000000E+00  0.00000000000E+00  0.17580972509E+04  0.28166792031E+04  0.22006307709E+04 0.  0.
        1    1    3    3  502    0  0.93262558145E+03 -0.44926102153E+03  0.13563622388E+04  0.17062662346E+04  0.50400001928E-02 0.  1.
       -1    1    3    3    0  502 -0.93262558145E+03  0.44926102153E+03  0.40173501215E+03  0.11104129685E+04  0.50400001928E-02 0. -1.
</event>
<event>
 5   0  0.1884407E-05  0.2197294E+04  0.7818609E-02  0.8519555E-01
        1   -1    0    0  501    0  0.00000000000E+00  0.00000000000E+00  0.11795904172E+04  0.11795904173E+04  0.50400001928E-02 0. -1.
       -1   -1    0    0    0  501  0.00000000000E+00  0.00000000000E+00 -0.10232577295E+04  0.10232577295E+04  0.50400001928E-02 0.  1.
    10030    2    1    2    0    0  0.00000000000E+00  0.00000000000E+00  0.15633268776E+03  0.22028481467E+04  0.21972938011E+04 0.  0.
        3    1    3    3  502    0 -0.10395344943E+04 -0.21390455422E+03 -0.20651956854E+03  0.10812203594E+04  0.10100000352E+00 0.  1.
       -3    1    3    3    0  502  0.10395344943E+04  0.21390455422E+03  0.36285225629E+03  0.11216277873E+04  0.10100000352E+00 0. -1.
</event>
<event>
 5   0  0.1884407E-05  0.2208454E+04  0.7818609E-02  0.8514918E-01
        1   -1    0    0  501    0  0.00000000000E+00  0.00000000000E+00  0.14624770506E+04  0.14624770506E+04  0.50400001928E-02 0.  1.
       -1   -1    0    0    0  501  0.00000000000E+00  0.00000000000E+00 -0.83373437649E+03  0.83373437651E+03  0.50400001928E-02 0. -1.
    10030    2    1    2    0    0  0.00000000000E+00  0.00000000000E+00  0.62874267410E+03  0.22962114271E+04  0.22084541127E+04 0.  0.
        3    1    3    3  502    0  0.38774270568E+03  0.28804590259E+03  0.13468058393E+04  0.14308042587E+04  0.10100000352E+00 0.  1.
       -3    1    3    3    0  502 -0.38774270568E+03 -0.28804590259E+03 -0.71806316515E+03  0.86540716842E+03  0.10100000352E+00 0. -1.
</event>
<event>
 5   0  0.1815681E-05  0.2191989E+04  0.7818609E-02  0.8521770E-01
       -1   -1    0    0    0  501  0.00000000000E+00  0.00000000000E+00  0.10565097827E+04  0.10565097827E+04  0.50400001928E-02 0. -1.
        1   -1    0    0  501    0  0.00000000000E+00  0.00000000000E+00 -0.11369547269E+04  0.11369547269E+04  0.50400001928E-02 0.  1.
    10030    2    1    2    0    0  0.00000000000E+00  0.00000000000E+00 -0.80444944130E+02  0.21934645096E+04  0.21919888608E+04 0.  0.
        2    1    3    3  502    0 -0.84326395442E+03  0.28813872787E+03  0.59823978494E+03  0.10733167583E+04  0.25500000920E-02 0. -1.
       -2    1    3    3    0  502  0.84326395442E+03 -0.28813872787E+03 -0.67868472907E+03  0.11201477513E+04  0.25500000920E-02 0.  1.
</event>
<event>
 5   0  0.3963414E-05  0.2197722E+04  0.7818609E-02  0.8519377E-01
        2   -1    0    0  501    0  0.00000000000E+00  0.00000000000E+00  0.10397265250E+04  0.10397265250E+04  0.25500000920E-02 0.  1.
       -2   -1    0    0    0  501  0.00000000000E+00  0.00000000000E+00 -0.11613591860E+04  0.11613591860E+04  0.25500000920E-02 0. -1.
    10030    2    1    2    0    0  0.00000000000E+00  0.00000000000E+00 -0.12163266102E+03  0.22010857110E+04  0.21977224126E+04 0.  0.
        1    1    3    3  502    0 -0.97087281087E+02 -0.13126280139E+03  0.10275113156E+04  0.10404015411E+04  0.50400001928E-02 0.  1.
       -1    1    3    3    0  502  0.97087281087E+02  0.13126280139E+03 -0.11491439766E+04  0.11606841698E+04  0.50400001928E-02 0. -1.
</event>
<event>
 5   0  0.4029532E-05  0.2193908E+04  0.7818609E-02  0.8520968E-01
       -2   -1    0    0    0  501  0.00000000000E+00  0.00000000000E+00  0.10995053028E+04  0.10995053028E+04  0.25500000920E-02 0.  1.
        2   -1    0    0  501    0  0.00000000000E+00  0.00000000000E+00 -0.10944089318E+04  0.10944089318E+04  0.25500000920E-02 0. -1.
    10030    2    1    2    0    0  0.00000000000E+00  0.00000000000E+00  0.50963710214E+01  0.21939142347E+04  0.21939083153E+04 0.  0.
        3    1    3    3  502    0  0.11740138798E+03  0.90184053003E+03 -0.61081224391E+03  0.10955323067E+04  0.10100000352E+00 0. -1.
       -3    1    3    3    0  502 -0.11740138798E+03 -0.90184053003E+03  0.61590861494E+03  0.10983819280E+04  0.10100000352E+00 0.  1.
</event>
<event>
 5   0  0.1884407E-05  0.2202254E+04  0.7818609E-02  0.8517491E-01
        1   -1    0    0  501    0  0.00000000000E+00  0.00000000000E+00  0.13591664303E+04  0.13591664303E+04  0.50400001928E-02 0.  1.
       -1   -1    0    0    0  501  0.00000000000E+00  0.00000000000E+00 -0.89207640096E+03  0.89207640097E+03  0.50400001928E-02 0. -1.
    10030    2    1    2    0    0  0.00000000000E+00  0.00000000000E+00  0.46709002931E+03  0.22512428312E+04  0.22022536615E+04 0.  0.
        3    1    3    3  502    0  0.16370101813E+03  0.73010562050E+03  0.10593697161E+04  0.12969643195E+04  0.10100000352E+00 0.  1.
       -3    1    3    3    0  502 -0.16370101813E+03 -0.73010562050E+03 -0.59227968679E+03  0.95427851176E+03  0.10100000352E+00 0. -1.
</event>
<event>
 5   0  0.4132460E-05  0.2194181E+04  0.7818609E-02  0.8520854E-01
        2   -1    0    0  501    0  0.00000000000E+00  0.00000000000E+00  0.15423083914E+04  0.15423083914E+04  0.25500000920E-02 0. -1.
       -2   -1    0    0    0  501  0.00000000000E+00  0.00000000000E+00 -0.78039334149E+03  0.78039334150E+03  0.25500000920E-02 0.  1.
    10030    2    1    2    0    0  0.00000000000E+00  0.00000000000E+00  0.76191504993E+03  0.23227017329E+04  0.21941806664E+04 0.  0.
        4    1    3    3  502    0 -0.70208371470E+02  0.45680340936E+03 -0.67231364315E+03  0.81584668774E+03  0.12699999809E+01 0.  1.
       -4    1    3    3    0  502  0.70208371470E+02 -0.45680340936E+03  0.14342286931E+04  0.15068550452E+04  0.12699999809E+01 0. -1.
</event>
<event>
 5   0  0.1884407E-05  0.2209217E+04  0.7818609E-02  0.8514601E-01
       -1   -1    0    0    0  501  0.00000000000E+00  0.00000000000E+00  0.11502912252E+04  0.11502912252E+04  0.50400001928E-02 0.  1.
        1   -1    0    0  501    0  0.00000000000E+00  0.00000000000E+00 -0.10607403268E+04  0.10607403268E+04  0.50400001928E-02 0. -1.
    10030    2    1    2    0    0  0.00000000000E+00  0.00000000000E+00  0.89550898344E+02  0.22110315520E+04  0.22092173185E+04 0.  0.
        3    1    3    3  502    0  0.40981616871E+03  0.25296294490E+03 -0.95013383219E+03  0.10652200960E+04  0.10100000352E+00 0. -1.
       -3    1    3    3    0  502 -0.40981616871E+03 -0.25296294490E+03  0.10396847305E+04  0.11458114560E+04  0.10100000352E+00 0.  1.
</event>
<event>
 5   0  0.1884407E-05  0.2182735E+04  0.7818609E-02  0.8525649E-01
        1   -1    0    0  501    0  0.00000000000E+00  0.00000000000E+00  0.11925221206E+04  0.11925221206E+04  0.50400001928E-02 0. -1.
       -1   -1    0    0    0  501  0.00000000000E+00  0.00000000000E+00 -0.99879301806E+03  0.99879301807E+03  0.50400001928E-02 0.  1.
    10030    2    1    2    0    0  0.00000000000E+00  0.00000000000E+00  0.19372910258E+03  0.21913151387E+04  0.21827347690E+04 0.  0.
        3    1    3    3  502    0 -0.10628219470E+04  0.96048670436E+02  0.32638285506E+03  0.11159487517E+04  0.10100000352E+00 0.  1.
       -3    1    3    3    0  502  0.10628219470E+04 -0.96048670436E+02 -0.13265375248E+03  0.10753663870E+04  0.10100000352E+00 0. -1.
</event>
<event>
 5   0  0.4029532E-05  0.2227066E+04  0.7818609E-02  0.8507246E-01
        2   -1    0    0  501    0  0.00000000000E+00  0.00000000000E+00  0.11550535842E+04  0.11550535842E+04  0.25500000920E-02 0. -1.
       -2   -1    0    0    0  501  0.00000000000E+00  0.00000000000E+00 -0.10735049489E+04  0.10735049489E+04  0.25500000920E-02 0.  1.
    10030    2    1    2    0    0  0.00000000000E+00  0.00000000000E+00  0.81548635272E+02  0.22285585330E+04  0.22270659971E+04 0.  0.
        3    1    3    3  502    0  0.97184958403E+02 -0.69587828019E+03  0.90521912799E+03  0.11459115048E+04  0.10100000352E+00 0. -1.
       -3    1    3    3    0  502 -0.97184958403E+02  0.69587828019E+03 -0.82367049271E+03  0.10826470282E+04  0.10100000352E+00 0.  1.
</event>
<event>
 5   0  0.1866935E-05  0.2205344E+04  0.7818609E-02  0.8516207E-01
        1   -1    0    0  501    0  0.00000000000E+00  0.00000000000E+00  0.22695479959E+04  0.22695479959E+04  0.50400001928E-02 0. -1.
       -1   -1    0    0    0  501  0.00000000000E+00  0.00000000000E+00 -0.53573930757E+03  0.53573930759E+03  0.50400001928E-02 0.  1.
    10030    2    1    2    0    0  0.00000000000E+00  0.00000000000E+00  0.17338086884E+04  0.28052873035E+04  0.22053444827E+04 0.  0.
        4    1    3    3  502    0  0.69352441949E+03 -0.24952248279E+03 -0.17636025595E+03  0.75785364195E+03  0.12699999809E+01 0.  1.
       -4    1    3    3    0  502 -0.69352441949E+03  0.24952248279E+03  0.19101689443E+04  0.20474336616E+04  0.12699999809E+01 0. -1.
</event>
<event>
 5   0  0.1884407E-05  0.2195189E+04  0.7818609E-02  0.8520433E-01
        1   -1    0    0  501    0  0.00000000000E+00  0.00000000000E+00  0.10691595092E+04  0.10691595092E+04  0.50400001928E-02 0. -1.
       -1   -1    0    0    0  501  0.00000000000E+00  0.00000000000E+00 -0.11267856625E+04  0.11267856625E+04  0.50400001928E-02 0.  1.
    10030    2    1    2    0    0  0.00000000000E+00  0.00000000000E+00 -0.57626153227E+02  0.21959451717E+04  0.21951889266E+04 0.  0.
        3    1    3    3  502    0  0.31171684789E+03 -0.89003982181E+02  0.10201779948E+04  0.10704448857E+04  0.10100000352E+00 0. -1.
       -3    1    3    3    0  502 -0.31171684789E+03  0.89003982181E+02 -0.10778041480E+04  0.11255002860E+04  0.10100000352E+00 0.  1.
</event>
<event>
 5   0  0.4143281E-05  0.2203662E+04  0.7818609E-02  0.8516906E-01
       -2   -1    0    0    0  501  0.00000000000E+00  0.00000000000E+00  0.17423585876E+04  0.17423585876E+04  0.25500000920E-02 0. -1.
        2   -1    0    0  501    0  0.00000000000E+00  0.00000000000E+00 -0.69677450525E+03  0.69677450525E+03  0.25500000920E-02 0.  1.
    10030    2    1    2    0    0  0.00000000000E+00  0.00000000000E+00  0.10455840824E+04  0.24391330929E+04  0.22036615374E+04 0.  0.
        2    1    3    3  502    0  0.87760098709E+03  0.50547655333E+03  0.10031478512E+04  0.14254808486E+04  0.25500000920E-02 0.  1.
       -2    1    3    3    0  502 -0.87760098709E+03 -0.50547655333E+03  0.42436231199E+02  0.10136522442E+04  0.25500000920E-02 0. -1.
</event>
<event>
 5   0  0.1866935E-05  0.2191268E+04  0.7818609E-02  0.8522071E-01
        1   -1    0    0  501    0  0.00000000000E+00  0.00000000000E+00  0.26002652514E+04  0.26002652515E+04  0.50400001928E-02 0.  1.
       -1   -1    0    0    0  501  0.00000000000E+00  0.00000000000E+00 -0.46165051283E+03  0.46165051286E+03  0.50400001928E-02 0. -1.
    10030    2    1    2    0    0  0.00000000000E+00  0.00000000000E+00  0.21386147386E+04  0.30619157643E+04  0.21912679315E+04 0.  0.
        4    1    3    3  502    0 -0.68104109780E+03 -0.73017248281E+03  0.43904772949E+03  0.10907489873E+04  0.12699999809E+01 0. -1.
       -4    1    3    3    0  502  0.68104109780E+03  0.73017248281E+03  0.16995670091E+04  0.19711667770E+04  0.12699999809E+01 0.  1.
</event>
<event>
 5   0  0.3963414E-05  0.2210946E+04  0.7818609E-02  0.8513886E-01
       -2   -1    0    0    0  501  0.00000000000E+00  0.00000000000E+00  0.46091700186E+03  0.46091700186E+03  0.25500000920E-02 0. -1.
        2   -1    0    0  501    0  0.00000000000E+00  0.00000000000E+00 -0.26513885777E+04  0.26513885777E+04  0.25500000920E-02 0.  1.
    10030    2    1    2    0    0  0.00000000000E+00  0.00000000000E+00 -0.21904715758E+04  0.31123055795E+04  0.22109455660E+04 0.  0.
        1    1    3    3  502    0  0.39226294974E+03  0.87123626493E+03 -0.31255106715E+03  0.10052915103E+04  0.50400001928E-02 0. -1.
       -1    1    3    3    0  502 -0.39226294974E+03 -0.87123626493E+03 -0.18779205087E+04  0.21070140692E+04  0.50400001928E-02 0.  1.
</event>
<event>
 5   0  0.1815681E-05  0.2222750E+04  0.7818609E-02  0.8509018E-01
        1   -1    0    0  501    0  0.00000000000E+00  0.00000000000E+00  0.17997790902E+04  0.17997790902E+04  0.50400001928E-02 0. -1.
       -1   -1    0    0    0  501  0.00000000000E+00  0.00000000000E+00 -0.68628116620E+03  0.68628116622E+03  0.50400001928E-02 0.  1.
    10030    2    1    2    0    0  0.00000000000E+00  0.00000000000E+00  0.11134979239E+04  0.24860602564E+04  0.22227500921E+04 0.  0.
        2    1    3    3  502    0 -0.10145800960E+03 -0.58342357728E+03 -0.49512682045E+03  0.77189854682E+03  0.25500000920E-02 0.  1.
       -2    1    3    3    0  502  0.10145800960E+03  0.58342357728E+03  0.16086247444E+04  0.17141617096E+04  0.25500000920E-02 0. -1.
</event>
<event>
 5   0  0.1866935E-05  0.2208849E+04  0.7818609E-02  0.8514754E-01
        1   -1    0    0  501    0  0.00000000000E+00  0.00000000000E+00  0.18695145929E+04  0.18695145929E+04  0.50400001928E-02 0.  1.
       -1   -1    0    0    0  501  0.00000000000E+00  0.00000000000E+00 -0.65244389128E+03  0.65244389130E+03  0.50400001928E-02 0. -1.
    10030    2    1    2    0    0  0.00000000000E+00  0.00000000000E+00  0.12170707016E+04  0.25219584842E+04  0.22088489091E+04 0.  0.
        4    1    3    3  502    0 -0.18924394896E+03  0.64219692681E+03  0.16114084154E+04  0.17449552600E+04  0.12699999809E+01 0.  1.
       -4    1    3    3    0  502  0.18924394896E+03 -0.64219692681E+03 -0.39433771384E+03  0.77700322424E+03  0.12699999809E+01 0. -1.
</event>
<event>
 5   0  0.4029532E-05  0.2211377E+04  0.7818609E-02  0.8513707E-01
        2   -1    0    0  501    0  0.00000000000E+00  0.00000000000E+00  0.20003259025E+04  0.20003259025E+04  0.25500000920E-02 0. -1.
       -2   -1    0    0    0  501  0.00000000000E+00  0.00000000000E+00 -0.61117421409E+03  0.61117421410E+03  0.25500000920E-02 0.  1.
    10030    2    1    2    0    0  0.00000000000E+00  0.00000000000E+00  0.13891516884E+04  0.26115001166E+04  0.22113774996E+04 0.  0.
        3    1    3    3  502    0  0.68527968233E+03 -0.67557742070E+02 -0.32703828003E+03  0.76231642927E+03  0.10100000352E+00 0.  1.
       -3    1    3    3    0  502 -0.68527968233E+03  0.67557742070E+02  0.17161899685E+04  0.18491836874E+04  0.10100000352E+00 0. -1.
</event>
<event>
 5   0  0.1884407E-05  0.2200900E+04  0.7818609E-02  0.8518054E-01
        1   -1    0    0  501    0  0.00000000000E+00  0.00000000000E+00  0.14794953938E+04  0.14794953938E+04  0.50400001928E-02 0. -1.
       -1   -1    0    0    0  501  0.00000000000E+00  0.00000000000E+00 -0.81851568334E+03  0.81851568336E+03  0.50400001928E-02 0.  1.
    10030    2    1    2    0    0  0.00000000000E+00  0.00000000000E+00  0.66097971045E+03  0.22980110772E+04  0.22008999825E+04 0.  0.
        3    1    3    3  502    0 -0.62559135825E+03 -0.20891634562E+03 -0.58927531362E+03  0.88445236865E+03  0.10100000352E+00 0.  1.
       -3    1    3    3    0  502  0.62559135825E+03  0.20891634562E+03  0.12502550241E+04  0.14135587085E+04  0.10100000352E+00 0. -1.
</event>
<event>
 5   0  0.4143281E-05  0.2219690E+04  0.7818609E-02  0.8510277E-01
        2   -1    0    0  501    0  0.00000000000E+00  0.00000000000E+00  0.11650109372E+04  0.11650109372E+04  0.25500000920E-02 0. -1.
       -2   -1    0    0    0  501  0.00000000000E+00  0.00000000000E+00 -0.10572915106E+04  0.10572915106E+04  0.25500000920E-02 0.  1.
    10030    2    1    2    0    0  0.00000000000E+00  0.00000000000E+00  0.10771942660E+03  0.22223024479E+04  0.22196902250E+04 0.  0.
        2    1    3    3  502    0  0.99916458871E+03 -0.14659746792E+03  0.51476599784E+03  0.11334922697E+04  0.25500000920E-02 0.  1.
       -2    1    3    3    0  502 -0.99916458871E+03  0.14659746792E+03 -0.40704657124E+03  0.10888101782E+04  0.25500000920E-02 0. -1.
</event>
<event>
 5   0  0.4029532E-05  0.2181602E+04  0.7818609E-02  0.8526125E-01
       -2   -1    0    0    0  501  0.00000000000E+00  0.00000000000E+00  0.66925164583E+03  0.66925164584E+03  0.25500000920E-02 0. -1.
        2   -1    0    0  501    0  0.00000000000E+00  0.00000000000E+00 -0.17778769608E+04  0.17778769608E+04  0.25500000920E-02 0.  1.
    10030    2    1    2    0    0  0.00000000000E+00  0.00000000000E+00 -0.11086253150E+04  0.24471286067E+04  0.21816022388E+04 0.  0.
        3    1    3    3  502    0 -0.80768693105E+03 -0.26445692977E+03  0.21268831760E+03  0.87608902341E+03  0.10100000352E+00 0. -1.
       -3    1    3    3    0  502  0.80768693105E+03  0.26445692977E+03 -0.13213136326E+04  0.15710395833E+04  0.10100000352E+00 0.  1.
</event>
<event>
 5   0  0.4143281E-05  0.2190804E+04  0.7818609E-02  0.8522265E-01
        2   -1    0    0  501    0  0.00000000000E+00  0.00000000000E+00  0.88487290006E+03  0.88487290006E+03  0.25500000920E-02 0.  1.
       -2   -1    0    0    0  501  0.00000000000E+00  0.00000000000E+00 -0.13560201633E+04  0.13560201633E+04  0.25500000920E-02 0. -1.
    10030    2    1    2    0    0  0.00000000000E+00  0.00000000000E+00 -0.47114726323E+03  0.22408930634E+04  0.21908039569E+04 0.  0.
        2    1    3    3  502    0  0.45246803270E+03  0.36721400900E+03 -0.11843211773E+04  0.13199204901E+04  0.25500000920E-02 0. -1.
       -2    1    3    3    0  502 -0.45246803270E+03 -0.36721400900E+03  0.71317391409E+03  0.92097257330E+03  0.25500000920E-02 0.  1.
</event>
<event>
 5   0  0.4143281E-05  0.2190136E+04  0.7818609E-02  0.8522545E-01
        2   -1    0    0  501    0  0.00000000000E+00  0.00000000000E+00  0.12963002074E+04  0.12963002074E+04  0.25500000920E-02 0. -1.
       -2   -1    0    0    0  501  0.00000000000E+00  0.00000000000E+00 -0.92507436966E+03  0.92507436967E+03  0.25500000920E-02 0.  1.
    10030    2    1    2    0    0  0.00000000000E+00  0.00000000000E+00  0.37122583776E+03  0.22213745771E+04  0.21901361577E+04 0.  0.
        2    1    3    3  502    0  0.30041735725E+03  0.52769895492E+03  0.11099052320E+04  0.12651507419E+04  0.25500000920E-02 0. -1.
       -2    1    3    3    0  502 -0.30041735725E+03 -0.52769895492E+03 -0.73867939426E+03  0.95622383523E+03  0.25500000920E-02 0.  1.
</event>
<event>
 5   0  0.1786228E-05  0.2195260E+04  0.7818609E-02  0.8520404E-01
       -1   -1    0    0    0  501  0.00000000000E+00  0.00000000000E+00  0.81430327291E+03  0.81430327292E+03  0.50400001928E-02 0. -1.
        1   -1    0    0  501    0  0.00000000000E+00  0.00000000000E+00 -0.14795363202E+04  0.14795363202E+04  0.50400001928E-02 0.  1.
    10030    2    1    2    0    0  0.00000000000E+00  0.00000000000E+00 -0.66523304725E+03  0.22938395931E+04  0.21952596821E+04 0.  0.
        5    1    3    3  502    0 -0.56580243798E+03 -0.45713942013E+03  0.52628100631E+03  0.89783218692E+03  0.46999998093E+01 0. -1.
       -5    1    3    3    0  502  0.56580243798E+03  0.45713942013E+03 -0.11915140536E+04  0.13960074062E+04  0.46999998093E+01 0.  1.
</event>
<event>
 5   0  0.1866935E-05  0.2213813E+04  0.7818609E-02  0.8512701E-01
       -1   -1    0    0    0  501  0.00000000000E+00  0.00000000000E+00  0.15816657724E+04  0.15816657724E+04  0.50400001928E-02 0.  1.
        1   -1    0    0  501    0  0.00000000000E+00  0.00000000000E+00 -0.77465259475E+03  0.77465259477E+03  0.50400001928E-02 0. -1.
    10030    2    1    2    0    0  0.00000000000E+00  0.00000000000E+00  0.80701317763E+03  0.23563183672E+04  0.22138125437E+04 0.  0.
        4    1    3    3  502    0 -0.10255233034E+04  0.40234633308E+03  0.51843534179E+03  0.12175210200E+04  0.12699999809E+01 0. -1.
       -4    1    3    3    0  502  0.10255233034E+04 -0.40234633308E+03  0.28857783584E+03  0.11387973472E+04  0.12699999809E+01 0.  1.
</event>
<event>
 5   0  0.4143281E-05  0.2184994E+04  0.7818609E-02  0.8524700E-01
       -2   -1    0    0    0  501  0.00000000000E+00  0.00000000000E+00  0.60678557566E+03  0.60678557566E+03  0.25500000920E-02 0. -1.
        2   -1    0    0  501    0  0.00000000000E+00  0.00000000000E+00 -0.19670036446E+04  0.19670036446E+04  0.25500000920E-02 0.  1.
    10030    2    1    2    0    0  0.00000000000E+00  0.00000000000E+00 -0.13602180689E+04  0.25737892202E+04  0.21849937655E+04 0.  0.
        2    1    3    3  502    0 -0.92921513044E+02 -0.18568048560E+03  0.58333015793E+03  0.61918149478E+03  0.25500000920E-02 0. -1.
       -2    1    3    3    0  502  0.92921513044E+02  0.18568048560E+03 -0.19435482268E+04  0.19546077255E+04  0.25500000920E-02 0.  1.
</event>
<event>
 5   0  0.4143281E-05  0.2175478E+04  0.7818609E-02  0.8528705E-01
        2   -1    0    0  501    0  0.00000000000E+00  0.00000000000E+00  0.98563637335E+03  0.98563637335E+03  0.25500000920E-02 0. -1.
       -2   -1    0    0    0  501  0.00000000000E+00  0.00000000000E+00 -0.12004183134E+04  0.12004183134E+04  0.25500000920E-02 0.  1.
    10030    2    1    2    0    0  0.00000000000E+00  0.00000000000E+00 -0.21478194009E+03  0.21860546868E+04  0.21754778353E+04 0.  0.
        2    1    3    3  502    0  0.83608543637E+02 -0.10844241363E+04 -0.92834093697E+02  0.10915971165E+04  0.25500000920E-02 0. -1.
       -2    1    3    3    0  502 -0.83608543637E+02  0.10844241363E+04 -0.12194784640E+03  0.10944575703E+04  0.25500000920E-02 0.  1.
</event>
<event>
 5   0  0.1433375E-05  0.2201458E+04  0.7818609E-02  0.8517821E-01
        3   -1    0    0  501    0  0.00000000000E+00  0.00000000000E+00  0.71799635928E+03  0.71799636639E+03  0.10100000352E+00 0. -1.
       -3   -1    0    0    0  501  0.00000000000E+00  0.00000000000E+00 -0.16874803336E+04  0.16874803366E+04  0.10100000352E+00 0.  1.
    10030    2    1    2    0    0  0.00000000000E+00  0.00000000000E+00 -0.96948397434E+03  0.24054767030E+04  0.22014583785E+04 0.  0.
        3    1    3    3  502    0  0.44151193616E+03 -0.38130008291E+03 -0.15046713519E+04  0.16138024757E+04  0.10100000352E+00 0.  1.
       -3    1    3    3    0  502 -0.44151193616E+03  0.38130008291E+03  0.53518737756E+03  0.79167422738E+03  0.10100000352E+00 0. -1.
</event>
<event>
 5   0  0.4029532E-05  0.2106068E+04  0.7818609E-02  0.8558575E-01
        2   -1    0    0  501    0  0.00000000000E+00  0.00000000000E+00  0.19969373585E+04  0.19969373586E+04  0.25500000920E-02 0.  1.
       -2   -1    0    0    0  501  0.00000000000E+00  0.00000000000E+00 -0.55529040255E+03  0.55529040256E+03  0.25500000920E-02 0. -1.
    10030    2    1    2    0    0  0.00000000000E+00  0.00000000000E+00  0.14416469560E+04  0.25522277611E+04  0.21060675675E+04 0.  0.
        3    1    3    3  502    0  0.24289150312E+03  0.18963099100E+02  0.19623138863E+04  0.19773800039E+04  0.10100000352E+00 0.  1.
       -3    1    3    3    0  502 -0.24289150312E+03 -0.18963099100E+02 -0.52066693030E+03  0.57484775717E+03  0.10100000352E+00 0. -1.
</event>
<event>
 5   0  0.1433375E-05  0.2207534E+04  0.7818609E-02  0.8515299E-01
       -4   -1    0    0    0  501  0.00000000000E+00  0.00000000000E+00  0.98951730568E+03  0.98951812067E+03  0.12699999809E+01 0.  1.
        4   -1    0    0  501    0  0.00000000000E+00  0.00000000000E+00 -0.12312062271E+04  0.12312068821E+04  0.12699999809E+01 0. -1.
    10030    2    1    2    0    0  0.00000000000E+00  0.00000000000E+00 -0.24168892140E+03  0.22207250028E+04  0.22075339189E+04 0.  0.
        5    1    3    3  502    0 -0.30329116178E+03  0.10464884802E+04  0.56720165755E+02  0.10910375498E+04  0.46999998093E+01 0.  1.
       -5    1    3    3    0  502  0.30329116178E+03 -0.10464884802E+04 -0.29840908715E+03  0.11296874529E+04  0.46999998093E+01 0. -1.
</event>
<event>
 5   0  0.1788413E-05  0.2200966E+04  0.7818609E-02  0.8518026E-01
        1   -1    0    0  501    0  0.00000000000E+00  0.00000000000E+00  0.96295949852E+03  0.96295949853E+03  0.50400001928E-02 0. -1.
       -1   -1    0    0    0  501  0.00000000000E+00  0.00000000000E+00 -0.12576461689E+04  0.12576461689E+04  0.50400001928E-02 0.  1.
    10030    2    1    2    0    0  0.00000000000E+00  0.00000000000E+00 -0.29468667040E+03  0.22206056675E+04  0.22009655374E+04 0.  0.
        1    1    3    3  502    0  0.27993382384E+03  0.46812469063E+03  0.81698831089E+03  0.98233068356E+03  0.50400001928E-02 0. -1.
       -1    1    3    3    0  502 -0.27993382384E+03 -0.46812469063E+03 -0.11116749813E+04  0.12382749839E+04  0.50400001928E-02 0.  1.
</event>
<event>
 5   0  0.4143281E-05  0.2181921E+04  0.7818609E-02  0.8525991E-01
        2   -1    0    0  501    0  0.00000000000E+00  0.00000000000E+00  0.15490736123E+04  0.15490736123E+04  0.25500000920E-02 0. -1.
       -2   -1    0    0    0  501  0.00000000000E+00  0.00000000000E+00 -0.76832684811E+03  0.76832684812E+03  0.25500000920E-02 0.  1.
    10030    2    1    2    0    0  0.00000000000E+00  0.00000000000E+00  0.78074676424E+03  0.23174004605E+04  0.21819210307E+04 0.  0.
        2    1    3    3  502    0  0.31256639669E+03  0.30800157658E+02  0.15000171237E+04  0.15325461733E+04  0.25500000920E-02 0. -1.
       -2    1    3    3    0  502 -0.31256639669E+03 -0.30800157658E+02 -0.71927035945E+03  0.78485428713E+03  0.25500000920E-02 0.  1.
</event>
<event>
 5   0  0.4027923E-05  0.2197295E+04  0.7818609E-02  0.8519555E-01
       -2   -1    0    0    0  501  0.00000000000E+00  0.00000000000E+00  0.74834796297E+03  0.74834796297E+03  0.25500000920E-02 0.  1.
        2   -1    0    0  501    0  0.00000000000E+00  0.00000000000E+00 -0.16129206775E+04  0.16129206775E+04  0.25500000920E-02 0. -1.
    10030    2    1    2    0    0  0.00000000000E+00  0.00000000000E+00 -0.86457271450E+03  0.23612686404E+04  0.21972946124E+04 0.  0.
        5    1    3    3  502    0 -0.74942566078E+03  0.54017167161E+03  0.20671338436E+03  0.94666613393E+03  0.46999998093E+01 0.  1.
       -5    1    3    3    0  502  0.74942566078E+03 -0.54017167161E+03 -0.10712860989E+04  0.14146025065E+04  0.46999998093E+01 0. -1.
</event>
<event>
 5   0  0.1433375E-05  0.2065353E+04  0.7818609E-02  0.8576661E-01
        4   -1    0    0  501    0  0.00000000000E+00  0.00000000000E+00  0.20584678048E+04  0.20584681965E+04  0.12699999809E+01 0. -1.
       -4   -1    0    0    0  501  0.00000000000E+00  0.00000000000E+00 -0.51806391501E+03  0.51806547166E+03  0.12699999809E+01 0.  1.
    10030    2    1    2    0    0  0.00000000000E+00  0.00000000000E+00  0.15404038898E+04  0.25765336682E+04  0.20653526575E+04 0.  0.
        3    1    3    3  502    0 -0.93167765991E+03  0.44098430297E+03  0.84840727415E+03  0.13350225955E+04  0.10100000352E+00 0. -1.
       -3    1    3    3    0  502  0.93167765991E+03 -0.44098430297E+03  0.69199661561E+03  0.12415110727E+04  0.10100000352E+00 0.  1.
</event>
<event>
 5   0  0.1786228E-05  0.2209001E+04  0.7818609E-02  0.8514691E-01
        1   -1    0    0  501    0  0.00000000000E+00  0.00000000000E+00  0.14704790932E+04  0.14704790932E+04  0.50400001928E-02 0.  1.
       -1   -1    0    0    0  501  0.00000000000E+00  0.00000000000E+00 -0.82960836396E+03  0.82960836397E+03  0.50400001928E-02 0. -1.
    10030    2    1    2    0    0  0.00000000000E+00  0.00000000000E+00  0.64087072920E+03  0.23000874571E+04  0.22090013624E+04 0.  0.
        5    1    3    3  502    0  0.31980559946E+03  0.68478665294E+03 -0.51818884787E+03  0.91637882644E+03  0.46999998093E+01 0. -1.
       -5    1    3    3    0  502 -0.31980559946E+03 -0.68478665294E+03  0.11590595771E+04  0.13837086307E+04  0.46999998093E+01 0.  1.
</event>
<event>
 5   0  0.4132460E-05  0.2199810E+04  0.7818609E-02  0.8518507E-01
        2   -1    0    0  501    0  0.00000000000E+00  0.00000000000E+00  0.98319558210E+03  0.98319558210E+03  0.25500000920E-02 0.  1.
       -2   -1    0    0    0  501  0.00000000000E+00  0.00000000000E+00 -0.12304687927E+04  0.12304687927E+04  0.25500000920E-02 0. -1.
    10030    2    1    2    0    0  0.00000000000E+00  0.00000000000E+00 -0.24727321056E+03  0.22136643748E+04  0.21998104290E+04 0.  0.
        4    1    3    3  502    0  0.10717487761E+04 -0.37506615705E+02 -0.36958880144E+03  0.11343058143E+04  0.12699999809E+01 0.  1.
       -4    1    3    3    0  502 -0.10717487761E+04  0.37506615705E+02  0.12231559088E+03  0.10793585604E+04  0.12699999809E+01 0. -1.
</event>
<event>
 5   0  0.1884407E-05  0.2180123E+04  0.7818609E-02  0.8526747E-01
        1   -1    0    0  501    0  0.00000000000E+00  0.00000000000E+00  0.94026117577E+03  0.94026117578E+03  0.50400001928E-02 0. -1.
       -1   -1    0    0    0  501  0.00000000000E+00  0.00000000000E+00 -0.12637280889E+04  0.12637280889E+04  0.50400001928E-02 0.  1.
    10030    2    1    2    0    0  0.00000000000E+00  0.00000000000E+00 -0.32346691314E+03  0.22039892647E+04  0.21801233532E+04 0.  0.
        3    1    3    3  502    0 -0.62323488833E+02  0.90469784247E+03 -0.77322861350E+03  0.11917402831E+04  0.10100000352E+00 0.  1.
       -3    1    3    3    0  502  0.62323488833E+02 -0.90469784247E+03  0.44976170037E+03  0.10122489816E+04  0.10100000352E+00 0. -1.
</event>
<event>
 5   0  0.1815681E-05  0.2214432E+04  0.7818609E-02  0.8512445E-01
        1   -1    0    0  501    0  0.00000000000E+00  0.00000000000E+00  0.12524836947E+04  0.12524836947E+04  0.50400001928E-02 0. -1.
       -1   -1    0    0    0  501  0.00000000000E+00  0.00000000000E+00 -0.97879681586E+03  0.97879681587E+03  0.50400001928E-02 0.  1.
    10030    2    1    2    0    0  0.00000000000E+00  0.00000000000E+00  0.27368687881E+03  0.22312805106E+04  0.22144318028E+04 0.  0.
        2    1    3    3  502    0  0.54329167348E+03 -0.37244295479E+03 -0.75989846272E+03  0.10056466928E+04  0.25500000920E-02 0.  1.
       -2    1    3    3    0  502 -0.54329167348E+03  0.37244295479E+03  0.10335853415E+04  0.12256338178E+04  0.25500000920E-02 0. -1.
</event>
<event>
 5   0  0.4143281E-05  0.2185625E+04  0.7818609E-02  0.8524435E-01
       -2   -1    0    0    0  501  0.00000000000E+00  0.00000000000E+00  0.77031232650E+03  0.77031232650E+03  0.25500000920E-02 0.  1.
        2   -1    0    0  501    0  0.00000000000E+00  0.00000000000E+00 -0.15503305334E+04  0.15503305334E+04  0.25500000920E-02 0. -1.
    10030    2    1    2    0    0  0.00000000000E+00  0.00000000000E+00 -0.78001820685E+03  0.23206428599E+04  0.21856245972E+04 0.  0.
        2    1    3    3  502    0  0.28014319258E+03 -0.10528607061E+04 -0.29964679062E+03  0.11299487042E+04  0.25500000920E-02 0.  1.
       -2    1    3    3    0  502 -0.28014319258E+03  0.10528607061E+04 -0.48037141623E+03  0.11906941557E+04  0.25500000920E-02 0. -1.
</event>
<event>
 5   0  0.4029532E-05  0.2311123E+04  0.7818609E-02  0.8473548E-01
        2   -1    0    0  501    0  0.00000000000E+00  0.00000000000E+00  0.12331960909E+04  0.12331960909E+04  0.25500000920E-02 0.  1.
       -2   -1    0    0    0  501  0.00000000000E+00  0.00000000000E+00 -0.10828141833E+04  0.10828141833E+04  0.25500000920E-02 0. -1.
    10030    2    1    2    0    0  0.00000000000E+00  0.00000000000E+00  0.15038190759E+03  0.23160102742E+04  0.23111228596E+04 0.  0.
        3    1    3    3  502    0  0.35833525280E+02  0.63520327849E+03 -0.89150179933E+03  0.10952363740E+04  0.10100000352E+00 0. -1.
       -3    1    3    3    0  502 -0.35833525280E+02 -0.63520327849E+03  0.10418837069E+04  0.12207739002E+04  0.10100000352E+00 0.  1.
</event>
<event>
 5   0  0.1866935E-05  0.2142174E+04  0.7818609E-02  0.8542890E-01
        1   -1    0    0  501    0  0.00000000000E+00  0.00000000000E+00  0.85890354625E+03  0.85890354626E+03  0.50400001928E-02 0. -1.
       -1   -1    0    0    0  501  0.00000000000E+00  0.00000000000E+00 -0.13356877621E+04  0.13356877621E+04  0.50400001928E-02 0.  1.
    10030    2    1    2    0    0  0.00000000000E+00  0.00000000000E+00 -0.47678421587E+03  0.21945913084E+04  0.21421736210E+04 0.  0.
        4    1    3    3  502    0 -0.33818759840E+03 -0.86023771580E+03 -0.79278584082E+03  0.12177400304E+04  0.12699999809E+01 0.  1.
       -4    1    3    3    0  502  0.33818759840E+03  0.86023771580E+03  0.31600162495E+03  0.97685127797E+03  0.12699999809E+01 0. -1.
</event>
<event>
 5   0  0.4029532E-05  0.2194806E+04  0.7818609E-02  0.8520593E-01
        2   -1    0    0  501    0  0.00000000000E+00  0.00000000000E+00  0.10955311557E+04  0.10955311557E+04  0.25500000920E-02 0.  1.
       -2   -1    0    0    0  501  0.00000000000E+00  0.00000000000E+00 -0.10992781072E+04  0.10992781072E+04  0.25500000920E-02 0. -1.
    10030    2    1    2    0    0  0.00000000000E+00  0.00000000000E+00 -0.37469515475E+01  0.21948092629E+04  0.21948060645E+04 0.  0.
        3    1    3    3  502    0  0.35503143524E+03  0.50498121768E+03 -0.90920056900E+03  0.10989536092E+04  0.10100000352E+00 0. -1.
       -3    1    3    3    0  502 -0.35503143524E+03 -0.50498121768E+03  0.90545361745E+03  0.10958556537E+04  0.10100000352E+00 0.  1.
</event>
<event>
 5   0  0.1884407E-05  0.2205213E+04  0.7818609E-02  0.8516261E-01
        1   -1    0    0  501    0  0.00000000000E+00  0.00000000000E+00  0.11789389958E+04  0.11789389959E+04  0.50400001928E-02 0.  1.
       -1   -1    0    0    0  501  0.00000000000E+00  0.00000000000E+00 -0.10312165474E+04  0.10312165474E+04  0.50400001928E-02 0. -1.
    10030    2    1    2    0    0  0.00000000000E+00  0.00000000000E+00  0.14772244842E+03  0.22101555433E+04  0.22052132785E+04 0.  0.
        3    1    3    3  502    0 -0.42573915908E+03 -0.56238353028E+03  0.92323464495E+03  0.11618482201E+04  0.10100000352E+00 0.  1.
       -3    1    3    3    0  502  0.42573915908E+03  0.56238353028E+03 -0.77551219653E+03  0.10483073232E+04  0.10100000352E+00 0. -1.
</event>
<event>
 5   0  0.4143281E-05  0.2187170E+04  0.7818609E-02  0.8523787E-01
        2   -1    0    0  501    0  0.00000000000E+00  0.00000000000E+00  0.14368309838E+04  0.14368309838E+04  0.25500000920E-02 0. -1.
       -2   -1    0    0    0  501  0.00000000000E+00  0.00000000000E+00 -0.83233737012E+03  0.83233737012E+03  0.25500000920E-02 0.  1.
    10030    2    1    2    0    0  0.00000000000E+00  0.00000000000E+00  0.60449361366E+03  0.22691683539E+04  0.21871699727E+04 0.  0.
        2    1    3    3  502    0  0.10855485725E+04 -0.11460930696E+03  0.37088703198E+03  0.11528695447E+04  0.25500000920E-02 0. -1.
       -2    1    3    3    0  502 -0.10855485725E+04  0.11460930696E+03  0.23360658168E+03  0.11162988092E+04  0.25500000920E-02 0.  1.
</event>
<event>
 5   0  0.4029532E-05  0.2058538E+04  0.7818609E-02  0.8579731E-01
       -2   -1    0    0    0  501  0.00000000000E+00  0.00000000000E+00  0.69854151228E+03  0.69854151228E+03  0.25500000920E-02 0. -1.
        2   -1    0    0  501    0  0.00000000000E+00  0.00000000000E+00 -0.15165815574E+04  0.15165815574E+04  0.25500000920E-02 0.  1.
    10030    2    1    2    0    0  0.00000000000E+00  0.00000000000E+00 -0.81804004510E+03  0.22151230697E+04  0.20585384860E+04 0.  0.
        3    1    3    3  502    0  0.20367135973E+03  0.26002186997E+03  0.63996584701E+03  0.72017337578E+03  0.10100000352E+00 0. -1.
       -3    1    3    3    0  502 -0.20367135973E+03 -0.26002186997E+03 -0.14580058921E+04  0.14949496939E+04  0.10100000352E+00 0.  1.
</event>
<event>
 5   0  0.3963414E-05  0.2185477E+04  0.7818609E-02  0.8524497E-01
        2   -1    0    0  501    0  0.00000000000E+00  0.00000000000E+00  0.50582430028E+03  0.50582430029E+03  0.25500000920E-02 0. -1.
       -2   -1    0    0    0  501  0.00000000000E+00  0.00000000000E+00 -0.23606562932E+04  0.23606562932E+04  0.25500000920E-02 0.  1.
    10030    2    1    2    0    0  0.00000000000E+00  0.00000000000E+00 -0.18548319929E+04  0.28664805935E+04  0.21854768978E+04 0.  0.
        1    1    3    3  502    0  0.69318783571E+03 -0.62973289165E+03 -0.18894158787E+03  0.95539092211E+03  0.50400001928E-02 0. -1.
       -1    1    3    3    0  502 -0.69318783571E+03  0.62973289165E+03 -0.16658904050E+04  0.19110896714E+04  0.50400001928E-02 0.  1.
</event>
<event>
 5   0  0.1788413E-05  0.2145772E+04  0.7818609E-02  0.8541344E-01
       -1   -1    0    0    0  501  0.00000000000E+00  0.00000000000E+00  0.54237918277E+03  0.54237918279E+03  0.50400001928E-02 0. -1.
        1   -1    0    0  501    0  0.00000000000E+00  0.00000000000E+00 -0.21222880914E+04  0.21222880914E+04  0.50400001928E-02 0.  1.
    10030    2    1    2    0    0  0.00000000000E+00  0.00000000000E+00 -0.15799089086E+04  0.26646672742E+04  0.21457724769E+04 0.  0.
        1    1    3    3  502    0  0.13513565118E+02 -0.26609402994E+03 -0.20805511331E+04  0.20975418153E+04  0.50400001928E-02 0.  1.
       -1    1    3    3    0  502 -0.13513565118E+02  0.26609402994E+03  0.50064222449E+03  0.56712545894E+03  0.50400001928E-02 0. -1.
</event>
<event>
 5   0  0.4029532E-05  0.2178714E+04  0.7818609E-02  0.8527341E-01
        2   -1    0    0  501    0  0.00000000000E+00  0.00000000000E+00  0.10576728244E+04  0.10576728244E+04  0.25500000920E-02 0.  1.
       -2   -1    0    0    0  501  0.00000000000E+00  0.00000000000E+00 -0.11219899704E+04  0.11219899704E+04  0.25500000920E-02 0. -1.
    10030    2    1    2    0    0  0.00000000000E+00  0.00000000000E+00 -0.64317145985E+02  0.21796627948E+04  0.21787136580E+04 0.  0.
        3    1    3    3  502    0 -0.93477402199E+03 -0.55050502793E+03 -0.13139872628E+03  0.10927597602E+04  0.10100000352E+00 0. -1.
       -3    1    3    3    0  502  0.93477402199E+03  0.55050502793E+03  0.67081580299E+02  0.10869030346E+04  0.10100000352E+00 0.  1.
</event>
<event>
 5   0  0.1866935E-05  0.2187025E+04  0.7818609E-02  0.8523848E-01
       -1   -1    0    0    0  501  0.00000000000E+00  0.00000000000E+00  0.12279706213E+04  0.12279706214E+04  0.50400001928E-02 0.  1.
        1   -1    0    0  501    0  0.00000000000E+00  0.00000000000E+00 -0.97377693463E+03  0.97377693464E+03  0.50400001928E-02 0. -1.
    10030    2    1    2    0    0  0.00000000000E+00  0.00000000000E+00  0.25419368671E+03  0.22017475560E+04  0.21870248901E+04 0.  0.
        4    1    3    3  502    0 -0.17447736226E+03 -0.95932447841E+03  0.62542609597E+03  0.11584063273E+04  0.12699999809E+01 0.  1.
       -4    1    3    3    0  502  0.17447736226E+03  0.95932447841E+03 -0.37123240925E+03  0.10433412286E+04  0.12699999809E+01 0. -1.
</event>
<event>
 5   0  0.4027923E-05  0.2184098E+04  0.7818609E-02  0.8525076E-01
        2   -1    0    0  501    0  0.00000000000E+00  0.00000000000E+00  0.98836815360E+03  0.98836815360E+03  0.25500000920E-02 0.  1.
       -2   -1    0    0    0  501  0.00000000000E+00  0.00000000000E+00 -0.12066059847E+04  0.12066059847E+04  0.25500000920E-02 0. -1.
    10030    2    1    2    0    0  0.00000000000E+00  0.00000000000E+00 -0.21823783106E+03  0.21949741383E+04  0.21840979183E+04 0.  0.
        5    1    3    3  502    0  0.58032899304E+03 -0.81011333831E+03  0.33974094338E+03  0.10528586608E+04  0.46999998093E+01 0. -1.
       -5    1    3    3    0  502 -0.58032899304E+03  0.81011333831E+03 -0.55797877444E+03  0.11421154774E+04  0.46999998093E+01 0.  1.
</event>
<event>
 5   0  0.1866935E-05  0.2190619E+04  0.7818609E-02  0.8522343E-01
        1   -1    0    0  501    0  0.00000000000E+00  0.00000000000E+00  0.18511963249E+04  0.18511963249E+04  0.50400001928E-02 0. -1.
       -1   -1    0    0    0  501  0.00000000000E+00  0.00000000000E+00 -0.64806904503E+03  0.64806904505E+03  0.50400001928E-02 0.  1.
    10030    2    1    2    0    0  0.00000000000E+00  0.00000000000E+00  0.12031272799E+04  0.24992653700E+04  0.21906191221E+04 0.  0.
        4    1    3    3  502    0 -0.82116246996E+03 -0.14868041165E+03  0.14109458960E+04  0.16392631275E+04  0.12699999809E+01 0. -1.
       -4    1    3    3    0  502  0.82116246996E+03  0.14868041165E+03 -0.20781861615E+03  0.86000224244E+03  0.12699999809E+01 0.  1.
</event>
<event>
 5   0  0.1884407E-05  0.2214648E+04  0.7818609E-02  0.8512356E-01
       -1   -1    0    0    0  501  0.00000000000E+00  0.00000000000E+00  0.54874142100E+03  0.54874142102E+03  0.50400001928E-02 0.  1.
        1   -1    0    0  501    0  0.00000000000E+00  0.00000000000E+00 -0.22345063234E+04  0.22345063234E+04  0.50400001928E-02 0. -1.
    10030    2    1    2    0    0  0.00000000000E+00  0.00000000000E+00 -0.16857649024E+04  0.27832477444E+04  0.22146477600E+04 0.  0.
        3    1    3    3  502    0  0.11722167308E+03  0.29823784103E+03  0.48919589257E+03  0.58480711518E+03  0.10100000352E+00 0.  1.
       -3    1    3    3    0  502 -0.11722167308E+03 -0.29823784103E+03 -0.21749607950E+04  0.21984406292E+04  0.10100000352E+00 0. -1.
</event>
<event>
 5   0  0.3963414E-05  0.2145599E+04  0.7818609E-02  0.8541419E-01
        2   -1    0    0  501    0  0.00000000000E+00  0.00000000000E+00  0.10882527486E+04  0.10882527486E+04  0.25500000920E-02 0. -1.
       -2   -1    0    0    0  501  0.00000000000E+00  0.00000000000E+00 -0.10575653114E+04  0.10575653114E+04  0.25500000920E-02 0.  1.
    10030    2    1    2    0    0  0.00000000000E+00  0.00000000000E+00  0.30687437184E+02  0.21458180601E+04  0.21455986177E+04 0.  0.
        1    1    3    3  502    0  0.45420373709E+03 -0.18126912122E+03 -0.93960409921E+03  0.10592522799E+04  0.50400001928E-02 0.  1.
       -1    1    3    3    0  502 -0.45420373709E+03  0.18126912122E+03  0.97029153639E+03  0.10865657802E+04  0.50400001928E-02 0. -1.
</event>
<event>
 5   0  0.4132460E-05  0.2193274E+04  0.7818609E-02  0.8521233E-01
       -2   -1    0    0    0  501  0.00000000000E+00  0.00000000000E+00  0.98162617410E+03  0.98162617411E+03  0.25500000920E-02 0. -1.
        2   -1    0    0  501    0  0.00000000000E+00  0.00000000000E+00 -0.12251228603E+04  0.12251228603E+04  0.25500000920E-02 0.  1.
    10030    2    1    2    0    0  0.00000000000E+00  0.00000000000E+00 -0.24349668619E+03  0.22067490344E+04  0.21932739602E+04 0.  0.
        4    1    3    3  502    0 -0.49065295077E+03 -0.91159809974E+03 -0.48571610899E+03  0.11435353799E+04  0.12699999809E+01 0.  1.
       -4    1    3    3    0  502  0.49065295077E+03  0.91159809974E+03  0.24221942280E+03  0.10632136546E+04  0.12699999809E+01 0. -1.
</event>
<event>
 5   0  0.4029532E-05  0.2195561E+04  0.7818609E-02  0.8520278E-01
       -2   -1    0    0    0  501  0.00000000000E+00  0.00000000000E+00  0.10173771184E+04  0.10173771184E+04  0.25500000920E-02 0.  1.
        2   -1    0    0  501    0  0.00000000000E+00  0.00000000000E+00 -0.11845385951E+04  0.11845385951E+04  0.25500000920E-02 0. -1.
    10030    2    1    2    0    0  0.00000000000E+00  0.00000000000E+00 -0.16716147673E+03  0.22019157135E+04  0.21955613975E+04 0.  0.
        3    1    3    3  502    0  0.54823440888E+03  0.78375683672E+03  0.45676120215E+03  0.10599370510E+04  0.10100000352E+00 0.  1.
       -3    1    3    3    0  502 -0.54823440888E+03 -0.78375683672E+03 -0.62392267888E+03  0.11419786625E+04  0.10100000352E+00 0. -1.
</event>
<event>
 5   0  0.1815681E-05  0.2189327E+04  0.7818609E-02  0.8522884E-01
       -1   -1    0    0    0  501  0.00000000000E+00  0.00000000000E+00  0.11092734153E+04  0.11092734153E+04  0.50400001928E-02 0.  1.
        1   -1    0    0  501    0  0.00000000000E+00  0.00000000000E+00 -0.10802455688E+04  0.10802455688E+04  0.50400001928E-02 0. -1.
    10030    2    1    2    0    0  0.00000000000E+00  0.00000000000E+00  0.29027846513E+02  0.21895189841E+04  0.21893265554E+04 0.  0.
        2    1    3    3  502    0 -0.25574245519E+03 -0.52113347731E+03 -0.91363197070E+03  0.10824544713E+04  0.25500000920E-02 0. -1.
       -2    1    3    3    0  502  0.25574245519E+03  0.52113347731E+03  0.94265981721E+03  0.11070645128E+04  0.25500000920E-02 0.  1.
</event>
<event>
 5   0  0.1815681E-05  0.2200381E+04  0.7818609E-02  0.8518269E-01
       -1   -1    0    0    0  501  0.00000000000E+00  0.00000000000E+00  0.10324640883E+04  0.10324640884E+04  0.50400001928E-02 0. -1.
        1   -1    0    0  501    0  0.00000000000E+00  0.00000000000E+00 -0.11723599553E+04  0.11723599553E+04  0.50400001928E-02 0.  1.
    10030    2    1    2    0    0  0.00000000000E+00  0.00000000000E+00 -0.13989586694E+03  0.22048240436E+04  0.22003813783E+04 0.  0.
        2    1    3    3  502    0  0.83031388847E+03 -0.16319727084E+03  0.63458265784E+03  0.10577096257E+04  0.25500000920E-02 0. -1.
       -2    1    3    3    0  502 -0.83031388847E+03  0.16319727084E+03 -0.77447852477E+03  0.11471144180E+04  0.25500000920E-02 0.  1.
</event>
<event>
 5   0  0.4027923E-05  0.2180934E+04  0.7818609E-02  0.8526406E-01
        2   -1    0    0  501    0  0.00000000000E+00  0.00000000000E+00  0.17331483326E+04  0.17331483326E+04  0.25500000920E-02 0. -1.
       -2   -1    0    0    0  501  0.00000000000E+00  0.00000000000E+00 -0.68610316034E+03  0.68610316034E+03  0.25500000920E-02 0.  1.
    10030    2    1    2    0    0  0.00000000000E+00  0.00000000000E+00  0.10470451723E+04  0.24192514930E+04  0.21809342478E+04 0.  0.
        5    1    3    3  502    0  0.68933597302E+03 -0.57831736404E+03  0.12068396220E+04  0.15053634181E+04  0.46999998093E+01 0. -1.
       -5    1    3    3    0  502 -0.68933597302E+03  0.57831736404E+03 -0.15979444973E+03  0.91388807488E+03  0.46999998093E+01 0.  1.
</event>
<event>
 5   0  0.1788413E-05  0.2090909E+04  0.7818609E-02  0.8565259E-01
        1   -1    0    0  501    0  0.00000000000E+00  0.00000000000E+00  0.16519713070E+04  0.16519713070E+04  0.50400001928E-02 0.  1.
       -1   -1    0    0    0  501  0.00000000000E+00  0.00000000000E+00 -0.66161863095E+03  0.66161863096E+03  0.50400001928E-02 0. -1.
    10030    2    1    2    0    0  0.00000000000E+00  0.00000000000E+00  0.99035267605E+03  0.23135899380E+04  0.20909088880E+04 0.  0.
        1    1    3    3  502    0  0.79586104907E+03  0.54950634365E+03  0.93447615485E+03  0.13448411487E+04  0.50400001928E-02 0.  1.
       -1    1    3    3    0  502 -0.79586104907E+03 -0.54950634365E+03  0.55876521205E+02  0.96874878931E+03  0.50400001928E-02 0. -1.
</event>
<event>
 5   0  0.4029532E-05  0.2190825E+04  0.7818609E-02  0.8522257E-01
        2   -1    0    0  501    0  0.00000000000E+00  0.00000000000E+00  0.77841915950E+03  0.77841915951E+03  0.25500000920E-02 0. -1.
       -2   -1    0    0    0  501  0.00000000000E+00  0.00000000000E+00 -0.15414938805E+04  0.15414938805E+04  0.25500000920E-02 0.  1.
    10030    2    1    2    0    0  0.00000000000E+00  0.00000000000E+00 -0.76307472100E+03  0.23199130400E+04  0.21908248409E+04 0.  0.
        3    1    3    3  502    0  0.62747830102E+03  0.38028404833E+03  0.47976640195E+03  0.87665317333E+03  0.10100000352E+00 0. -1.
       -3    1    3    3    0  502 -0.62747830102E+03 -0.38028404833E+03 -0.12428411230E+04  0.14432598667E+04  0.10100000352E+00 0.  1.
</event>
<event>
 5   0  0.1815681E-05  0.2217452E+04  0.7818609E-02  0.8511199E-01
       -1   -1    0    0    0  501  0.00000000000E+00  0.00000000000E+00  0.27667920687E+04  0.27667920687E+04  0.50400001928E-02 0.  1.
        1   -1    0    0  501    0  0.00000000000E+00  0.00000000000E+00 -0.44429562349E+03  0.44429562352E+03  0.50400001928E-02 0. -1.
    10030    2    1    2    0    0  0.00000000000E+00  0.00000000000E+00  0.23224964452E+04  0.32110876923E+04  0.22174522383E+04 0.  0.
        2    1    3    3  502    0  0.18366483862E+02 -0.20341818817E+03 -0.41681784735E+03  0.46416958634E+03  0.25500000920E-02 0. -1.
       -2    1    3    3    0  502 -0.18366483862E+02  0.20341818817E+03  0.27393142926E+04  0.27469181059E+04  0.25500000920E-02 0.  1.
</event>
<event>
 5   0  0.1866935E-05  0.2196345E+04  0.7818609E-02  0.8519951E-01
        1   -1    0    0  501    0  0.00000000000E+00  0.00000000000E+00  0.11045960584E+04  0.11045960584E+04  0.50400001928E-02 0. -1.
       -1   -1    0    0    0  501  0.00000000000E+00  0.00000000000E+00 -0.10917866780E+04  0.10917866780E+04  0.50400001928E-02 0.  1.
    10030    2    1    2    0    0  0.00000000000E+00  0.00000000000E+00  0.12809380377E+02  0.21963827364E+04  0.21963453837E+04 0.  0.
        4    1    3    3  502    0  0.26369158921E+03 -0.19187568990E+03 -0.10422465942E+04  0.10920755975E+04  0.12699999809E+01 0.  1.
       -4    1    3    3    0  502 -0.26369158921E+03  0.19187568990E+03  0.10550559746E+04  0.11043071389E+04  0.12699999809E+01 0. -1.
</event>
<event>
 5   0  0.1786228E-05  0.2206396E+04  0.7818609E-02  0.8515771E-01
        1   -1    0    0  501    0  0.00000000000E+00  0.00000000000E+00  0.13351079649E+04  0.13351079649E+04  0.50400001928E-02 0.  1.
       -1   -1    0    0    0  501  0.00000000000E+00  0.00000000000E+00 -0.91157142293E+03  0.91157142294E+03  0.50400001928E-02 0. -1.
    10030    2    1    2    0    0  0.00000000000E+00  0.00000000000E+00  0.42353654198E+03  0.22466793879E+04  0.22063963990E+04 0.  0.
        5    1    3    3  502    0 -0.86142409030E+03 -0.11065925904E+03  0.90442824973E+03  0.12539176543E+04  0.46999998093E+01 0.  1.
       -5    1    3    3    0  502  0.86142409030E+03  0.11065925904E+03 -0.48089170775E+03  0.99276173352E+03  0.46999998093E+01 0. -1.
</event>
<event>
 5   0  0.4132460E-05  0.2204403E+04  0.7818609E-02  0.8516598E-01
        2   -1    0    0  501    0  0.00000000000E+00  0.00000000000E+00  0.23524831132E+04  0.23524831132E+04  0.25500000920E-02 0.  1.
       -2   -1    0    0    0  501  0.00000000000E+00  0.00000000000E+00 -0.51641101874E+03  0.51641101874E+03  0.25500000920E-02 0. -1.
    10030    2    1    2    0    0  0.00000000000E+00  0.00000000000E+00  0.18360720945E+04  0.28688941319E+04  0.22044030494E+04 0.  0.
        4    1    3    3  502    0 -0.80741876315E+03 -0.62077580560E+03  0.36963941820E+03  0.10834770751E+04  0.12699999809E+01 0. -1.
       -4    1    3    3    0  502  0.80741876315E+03  0.62077580560E+03  0.14664326763E+04  0.17854170568E+04  0.12699999809E+01 0.  1.
</event>
<event>
 5   0  0.1786228E-05  0.2191101E+04  0.7818609E-02  0.8522141E-01
       -1   -1    0    0    0  501  0.00000000000E+00  0.00000000000E+00  0.72229469211E+03  0.72229469213E+03  0.50400001928E-02 0.  1.
        1   -1    0    0  501    0  0.00000000000E+00  0.00000000000E+00 -0.16616921776E+04  0.16616921776E+04  0.50400001928E-02 0. -1.
    10030    2    1    2    0    0  0.00000000000E+00  0.00000000000E+00 -0.93939748551E+03  0.23839868698E+04  0.21911014945E+04 0.  0.
        5    1    3    3  502    0 -0.52132225029E+03 -0.40830940299E+03 -0.14192925473E+04  0.15661758784E+04  0.46999998093E+01 0. -1.
       -5    1    3    3    0  502  0.52132225029E+03  0.40830940299E+03  0.47989506182E+03  0.81781099135E+03  0.46999998093E+01 0.  1.
</event>
<event>
 5   0  0.4143281E-05  0.2223656E+04  0.7818609E-02  0.8508646E-01
       -2   -1    0    0    0  501  0.00000000000E+00  0.00000000000E+00  0.10424006116E+04  0.10424006116E+04  0.25500000920E-02 0. -1.
        2   -1    0    0  501    0  0.00000000000E+00  0.00000000000E+00 -0.11858798523E+04  0.11858798523E+04  0.25500000920E-02 0.  1.
    10030    2    1    2    0    0  0.00000000000E+00  0.00000000000E+00 -0.14347924068E+03  0.22282804639E+04  0.22236563434E+04 0.  0.
        2    1    3    3  502    0 -0.85291421184E+03 -0.36870455968E+03  0.54006761422E+03  0.10747458923E+04  0.25500000920E-02 0. -1.
       -2    1    3    3    0  502  0.85291421184E+03  0.36870455968E+03 -0.68354685490E+03  0.11535345716E+04  0.25500000920E-02 0.  1.
</event>
<event>
 5   0  0.1815681E-05  0.2184891E+04  0.7818609E-02  0.8524743E-01
       -1   -1    0    0    0  501  0.00000000000E+00  0.00000000000E+00  0.12139236129E+04  0.12139236129E+04  0.50400001928E-02 0. -1.
        1   -1    0    0  501    0  0.00000000000E+00  0.00000000000E+00 -0.98312410693E+03  0.98312410694E+03  0.50400001928E-02 0.  1.
    10030    2    1    2    0    0  0.00000000000E+00  0.00000000000E+00  0.23079950597E+03  0.21970477198E+04  0.21848913637E+04 0.  0.
        2    1    3    3  502    0 -0.32168976099E+03  0.28019035429E+03  0.11267023626E+04  0.12047610347E+04  0.25500000920E-02 0. -1.
       -2    1    3    3    0  502  0.32168976099E+03 -0.28019035429E+03 -0.89590285661E+03  0.99228668511E+03  0.25500000920E-02 0.  1.
</event>
<event>
 5   0  0.1788413E-05  0.2208997E+04  0.7818609E-02  0.8514693E-01
       -1   -1    0    0    0  501  0.00000000000E+00  0.00000000000E+00  0.78517505588E+03  0.78517505590E+03  0.50400001928E-02 0.  1.
        1   -1    0    0  501    0  0.00000000000E+00  0.00000000000E+00 -0.15536873245E+04  0.15536873245E+04  0.50400001928E-02 0. -1.
    10030    2    1    2    0    0  0.00000000000E+00  0.00000000000E+00 -0.76851226859E+03  0.23388623804E+04  0.22089966336E+04 0.  0.
        1    1    3    3  502    0  0.11215857311E+03  0.78776710773E+03 -0.11952916141E+04  0.14359243031E+04  0.50400001928E-02 0. -1.
       -1    1    3    3    0  502 -0.11215857311E+03 -0.78776710773E+03  0.42677934552E+03  0.90293807724E+03  0.50400001928E-02 0.  1.
</event>
<event>
 5   0  0.4143281E-05  0.2207316E+04  0.7818609E-02  0.8515389E-01
       -2   -1    0    0    0  501  0.00000000000E+00  0.00000000000E+00  0.39822535649E+03  0.39822535649E+03  0.25500000920E-02 0. -1.
        2   -1    0    0  501    0  0.00000000000E+00  0.00000000000E+00 -0.30587235206E+04  0.30587235206E+04  0.25500000920E-02 0.  1.
    10030    2    1    2    0    0  0.00000000000E+00  0.00000000000E+00 -0.26604981641E+04  0.34569488771E+04  0.22073162568E+04 0.  0.
        2    1    3    3  502    0  0.54240009176E+03  0.31864218844E+03  0.89957792041E+02  0.63547077678E+03  0.25500000920E-02 0. -1.
       -2    1    3    3    0  502 -0.54240009176E+03 -0.31864218844E+03 -0.27504559562E+04  0.28214781003E+04  0.25500000920E-02 0.  1.
</event>
<event>
 5   0  0.3963414E-05  0.2177944E+04  0.7818609E-02  0.8527665E-01
        2   -1    0    0  501    0  0.00000000000E+00  0.00000000000E+00  0.34548160586E+03  0.34548160587E+03  0.25500000920E-02 0.  1.
       -2   -1    0    0    0  501  0.00000000000E+00  0.00000000000E+00 -0.34324834053E+04  0.34324834053E+04  0.25500000920E-02 0. -1.
    10030    2    1    2    0    0  0.00000000000E+00  0.00000000000E+00 -0.30870017994E+04  0.37779650112E+04  0.21779438734E+04 0.  0.
        1    1    3    3  502    0 -0.11058391093E+03  0.91359022427E+03 -0.53354866405E+03  0.10637434259E+04  0.50400001928E-02 0.  1.
       -1    1    3    3    0  502  0.11058391093E+03 -0.91359022427E+03 -0.25534531354E+04  0.27142215852E+04  0.50400001928E-02 0. -1.
</event>
<event>
 5   0  0.1815681E-05  0.2247452E+04  0.7818609E-02  0.8498933E-01
        1   -1    0    0  501    0  0.00000000000E+00  0.00000000000E+00  0.93870731736E+03  0.93870731737E+03  0.50400001928E-02 0.  1.
       -1   -1    0    0    0  501  0.00000000000E+00  0.00000000000E+00 -0.13452113828E+04  0.13452113828E+04  0.50400001928E-02 0. -1.
    10030    2    1    2    0    0  0.00000000000E+00  0.00000000000E+00 -0.40650406547E+03  0.22839187002E+04  0.22474516844E+04 0.  0.
        2    1    3    3  502    0 -0.37902808247E+03  0.10449132234E+04 -0.35485973916E+02  0.11120994497E+04  0.25500000920E-02 0. -1.
       -2    1    3    3    0  502  0.37902808247E+03 -0.10449132234E+04 -0.37101809155E+03  0.11718192505E+04  0.25500000920E-02 0.  1.
</event>
<event>
 5   0  0.1788413E-05  0.2197921E+04  0.7818609E-02  0.8519294E-01
        1   -1    0    0  501    0  0.00000000000E+00  0.00000000000E+00  0.22631349157E+04  0.22631349157E+04  0.50400001928E-02 0.  1.
       -1   -1    0    0    0  501  0.00000000000E+00  0.00000000000E+00 -0.53364677604E+03  0.53364677606E+03  0.50400001928E-02 0. -1.
    10030    2    1    2    0    0  0.00000000000E+00  0.00000000000E+00  0.17294881397E+04  0.27967816918E+04  0.21979214286E+04 0.  0.
        1    1    3    3  502    0  0.36135837940E+03  0.34977824739E+03  0.21081138981E+04  0.21672722275E+04  0.50400001928E-02 0.  1.
       -1    1    3    3    0  502 -0.36135837940E+03 -0.34977824739E+03 -0.37862575839E+03  0.62950946431E+03  0.50400001928E-02 0. -1.
</event>
<event>
 5   0  0.1866935E-05  0.2204520E+04  0.7818609E-02  0.8516549E-01
       -1   -1    0    0    0  501  0.00000000000E+00  0.00000000000E+00  0.46796832469E+03  0.46796832472E+03  0.50400001928E-02 0. -1.
        1   -1    0    0  501    0  0.00000000000E+00  0.00000000000E+00 -0.25962797825E+04  0.25962797825E+04  0.50400001928E-02 0.  1.
    10030    2    1    2    0    0  0.00000000000E+00  0.00000000000E+00 -0.21283114578E+04  0.30642481073E+04  0.22045196305E+04 0.  0.
        4    1    3    3  502    0  0.17572858106E+03  0.15555387570E+03  0.43283727495E+03  0.49236903023E+03  0.12699999809E+01 0. -1.
       -4    1    3    3    0  502 -0.17572858106E+03 -0.15555387570E+03 -0.25611487328E+04  0.25718790770E+04  0.12699999809E+01 0.  1.
</event>
<event>
 5   0  0.4132460E-05  0.2166968E+04  0.7818609E-02  0.8532304E-01
        2   -1    0    0  501    0  0.00000000000E+00  0.00000000000E+00  0.23680173088E+04  0.23680173088E+04  0.25500000920E-02 0. -1.
       -2   -1    0    0    0  501  0.00000000000E+00  0.00000000000E+00 -0.49574683967E+03  0.49574683967E+03  0.25500000920E-02 0.  1.
    10030    2    1    2    0    0  0.00000000000E+00  0.00000000000E+00  0.18722704692E+04  0.28637641485E+04  0.21669675560E+04 0.  0.
        4    1    3    3  502    0  0.81481715309E+02  0.43143958460E+03 -0.37290770529E+03  0.57605655508E+03  0.12699999809E+01 0.  1.
       -4    1    3    3    0  502 -0.81481715309E+02 -0.43143958460E+03  0.22451781745E+04  0.22877075934E+04  0.12699999809E+01 0. -1.
</event>
<event>
 5   0  0.1884407E-05  0.2207192E+04  0.7818609E-02  0.8515441E-01
       -1   -1    0    0    0  501  0.00000000000E+00  0.00000000000E+00  0.64621533280E+03  0.64621533282E+03  0.50400001928E-02 0.  1.
        1   -1    0    0  501    0  0.00000000000E+00  0.00000000000E+00 -0.18847028198E+04  0.18847028198E+04  0.50400001928E-02 0. -1.
    10030    2    1    2    0    0  0.00000000000E+00  0.00000000000E+00 -0.12384874870E+04  0.25309181527E+04  0.22071917542E+04 0.  0.
        3    1    3    3  502    0  0.32012459942E+03  0.42986826188E+03  0.48695445214E+03  0.72414855547E+03  0.10100000352E+00 0.  1.
       -3    1    3    3    0  502 -0.32012459942E+03 -0.42986826188E+03 -0.17254419392E+04  0.18067695972E+04  0.10100000352E+00 0. -1.
</event>
<event>
 5   0  0.1788413E-05  0.2154543E+04  0.7818609E-02  0.8537590E-01
       -1   -1    0    0    0  501  0.00000000000E+00  0.00000000000E+00  0.11601642739E+04  0.11601642739E+04  0.50400001928E-02 0.  1.
        1   -1    0    0  501    0  0.00000000000E+00  0.00000000000E+00 -0.10003014544E+04  0.10003014545E+04  0.50400001928E-02 0. -1.
    10030    2    1    2    0    0  0.00000000000E+00  0.00000000000E+00  0.15986281948E+03  0.21604657284E+04  0.21545431169E+04 0.  0.
        1    1    3    3  502    0 -0.62177993054E+03  0.24170787849E+02 -0.80187179529E+03  0.10149841797E+04  0.50400001928E-02 0. -1.
       -1    1    3    3    0  502  0.62177993054E+03 -0.24170787849E+02  0.96173461477E+03  0.11454815486E+04  0.50400001928E-02 0.  1.
</event>
<event>
 5   0  0.1788413E-05  0.2181336E+04  0.7818609E-02  0.8526237E-01
       -1   -1    0    0    0  501  0.00000000000E+00  0.00000000000E+00  0.10590436205E+04  0.10590436206E+04  0.50400001928E-02 0.  1.
        1   -1    0    0  501    0  0.00000000000E+00  0.00000000000E+00 -0.11232368502E+04  0.11232368502E+04  0.50400001928E-02 0. -1.
    10030    2    1    2    0    0  0.00000000000E+00  0.00000000000E+00 -0.64193229610E+02  0.21822804707E+04  0.21813361232E+04 0.  0.
        1    1    3    3  502    0 -0.91024916984E+03 -0.59987215755E+03  0.19278710032E+01  0.10901393825E+04  0.50400001928E-02 0. -1.
       -1    1    3    3    0  502  0.91024916984E+03  0.59987215755E+03 -0.66121100613E+02  0.10921410882E+04  0.50400001928E-02 0.  1.
</event>
<event>
 5   0  0.4132460E-05  0.2124497E+04  0.7818609E-02  0.8550528E-01
        2   -1    0    0  501    0  0.00000000000E+00  0.00000000000E+00  0.18124392500E+04  0.18124392500E+04  0.25500000920E-02 0.  1.
       -2   -1    0    0    0  501  0.00000000000E+00  0.00000000000E+00 -0.62257073800E+03  0.62257073800E+03  0.25500000920E-02 0. -1.
    10030    2    1    2    0    0  0.00000000000E+00  0.00000000000E+00  0.11898685120E+04  0.24350099880E+04  0.21244967794E+04 0.  0.
        4    1    3    3  502    0  0.48010857701E+03  0.64089387721E+02 -0.48863012874E+03  0.68802086520E+03  0.12699999809E+01 0. -1.
       -4    1    3    3    0  502 -0.48010857701E+03 -0.64089387721E+02  0.16784986407E+04  0.17469891228E+04  0.12699999809E+01 0.  1.
</event>
<event>
 5   0  0.4029532E-05  0.2175845E+04  0.7818609E-02  0.8528550E-01
        2   -1    0    0  501    0  0.00000000000E+00  0.00000000000E+00  0.25595083373E+04  0.25595083373E+04  0.25500000920E-02 0.  1.
       -2   -1    0    0    0  501  0.00000000000E+00  0.00000000000E+00 -0.46242291644E+03  0.46242291645E+03  0.25500000920E-02 0. -1.
    10030    2    1    2    0    0  0.00000000000E+00  0.00000000000E+00  0.20970854209E+04  0.30219312538E+04  0.21758449485E+04 0.  0.
        3    1    3    3  502    0  0.72496848452E+03  0.41894830562E+03  0.20132499438E+04  0.21804293918E+04  0.10100000352E+00 0.  1.
       -3    1    3    3    0  502 -0.72496848452E+03 -0.41894830562E+03  0.83835477143E+02  0.84150186200E+03  0.10100000352E+00 0. -1.
</event>
<event>
 5   0  0.4027923E-05  0.2194713E+04  0.7818609E-02  0.8520632E-01
       -2   -1    0    0    0  501  0.00000000000E+00  0.00000000000E+00  0.63164841700E+03  0.63164841701E+03  0.25500000920E-02 0. -1.
        2   -1    0    0  501    0  0.00000000000E+00  0.00000000000E+00 -0.19064272931E+04  0.19064272931E+04  0.25500000920E-02 0.  1.
    10030    2    1    2    0    0  0.00000000000E+00  0.00000000000E+00 -0.12747788761E+04  0.25380757101E+04  0.21947134499E+04 0.  0.
        5    1    3    3  502    0  0.53548599721E+03 -0.55656396816E+03 -0.15388721974E+04  0.17218183510E+04  0.46999998093E+01 0.  1.
       -5    1    3    3    0  502 -0.53548599721E+03  0.55656396816E+03  0.26409332135E+03  0.81625735908E+03  0.46999998093E+01 0. -1.
</event>
<event>
 5   0  0.4029532E-05  0.2204111E+04  0.7818609E-02  0.8516719E-01
       -2   -1    0    0    0  501  0.00000000000E+00  0.00000000000E+00  0.10865574847E+04  0.10865574847E+04  0.25500000920E-02 0. -1.
        2   -1    0    0  501    0  0.00000000000E+00  0.00000000000E+00 -0.11177748170E+04  0.11177748170E+04  0.25500000920E-02 0.  1.
    10030    2    1    2    0    0  0.00000000000E+00  0.00000000000E+00 -0.31217332347E+02  0.22043323017E+04  0.22041112437E+04 0.  0.
        3    1    3    3  502    0  0.76567801789E+03  0.43671434551E+03 -0.67714634982E+03  0.11115347210E+04  0.10100000352E+00 0.  1.
       -3    1    3    3    0  502 -0.76567801789E+03 -0.43671434551E+03  0.64592901748E+03  0.10927975807E+04  0.10100000352E+00 0. -1.
</event>
<event>
 5   0  0.1786228E-05  0.2201413E+04  0.7818609E-02  0.8517840E-01
        1   -1    0    0  501    0  0.00000000000E+00  0.00000000000E+00  0.17505549764E+04  0.17505549764E+04  0.50400001928E-02 0.  1.
       -1   -1    0    0    0  501  0.00000000000E+00  0.00000000000E+00 -0.69209774588E+03  0.69209774590E+03  0.50400001928E-02 0. -1.
    10030    2    1    2    0    0  0.00000000000E+00  0.00000000000E+00  0.10584572305E+04  0.24426527223E+04  0.22014133217E+04 0.  0.
        5    1    3    3  502    0  0.12532472680E+03 -0.96371282624E+03 -0.44206611783E+02  0.97284377632E+03  0.46999998093E+01 0.  1.
       -5    1    3    3    0  502 -0.12532472680E+03  0.96371282624E+03  0.11026638423E+04  0.14698089460E+04  0.46999998093E+01 0. -1.
</event>
<event>
 5   0  0.4027923E-05  0.2169597E+04  0.7818609E-02  0.8531190E-01
       -2   -1    0    0    0  501  0.00000000000E+00  0.00000000000E+00  0.56491266633E+03  0.56491266634E+03  0.25500000920E-02 0. -1.
        2   -1    0    0  501    0  0.00000000000E+00  0.00000000000E+00 -0.20831328325E+04  0.20831328325E+04  0.25500000920E-02 0.  1.
    10030    2    1    2    0    0  0.00000000000E+00  0.00000000000E+00 -0.15182201661E+04  0.26480454988E+04  0.21695973108E+04 0.  0.
        5    1    3    3  502    0 -0.21212430979E+03  0.66765847575E+03  0.25179139628E+03  0.74443640445E+03  0.46999998093E+01 0. -1.
       -5    1    3    3    0  502  0.21212430979E+03 -0.66765847575E+03 -0.17700115624E+04  0.19036090943E+04  0.46999998093E+01 0.  1.
</event>
<event>
 5   0  0.4143281E-05  0.2106669E+04  0.7818609E-02  0.8558311E-01
       -2   -1    0    0    0  501  0.00000000000E+00  0.00000000000E+00  0.18321931958E+04  0.18321931958E+04  0.25500000920E-02 0.  1.
        2   -1    0    0  501    0  0.00000000000E+00  0.00000000000E+00 -0.60556596428E+03  0.60556596429E+03  0.25500000920E-02 0. -1.
    10030    2    1    2    0    0  0.00000000000E+00  0.00000000000E+00  0.12266272316E+04  0.24377591601E+04  0.21066692568E+04 0.  0.
        2    1    3    3  502    0 -0.70680618558E+03  0.51054772180E+03  0.12971956952E+04  0.15629941241E+04  0.25500000920E-02 0.  1.
       -2    1    3    3    0  502  0.70680618558E+03 -0.51054772180E+03 -0.70568463673E+02  0.87476503604E+03  0.25500000920E-02 0. -1.
</event>
<event>
 5   0  0.4027923E-05  0.2232596E+04  0.7818609E-02  0.8504982E-01
        2   -1    0    0  501    0  0.00000000000E+00  0.00000000000E+00  0.25597375703E+04  0.25597375703E+04  0.25500000920E-02 0. -1.
       -2   -1    0    0    0  501  0.00000000000E+00  0.00000000000E+00 -0.48681619206E+03  0.48681619207E+03  0.25500000920E-02 0.  1.
    10030    2    1    2    0    0  0.00000000000E+00  0.00000000000E+00  0.20729213782E+04  0.30465537624E+04  0.22325964227E+04 0.  0.
        5    1    3    3  502    0 -0.21591759660E+03  0.67026578936E+03 -0.14547487439E+03  0.71907000075E+03  0.46999998093E+01 0.  1.
       -5    1    3    3    0  502  0.21591759660E+03 -0.67026578936E+03  0.22183962526E+04  0.23274837616E+04  0.46999998093E+01 0. -1.
</event>
<event>
 5   0  0.1788413E-05  0.2211697E+04  0.7818609E-02  0.8513575E-01
       -1   -1    0    0    0  501  0.00000000000E+00  0.00000000000E+00  0.13468773087E+04  0.13468773087E+04  0.50400001928E-02 0.  1.
        1   -1    0    0  501    0  0.00000000000E+00  0.00000000000E+00 -0.90795275142E+03  0.90795275143E+03  0.50400001928E-02 0. -1.
    10030    2    1    2    0    0  0.00000000000E+00  0.00000000000E+00  0.43892455730E+03  0.22548300602E+04  0.22116970482E+04 0.  0.
        1    1    3    3  502    0  0.31309502686E+03  0.10341423116E+03  0.12955940638E+04  0.13368945273E+04  0.50400001928E-02 0.  1.
       -1    1    3    3    0  502 -0.31309502686E+03 -0.10341423116E+03 -0.85666950649E+03  0.91793553283E+03  0.50400001928E-02 0. -1.
</event>
<event>
 5   0  0.4143281E-05  0.2196714E+04  0.7818609E-02  0.8519797E-01
        2   -1    0    0  501    0  0.00000000000E+00  0.00000000000E+00  0.11735814664E+04  0.11735814664E+04  0.25500000920E-02 0. -1.
       -2   -1    0    0    0  501  0.00000000000E+00  0.00000000000E+00 -0.10279539502E+04  0.10279539502E+04  0.25500000920E-02 0.  1.
    10030    2    1    2    0    0  0.00000000000E+00  0.00000000000E+00  0.14562751623E+03  0.22015354166E+04  0.21967136402E+04 0.  0.
        2    1    3    3  502    0 -0.54485219022E+03  0.21976136079E+02 -0.88271536505E+03  0.10375612153E+04  0.25500000920E-02 0.  1.
       -2    1    3    3    0  502  0.54485219022E+03 -0.21976136079E+02  0.10283428813E+04  0.11639742013E+04  0.25500000920E-02 0. -1.
</event>
<event>
 5   0  0.1786228E-05  0.2209421E+04  0.7818609E-02  0.8514517E-01
        1   -1    0    0  501    0  0.00000000000E+00  0.00000000000E+00  0.10970933918E+04  0.10970933918E+04  0.50400001928E-02 0. -1.
       -1   -1    0    0    0  501  0.00000000000E+00  0.00000000000E+00 -0.11123803529E+04  0.11123803529E+04  0.50400001928E-02 0.  1.
    10030    2    1    2    0    0  0.00000000000E+00  0.00000000000E+00 -0.15286961055E+02  0.22094737447E+04  0.22094208602E+04 0.  0.
        5    1    3    3  502    0 -0.57368629207E+02 -0.91777729682E+03  0.60454493712E+03  0.11005012481E+04  0.46999998093E+01 0. -1.
       -5    1    3    3    0  502  0.57368629207E+02  0.91777729682E+03 -0.61983189817E+03  0.11089724966E+04  0.46999998093E+01 0.  1.
</event>
<event>
 5   0  0.1884407E-05  0.2231352E+04  0.7818609E-02  0.8505491E-01
        1   -1    0    0  501    0  0.00000000000E+00  0.00000000000E+00  0.83178747093E+03  0.83178747094E+03  0.50400001928E-02 0. -1.
       -1   -1    0    0    0  501  0.00000000000E+00  0.00000000000E+00 -0.14964552875E+04  0.14964552875E+04  0.50400001928E-02 0.  1.
    10030    2    1    2    0    0  0.00000000000E+00  0.00000000000E+00 -0.66466781655E+03  0.23282427584E+04  0.22313518404E+04 0.  0.
        3    1    3    3  502    0 -0.19510547750E+03 -0.35789906035E+03 -0.14159747199E+04  0.14734796579E+04  0.10100000352E+00 0.  1.
       -3    1    3    3    0  502  0.19510547750E+03  0.35789906035E+03  0.75130690335E+03  0.85476310050E+03  0.10100000352E+00 0. -1.
</event>
<event>
 5   0  0.4132460E-05  0.2171883E+04  0.7818609E-02  0.8530223E-01
        2   -1    0    0  501    0  0.00000000000E+00  0.00000000000E+00  0.14158715123E+04  0.14158715123E+04  0.25500000920E-02 0.  1.
       -2   -1    0    0    0  501  0.00000000000E+00  0.00000000000E+00 -0.83289249194E+03  0.83289249195E+03  0.25500000920E-02 0. -1.
    10030    2    1    2    0    0  0.00000000000E+00  0.00000000000E+00  0.58297902038E+03  0.22487640043E+04  0.21718828257E+04 0.  0.
        4    1    3    3  502    0  0.59171462730E+03  0.10834244247E+03  0.12275966653E+04  0.13670623506E+04  0.12699999809E+01 0.  1.
       -4    1    3    3    0  502 -0.59171462730E+03 -0.10834244247E+03 -0.64461764491E+03  0.88170165364E+03  0.12699999809E+01 0. -1.
</event>
<event>
 5   0  0.1884407E-05  0.2202008E+04  0.7818609E-02  0.8517593E-01
        1   -1    0    0  501    0  0.00000000000E+00  0.00000000000E+00  0.15819433991E+04  0.15819433991E+04  0.50400001928E-02 0. -1.
       -1   -1    0    0    0  501  0.00000000000E+00  0.00000000000E+00 -0.76627897091E+03  0.76627897093E+03  0.50400001928E-02 0.  1.
    10030    2    1    2    0    0  0.00000000000E+00  0.00000000000E+00  0.81566442818E+03  0.23482223700E+04  0.22020081380E+04 0.  0.
        3    1    3    3  502    0  0.52354464575E+03 -0.93204683872E+03  0.68876273396E+03  0.12716935242E+04  0.10100000352E+00 0. -1.
       -3    1    3    3    0  502 -0.52354464575E+03  0.93204683872E+03  0.12690169422E+03  0.10765288458E+04  0.10100000352E+00 0.  1.
</event>
<event>
 5   0  0.1866935E-05  0.2199355E+04  0.7818609E-02  0.8518696E-01
        1   -1    0    0  501    0  0.00000000000E+00  0.00000000000E+00  0.18110124270E+04  0.18110124270E+04  0.50400001928E-02 0. -1.
       -1   -1    0    0    0  501  0.00000000000E+00  0.00000000000E+00 -0.66774306156E+03  0.66774306158E+03  0.50400001928E-02 0.  1.
    10030    2    1    2    0    0  0.00000000000E+00  0.00000000000E+00  0.11432693654E+04  0.24787554886E+04  0.21993553442E+04 0.  0.
        4    1    3    3  502    0 -0.52511520764E+03 -0.93314225434E+03  0.28922486028E+03  0.11091226627E+04  0.12699999809E+01 0.  1.
       -4    1    3    3    0  502  0.52511520764E+03  0.93314225434E+03  0.85404450513E+03  0.13696328259E+04  0.12699999809E+01 0. -1.
</event>
<event>
 5   0  0.1884407E-05  0.2214818E+04  0.7818609E-02  0.8512286E-01
        1   -1    0    0  501    0  0.00000000000E+00  0.00000000000E+00  0.13678617172E+04  0.13678617173E+04  0.50400001928E-02 0. -1.
       -1   -1    0    0    0  501  0.00000000000E+00  0.00000000000E+00 -0.89654873888E+03  0.89654873889E+03  0.50400001928E-02 0.  1.
    10030    2    1    2    0    0  0.00000000000E+00  0.00000000000E+00  0.47131297837E+03  0.22644104561E+04  0.22148180039E+04 0.  0.
        3    1    3    3  502    0  0.19993727398E+02 -0.10807572412E+04  0.48170831873E+03  0.11834183022E+04  0.10100000352E+00 0. -1.
       -3    1    3    3    0  502 -0.19993727398E+02  0.10807572412E+04 -0.10395340362E+02  0.10809921539E+04  0.10100000352E+00 0.  1.
</event>
<event>
 5   0  0.4027923E-05  0.2205031E+04  0.7818609E-02  0.8516337E-01
        2   -1    0    0  501    0  0.00000000000E+00  0.00000000000E+00  0.14748680490E+04  0.14748680490E+04  0.25500000920E-02 0.  1.
       -2   -1    0    0    0  501  0.00000000000E+00  0.00000000000E+00 -0.82416913410E+03  0.82416913411E+03  0.25500000920E-02 0. -1.
    10030    2    1    2    0    0  0.00000000000E+00  0.00000000000E+00  0.65069891494E+03  0.22990371831E+04  0.22050312677E+04 0.  0.
        5    1    3    3  502    0  0.70101875043E+03  0.68198041288E+03  0.85596033124E+03  0.12996979459E+04  0.46999998093E+01 0.  1.
       -5    1    3    3    0  502 -0.70101875043E+03 -0.68198041288E+03 -0.20526141631E+03  0.99933923721E+03  0.46999998093E+01 0. -1.
</event>
<event>
 5   0  0.1866935E-05  0.2201575E+04  0.7818609E-02  0.8517773E-01
       -1   -1    0    0    0  501  0.00000000000E+00  0.00000000000E+00  0.68180679292E+03  0.68180679294E+03  0.50400001928E-02 0.  1.
        1   -1    0    0  501    0  0.00000000000E+00  0.00000000000E+00 -0.17772388447E+04  0.17772388447E+04  0.50400001928E-02 0. -1.
    10030    2    1    2    0    0  0.00000000000E+00  0.00000000000E+00 -0.10954320517E+04  0.24590456376E+04  0.22015753605E+04 0.  0.
        4    1    3    3  502    0  0.10873438763E+04  0.83914625746E+02 -0.71478674038E+03  0.13039478774E+04  0.12699999809E+01 0. -1.
       -4    1    3    3    0  502 -0.10873438763E+04 -0.83914625746E+02 -0.38064531136E+03  0.11550977602E+04  0.12699999809E+01 0.  1.
</event>
<event>
 5   0  0.1786228E-05  0.2145076E+04  0.7818609E-02  0.8541643E-01
        1   -1    0    0  501    0  0.00000000000E+00  0.00000000000E+00  0.24663184877E+04  0.24663184877E+04  0.50400001928E-02 0.  1.
       -1   -1    0    0    0  501  0.00000000000E+00  0.00000000000E+00 -0.46641877012E+03  0.46641877015E+03  0.50400001928E-02 0. -1.
    10030    2    1    2    0    0  0.00000000000E+00  0.00000000000E+00  0.19998997176E+04  0.29327372579E+04  0.21450755099E+04 0.  0.
        5    1    3    3  502    0 -0.46385671817E+03 -0.17786602894E+03  0.22995161555E+04  0.23525722132E+04  0.46999998093E+01 0.  1.
       -5    1    3    3    0  502  0.46385671817E+03  0.17786602894E+03 -0.29961643784E+03  0.58016504467E+03  0.46999998093E+01 0. -1.
</event>
<event>
 5   0  0.4027923E-05  0.2143705E+04  0.7818609E-02  0.8542232E-01
        2   -1    0    0  501    0  0.00000000000E+00  0.00000000000E+00  0.13006104385E+04  0.13006104385E+04  0.25500000920E-02 0.  1.
       -2   -1    0    0    0  501  0.00000000000E+00  0.00000000000E+00 -0.88332932757E+03  0.88332932757E+03  0.25500000920E-02 0. -1.
    10030    2    1    2    0    0  0.00000000000E+00  0.00000000000E+00  0.41728111094E+03  0.21839397661E+04  0.21437045917E+04 0.  0.
        5    1    3    3  502    0  0.45400891708E+03 -0.94362026098E+03  0.44162917150E+03  0.11364865634E+04  0.46999998093E+01 0.  1.
       -5    1    3    3    0  502 -0.45400891708E+03  0.94362026098E+03 -0.24348060564E+02  0.10474532027E+04  0.46999998093E+01 0. -1.
</event>
<event>
 5   0  0.1786228E-05  0.2205337E+04  0.7818609E-02  0.8516210E-01
       -1   -1    0    0    0  501  0.00000000000E+00  0.00000000000E+00  0.11791929595E+04  0.11791929595E+04  0.50400001928E-02 0. -1.
        1   -1    0    0  501    0  0.00000000000E+00  0.00000000000E+00 -0.10311105438E+04  0.10311105438E+04  0.50400001928E-02 0.  1.
    10030    2    1    2    0    0  0.00000000000E+00  0.00000000000E+00  0.14808241572E+03  0.22103035033E+04  0.22053374288E+04 0.  0.
        5    1    3    3  502    0 -0.90283158232E+03  0.55028259122E+03  0.38770025378E+03  0.11261657840E+04  0.46999998093E+01 0. -1.
       -5    1    3    3    0  502  0.90283158232E+03 -0.55028259122E+03 -0.23961783806E+03  0.10841377194E+04  0.46999998093E+01 0.  1.
</event>
<event>
 5   0  0.4132460E-05  0.2201989E+04  0.7818609E-02  0.8517601E-01
       -2   -1    0    0    0  501  0.00000000000E+00  0.00000000000E+00  0.15917793818E+04  0.15917793818E+04  0.25500000920E-02 0.  1.
        2   -1    0    0  501    0  0.00000000000E+00  0.00000000000E+00 -0.76153047884E+03  0.76153047885E+03  0.25500000920E-02 0. -1.
    10030    2    1    2    0    0  0.00000000000E+00  0.00000000000E+00  0.83024890291E+03  0.23533098606E+04  0.22019886601E+04 0.  0.
        4    1    3    3  502    0 -0.86175242284E+02 -0.91084838753E+03 -0.23943153419E+03  0.94572724922E+03  0.12699999809E+01 0. -1.
       -4    1    3    3    0  502  0.86175242284E+02  0.91084838753E+03  0.10696804371E+04  0.14075826114E+04  0.12699999809E+01 0.  1.
</event>
<event>
 5   0  0.1866935E-05  0.2146767E+04  0.7818609E-02  0.8540917E-01
        1   -1    0    0  501    0  0.00000000000E+00  0.00000000000E+00  0.11101698371E+04  0.11101698371E+04  0.50400001928E-02 0. -1.
       -1   -1    0    0    0  501  0.00000000000E+00  0.00000000000E+00 -0.10378161370E+04  0.10378161370E+04  0.50400001928E-02 0.  1.
    10030    2    1    2    0    0  0.00000000000E+00  0.00000000000E+00  0.72353700058E+02  0.21479859742E+04  0.21467670314E+04 0.  0.
        4    1    3    3  502    0 -0.78368675846E+03  0.41833273332E+03 -0.56664623472E+03  0.10536872303E+04  0.12699999809E+01 0.  1.
       -4    1    3    3    0  502  0.78368675846E+03 -0.41833273332E+03  0.63899993478E+03  0.10942987438E+04  0.12699999809E+01 0. -1.
</event>
<event>
 5   0  0.1815681E-05  0.2027574E+04  0.7818609E-02  0.8593837E-01
        1   -1    0    0  501    0  0.00000000000E+00  0.00000000000E+00  0.17299076607E+04  0.17299076607E+04  0.50400001928E-02 0. -1.
       -1   -1    0    0    0  501  0.00000000000E+00  0.00000000000E+00 -0.59411471962E+03  0.59411471964E+03  0.50400001928E-02 0.  1.
    10030    2    1    2    0    0  0.00000000000E+00  0.00000000000E+00  0.11357929411E+04  0.23240223804E+04  0.20275735300E+04 0.  0.
        2    1    3    3  502    0  0.26283284386E+03  0.95786407079E+03  0.80049190437E+03  0.12756849027E+04  0.25500000920E-02 0. -1.
       -2    1    3    3    0  502 -0.26283284386E+03 -0.95786407079E+03  0.33530103672E+03  0.10483374777E+04  0.25500000920E-02 0.  1.
</event>
<event>
 5   0  0.1884407E-05  0.2192255E+04  0.7818609E-02  0.8521659E-01
        1   -1    0    0  501    0  0.00000000000E+00  0.00000000000E+00  0.16721541281E+04  0.16721541281E+04  0.50400001928E-02 0.  1.
       -1   -1    0    0    0  501  0.00000000000E+00  0.00000000000E+00 -0.71853138165E+03  0.71853138167E+03  0.50400001928E-02 0. -1.
    10030    2    1    2    0    0  0.00000000000E+00  0.00000000000E+00  0.95362274644E+03  0.23906855098E+04  0.21922547443E+04 0.  0.
        3    1    3    3  502    0 -0.75069799726E+03 -0.66450760434E+03  0.96006725263E+03  0.13881091380E+04  0.10100000352E+00 0.  1.
       -3    1    3    3    0  502  0.75069799726E+03  0.66450760434E+03 -0.64445061943E+01  0.10025763717E+04  0.10100000352E+00 0. -1.
</event>
<event>
 5   0  0.4029532E-05  0.2207960E+04  0.7818609E-02  0.8515122E-01
        2   -1    0    0  501    0  0.00000000000E+00  0.00000000000E+00  0.87646378302E+03  0.87646378302E+03  0.25500000920E-02 0.  1.
       -2   -1    0    0    0  501  0.00000000000E+00  0.00000000000E+00 -0.13905557551E+04  0.13905557551E+04  0.25500000920E-02 0. -1.
    10030    2    1    2    0    0  0.00000000000E+00  0.00000000000E+00 -0.51409197208E+03  0.22670195381E+04  0.22079599250E+04 0.  0.
        3    1    3    3  502    0 -0.56059598422E+02 -0.23303378801E+03  0.84942705635E+03  0.88259490095E+03  0.10100000352E+00 0.  1.
       -3    1    3    3    0  502  0.56059598422E+02  0.23303378801E+03 -0.13635190284E+04  0.13844246372E+04  0.10100000352E+00 0. -1.
</event>
<event>
 5   0  0.1815681E-05  0.2200711E+04  0.7818609E-02  0.8518132E-01
        1   -1    0    0  501    0  0.00000000000E+00  0.00000000000E+00  0.12994909574E+04  0.12994909574E+04  0.50400001928E-02 0. -1.
       -1   -1    0    0    0  501  0.00000000000E+00  0.00000000000E+00 -0.93173618282E+03  0.93173618283E+03  0.50400001928E-02 0.  1.
    10030    2    1    2    0    0  0.00000000000E+00  0.00000000000E+00  0.36775477460E+03  0.22312271403E+04  0.22007114707E+04 0.  0.
        2    1    3    3  502    0  0.16553518569E+02  0.86286644608E+03  0.87596290037E+03  0.12296843195E+04  0.25500000920E-02 0. -1.
       -2    1    3    3    0  502 -0.16553518569E+02 -0.86286644608E+03 -0.50820812577E+03  0.10015428208E+04  0.25500000920E-02 0.  1.
</event>
<event>
 5   0  0.1815681E-05  0.2216462E+04  0.7818609E-02  0.8511607E-01
       -1   -1    0    0    0  501  0.00000000000E+00  0.00000000000E+00  0.88416886958E+03  0.88416886959E+03  0.50400001928E-02 0. -1.
        1   -1    0    0  501    0  0.00000000000E+00  0.00000000000E+00 -0.13890741412E+04  0.13890741412E+04  0.50400001928E-02 0.  1.
    10030    2    1    2    0    0  0.00000000000E+00  0.00000000000E+00 -0.50490527160E+03  0.22732430108E+04  0.22164621478E+04 0.  0.
        2    1    3    3  502    0  0.85715464708E+03  0.53606162351E+03 -0.71806499456E+03  0.12400376969E+04  0.25500000920E-02 0.  1.
       -2    1    3    3    0  502 -0.85715464708E+03 -0.53606162351E+03  0.21315972296E+03  0.10332053139E+04  0.25500000920E-02 0. -1.
</event>
<event>
 5   0  0.4027923E-05  0.2212456E+04  0.7818609E-02  0.8513262E-01
       -2   -1    0    0    0  501  0.00000000000E+00  0.00000000000E+00  0.66985638659E+03  0.66985638659E+03  0.25500000920E-02 0. -1.
        2   -1    0    0  501    0  0.00000000000E+00  0.00000000000E+00 -0.18268691395E+04  0.18268691395E+04  0.25500000920E-02 0.  1.
    10030    2    1    2    0    0  0.00000000000E+00  0.00000000000E+00 -0.11570127529E+04  0.24967255261E+04  0.22124556136E+04 0.  0.
        5    1    3    3  502    0 -0.47390979110E+03  0.62011644284E+03  0.30617421271E+03  0.83839109687E+03  0.46999998093E+01 0. -1.
       -5    1    3    3    0  502  0.47390979110E+03 -0.62011644284E+03 -0.14631869656E+04  0.16583344292E+04  0.46999998093E+01 0.  1.
</event>
<event>
 5   0  0.4132460E-05  0.2214124E+04  0.7818609E-02  0.8512572E-01
        2   -1    0    0  501    0  0.00000000000E+00  0.00000000000E+00  0.21978777871E+04  0.21978777871E+04  0.25500000920E-02 0.  1.
       -2   -1    0    0    0  501  0.00000000000E+00  0.00000000000E+00 -0.55762236108E+03  0.55762236109E+03  0.25500000920E-02 0. -1.
    10030    2    1    2    0    0  0.00000000000E+00  0.00000000000E+00  0.16402554260E+04  0.27555001482E+04  0.22141235747E+04 0.  0.
        4    1    3    3  502    0 -0.10929744693E+04  0.17373398122E+03  0.85549243373E+03  0.13988014883E+04  0.12699999809E+01 0. -1.
       -4    1    3    3    0  502  0.10929744693E+04 -0.17373398122E+03  0.78476299228E+03  0.13566986598E+04  0.12699999809E+01 0.  1.
</event>
<event>
 5   0  0.1815681E-05  0.2205395E+04  0.7818609E-02  0.8516186E-01
       -1   -1    0    0    0  501  0.00000000000E+00  0.00000000000E+00  0.90200561341E+03  0.90200561342E+03  0.50400001928E-02 0.  1.
        1   -1    0    0  501    0  0.00000000000E+00  0.00000000000E+00 -0.13480418805E+04  0.13480418805E+04  0.50400001928E-02 0. -1.
    10030    2    1    2    0    0  0.00000000000E+00  0.00000000000E+00 -0.44603626711E+03  0.22500474940E+04  0.22053946072E+04 0.  0.
        2    1    3    3  502    0 -0.56146397657E+03  0.37280576674E+03  0.66741589177E+03  0.94850930902E+03  0.25500000920E-02 0.  1.
       -2    1    3    3    0  502  0.56146397657E+03 -0.37280576674E+03 -0.11134521589E+04  0.13015381849E+04  0.25500000920E-02 0. -1.
</event>
<event>
 5   0  0.1788413E-05  0.2164521E+04  0.7818609E-02  0.8533342E-01
       -1   -1    0    0    0  501  0.00000000000E+00  0.00000000000E+00  0.59303615345E+03  0.59303615347E+03  0.50400001928E-02 0. -1.
        1   -1    0    0  501    0  0.00000000000E+00  0.00000000000E+00 -0.19750697209E+04  0.19750697209E+04  0.50400001928E-02 0.  1.
    10030    2    1    2    0    0  0.00000000000E+00  0.00000000000E+00 -0.13820335674E+04  0.25681058743E+04  0.21645209633E+04 0.  0.
        1    1    3    3  502    0  0.99008343512E+03  0.55197352470E+02 -0.17661544307E+03  0.10072263752E+04  0.50400001928E-02 0. -1.
       -1    1    3    3    0  502 -0.99008343512E+03 -0.55197352470E+02 -0.12054181243E+04  0.15608794991E+04  0.50400001928E-02 0.  1.
</event>
<event>
 5   0  0.1884407E-05  0.2170526E+04  0.7818609E-02  0.8530797E-01
       -1   -1    0    0    0  501  0.00000000000E+00  0.00000000000E+00  0.12070947230E+04  0.12070947230E+04  0.50400001928E-02 0.  1.
        1   -1    0    0  501    0  0.00000000000E+00  0.00000000000E+00 -0.97572794940E+03  0.97572794941E+03  0.50400001928E-02 0. -1.
    10030    2    1    2    0    0  0.00000000000E+00  0.00000000000E+00  0.23136677364E+03  0.21828226725E+04  0.21705262577E+04 0.  0.
        3    1    3    3  502    0 -0.11478014074E+03  0.35631058178E+03  0.11401123711E+04  0.11999949752E+04  0.10100000352E+00 0.  1.
       -3    1    3    3    0  502  0.11478014074E+03 -0.35631058178E+03 -0.90874559749E+03  0.98282769729E+03  0.10100000352E+00 0. -1.
</event>
<event>
 5   0  0.4143281E-05  0.2197264E+04  0.7818609E-02  0.8519568E-01
       -2   -1    0    0    0  501  0.00000000000E+00  0.00000000000E+00  0.99151813938E+03  0.99151813938E+03  0.25500000920E-02 0.  1.
        2   -1    0    0  501    0  0.00000000000E+00  0.00000000000E+00 -0.12173168859E+04  0.12173168859E+04  0.25500000920E-02 0. -1.
    10030    2    1    2    0    0  0.00000000000E+00  0.00000000000E+00 -0.22579874648E+03  0.22088350252E+04  0.21972635470E+04 0.  0.
        2    1    3    3  502    0  0.11140042982E+03 -0.45935859590E+02 -0.12106536923E+04  0.12166357391E+04  0.25500000920E-02 0. -1.
       -2    1    3    3    0  502 -0.11140042982E+03  0.45935859590E+02  0.98485494586E+03  0.99219928611E+03  0.25500000920E-02 0.  1.
</event>
<event>
 5   0  0.1788413E-05  0.2199659E+04  0.7818609E-02  0.8518570E-01
       -1   -1    0    0    0  501  0.00000000000E+00  0.00000000000E+00  0.11951090616E+04  0.11951090616E+04  0.50400001928E-02 0. -1.
        1   -1    0    0  501    0  0.00000000000E+00  0.00000000000E+00 -0.10121460331E+04  0.10121460331E+04  0.50400001928E-02 0.  1.
    10030    2    1    2    0    0  0.00000000000E+00  0.00000000000E+00  0.18296302852E+03  0.22072550948E+04  0.21996589698E+04 0.  0.
        1    1    3    3  502    0  0.26241542792E+02  0.41045745844E+03  0.11150338812E+04  0.11884714974E+04  0.50400001928E-02 0. -1.
       -1    1    3    3    0  502 -0.26241542792E+02 -0.41045745844E+03 -0.93207085272E+03  0.10187835974E+04  0.50400001928E-02 0.  1.
</event>
<event>
 5   0  0.4027923E-05  0.2197069E+04  0.7818609E-02  0.8519649E-01
       -2   -1    0    0    0  501  0.00000000000E+00  0.00000000000E+00  0.75758663912E+03  0.75758663913E+03  0.25500000920E-02 0. -1.
        2   -1    0    0  501    0  0.00000000000E+00  0.00000000000E+00 -0.15929242938E+04  0.15929242938E+04  0.25500000920E-02 0.  1.
    10030    2    1    2    0    0  0.00000000000E+00  0.00000000000E+00 -0.83533765468E+03  0.23505109329E+04  0.21970691042E+04 0.  0.
        5    1    3    3  502    0 -0.16705823820E+03 -0.73436093616E+03 -0.12732471250E+04  0.14793156427E+04  0.46999998093E+01 0.  1.
       -5    1    3    3    0  502  0.16705823820E+03  0.73436093616E+03  0.43790947030E+03  0.87119529021E+03  0.46999998093E+01 0. -1.
</event>
<event>
 5   0  0.1884407E-05  0.2240325E+04  0.7818609E-02  0.8501829E-01
        1   -1    0    0  501    0  0.00000000000E+00  0.00000000000E+00  0.80332333923E+03  0.80332333924E+03  0.50400001928E-02 0.  1.
       -1   -1    0    0    0  501  0.00000000000E+00  0.00000000000E+00 -0.15619658515E+04  0.15619658515E+04  0.50400001928E-02 0. -1.
    10030    2    1    2    0    0  0.00000000000E+00  0.00000000000E+00 -0.75864251229E+03  0.23652891908E+04  0.22403246404E+04 0.  0.
        3    1    3    3  502    0 -0.33170113860E+03 -0.20047502745E+03  0.73027641248E+03  0.82675239994E+03  0.10100000352E+00 0.  1.
       -3    1    3    3    0  502  0.33170113860E+03  0.20047502745E+03 -0.14889189248E+04  0.15385367908E+04  0.10100000352E+00 0. -1.
</event>
<event>
 5   0  0.4143281E-05  0.2178999E+04  0.7818609E-02  0.8527220E-01
       -2   -1    0    0    0  501  0.00000000000E+00  0.00000000000E+00  0.10940589562E+04  0.10940589562E+04  0.25500000920E-02 0.  1.
        2   -1    0    0  501    0  0.00000000000E+00  0.00000000000E+00 -0.10849589673E+04  0.10849589673E+04  0.25500000920E-02 0. -1.
    10030    2    1    2    0    0  0.00000000000E+00  0.00000000000E+00  0.90999889639E+01  0.21790179235E+04  0.21789989218E+04 0.  0.
        2    1    3    3  502    0  0.38823008116E+03 -0.83819850035E+03 -0.57313120960E+03  0.10870964563E+04  0.25500000920E-02 0. -1.
       -2    1    3    3    0  502 -0.38823008116E+03  0.83819850035E+03  0.58223119857E+03  0.10919214672E+04  0.25500000920E-02 0.  1.
</event>
<event>
 5   0  0.1433375E-05  0.2087275E+04  0.7818609E-02  0.8566869E-01
        3   -1    0    0  501    0  0.00000000000E+00  0.00000000000E+00  0.79284306110E+03  0.79284306753E+03  0.10100000352E+00 0.  1.
       -3   -1    0    0    0  501  0.00000000000E+00  0.00000000000E+00 -0.13737646117E+04  0.13737646154E+04  0.10100000352E+00 0. -1.
    10030    2    1    2    0    0  0.00000000000E+00  0.00000000000E+00 -0.58092155057E+03  0.21666076829E+04  0.20872754978E+04 0.  0.
        1    1    3    3  502    0 -0.83647656057E+03  0.57447064766E+03 -0.54359459061E+03  0.11511753300E+04  0.50400001928E-02 0. -1.
       -1    1    3    3    0  502  0.83647656057E+03 -0.57447064766E+03 -0.37326959956E+02  0.10154323529E+04  0.50400001928E-02 0.  1.
</event>
<event>
 5   0  0.4027923E-05  0.2194267E+04  0.7818609E-02  0.8520818E-01
        2   -1    0    0  501    0  0.00000000000E+00  0.00000000000E+00  0.19486723251E+04  0.19486723251E+04  0.25500000920E-02 0.  1.
       -2   -1    0    0    0  501  0.00000000000E+00  0.00000000000E+00 -0.61770336573E+03  0.61770336573E+03  0.25500000920E-02 0. -1.
    10030    2    1    2    0    0  0.00000000000E+00  0.00000000000E+00  0.13309689594E+04  0.25663756908E+04  0.21942665781E+04 0.  0.
        5    1    3    3  502    0 -0.72431461541E+03  0.17999994588E+03 -0.27502834188E+03  0.79542084549E+03  0.46999998093E+01 0. -1.
       -5    1    3    3    0  502  0.72431461541E+03 -0.17999994588E+03  0.16059973013E+04  0.17709548454E+04  0.46999998093E+01 0.  1.
</event>
<event>
 5   0  0.1788413E-05  0.2205699E+04  0.7818609E-02  0.8516060E-01
       -1   -1    0    0    0  501  0.00000000000E+00  0.00000000000E+00  0.44397549194E+03  0.44397549197E+03  0.50400001928E-02 0.  1.
        1   -1    0    0  501    0  0.00000000000E+00  0.00000000000E+00 -0.27395142374E+04  0.27395142374E+04  0.50400001928E-02 0. -1.
    10030    2    1    2    0    0  0.00000000000E+00  0.00000000000E+00 -0.22955387455E+04  0.31834897294E+04  0.22056991466E+04 0.  0.
        1    1    3    3  502    0  0.66811107441E+03 -0.38613637875E+03 -0.10576193979E+02  0.77174190416E+03  0.50400001928E-02 0.  1.
       -1    1    3    3    0  502 -0.66811107441E+03  0.38613637875E+03 -0.22849625515E+04  0.24117478252E+04  0.50400001928E-02 0. -1.
</event>
<event>
 5   0  0.1815681E-05  0.2197661E+04  0.7818609E-02  0.8519402E-01
       -1   -1    0    0    0  501  0.00000000000E+00  0.00000000000E+00  0.15916963365E+04  0.15916963365E+04  0.50400001928E-02 0. -1.
        1   -1    0    0  501    0  0.00000000000E+00  0.00000000000E+00 -0.75857954368E+03  0.75857954369E+03  0.50400001928E-02 0.  1.
    10030    2    1    2    0    0  0.00000000000E+00  0.00000000000E+00  0.83311679282E+03  0.23502758802E+04  0.21976608297E+04 0.  0.
        2    1    3    3  502    0 -0.10563724016E+04 -0.29215813951E+02  0.73855184029E+03  0.12892769429E+04  0.25500000920E-02 0. -1.
       -2    1    3    3    0  502  0.10563724016E+04  0.29215813951E+02  0.94564952536E+02  0.10609989373E+04  0.25500000920E-02 0.  1.
</event>
<event>
 5   0  0.4029532E-05  0.2199748E+04  0.7818609E-02  0.8518533E-01
       -2   -1    0    0    0  501  0.00000000000E+00  0.00000000000E+00  0.53640073848E+03  0.53640073848E+03  0.25500000920E-02 0. -1.
        2   -1    0    0  501    0  0.00000000000E+00  0.00000000000E+00 -0.22552601433E+04  0.22552601433E+04  0.25500000920E-02 0.  1.
    10030    2    1    2    0    0  0.00000000000E+00  0.00000000000E+00 -0.17188594048E+04  0.27916608818E+04  0.21997483550E+04 0.  0.
        3    1    3    3  502    0  0.10163686093E+04 -0.71906814033E+02 -0.13850617071E+04  0.17194684303E+04  0.10100000352E+00 0.  1.
       -3    1    3    3    0  502 -0.10163686093E+04  0.71906814033E+02 -0.33379769767E+03  0.10721924515E+04  0.10100000352E+00 0. -1.
</event>
<event>
 5   0  0.1786228E-05  0.2181513E+04  0.7818609E-02  0.8526162E-01
        1   -1    0    0  501    0  0.00000000000E+00  0.00000000000E+00  0.24402528189E+04  0.24402528189E+04  0.50400001928E-02 0. -1.
       -1   -1    0    0    0  501  0.00000000000E+00  0.00000000000E+00 -0.48755190881E+03  0.48755190884E+03  0.50400001928E-02 0.  1.
    10030    2    1    2    0    0  0.00000000000E+00  0.00000000000E+00  0.19527009101E+04  0.29278047277E+04  0.21815131628E+04 0.  0.
        5    1    3    3  502    0 -0.90038539964E+02 -0.91315544728E+03  0.17678106752E+04  0.19917671759E+04  0.46999998093E+01 0. -1.
       -5    1    3    3    0  502  0.90038539964E+02  0.91315544728E+03  0.18489023492E+03  0.93603755188E+03  0.46999998093E+01 0.  1.
</event>
<event>
 5   0  0.3963414E-05  0.2220010E+04  0.7818609E-02  0.8510145E-01
       -2   -1    0    0    0  501  0.00000000000E+00  0.00000000000E+00  0.11921786337E+04  0.11921786337E+04  0.25500000920E-02 0.  1.
        2   -1    0    0  501    0  0.00000000000E+00  0.00000000000E+00 -0.10334954806E+04  0.10334954806E+04  0.25500000920E-02 0. -1.
    10030    2    1    2    0    0  0.00000000000E+00  0.00000000000E+00  0.15868315306E+03  0.22256741142E+04  0.22200101170E+04 0.  0.
        1    1    3    3  502    0  0.29602709939E+03 -0.74766535256E+03  0.84645761166E+03  0.11675298760E+04  0.50400001928E-02 0.  1.
       -1    1    3    3    0  502 -0.29602709939E+03  0.74766535256E+03 -0.68777445860E+03  0.10581442382E+04  0.50400001928E-02 0. -1.
</event>
<event>
 5   0  0.1788413E-05  0.2189880E+04  0.7818609E-02  0.8522652E-01
       -1   -1    0    0    0  501  0.00000000000E+00  0.00000000000E+00  0.85728664529E+03  0.85728664530E+03  0.50400001928E-02 0.  1.
        1   -1    0    0  501    0  0.00000000000E+00  0.00000000000E+00 -0.13984743779E+04  0.13984743779E+04  0.50400001928E-02 0. -1.
    10030    2    1    2    0    0  0.00000000000E+00  0.00000000000E+00 -0.54118773263E+03  0.22557610232E+04  0.21898798214E+04 0.  0.
        1    1    3    3  502    0  0.79586201099E+03  0.26047633392E+03 -0.99725919371E+03  0.13022174014E+04  0.50400001928E-02 0. -1.
       -1    1    3    3    0  502 -0.79586201099E+03 -0.26047633392E+03  0.45607146108E+03  0.95354362182E+03  0.50400001928E-02 0.  1.
</event>
<event>
 5   0  0.4143281E-05  0.2215360E+04  0.7818609E-02  0.8512062E-01
        2   -1    0    0  501    0  0.00000000000E+00  0.00000000000E+00  0.12651956393E+04  0.12651956393E+04  0.25500000920E-02 0.  1.
       -2   -1    0    0    0  501  0.00000000000E+00  0.00000000000E+00 -0.96977527658E+03  0.96977527658E+03  0.25500000920E-02 0. -1.
    10030    2    1    2    0    0  0.00000000000E+00  0.00000000000E+00  0.29542036277E+03  0.22349709159E+04  0.22153604231E+04 0.  0.
        2    1    3    3  502    0 -0.12905713982E+03  0.58279263023E+03 -0.79363715434E+03  0.99305736388E+03  0.25500000920E-02 0. -1.
       -2    1    3    3    0  502  0.12905713982E+03 -0.58279263023E+03  0.10890575171E+04  0.12419135521E+04  0.25500000920E-02 0.  1.
</event>
<event>
 5   0  0.1884407E-05  0.2255219E+04  0.7818609E-02  0.8495790E-01
        1   -1    0    0  501    0  0.00000000000E+00  0.00000000000E+00  0.81104099341E+03  0.81104099342E+03  0.50400001928E-02 0.  1.
       -1   -1    0    0    0  501  0.00000000000E+00  0.00000000000E+00 -0.15677428777E+04  0.15677428777E+04  0.50400001928E-02 0. -1.
    10030    2    1    2    0    0  0.00000000000E+00  0.00000000000E+00 -0.75670188427E+03  0.23787838711E+04  0.22552194935E+04 0.  0.
        3    1    3    3  502    0  0.28065268610E+02 -0.41431099503E+03 -0.14841529079E+04  0.15411525311E+04  0.10100000352E+00 0. -1.
       -3    1    3    3    0  502 -0.28065268610E+02  0.41431099503E+03  0.72745102358E+03  0.83763134004E+03  0.10100000352E+00 0.  1.
</event>
<event>
 5   0  0.4132460E-05  0.2199605E+04  0.7818609E-02  0.8518592E-01
       -2   -1    0    0    0  501  0.00000000000E+00  0.00000000000E+00  0.11806220534E+04  0.11806220534E+04  0.25500000920E-02 0.  1.
        2   -1    0    0  501    0  0.00000000000E+00  0.00000000000E+00 -0.10245156044E+04  0.10245156044E+04  0.25500000920E-02 0. -1.
    10030    2    1    2    0    0  0.00000000000E+00  0.00000000000E+00  0.15610644902E+03  0.22051376578E+04  0.21996051615E+04 0.  0.
        4    1    3    3  502    0 -0.76929369512E+03  0.61215686088E+03 -0.41615250644E+03  0.10675829397E+04  0.12699999809E+01 0. -1.
       -4    1    3    3    0  502  0.76929369512E+03 -0.61215686088E+03  0.57225895546E+03  0.11375547181E+04  0.12699999809E+01 0.  1.
</event>
<event>
 5   0  0.3963414E-05  0.2237111E+04  0.7818609E-02  0.8503139E-01
       -2   -1    0    0    0  501  0.00000000000E+00  0.00000000000E+00  0.10568044671E+04  0.10568044671E+04  0.25500000920E-02 0. -1.
        2   -1    0    0  501    0  0.00000000000E+00  0.00000000000E+00 -0.11839148695E+04  0.11839148695E+04  0.25500000920E-02 0.  1.
    10030    2    1    2    0    0  0.00000000000E+00  0.00000000000E+00 -0.12711040240E+03  0.22407193366E+04  0.22371111038E+04 0.  0.
        1    1    3    3  502    0 -0.41081970079E+03 -0.20531388524E+03  0.95801134737E+03  0.10624087536E+04  0.50400001928E-02 0. -1.
       -1    1    3    3    0  502  0.41081970079E+03  0.20531388524E+03 -0.10851217498E+04  0.11783105829E+04  0.50400001928E-02 0.  1.
</event>
<event>
 5   0  0.1884407E-05  0.2162622E+04  0.7818609E-02  0.8534148E-01
       -1   -1    0    0    0  501  0.00000000000E+00  0.00000000000E+00  0.67245768530E+03  0.67245768532E+03  0.50400001928E-02 0. -1.
        1   -1    0    0  501    0  0.00000000000E+00  0.00000000000E+00 -0.17387473202E+04  0.17387473202E+04  0.50400001928E-02 0.  1.
    10030    2    1    2    0    0  0.00000000000E+00  0.00000000000E+00 -0.10662896349E+04  0.24112050055E+04  0.21626224805E+04 0.  0.
        3    1    3    3  502    0  0.73751745519E+03  0.33866409094E+03 -0.13298497327E+04  0.15579235170E+04  0.10100000352E+00 0.  1.
       -3    1    3    3    0  502 -0.73751745519E+03 -0.33866409094E+03  0.26356009781E+03  0.85328148847E+03  0.10100000352E+00 0. -1.
</event>
<event>
 5   0  0.1786228E-05  0.2191380E+04  0.7818609E-02  0.8522024E-01
       -1   -1    0    0    0  501  0.00000000000E+00  0.00000000000E+00  0.10769520115E+04  0.10769520115E+04  0.50400001928E-02 0. -1.
        1   -1    0    0  501    0  0.00000000000E+00  0.00000000000E+00 -0.11147540517E+04  0.11147540518E+04  0.50400001928E-02 0.  1.
    10030    2    1    2    0    0  0.00000000000E+00  0.00000000000E+00 -0.37802040234E+02  0.21917060633E+04  0.21913800386E+04 0.  0.
        5    1    3    3  502    0 -0.66635684156E+03 -0.35043251348E+03 -0.81505974072E+03  0.11095849935E+04  0.46999998093E+01 0.  1.
       -5    1    3    3    0  502  0.66635684156E+03  0.35043251348E+03  0.77725770048E+03  0.10821210698E+04  0.46999998093E+01 0. -1.
</event>
<event>
 5   0  0.1884407E-05  0.2163227E+04  0.7818609E-02  0.8533892E-01
       -1   -1    0    0    0  501  0.00000000000E+00  0.00000000000E+00  0.68161932960E+03  0.68161932962E+03  0.50400001928E-02 0.  1.
        1   -1    0    0  501    0  0.00000000000E+00  0.00000000000E+00 -0.17163356283E+04  0.17163356283E+04  0.50400001928E-02 0. -1.
    10030    2    1    2    0    0  0.00000000000E+00  0.00000000000E+00 -0.10347162987E+04  0.23979549579E+04  0.21632267938E+04 0.  0.
        3    1    3    3  502    0  0.42184348754E+03  0.97875100253E+03 -0.72170310857E+03  0.12871522210E+04  0.10100000352E+00 0.  1.
       -3    1    3    3    0  502 -0.42184348754E+03 -0.97875100253E+03 -0.31301319014E+03  0.11108027369E+04  0.10100000352E+00 0. -1.
</event>
<event>
 5   0  0.1786228E-05  0.2264862E+04  0.7818609E-02  0.8491906E-01
       -1   -1    0    0    0  501  0.00000000000E+00  0.00000000000E+00  0.85249849015E+03  0.85249849017E+03  0.50400001928E-02 0.  1.
        1   -1    0    0  501    0  0.00000000000E+00  0.00000000000E+00 -0.15042847168E+04  0.15042847168E+04  0.50400001928E-02 0. -1.
    10030    2    1    2    0    0  0.00000000000E+00  0.00000000000E+00 -0.65178622661E+03  0.23567832069E+04  0.22648624239E+04 0.  0.
        5    1    3    3  502    0 -0.67837046904E+03  0.17603359508E+02  0.61747792662E+03  0.91749520511E+03  0.46999998093E+01 0.  1.
       -5    1    3    3    0  502  0.67837046904E+03 -0.17603359508E+02 -0.12692641532E+04  0.14392880018E+04  0.46999998093E+01 0. -1.
</event>
<event>
 5   0  0.4143281E-05  0.2180009E+04  0.7818609E-02  0.8526795E-01
        2   -1    0    0  501    0  0.00000000000E+00  0.00000000000E+00  0.15207884369E+04  0.15207884369E+04  0.25500000920E-02 0. -1.
       -2   -1    0    0    0  501  0.00000000000E+00  0.00000000000E+00 -0.78124624257E+03  0.78124624257E+03  0.25500000920E-02 0.  1.
    10030    2    1    2    0    0  0.00000000000E+00  0.00000000000E+00  0.73954219436E+03  0.23020346795E+04  0.21800094056E+04 0.  0.
        2    1    3    3  502    0  0.53323976517E+03  0.48316845726E+03  0.12343260238E+04  0.14287607001E+04  0.25500000920E-02 0. -1.
       -2    1    3    3    0  502 -0.53323976517E+03 -0.48316845726E+03 -0.49478382940E+03  0.87327397939E+03  0.25500000920E-02 0.  1.
</event>
<event>
 5   0  0.1884407E-05  0.2204837E+04  0.7818609E-02  0.8516418E-01
        1   -1    0    0  501    0  0.00000000000E+00  0.00000000000E+00  0.79957977616E+03  0.79957977618E+03  0.50400001928E-02 0.  1.
       -1   -1    0    0    0  501  0.00000000000E+00  0.00000000000E+00 -0.15199565401E+04  0.15199565401E+04  0.50400001928E-02 0. -1.
    10030    2    1    2    0    0  0.00000000000E+00  0.00000000000E+00 -0.72037676393E+03  0.23195363163E+04  0.22048369646E+04 0.  0.
        3    1    3    3  502    0 -0.60191241006E+03  0.88852972181E+03 -0.94997763414E+02  0.10774080941E+04  0.10100000352E+00 0.  1.
       -3    1    3    3    0  502  0.60191241006E+03 -0.88852972181E+03 -0.62537900052E+03  0.12421282222E+04  0.10100000352E+00 0. -1.
</event>
<event>
 5   0  0.3963414E-05  0.2189963E+04  0.7818609E-02  0.8522618E-01
       -2   -1    0    0    0  501  0.00000000000E+00  0.00000000000E+00  0.50478478393E+03  0.50478478394E+03  0.25500000920E-02 0. -1.
        2   -1    0    0  501    0  0.00000000000E+00  0.00000000000E+00 -0.23752379173E+04  0.23752379173E+04  0.25500000920E-02 0.  1.
    10030    2    1    2    0    0  0.00000000000E+00  0.00000000000E+00 -0.18704531334E+04  0.28800227013E+04  0.21899625192E+04 0.  0.
        1    1    3    3  502    0 -0.83528788378E+03 -0.70593040235E+03 -0.86391487382E+03  0.13936974173E+04  0.50400001928E-02 0. -1.
       -1    1    3    3    0  502  0.83528788378E+03  0.70593040235E+03 -0.10065382596E+04  0.14863252840E+04  0.50400001928E-02 0.  1.
</event>
<event>
 5   0  0.4132460E-05  0.2232936E+04  0.7818609E-02  0.8504843E-01
        2   -1    0    0  501    0  0.00000000000E+00  0.00000000000E+00  0.19069758918E+04  0.19069758918E+04  0.25500000920E-02 0.  1.
       -2   -1    0    0    0  501  0.00000000000E+00  0.00000000000E+00 -0.65365295324E+03  0.65365295324E+03  0.25500000920E-02 0. -1.
    10030    2    1    2    0    0  0.00000000000E+00  0.00000000000E+00  0.12533229385E+04  0.25606288450E+04  0.22329356672E+04 0.  0.
        4    1    3    3  502    0 -0.25566354907E+02 -0.49889997850E+03 -0.51833935933E+03  0.71988341513E+03  0.12699999809E+01 0. -1.
       -4    1    3    3    0  502  0.25566354907E+02  0.49889997850E+03  0.17716622979E+04  0.18407454299E+04  0.12699999809E+01 0.  1.
</event>
<event>
 5   0  0.1884407E-05  0.2201386E+04  0.7818609E-02  0.8517852E-01
        1   -1    0    0  501    0  0.00000000000E+00  0.00000000000E+00  0.16171440592E+04  0.16171440592E+04  0.50400001928E-02 0.  1.
       -1   -1    0    0    0  501  0.00000000000E+00  0.00000000000E+00 -0.74917544875E+03  0.74917544876E+03  0.50400001928E-02 0. -1.
    10030    2    1    2    0    0  0.00000000000E+00  0.00000000000E+00  0.86796861049E+03  0.23663195080E+04  0.22013855876E+04 0.  0.
        3    1    3    3  502    0  0.62241953412E+03 -0.72980707686E+03  0.10143432356E+04  0.13960360510E+04  0.10100000352E+00 0.  1.
       -3    1    3    3    0  502 -0.62241953412E+03  0.72980707686E+03 -0.14637462509E+03  0.97028345702E+03  0.10100000352E+00 0. -1.
</event>
<event>
 5   0  0.4029532E-05  0.2199979E+04  0.7818609E-02  0.8518437E-01
       -2   -1    0    0    0  501  0.00000000000E+00  0.00000000000E+00  0.54740193754E+03  0.54740193754E+03  0.25500000920E-02 0. -1.
        2   -1    0    0  501    0  0.00000000000E+00  0.00000000000E+00 -0.22103995577E+04  0.22103995577E+04  0.25500000920E-02 0.  1.
    10030    2    1    2    0    0  0.00000000000E+00  0.00000000000E+00 -0.16629976202E+04  0.27578014953E+04  0.21999790914E+04 0.  0.
        3    1    3    3  502    0 -0.10513973303E+04  0.10832848639E+03 -0.12133828441E+04  0.16091828187E+04  0.10100000352E+00 0. -1.
       -3    1    3    3    0  502  0.10513973303E+04 -0.10832848639E+03 -0.44961477604E+03  0.11486186766E+04  0.10100000352E+00 0.  1.
</event>
<event>
 5   0  0.4029532E-05  0.2184940E+04  0.7818609E-02  0.8524723E-01
        2   -1    0    0  501    0  0.00000000000E+00  0.00000000000E+00  0.11610547068E+04  0.11610547068E+04  0.25500000920E-02 0.  1.
       -2   -1    0    0    0  501  0.00000000000E+00  0.00000000000E+00 -0.10279364855E+04  0.10279364855E+04  0.25500000920E-02 0. -1.
    10030    2    1    2    0    0  0.00000000000E+00  0.00000000000E+00  0.13311822131E+03  0.21889911923E+04  0.21849398113E+04 0.  0.
        3    1    3    3  502    0 -0.10942417434E+03 -0.35977334787E+03 -0.96105228795E+03  0.10320038867E+04  0.10100000352E+00 0. -1.
       -3    1    3    3    0  502  0.10942417434E+03  0.35977334787E+03  0.10941705093E+04  0.11569873056E+04  0.10100000352E+00 0.  1.
</event>
<event>
 5   0  0.1815681E-05  0.2175389E+04  0.7818609E-02  0.8528742E-01
       -1   -1    0    0    0  501  0.00000000000E+00  0.00000000000E+00  0.13375500400E+04  0.13375500400E+04  0.50400001928E-02 0.  1.
        1   -1    0    0  501    0  0.00000000000E+00  0.00000000000E+00 -0.88451220994E+03  0.88451220995E+03  0.50400001928E-02 0. -1.
    10030    2    1    2    0    0  0.00000000000E+00  0.00000000000E+00  0.45303783002E+03  0.22220622499E+04  0.21753890151E+04 0.  0.
        2    1    3    3  502    0 -0.62564314961E+03  0.10133229143E+03 -0.67640451791E+03  0.92694156008E+03  0.25500000920E-02 0. -1.
       -2    1    3    3    0  502  0.62564314961E+03 -0.10133229143E+03  0.11294423479E+04  0.12951206898E+04  0.25500000920E-02 0.  1.
</event>
<event>
 5   0  0.1786228E-05  0.2186335E+04  0.7818609E-02  0.8524137E-01
       -1   -1    0    0    0  501  0.00000000000E+00  0.00000000000E+00  0.85216188365E+03  0.85216188366E+03  0.50400001928E-02 0.  1.
        1   -1    0    0  501    0  0.00000000000E+00  0.00000000000E+00 -0.14023331720E+04  0.14023331720E+04  0.50400001928E-02 0. -1.
    10030    2    1    2    0    0  0.00000000000E+00  0.00000000000E+00 -0.55017128831E+03  0.22544950556E+04  0.21863347203E+04 0.  0.
        5    1    3    3  502    0  0.73120504342E+03 -0.46790002720E+03  0.41000739626E+03  0.96006218859E+03  0.46999998093E+01 0.  1.
       -5    1    3    3    0  502 -0.73120504342E+03  0.46790002720E+03 -0.96017868458E+03  0.12944328670E+04  0.46999998093E+01 0. -1.
</event>
<event>
 5   0  0.1788413E-05  0.2201733E+04  0.7818609E-02  0.8517707E-01
       -1   -1    0    0    0  501  0.00000000000E+00  0.00000000000E+00  0.18961889749E+04  0.18961889749E+04  0.50400001928E-02 0.  1.
        1   -1    0    0  501    0  0.00000000000E+00  0.00000000000E+00 -0.63912777690E+03  0.63912777692E+03  0.50400001928E-02 0. -1.
    10030    2    1    2    0    0  0.00000000000E+00  0.00000000000E+00  0.12570611980E+04  0.25353167518E+04  0.22017329939E+04 0.  0.
        1    1    3    3  502    0  0.57840957374E+03 -0.35130315196E+03 -0.37131899199E+03  0.77191277578E+03  0.50400001928E-02 0.  1.
       -1    1    3    3    0  502 -0.57840957374E+03  0.35130315196E+03  0.16283801900E+04  0.17634039761E+04  0.50400001928E-02 0. -1.
</event>
<event>
 5   0  0.4027923E-05  0.2215818E+04  0.7818609E-02  0.8511873E-01
       -2   -1    0    0    0  501  0.00000000000E+00  0.00000000000E+00  0.13437567224E+04  0.13437567224E+04  0.25500000920E-02 0. -1.
        2   -1    0    0  501    0  0.00000000000E+00  0.00000000000E+00 -0.91345565317E+03  0.91345565317E+03  0.25500000920E-02 0.  1.
    10030    2    1    2    0    0  0.00000000000E+00  0.00000000000E+00  0.43030106922E+03  0.22572123756E+04  0.22158178396E+04 0.  0.
        5    1    3    3  502    0  0.21850448279E+03  0.10604825655E+04 -0.23909057202E+02  0.10830333391E+04  0.46999998093E+01 0.  1.
       -5    1    3    3    0  502 -0.21850448279E+03 -0.10604825655E+04  0.45421012643E+03  0.11741790364E+04  0.46999998093E+01 0. -1.
</event>
<event>
 5   0  0.4029532E-05  0.2223434E+04  0.7818609E-02  0.8508737E-01
        2   -1    0    0  501    0  0.00000000000E+00  0.00000000000E+00  0.20402154090E+04  0.20402154090E+04  0.25500000920E-02 0.  1.
       -2   -1    0    0    0  501  0.00000000000E+00  0.00000000000E+00 -0.60577641691E+03  0.60577641692E+03  0.25500000920E-02 0. -1.
    10030    2    1    2    0    0  0.00000000000E+00  0.00000000000E+00  0.14344389921E+04  0.26459918260E+04  0.22234337231E+04 0.  0.
        3    1    3    3  502    0 -0.51983399133E+03  0.43346676006E+03 -0.33231442878E+03  0.75402499985E+03  0.10100000352E+00 0. -1.
       -3    1    3    3    0  502  0.51983399133E+03 -0.43346676006E+03  0.17667534209E+04  0.18919668261E+04  0.10100000352E+00 0.  1.
</event>
<event>
 5   0  0.4132460E-05  0.2202849E+04  0.7818609E-02  0.8517243E-01
        2   -1    0    0  501    0  0.00000000000E+00  0.00000000000E+00  0.96003091658E+03  0.96003091658E+03  0.25500000920E-02 0.  1.
       -2   -1    0    0    0  501  0.00000000000E+00  0.00000000000E+00 -0.12636422277E+04  0.12636422277E+04  0.25500000920E-02 0. -1.
    10030    2    1    2    0    0  0.00000000000E+00  0.00000000000E+00 -0.30361131110E+03  0.22236731443E+04  0.22028487066E+04 0.  0.
        4    1    3    3  502    0 -0.67272379489E+03  0.85231770985E+03  0.34687168613E+02  0.10863735984E+04  0.12699999809E+01 0.  1.
       -4    1    3    3    0  502  0.67272379489E+03 -0.85231770985E+03 -0.33829847972E+03  0.11372995459E+04  0.12699999809E+01 0. -1.
</event>
<event>
 5   0  0.4029532E-05  0.2210897E+04  0.7818609E-02  0.8513906E-01
       -2   -1    0    0    0  501  0.00000000000E+00  0.00000000000E+00  0.49213766775E+03  0.49213766776E+03  0.25500000920E-02 0.  1.
        2   -1    0    0  501    0  0.00000000000E+00  0.00000000000E+00 -0.24830782396E+04  0.24830782396E+04  0.25500000920E-02 0. -1.
    10030    2    1    2    0    0  0.00000000000E+00  0.00000000000E+00 -0.19909405719E+04  0.29752159074E+04  0.22108969526E+04 0.  0.
        3    1    3    3  502    0  0.85745845125E+03  0.67000640452E+03 -0.73358362242E+03  0.13123599045E+04  0.10100000352E+00 0.  1.
       -3    1    3    3    0  502 -0.85745845125E+03 -0.67000640452E+03 -0.12573569495E+04  0.16628560029E+04  0.10100000352E+00 0. -1.
</event>
<event>
 5   0  0.1786228E-05  0.2187851E+04  0.7818609E-02  0.8523502E-01
       -1   -1    0    0    0  501  0.00000000000E+00  0.00000000000E+00  0.73464723502E+03  0.73464723504E+03  0.50400001928E-02 0.  1.
        1   -1    0    0  501    0  0.00000000000E+00  0.00000000000E+00 -0.16289087338E+04  0.16289087338E+04  0.50400001928E-02 0. -1.
    10030    2    1    2    0    0  0.00000000000E+00  0.00000000000E+00 -0.89426149882E+03  0.23635559689E+04  0.21878512723E+04 0.  0.
        5    1    3    3  502    0 -0.52868615891E+03 -0.95764384631E+03 -0.43873371960E+03  0.11786009323E+04  0.46999998093E+01 0. -1.
       -5    1    3    3    0  502  0.52868615891E+03  0.95764384631E+03 -0.45552777922E+03  0.11849550365E+04  0.46999998093E+01 0.  1.
</event>
<event>
 5   0  0.1866935E-05  0.2192297E+04  0.7818609E-02  0.8521641E-01
        1   -1    0    0  501    0  0.00000000000E+00  0.00000000000E+00  0.10714100714E+04  0.10714100714E+04  0.50400001928E-02 0.  1.
       -1   -1    0    0    0  501  0.00000000000E+00  0.00000000000E+00 -0.11214580840E+04  0.11214580840E+04  0.50400001928E-02 0. -1.
    10030    2    1    2    0    0  0.00000000000E+00  0.00000000000E+00 -0.50048012619E+02  0.21928681555E+04  0.21922969561E+04 0.  0.
        4    1    3    3  502    0 -0.57301377724E+03 -0.41766058591E+02 -0.95878245993E+03  0.11177453247E+04  0.12699999809E+01 0. -1.
       -4    1    3    3    0  502  0.57301377724E+03  0.41766058591E+02  0.90873444731E+03  0.10751228307E+04  0.12699999809E+01 0.  1.
</event>
<event>
 5   0  0.1786228E-05  0.2184915E+04  0.7818609E-02  0.8524733E-01
       -1   -1    0    0    0  501  0.00000000000E+00  0.00000000000E+00  0.81882294764E+03  0.81882294765E+03  0.50400001928E-02 0.  1.
        1   -1    0    0  501    0  0.00000000000E+00  0.00000000000E+00 -0.14575353773E+04  0.14575353773E+04  0.50400001928E-02 0. -1.
    10030    2    1    2    0    0  0.00000000000E+00  0.00000000000E+00 -0.63871242969E+03  0.22763583250E+04  0.21849150226E+04 0.  0.
        5    1    3    3  502    0 -0.18605896490E+03 -0.25027421655E+03  0.77145160066E+03  0.83211464598E+03  0.46999998093E+01 0.  1.
       -5    1    3    3    0  502  0.18605896490E+03  0.25027421655E+03 -0.14101640304E+04  0.14442436790E+04  0.46999998093E+01 0. -1.
</event>
<event>
 5   0  0.1866935E-05  0.2198870E+04  0.7818609E-02  0.8518899E-01
        1   -1    0    0  501    0  0.00000000000E+00  0.00000000000E+00  0.26108597858E+04  0.26108597858E+04  0.50400001928E-02 0.  1.
       -1   -1    0    0    0  501  0.00000000000E+00  0.00000000000E+00 -0.46297291678E+03  0.46297291681E+03  0.50400001928E-02 0. -1.
    10030    2    1    2    0    0  0.00000000000E+00  0.00000000000E+00  0.21478868690E+04  0.30738327026E+04  0.21988700465E+04 0.  0.
        4    1    3    3  502    0 -0.42829059836E+03 -0.65057647608E+03 -0.10745726770E+02  0.77897347286E+03  0.12699999809E+01 0. -1.
       -4    1    3    3    0  502  0.42829059836E+03  0.65057647608E+03  0.21586325958E+04  0.22948592297E+04  0.12699999809E+01 0.  1.
</event>
<event>
 5   0  0.4029532E-05  0.2192593E+04  0.7818609E-02  0.8521517E-01
       -2   -1    0    0    0  501  0.00000000000E+00  0.00000000000E+00  0.14614903595E+04  0.14614903595E+04  0.25500000920E-02 0. -1.
        2   -1    0    0  501    0  0.00000000000E+00  0.00000000000E+00 -0.82235672155E+03  0.82235672156E+03  0.25500000920E-02 0.  1.
    10030    2    1    2    0    0  0.00000000000E+00  0.00000000000E+00  0.63913363791E+03  0.22838470810E+04  0.21925933691E+04 0.  0.
        3    1    3    3  502    0  0.20867116754E+03  0.88732510674E+03  0.95399485182E+03  0.13194679567E+04  0.10100000352E+00 0. -1.
       -3    1    3    3    0  502 -0.20867116754E+03 -0.88732510674E+03 -0.31486121391E+03  0.96437912433E+03  0.10100000352E+00 0.  1.
</event>
<event>
 5   0  0.1884407E-05  0.2202639E+04  0.7818609E-02  0.8517331E-01
       -1   -1    0    0    0  501  0.00000000000E+00  0.00000000000E+00  0.62259216450E+03  0.62259216452E+03  0.50400001928E-02 0. -1.
        1   -1    0    0  501    0  0.00000000000E+00  0.00000000000E+00 -0.19481527008E+04  0.19481527008E+04  0.50400001928E-02 0.  1.
    10030    2    1    2    0    0  0.00000000000E+00  0.00000000000E+00 -0.13255605363E+04  0.25707448654E+04  0.22026389689E+04 0.  0.
        3    1    3    3  502    0 -0.69115644952E+03  0.24551922571E+03  0.29605560672E+03  0.79096514486E+03  0.10100000352E+00 0. -1.
       -3    1    3    3    0  502  0.69115644952E+03 -0.24551922571E+03 -0.16216161431E+04  0.17797797205E+04  0.10100000352E+00 0.  1.
</event>
<event>
 5   0  0.4027923E-05  0.2144445E+04  0.7818609E-02  0.8541914E-01
       -2   -1    0    0    0  501  0.00000000000E+00  0.00000000000E+00  0.54007916875E+03  0.54007916875E+03  0.25500000920E-02 0.  1.
        2   -1    0    0  501    0  0.00000000000E+00  0.00000000000E+00 -0.21286901858E+04  0.21286901858E+04  0.25500000920E-02 0. -1.
    10030    2    1    2    0    0  0.00000000000E+00  0.00000000000E+00 -0.15886110171E+04  0.26687693546E+04  0.21444451274E+04 0.  0.
        5    1    3    3  502    0 -0.58468755708E+03 -0.31167522266E+03 -0.18434139078E+04  0.19588766958E+04  0.46999998093E+01 0. -1.
       -5    1    3    3    0  502  0.58468755708E+03  0.31167522266E+03  0.25480289076E+03  0.70989265876E+03  0.46999998093E+01 0.  1.
</event>
<event>
 5   0  0.4029532E-05  0.2058994E+04  0.7818609E-02  0.8579525E-01
        2   -1    0    0  501    0  0.00000000000E+00  0.00000000000E+00  0.12769447571E+04  0.12769447571E+04  0.25500000920E-02 0. -1.
       -2   -1    0    0    0  501  0.00000000000E+00  0.00000000000E+00 -0.83000022986E+03  0.83000022986E+03  0.25500000920E-02 0.  1.
    10030    2    1    2    0    0  0.00000000000E+00  0.00000000000E+00  0.44694452723E+03  0.21069449869E+04  0.20589943583E+04 0.  0.
        3    1    3    3  502    0  0.48895311822E+03  0.28205927385E+03  0.11044705719E+04  0.12403579484E+04  0.10100000352E+00 0.  1.
       -3    1    3    3    0  502 -0.48895311822E+03 -0.28205927385E+03 -0.65752604466E+03  0.86658703855E+03  0.10100000352E+00 0. -1.
</event>
<event>
 5   0  0.1884407E-05  0.2187734E+04  0.7818609E-02  0.8523551E-01
       -1   -1    0    0    0  501  0.00000000000E+00  0.00000000000E+00  0.70803487990E+03  0.70803487992E+03  0.50400001928E-02 0. -1.
        1   -1    0    0  501    0  0.00000000000E+00  0.00000000000E+00 -0.16899522973E+04  0.16899522973E+04  0.50400001928E-02 0.  1.
    10030    2    1    2    0    0  0.00000000000E+00  0.00000000000E+00 -0.98191741740E+03  0.23979871772E+04  0.21877341446E+04 0.  0.
        3    1    3    3  502    0  0.24293324371E+03  0.71726886180E+02 -0.16573630993E+04  0.16766078135E+04  0.10100000352E+00 0.  1.
       -3    1    3    3    0  502 -0.24293324371E+03 -0.71726886180E+02  0.67544568188E+03  0.72137936377E+03  0.10100000352E+00 0. -1.
</event>
<event>
 5   0  0.4132460E-05  0.2207333E+04  0.7818609E-02  0.8515382E-01
        2   -1    0    0  501    0  0.00000000000E+00  0.00000000000E+00  0.11987230466E+04  0.11987230466E+04  0.25500000920E-02 0. -1.
       -2   -1    0    0    0  501  0.00000000000E+00  0.00000000000E+00 -0.10161481211E+04  0.10161481211E+04  0.25500000920E-02 0.  1.
    10030    2    1    2    0    0  0.00000000000E+00  0.00000000000E+00  0.18257492546E+03  0.22148711677E+04  0.22073333881E+04 0.  0.
        4    1    3    3  502    0  0.69337251380E+03 -0.36266737226E+03  0.87226756951E+03  0.11718128654E+04  0.12699999809E+01 0. -1.
       -4    1    3    3    0  502 -0.69337251380E+03  0.36266737226E+03 -0.68969264406E+03  0.10430583023E+04  0.12699999809E+01 0.  1.
</event>
<event>
 5   0  0.4027923E-05  0.2189355E+04  0.7818609E-02  0.8522872E-01
        2   -1    0    0  501    0  0.00000000000E+00  0.00000000000E+00  0.14182120565E+04  0.14182120565E+04  0.25500000920E-02 0.  1.
       -2   -1    0    0    0  501  0.00000000000E+00  0.00000000000E+00 -0.84495002583E+03  0.84495002583E+03  0.25500000920E-02 0. -1.
    10030    2    1    2    0    0  0.00000000000E+00  0.00000000000E+00  0.57326203068E+03  0.22631620823E+04  0.21893545293E+04 0.  0.
        5    1    3    3  502    0 -0.41421724945E+02 -0.44518888028E+03  0.13195091736E+04  0.13932104821E+04  0.46999998093E+01 0.  1.
       -5    1    3    3    0  502  0.41421724945E+02  0.44518888028E+03 -0.74624714289E+03  0.86995160020E+03  0.46999998093E+01 0. -1.
</event>
<event>
 5   0  0.1815681E-05  0.2173808E+04  0.7818609E-02  0.8529410E-01
       -1   -1    0    0    0  501  0.00000000000E+00  0.00000000000E+00  0.10030186707E+04  0.10030186707E+04  0.50400001928E-02 0.  1.
        1   -1    0    0  501    0  0.00000000000E+00  0.00000000000E+00 -0.11778043862E+04  0.11778043862E+04  0.50400001928E-02 0. -1.
    10030    2    1    2    0    0  0.00000000000E+00  0.00000000000E+00 -0.17478571557E+03  0.21808230569E+04  0.21738075258E+04 0.  0.
        2    1    3    3  502    0  0.10650819426E+04  0.21574410856E+03 -0.10782337758E+03  0.10920489667E+04  0.25500000920E-02 0. -1.
       -2    1    3    3    0  502 -0.10650819426E+04 -0.21574410856E+03 -0.66962337991E+02  0.10887740902E+04  0.25500000920E-02 0.  1.
</event>
<event>
 5   0  0.1866935E-05  0.2220980E+04  0.7818609E-02  0.8509746E-01
        1   -1    0    0  501    0  0.00000000000E+00  0.00000000000E+00  0.29929635945E+04  0.29929635945E+04  0.50400001928E-02 0.  1.
       -1   -1    0    0    0  501  0.00000000000E+00  0.00000000000E+00 -0.41202913281E+03  0.41202913284E+03  0.50400001928E-02 0. -1.
    10030    2    1    2    0    0  0.00000000000E+00  0.00000000000E+00  0.25809344617E+04  0.34049927273E+04  0.22209801390E+04 0.  0.
        4    1    3    3  502    0 -0.10712105054E+04  0.22177107982E+03  0.99751915453E+03  0.14804460258E+04  0.12699999809E+01 0. -1.
       -4    1    3    3    0  502  0.10712105054E+04 -0.22177107982E+03  0.15834153071E+04  0.19245467016E+04  0.12699999809E+01 0.  1.
</event>
<event>
 5   0  0.1884407E-05  0.2117290E+04  0.7818609E-02  0.8553665E-01
       -1   -1    0    0    0  501  0.00000000000E+00  0.00000000000E+00  0.13608107913E+04  0.13608107913E+04  0.50400001928E-02 0.  1.
        1   -1    0    0  501    0  0.00000000000E+00  0.00000000000E+00 -0.82357498513E+03  0.82357498515E+03  0.50400001928E-02 0. -1.
    10030    2    1    2    0    0  0.00000000000E+00  0.00000000000E+00  0.53723580617E+03  0.21843857765E+04  0.21172904640E+04 0.  0.
        3    1    3    3  502    0  0.22133100803E+03  0.86047371063E+03 -0.32523311596E+03  0.94613900233E+03  0.10100000352E+00 0. -1.
       -3    1    3    3    0  502 -0.22133100803E+03 -0.86047371063E+03  0.86246892213E+03  0.12382467741E+04  0.10100000352E+00 0.  1.
</event>
<event>
 5   0  0.1786228E-05  0.2167994E+04  0.7818609E-02  0.8531869E-01
       -1   -1    0    0    0  501  0.00000000000E+00  0.00000000000E+00  0.46687861353E+03  0.46687861356E+03  0.50400001928E-02 0.  1.
        1   -1    0    0  501    0  0.00000000000E+00  0.00000000000E+00 -0.25168206787E+04  0.25168206787E+04  0.50400001928E-02 0. -1.
    10030    2    1    2    0    0  0.00000000000E+00  0.00000000000E+00 -0.20499420652E+04  0.29836992922E+04  0.21679942334E+04 0.  0.
        5    1    3    3  502    0  0.11817473959E+03 -0.48895306042E+03 -0.23464473875E+04  0.23997661963E+04  0.46999998093E+01 0. -1.
       -5    1    3    3    0  502 -0.11817473959E+03  0.48895306042E+03  0.29650532237E+03  0.58393309597E+03  0.46999998093E+01 0.  1.
</event>
<event>
 5   0  0.4029532E-05  0.2184398E+04  0.7818609E-02  0.8524950E-01
        2   -1    0    0  501    0  0.00000000000E+00  0.00000000000E+00  0.14074264223E+04  0.14074264223E+04  0.25500000920E-02 0. -1.
       -2   -1    0    0    0  501  0.00000000000E+00  0.00000000000E+00 -0.84757470560E+03  0.84757470560E+03  0.25500000920E-02 0.  1.
    10030    2    1    2    0    0  0.00000000000E+00  0.00000000000E+00  0.55985171668E+03  0.22550011279E+04  0.21843983478E+04 0.  0.
        3    1    3    3  502    0 -0.26057008013E+03  0.10177716777E+04 -0.28292653607E+02  0.10509788004E+04  0.10100000352E+00 0.  1.
       -3    1    3    3    0  502  0.26057008013E+03 -0.10177716777E+04  0.58814437028E+03  0.12040223275E+04  0.10100000352E+00 0. -1.
</event>
<event>
 5   0  0.1788413E-05  0.2177529E+04  0.7818609E-02  0.8527840E-01
        1   -1    0    0  501    0  0.00000000000E+00  0.00000000000E+00  0.15081282791E+04  0.15081282791E+04  0.50400001928E-02 0. -1.
       -1   -1    0    0    0  501  0.00000000000E+00  0.00000000000E+00 -0.78601245418E+03  0.78601245420E+03  0.50400001928E-02 0.  1.
    10030    2    1    2    0    0  0.00000000000E+00  0.00000000000E+00  0.72211582492E+03  0.22941407333E+04  0.21775285164E+04 0.  0.
        1    1    3    3  502    0  0.52386400855E+03  0.44844193343E+03  0.12487182647E+04  0.14264750162E+04  0.50400001928E-02 0. -1.
       -1    1    3    3    0  502 -0.52386400855E+03 -0.44844193343E+03 -0.52660243977E+03  0.86766571715E+03  0.50400001928E-02 0.  1.
</event>
<event>
 5   0  0.3963414E-05  0.2144687E+04  0.7818609E-02  0.8541810E-01
        2   -1    0    0  501    0  0.00000000000E+00  0.00000000000E+00  0.19116417719E+04  0.19116417719E+04  0.25500000920E-02 0. -1.
       -2   -1    0    0    0  501  0.00000000000E+00  0.00000000000E+00 -0.60153578721E+03  0.60153578721E+03  0.25500000920E-02 0.  1.
    10030    2    1    2    0    0  0.00000000000E+00  0.00000000000E+00  0.13101059847E+04  0.25131775591E+04  0.21446873321E+04 0.  0.
        1    1    3    3  502    0  0.10237226256E+04 -0.24503683567E+03  0.89483136547E+03  0.13815839597E+04  0.50400001928E-02 0.  1.
       -1    1    3    3    0  502 -0.10237226256E+04  0.24503683567E+03  0.41527461923E+03  0.11315935995E+04  0.50400001928E-02 0. -1.
</event>
<event>
 5   0  0.1884407E-05  0.2199846E+04  0.7818609E-02  0.8518492E-01
       -1   -1    0    0    0  501  0.00000000000E+00  0.00000000000E+00  0.15299506843E+04  0.15299506843E+04  0.50400001928E-02 0. -1.
        1   -1    0    0  501    0  0.00000000000E+00  0.00000000000E+00 -0.79076428075E+03  0.79076428076E+03  0.50400001928E-02 0.  1.
    10030    2    1    2    0    0  0.00000000000E+00  0.00000000000E+00  0.73918640359E+03  0.23207149651E+04  0.21998457696E+04 0.  0.
        3    1    3    3  502    0  0.11622229809E+03  0.10488617276E+04  0.69681613287E+03  0.12645834410E+04  0.10100000352E+00 0. -1.
       -3    1    3    3    0  502 -0.11622229809E+03 -0.10488617276E+04  0.42370270719E+02  0.10561315241E+04  0.10100000352E+00 0.  1.
</event>
<event>
 5   0  0.1815681E-05  0.2190188E+04  0.7818609E-02  0.8522523E-01
        1   -1    0    0  501    0  0.00000000000E+00  0.00000000000E+00  0.16428239206E+04  0.16428239206E+04  0.50400001928E-02 0. -1.
       -1   -1    0    0    0  501  0.00000000000E+00  0.00000000000E+00 -0.72998135629E+03  0.72998135630E+03  0.50400001928E-02 0.  1.
    10030    2    1    2    0    0  0.00000000000E+00  0.00000000000E+00  0.91284256434E+03  0.23728052769E+04  0.21901879680E+04 0.  0.
        2    1    3    3  502    0  0.78743916258E+03  0.35283225793E+03  0.11869436857E+04  0.14674421113E+04  0.25500000920E-02 0. -1.
       -2    1    3    3    0  502 -0.78743916258E+03 -0.35283225793E+03 -0.27410112133E+03  0.90536316566E+03  0.25500000920E-02 0.  1.
</event>
<event>
 5   0  0.1786228E-05  0.2205043E+04  0.7818609E-02  0.8516332E-01
        1   -1    0    0  501    0  0.00000000000E+00  0.00000000000E+00  0.97065663117E+03  0.97065663118E+03  0.50400001928E-02 0. -1.
       -1   -1    0    0    0  501  0.00000000000E+00  0.00000000000E+00 -0.12523001454E+04  0.12523001454E+04  0.50400001928E-02 0.  1.
    10030    2    1    2    0    0  0.00000000000E+00  0.00000000000E+00 -0.28164351418E+03  0.22229567765E+04  0.22050428026E+04 0.  0.
        5    1    3    3  502    0  0.85276206223E+02 -0.10801310785E+04 -0.34638063864E+03  0.11375222261E+04  0.46999998093E+01 0.  1.
       -5    1    3    3    0  502 -0.85276206223E+02  0.10801310785E+04  0.64737124457E+02  0.10854345505E+04  0.46999998093E+01 0. -1.
</event>
<event>
 5   0  0.4027923E-05  0.2198938E+04  0.7818609E-02  0.8518870E-01
       -2   -1    0    0    0  501  0.00000000000E+00  0.00000000000E+00  0.76768791029E+03  0.76768791029E+03  0.25500000920E-02 0.  1.
        2   -1    0    0  501    0  0.00000000000E+00  0.00000000000E+00 -0.15746393411E+04  0.15746393411E+04  0.25500000920E-02 0. -1.
    10030    2    1    2    0    0  0.00000000000E+00  0.00000000000E+00 -0.80695143080E+03  0.23423272514E+04  0.21989375482E+04 0.  0.
        5    1    3    3  502    0 -0.70067419688E+02 -0.49019952122E+03  0.64216884251E+03  0.81093028442E+03  0.46999998093E+01 0.  1.
       -5    1    3    3    0  502  0.70067419688E+02  0.49019952122E+03 -0.14491202733E+04  0.15313969670E+04  0.46999998093E+01 0. -1.
</event>
<event>
 5   0  0.4027923E-05  0.2212057E+04  0.7818609E-02  0.8513426E-01
       -2   -1    0    0    0  501  0.00000000000E+00  0.00000000000E+00  0.77164129450E+03  0.77164129450E+03  0.25500000920E-02 0.  1.
        2   -1    0    0  501    0  0.00000000000E+00  0.00000000000E+00 -0.15853208978E+04  0.15853208978E+04  0.25500000920E-02 0. -1.
    10030    2    1    2    0    0  0.00000000000E+00  0.00000000000E+00 -0.81367960332E+03  0.23569621923E+04  0.22120570244E+04 0.  0.
        5    1    3    3  502    0 -0.45966691527E+03  0.59418409638E+03  0.45807925433E+03  0.87989039467E+03  0.46999998093E+01 0.  1.
       -5    1    3    3    0  502  0.45966691527E+03 -0.59418409638E+03 -0.12717588577E+04  0.14770717977E+04  0.46999998093E+01 0. -1.
</event>
<event>
 5   0  0.4027923E-05  0.2172761E+04  0.7818609E-02  0.8529852E-01
       -2   -1    0    0    0  501  0.00000000000E+00  0.00000000000E+00  0.16445410621E+04  0.16445410621E+04  0.25500000920E-02 0.  1.
        2   -1    0    0  501    0  0.00000000000E+00  0.00000000000E+00 -0.71766068944E+03  0.71766068944E+03  0.25500000920E-02 0. -1.
    10030    2    1    2    0    0  0.00000000000E+00  0.00000000000E+00  0.92688037270E+03  0.23622017516E+04  0.21727608911E+04 0.  0.
        5    1    3    3  502    0 -0.59703421651E+03  0.53414444168E+03 -0.33432266146E+03  0.86807480797E+03  0.46999998093E+01 0. -1.
       -5    1    3    3    0  502  0.59703421651E+03 -0.53414444168E+03  0.12612030342E+04  0.14941269436E+04  0.46999998093E+01 0.  1.
</event>
<event>
 5   0  0.1866935E-05  0.2214460E+04  0.7818609E-02  0.8512434E-01
       -1   -1    0    0    0  501  0.00000000000E+00  0.00000000000E+00  0.88912980742E+03  0.88912980744E+03  0.50400001928E-02 0. -1.
        1   -1    0    0  501    0  0.00000000000E+00  0.00000000000E+00 -0.13788287446E+04  0.13788287446E+04  0.50400001928E-02 0.  1.
    10030    2    1    2    0    0  0.00000000000E+00  0.00000000000E+00 -0.48969893717E+03  0.22679585520E+04  0.22144595153E+04 0.  0.
        4    1    3    3  502    0 -0.10028881598E+04 -0.31444518655E+03  0.11183980337E+03  0.10569627198E+04  0.12699999809E+01 0. -1.
       -4    1    3    3    0  502  0.10028881598E+04  0.31444518655E+03 -0.60153874054E+03  0.12109958323E+04  0.12699999809E+01 0.  1.
</event>
<event>
 5   0  0.4143281E-05  0.2200552E+04  0.7818609E-02  0.8518198E-01
       -2   -1    0    0    0  501  0.00000000000E+00  0.00000000000E+00  0.91212055491E+03  0.91212055491E+03  0.25500000920E-02 0. -1.
        2   -1    0    0  501    0  0.00000000000E+00  0.00000000000E+00 -0.13272452516E+04  0.13272452516E+04  0.25500000920E-02 0.  1.
    10030    2    1    2    0    0  0.00000000000E+00  0.00000000000E+00 -0.41512469666E+03  0.22393658065E+04  0.22005523628E+04 0.  0.
        2    1    3    3  502    0  0.96655012000E+03 -0.39926742094E+03 -0.55560953784E+03  0.11842025023E+04  0.25500000920E-02 0. -1.
       -2    1    3    3    0  502 -0.96655012000E+03  0.39926742094E+03  0.14048484119E+03  0.10551633042E+04  0.25500000920E-02 0.  1.
</event>
<event>
 5   0  0.4029532E-05  0.2194110E+04  0.7818609E-02  0.8520884E-01
       -2   -1    0    0    0  501  0.00000000000E+00  0.00000000000E+00  0.86335402676E+03  0.86335402676E+03  0.25500000920E-02 0. -1.
        2   -1    0    0  501    0  0.00000000000E+00  0.00000000000E+00 -0.13940158548E+04  0.13940158548E+04  0.25500000920E-02 0.  1.
    10030    2    1    2    0    0  0.00000000000E+00  0.00000000000E+00 -0.53066182807E+03  0.22573698816E+04  0.21941095703E+04 0.  0.
        3    1    3    3  502    0 -0.59901278916E+03  0.64999543408E+03  0.40318723326E+03  0.97152989721E+03  0.10100000352E+00 0. -1.
       -3    1    3    3    0  502  0.59901278916E+03 -0.64999543408E+03 -0.93384906133E+03  0.12858399844E+04  0.10100000352E+00 0.  1.
</event>
<event>
 5   0  0.1788413E-05  0.2216183E+04  0.7818609E-02  0.8511722E-01
       -1   -1    0    0    0  501  0.00000000000E+00  0.00000000000E+00  0.82337537904E+03  0.82337537905E+03  0.50400001928E-02 0. -1.
        1   -1    0    0  501    0  0.00000000000E+00  0.00000000000E+00 -0.14912603415E+04  0.14912603415E+04  0.50400001928E-02 0.  1.
    10030    2    1    2    0    0  0.00000000000E+00  0.00000000000E+00 -0.66788496247E+03  0.23146357206E+04  0.22161832496E+04 0.  0.
        1    1    3    3  502    0  0.25792211988E+03  0.93460118935E+03  0.22642192900E+03  0.99562547829E+03  0.50400001928E-02 0. -1.
       -1    1    3    3    0  502 -0.25792211988E+03 -0.93460118935E+03 -0.89430689147E+03  0.13190102423E+04  0.50400001928E-02 0.  1.
</event>
<event>
 5   0  0.4029532E-05  0.2016112E+04  0.7818609E-02  0.8599125E-01
       -2   -1    0    0    0  501  0.00000000000E+00  0.00000000000E+00  0.81156925345E+03  0.81156925345E+03  0.25500000920E-02 0. -1.
        2   -1    0    0  501    0  0.00000000000E+00  0.00000000000E+00 -0.12521136882E+04  0.12521136882E+04  0.25500000920E-02 0.  1.
    10030    2    1    2    0    0  0.00000000000E+00  0.00000000000E+00 -0.44054443479E+03  0.20636829417E+04  0.20161120715E+04 0.  0.
        3    1    3    3  502    0 -0.29289585642E+03  0.80174351558E+03 -0.76920600345E+03  0.11490250360E+04  0.10100000352E+00 0.  1.
       -3    1    3    3    0  502  0.29289585642E+03 -0.80174351558E+03  0.32866156866E+03  0.91465790567E+03  0.10100000352E+00 0. -1.
</event>
<event>
 5   0  0.1866935E-05  0.2208738E+04  0.7818609E-02  0.8514800E-01
        1   -1    0    0  501    0  0.00000000000E+00  0.00000000000E+00  0.16527314024E+04  0.16527314024E+04  0.50400001928E-02 0. -1.
       -1   -1    0    0    0  501  0.00000000000E+00  0.00000000000E+00 -0.73794875387E+03  0.73794875389E+03  0.50400001928E-02 0.  1.
    10030    2    1    2    0    0  0.00000000000E+00  0.00000000000E+00  0.91478264849E+03  0.23906801563E+04  0.22087381727E+04 0.  0.
        4    1    3    3  502    0 -0.70920891300E+02  0.34792613518E+03  0.15892598562E+04  0.16284443103E+04  0.12699999809E+01 0. -1.
       -4    1    3    3    0  502  0.70920891300E+02 -0.34792613518E+03 -0.67447720766E+03  0.76223584599E+03  0.12699999809E+01 0.  1.
</event>
<event>
 5   0  0.4027923E-05  0.2223736E+04  0.7818609E-02  0.8508613E-01
        2   -1    0    0  501    0  0.00000000000E+00  0.00000000000E+00  0.29767695175E+04  0.29767695175E+04  0.25500000920E-02 0. -1.
       -2   -1    0    0    0  501  0.00000000000E+00  0.00000000000E+00 -0.41529944425E+03  0.41529944425E+03  0.25500000920E-02 0.  1.
    10030    2    1    2    0    0  0.00000000000E+00  0.00000000000E+00  0.25614700732E+04  0.33920689617E+04  0.22237362490E+04 0.  0.
        5    1    3    3  502    0  0.13418996703E+03  0.11161570600E+03  0.29557260688E+04  0.29608788724E+04  0.46999998093E+01 0. -1.
       -5    1    3    3    0  502 -0.13418996703E+03 -0.11161570600E+03 -0.39425599560E+03  0.43119008933E+03  0.46999998093E+01 0.  1.
</event>
<event>
 5   0  0.1884407E-05  0.2191840E+04  0.7818609E-02  0.8521832E-01
        1   -1    0    0  501    0  0.00000000000E+00  0.00000000000E+00  0.15276414330E+04  0.15276414330E+04  0.50400001928E-02 0. -1.
       -1   -1    0    0    0  501  0.00000000000E+00  0.00000000000E+00 -0.78620607518E+03  0.78620607520E+03  0.50400001928E-02 0.  1.
    10030    2    1    2    0    0  0.00000000000E+00  0.00000000000E+00  0.74143535778E+03  0.23138475082E+04  0.21918403001E+04 0.  0.
        3    1    3    3  502    0  0.23685683217E+03 -0.96731028060E+03 -0.11218455033E+03  0.10021854726E+04  0.10100000352E+00 0.  1.
       -3    1    3    3    0  502 -0.23685683217E+03  0.96731028060E+03  0.85361990811E+03  0.13116620356E+04  0.10100000352E+00 0. -1.
</event>
<event>
 5   0  0.4143281E-05  0.2205205E+04  0.7818609E-02  0.8516265E-01
       -2   -1    0    0    0  501  0.00000000000E+00  0.00000000000E+00  0.55832921836E+03  0.55832921836E+03  0.25500000920E-02 0. -1.
        2   -1    0    0  501    0  0.00000000000E+00  0.00000000000E+00 -0.21774478827E+04  0.21774478827E+04  0.25500000920E-02 0.  1.
    10030    2    1    2    0    0  0.00000000000E+00  0.00000000000E+00 -0.16191186644E+04  0.27357771011E+04  0.22052054547E+04 0.  0.
        2    1    3    3  502    0  0.24239606407E+03  0.42561520716E+03  0.41595509212E+03  0.64259069018E+03  0.25500000920E-02 0. -1.
       -2    1    3    3    0  502 -0.24239606407E+03 -0.42561520716E+03 -0.20350737565E+04  0.20931864109E+04  0.25500000920E-02 0.  1.
</event>
<event>
 5   0  0.1786228E-05  0.2186049E+04  0.7818609E-02  0.8524258E-01
       -1   -1    0    0    0  501  0.00000000000E+00  0.00000000000E+00  0.71647466350E+03  0.71647466352E+03  0.50400001928E-02 0. -1.
        1   -1    0    0  501    0  0.00000000000E+00  0.00000000000E+00 -0.16674728245E+04  0.16674728245E+04  0.50400001928E-02 0.  1.
    10030    2    1    2    0    0  0.00000000000E+00  0.00000000000E+00 -0.95099816102E+03  0.23839474881E+04  0.21860485181E+04 0.  0.
        5    1    3    3  502    0 -0.70583333849E+03 -0.79254166491E+03 -0.76061943477E+03  0.13057132177E+04  0.46999998093E+01 0. -1.
       -5    1    3    3    0  502  0.70583333849E+03  0.79254166491E+03 -0.19037872625E+03  0.10782342703E+04  0.46999998093E+01 0.  1.
</event>
<event>
 5   0  0.1815681E-05  0.2179590E+04  0.7818609E-02  0.8526972E-01
        1   -1    0    0  501    0  0.00000000000E+00  0.00000000000E+00  0.11598921729E+04  0.11598921730E+04  0.50400001928E-02 0. -1.
       -1   -1    0    0    0  501  0.00000000000E+00  0.00000000000E+00 -0.10239340752E+04  0.10239340752E+04  0.50400001928E-02 0.  1.
    10030    2    1    2    0    0  0.00000000000E+00  0.00000000000E+00  0.13595809771E+03  0.21838262482E+04  0.21795899793E+04 0.  0.
        2    1    3    3  502    0  0.74954485811E+03 -0.47553650960E+03 -0.56546857016E+03  0.10524766839E+04  0.25500000920E-02 0.  1.
       -2    1    3    3    0  502 -0.74954485811E+03  0.47553650960E+03  0.70142666787E+03  0.11313495643E+04  0.25500000920E-02 0. -1.
</event>
<event>
 5   0  0.1786228E-05  0.2178958E+04  0.7818609E-02  0.8527238E-01
       -1   -1    0    0    0  501  0.00000000000E+00  0.00000000000E+00  0.17018815510E+04  0.17018815510E+04  0.50400001928E-02 0. -1.
        1   -1    0    0  501    0  0.00000000000E+00  0.00000000000E+00 -0.69744255469E+03  0.69744255471E+03  0.50400001928E-02 0.  1.
    10030    2    1    2    0    0  0.00000000000E+00  0.00000000000E+00  0.10044389963E+04  0.23993241057E+04  0.21789581150E+04 0.  0.
        5    1    3    3  502    0  0.40942486023E+03 -0.47862476061E+03 -0.47663329024E+03  0.78988085241E+03  0.46999998093E+01 0.  1.
       -5    1    3    3    0  502 -0.40942486023E+03  0.47862476061E+03  0.14810722865E+04  0.16094432533E+04  0.46999998093E+01 0. -1.
</event>
<event>
 5   0  0.4027923E-05  0.2203645E+04  0.7818609E-02  0.8516913E-01
       -2   -1    0    0    0  501  0.00000000000E+00  0.00000000000E+00  0.75919058258E+03  0.75919058259E+03  0.25500000920E-02 0.  1.
        2   -1    0    0  501    0  0.00000000000E+00  0.00000000000E+00 -0.15990877847E+04  0.15990877847E+04  0.25500000920E-02 0. -1.
    10030    2    1    2    0    0  0.00000000000E+00  0.00000000000E+00 -0.83989720210E+03  0.23582783673E+04  0.22036446055E+04 0.  0.
        5    1    3    3  502    0  0.24958764343E+03  0.10515853145E+04 -0.19076028878E+03  0.10975141198E+04  0.46999998093E+01 0.  1.
       -5    1    3    3    0  502 -0.24958764343E+03 -0.10515853145E+04 -0.64913691332E+03  0.12607642475E+04  0.46999998093E+01 0. -1.
</event>
<event>
 5   0  0.1786228E-05  0.2175189E+04  0.7818609E-02  0.8528827E-01
       -1   -1    0    0    0  501  0.00000000000E+00  0.00000000000E+00  0.91264191392E+03  0.91264191393E+03  0.50400001928E-02 0.  1.
        1   -1    0    0  501    0  0.00000000000E+00  0.00000000000E+00 -0.12960852149E+04  0.12960852149E+04  0.50400001928E-02 0. -1.
    10030    2    1    2    0    0  0.00000000000E+00  0.00000000000E+00 -0.38344330102E+03  0.22087271289E+04  0.21751889032E+04 0.  0.
        5    1    3    3  502    0 -0.59191732282E+03  0.91060625680E+03 -0.24978485215E+03  0.11144435537E+04  0.46999998093E+01 0. -1.
       -5    1    3    3    0  502  0.59191732282E+03 -0.91060625680E+03 -0.13365844887E+03  0.10942835752E+04  0.46999998093E+01 0.  1.
</event>
<event>
 5   0  0.3963414E-05  0.2190419E+04  0.7818609E-02  0.8522427E-01
        2   -1    0    0  501    0  0.00000000000E+00  0.00000000000E+00  0.12403439236E+04  0.12403439236E+04  0.25500000920E-02 0. -1.
       -2   -1    0    0    0  501  0.00000000000E+00  0.00000000000E+00 -0.96705717063E+03  0.96705717063E+03  0.25500000920E-02 0.  1.
    10030    2    1    2    0    0  0.00000000000E+00  0.00000000000E+00  0.27328675293E+03  0.22074010942E+04  0.21904186680E+04 0.  0.
        1    1    3    3  502    0  0.25039670894E+03 -0.28605138841E+03  0.11717188807E+04  0.12318478169E+04  0.50400001928E-02 0. -1.
       -1    1    3    3    0  502 -0.25039670894E+03  0.28605138841E+03 -0.89843212774E+03  0.97555327729E+03  0.50400001928E-02 0.  1.
</event>
<event>
 5   0  0.4027923E-05  0.2241535E+04  0.7818609E-02  0.8501336E-01
       -2   -1    0    0    0  501  0.00000000000E+00  0.00000000000E+00  0.91845555885E+03  0.91845555885E+03  0.25500000920E-02 0.  1.
        2   -1    0    0  501    0  0.00000000000E+00  0.00000000000E+00 -0.13676437843E+04  0.13676437843E+04  0.25500000920E-02 0. -1.
    10030    2    1    2    0    0  0.00000000000E+00  0.00000000000E+00 -0.44918822549E+03  0.22860993432E+04  0.22415352206E+04 0.  0.
        5    1    3    3  502    0 -0.96726136562E+02 -0.11165326237E+04 -0.21455457401E+03  0.11410770353E+04  0.46999998093E+01 0.  1.
       -5    1    3    3    0  502  0.96726136562E+02  0.11165326237E+04 -0.23463365148E+03  0.11450223079E+04  0.46999998093E+01 0. -1.
</event>
<event>
 5   0  0.4027923E-05  0.2164214E+04  0.7818609E-02  0.8533472E-01
       -2   -1    0    0    0  501  0.00000000000E+00  0.00000000000E+00  0.83751126610E+03  0.83751126610E+03  0.25500000920E-02 0.  1.
        2   -1    0    0  501    0  0.00000000000E+00  0.00000000000E+00 -0.13981374271E+04  0.13981374271E+04  0.25500000920E-02 0. -1.
    10030    2    1    2    0    0  0.00000000000E+00  0.00000000000E+00 -0.56062616100E+03  0.22356486932E+04  0.21642142655E+04 0.  0.
        5    1    3    3  502    0  0.96009033785E+03 -0.27185362013E+03  0.15214064198E+03  0.10093793700E+04  0.46999998093E+01 0.  1.
       -5    1    3    3    0  502 -0.96009033785E+03  0.27185362013E+03 -0.71276680297E+03  0.12262693232E+04  0.46999998093E+01 0. -1.
</event>
<event>
 5   0  0.1786228E-05  0.2206882E+04  0.7818609E-02  0.8515569E-01
       -1   -1    0    0    0  501  0.00000000000E+00  0.00000000000E+00  0.64170851714E+03  0.64170851716E+03  0.50400001928E-02 0. -1.
        1   -1    0    0  501    0  0.00000000000E+00  0.00000000000E+00 -0.18974064080E+04  0.18974064080E+04  0.50400001928E-02 0.  1.
    10030    2    1    2    0    0  0.00000000000E+00  0.00000000000E+00 -0.12556978908E+04  0.25391149251E+04  0.22068818296E+04 0.  0.
        5    1    3    3  502    0  0.83951263537E+03  0.75918650737E+02 -0.14470934486E+04  0.16747079284E+04  0.46999998093E+01 0.  1.
       -5    1    3    3    0  502 -0.83951263537E+03 -0.75918650737E+02  0.19139555776E+03  0.86440699674E+03  0.46999998093E+01 0. -1.
</event>
<event>
 5   0  0.1786228E-05  0.2210630E+04  0.7818609E-02  0.8514017E-01
        1   -1    0    0  501    0  0.00000000000E+00  0.00000000000E+00  0.10811850301E+04  0.10811850302E+04  0.50400001928E-02 0. -1.
       -1   -1    0    0    0  501  0.00000000000E+00  0.00000000000E+00 -0.11299838607E+04  0.11299838607E+04  0.50400001928E-02 0.  1.
    10030    2    1    2    0    0  0.00000000000E+00  0.00000000000E+00 -0.48798830558E+02  0.22111688909E+04  0.22106303486E+04 0.  0.
        5    1    3    3  502    0 -0.95789775362E+03 -0.48966710542E+03  0.22935031324E+03  0.10999843802E+04  0.46999998093E+01 0. -1.
       -5    1    3    3    0  502  0.95789775362E+03  0.48966710542E+03 -0.27814914380E+03  0.11111845107E+04  0.46999998093E+01 0.  1.
</event>
<event>
 5   0  0.4027923E-05  0.2179733E+04  0.7818609E-02  0.8526911E-01
        2   -1    0    0  501    0  0.00000000000E+00  0.00000000000E+00  0.24895182518E+04  0.24895182518E+04  0.25500000920E-02 0. -1.
       -2   -1    0    0    0  501  0.00000000000E+00  0.00000000000E+00 -0.47712387249E+03  0.47712387250E+03  0.25500000920E-02 0.  1.
    10030    2    1    2    0    0  0.00000000000E+00  0.00000000000E+00  0.20123943793E+04  0.29666421243E+04  0.21797326340E+04 0.  0.
        5    1    3    3  502    0 -0.51275598433E+03  0.20540065198E+03 -0.27248664677E+03  0.61593765103E+03  0.46999998093E+01 0.  1.
       -5    1    3    3    0  502  0.51275598433E+03 -0.20540065198E+03  0.22848810261E+04  0.23507044733E+04  0.46999998093E+01 0. -1.
</event>
<event>
 5   0  0.1866935E-05  0.2194707E+04  0.7818609E-02  0.8520634E-01
       -1   -1    0    0    0  501  0.00000000000E+00  0.00000000000E+00  0.80114423013E+03  0.80114423015E+03  0.50400001928E-02 0. -1.
        1   -1    0    0  501    0  0.00000000000E+00  0.00000000000E+00 -0.15030814732E+04  0.15030814733E+04  0.50400001928E-02 0.  1.
    10030    2    1    2    0    0  0.00000000000E+00  0.00000000000E+00 -0.70193724312E+03  0.23042257034E+04  0.21947073151E+04 0.  0.
        4    1    3    3  502    0  0.19283150536E+03 -0.80022719006E+02  0.78009987220E+03  0.80755498174E+03  0.12699999809E+01 0. -1.
       -4    1    3    3    0  502 -0.19283150536E+03  0.80022719006E+02 -0.14820371153E+04  0.14966707217E+04  0.12699999809E+01 0.  1.
</event>
<event>
 5   0  0.3963414E-05  0.2201147E+04  0.7818609E-02  0.8517951E-01
        2   -1    0    0  501    0  0.00000000000E+00  0.00000000000E+00  0.17306005478E+04  0.17306005478E+04  0.25500000920E-02 0. -1.
       -2   -1    0    0    0  501  0.00000000000E+00  0.00000000000E+00 -0.69990842290E+03  0.69990842290E+03  0.25500000920E-02 0.  1.
    10030    2    1    2    0    0  0.00000000000E+00  0.00000000000E+00  0.10306921249E+04  0.24305089707E+04  0.22011468830E+04 0.  0.
        1    1    3    3  502    0 -0.21839352989E+03  0.79850952899E+03 -0.28544625232E+03  0.87566703990E+03  0.50400001928E-02 0.  1.
       -1    1    3    3    0  502  0.21839352989E+03 -0.79850952899E+03  0.13161383772E+04  0.15548419308E+04  0.50400001928E-02 0. -1.
</event>
<event>
 5   0  0.1786228E-05  0.2201987E+04  0.7818609E-02  0.8517601E-01
        1   -1    0    0  501    0  0.00000000000E+00  0.00000000000E+00  0.12950361330E+04  0.12950361330E+04  0.50400001928E-02 0. -1.
       -1   -1    0    0    0  501  0.00000000000E+00  0.00000000000E+00 -0.93602551779E+03  0.93602551780E+03  0.50400001928E-02 0.  1.
    10030    2    1    2    0    0  0.00000000000E+00  0.00000000000E+00  0.35901061520E+03  0.22310616508E+04  0.22019871634E+04 0.  0.
        5    1    3    3  502    0 -0.28019790840E+03  0.10523037465E+04  0.15157743438E+02  0.10890848865E+04  0.46999998093E+01 0.  1.
       -5    1    3    3    0  502  0.28019790840E+03 -0.10523037465E+04  0.34385287176E+03  0.11419767643E+04  0.46999998093E+01 0. -1.
</event>
<event>
 5   0  0.1788413E-05  0.2137765E+04  0.7818609E-02  0.8544788E-01
        1   -1    0    0  501    0  0.00000000000E+00  0.00000000000E+00  0.23534044564E+04  0.23534044564E+04  0.50400001928E-02 0.  1.
       -1   -1    0    0    0  501  0.00000000000E+00  0.00000000000E+00 -0.48547110654E+03  0.48547110656E+03  0.50400001928E-02 0. -1.
    10030    2    1    2    0    0  0.00000000000E+00  0.00000000000E+00  0.18679333499E+04  0.28388755630E+04  0.21377650625E+04 0.  0.
        1    1    3    3  502    0 -0.71968997084E+02 -0.34606474114E+03 -0.40561262229E+03  0.53801667353E+03  0.50400001928E-02 0. -1.
       -1    1    3    3    0  502  0.71968997084E+02  0.34606474114E+03  0.22735459722E+04  0.23008588895E+04  0.50400001928E-02 0.  1.
</event>
<event>
 5   0  0.1788413E-05  0.2043560E+04  0.7818609E-02  0.8586521E-01
        1   -1    0    0  501    0  0.00000000000E+00  0.00000000000E+00  0.79007470480E+03  0.79007470481E+03  0.50400001928E-02 0.  1.
       -1   -1    0    0    0  501  0.00000000000E+00  0.00000000000E+00 -0.13214380489E+04  0.13214380489E+04  0.50400001928E-02 0. -1.
    10030    2    1    2    0    0  0.00000000000E+00  0.00000000000E+00 -0.53136334408E+03  0.21115127537E+04  0.20435603993E+04 0.  0.
        1    1    3    3  502    0  0.95526936635E+03 -0.23386079196E+03 -0.55203294824E+03  0.11278168328E+04  0.50400001928E-02 0. -1.
       -1    1    3    3    0  502 -0.95526936635E+03  0.23386079196E+03  0.20669604155E+02  0.98369592094E+03  0.50400001928E-02 0.  1.
</event>
<event>
 5   0  0.1866935E-05  0.2199495E+04  0.7818609E-02  0.8518638E-01
        1   -1    0    0  501    0  0.00000000000E+00  0.00000000000E+00  0.10184379466E+04  0.10184379466E+04  0.50400001928E-02 0.  1.
       -1   -1    0    0    0  501  0.00000000000E+00  0.00000000000E+00 -0.11875491443E+04  0.11875491443E+04  0.50400001928E-02 0. -1.
    10030    2    1    2    0    0  0.00000000000E+00  0.00000000000E+00 -0.16911119772E+03  0.22059870909E+04  0.21994954985E+04 0.  0.
        4    1    3    3  502    0  0.76751323641E+03 -0.78629483692E+03 -0.13059708213E+03  0.11065230903E+04  0.12699999809E+01 0.  1.
       -4    1    3    3    0  502 -0.76751323641E+03  0.78629483692E+03 -0.38514115587E+02  0.10994640006E+04  0.12699999809E+01 0. -1.
</event>
<event>
 5   0  0.4132460E-05  0.2151471E+04  0.7818609E-02  0.8538903E-01
       -2   -1    0    0    0  501  0.00000000000E+00  0.00000000000E+00  0.66539996279E+03  0.66539996279E+03  0.25500000920E-02 0.  1.
        2   -1    0    0  501    0  0.00000000000E+00  0.00000000000E+00 -0.17391139443E+04  0.17391139443E+04  0.25500000920E-02 0. -1.
    10030    2    1    2    0    0  0.00000000000E+00  0.00000000000E+00 -0.10737139815E+04  0.24045139071E+04  0.21514705239E+04 0.  0.
        4    1    3    3  502    0  0.72840252952E+03 -0.79138921349E+03 -0.55739217929E+03  0.12114267566E+04  0.12699999809E+01 0.  1.
       -4    1    3    3    0  502 -0.72840252952E+03  0.79138921349E+03 -0.51632180221E+03  0.11930871505E+04  0.12699999809E+01 0. -1.
</event>
<event>
 5   0  0.3963414E-05  0.2201465E+04  0.7818609E-02  0.8517819E-01
       -2   -1    0    0    0  501  0.00000000000E+00  0.00000000000E+00  0.91000733259E+03  0.91000733260E+03  0.25500000920E-02 0. -1.
        2   -1    0    0  501    0  0.00000000000E+00  0.00000000000E+00 -0.13314305854E+04  0.13314305854E+04  0.25500000920E-02 0.  1.
    10030    2    1    2    0    0  0.00000000000E+00  0.00000000000E+00 -0.42142325277E+03  0.22414379180E+04  0.22014645993E+04 0.  0.
        1    1    3    3  502    0 -0.75418245612E+03 -0.31570216776E+03  0.53965917033E+03  0.97963822710E+03  0.50400001928E-02 0. -1.
       -1    1    3    3    0  502  0.75418245612E+03  0.31570216776E+03 -0.96108242310E+03  0.12617996909E+04  0.50400001928E-02 0.  1.
</event>
<event>
 5   0  0.1866935E-05  0.2197882E+04  0.7818609E-02  0.8519310E-01
        1   -1    0    0  501    0  0.00000000000E+00  0.00000000000E+00  0.15585958282E+04  0.15585958282E+04  0.50400001928E-02 0.  1.
       -1   -1    0    0    0  501  0.00000000000E+00  0.00000000000E+00 -0.77484551460E+03  0.77484551462E+03  0.50400001928E-02 0. -1.
    10030    2    1    2    0    0  0.00000000000E+00  0.00000000000E+00  0.78375031357E+03  0.23334413428E+04  0.21978816952E+04 0.  0.
        4    1    3    3  502    0 -0.49354385272E+03 -0.98172821837E+03  0.37368529307E+03  0.11606111065E+04  0.12699999809E+01 0.  1.
       -4    1    3    3    0  502  0.49354385272E+03  0.98172821837E+03  0.41006502050E+03  0.11728302363E+04  0.12699999809E+01 0. -1.
</event>
<event>
 5   0  0.4027923E-05  0.2193675E+04  0.7818609E-02  0.8521065E-01
        2   -1    0    0  501    0  0.00000000000E+00  0.00000000000E+00  0.17048066926E+04  0.17048066926E+04  0.25500000920E-02 0.  1.
       -2   -1    0    0    0  501  0.00000000000E+00  0.00000000000E+00 -0.70568245867E+03  0.70568245867E+03  0.25500000920E-02 0. -1.
    10030    2    1    2    0    0  0.00000000000E+00  0.00000000000E+00  0.99912423394E+03  0.24104891513E+04  0.21936747055E+04 0.  0.
        5    1    3    3  502    0 -0.95220808049E+03 -0.18700105813E+03  0.10613248176E+04  0.14380897339E+04  0.46999998093E+01 0.  1.
       -5    1    3    3    0  502  0.95220808049E+03  0.18700105813E+03 -0.62200583687E+02  0.97239941737E+03  0.46999998093E+01 0. -1.
</event>
<event>
 5   0  0.4029532E-05  0.2017034E+04  0.7818609E-02  0.8598698E-01
       -2   -1    0    0    0  501  0.00000000000E+00  0.00000000000E+00  0.11686080134E+04  0.11686080134E+04  0.25500000920E-02 0.  1.
        2   -1    0    0  501    0  0.00000000000E+00  0.00000000000E+00 -0.87035751676E+03  0.87035751677E+03  0.25500000920E-02 0. -1.
    10030    2    1    2    0    0  0.00000000000E+00  0.00000000000E+00  0.29825049659E+03  0.20389655301E+04  0.20170342274E+04 0.  0.
        3    1    3    3  502    0  0.47534244403E+02 -0.42632553511E+03  0.10717892254E+04  0.11544458065E+04  0.10100000352E+00 0.  1.
       -3    1    3    3    0  502 -0.47534244403E+02  0.42632553511E+03 -0.77353872882E+03  0.88451972361E+03  0.10100000352E+00 0. -1.
</event>
<event>
 5   0  0.4132460E-05  0.2202478E+04  0.7818609E-02  0.8517397E-01
       -2   -1    0    0    0  501  0.00000000000E+00  0.00000000000E+00  0.62245575184E+03  0.62245575185E+03  0.25500000920E-02 0. -1.
        2   -1    0    0  501    0  0.00000000000E+00  0.00000000000E+00 -0.19482956644E+04  0.19482956644E+04  0.25500000920E-02 0.  1.
    10030    2    1    2    0    0  0.00000000000E+00  0.00000000000E+00 -0.13258399126E+04  0.25707514163E+04  0.22024784608E+04 0.  0.
        4    1    3    3  502    0  0.81314666128E+03  0.21458168425E+03 -0.14927661057E+04  0.17133607475E+04  0.12699999809E+01 0.  1.
       -4    1    3    3    0  502 -0.81314666128E+03 -0.21458168425E+03  0.16692619313E+03  0.85739066873E+03  0.12699999809E+01 0. -1.
</event>
<event>
 5   0  0.4143281E-05  0.2265359E+04  0.7818609E-02  0.8491706E-01
        2   -1    0    0  501    0  0.00000000000E+00  0.00000000000E+00  0.17596914754E+04  0.17596914754E+04  0.25500000920E-02 0. -1.
       -2   -1    0    0    0  501  0.00000000000E+00  0.00000000000E+00 -0.72908387099E+03  0.72908387099E+03  0.25500000920E-02 0.  1.
    10030    2    1    2    0    0  0.00000000000E+00  0.00000000000E+00  0.10306076044E+04  0.24887753464E+04  0.22653588437E+04 0.  0.
        2    1    3    3  502    0  0.10178764841E+03 -0.50924451186E+03 -0.59058562328E+03  0.78643631443E+03  0.25500000920E-02 0.  1.
       -2    1    3    3    0  502 -0.10178764841E+03  0.50924451186E+03  0.16211932277E+04  0.17023390320E+04  0.25500000920E-02 0. -1.
</event>
<event>
 5   0  0.4143281E-05  0.2208866E+04  0.7818609E-02  0.8514747E-01
        2   -1    0    0  501    0  0.00000000000E+00  0.00000000000E+00  0.13726050135E+04  0.13726050135E+04  0.25500000920E-02 0. -1.
       -2   -1    0    0    0  501  0.00000000000E+00  0.00000000000E+00 -0.88865481140E+03  0.88865481141E+03  0.25500000920E-02 0.  1.
    10030    2    1    2    0    0  0.00000000000E+00  0.00000000000E+00  0.48395020208E+03  0.22612598249E+04  0.22088658170E+04 0.  0.
        2    1    3    3  502    0 -0.78739757865E+02 -0.67648162956E+03 -0.64809896463E+03  0.94013808165E+03  0.25500000920E-02 0.  1.
       -2    1    3    3    0  502  0.78739757865E+02  0.67648162956E+03  0.11320491667E+04  0.13211217432E+04  0.25500000920E-02 0. -1.
</event>
<event>
 5   0  0.4143281E-05  0.2192430E+04  0.7818609E-02  0.8521585E-01
       -2   -1    0    0    0  501  0.00000000000E+00  0.00000000000E+00  0.12363148503E+04  0.12363148503E+04  0.25500000920E-02 0.  1.
        2   -1    0    0  501    0  0.00000000000E+00  0.00000000000E+00 -0.97199173211E+03  0.97199173211E+03  0.25500000920E-02 0. -1.
    10030    2    1    2    0    0  0.00000000000E+00  0.00000000000E+00  0.26432311817E+03  0.22083065824E+04  0.21924304438E+04 0.  0.
        2    1    3    3  502    0  0.33696195686E+02 -0.41799670362E+03  0.11523290524E+04  0.12262621755E+04  0.25500000920E-02 0.  1.
       -2    1    3    3    0  502 -0.33696195686E+02  0.41799670362E+03 -0.88800593428E+03  0.98204440692E+03  0.25500000920E-02 0. -1.
</event>
<event>
 5   0  0.4029532E-05  0.2193479E+04  0.7818609E-02  0.8521147E-01
        2   -1    0    0  501    0  0.00000000000E+00  0.00000000000E+00  0.21633105416E+04  0.21633105416E+04  0.25500000920E-02 0. -1.
       -2   -1    0    0    0  501  0.00000000000E+00  0.00000000000E+00 -0.55601693335E+03  0.55601693336E+03  0.25500000920E-02 0.  1.
    10030    2    1    2    0    0  0.00000000000E+00  0.00000000000E+00  0.16072936083E+04  0.27193274750E+04  0.21934787834E+04 0.  0.
        3    1    3    3  502    0 -0.99672697722E+03  0.92596884169E+02  0.13591777193E+04  0.16880174563E+04  0.10100000352E+00 0. -1.
       -3    1    3    3    0  502  0.99672697722E+03 -0.92596884169E+02  0.24811588904E+03  0.10313100187E+04  0.10100000352E+00 0.  1.
</event>
<event>
 5   0  0.4132460E-05  0.2198184E+04  0.7818609E-02  0.8519184E-01
       -2   -1    0    0    0  501  0.00000000000E+00  0.00000000000E+00  0.71473114926E+03  0.71473114926E+03  0.25500000920E-02 0. -1.
        2   -1    0    0  501    0  0.00000000000E+00  0.00000000000E+00 -0.16901500578E+04  0.16901500578E+04  0.25500000920E-02 0.  1.
    10030    2    1    2    0    0  0.00000000000E+00  0.00000000000E+00 -0.97541890853E+03  0.24048812070E+04  0.21981836986E+04 0.  0.
        4    1    3    3  502    0  0.12685454444E+03 -0.17881602774E+03  0.69056453663E+03  0.72453311820E+03  0.12699999809E+01 0. -1.
       -4    1    3    3    0  502 -0.12685454444E+03  0.17881602774E+03 -0.16659834452E+04  0.16803480888E+04  0.12699999809E+01 0.  1.
</event>
<event>
 5   0  0.3963414E-05  0.2201018E+04  0.7818609E-02  0.8518004E-01
        2   -1    0    0  501    0  0.00000000000E+00  0.00000000000E+00  0.95425776659E+03  0.95425776660E+03  0.25500000920E-02 0.  1.
       -2   -1    0    0    0  501  0.00000000000E+00  0.00000000000E+00 -0.12691752987E+04  0.12691752987E+04  0.25500000920E-02 0. -1.
    10030    2    1    2    0    0  0.00000000000E+00  0.00000000000E+00 -0.31491753208E+03  0.22234330653E+04  0.22010182970E+04 0.  0.
        1    1    3    3  502    0  0.70785823992E+03  0.44061232576E+03 -0.88304777451E+03  0.12144858507E+04  0.50400001928E-02 0. -1.
       -1    1    3    3    0  502 -0.70785823992E+03 -0.44061232576E+03  0.56813024243E+03  0.10089472146E+04  0.50400001928E-02 0.  1.
</event>
<event>
 5   0  0.1788413E-05  0.2203042E+04  0.7818609E-02  0.8517163E-01
        1   -1    0    0  501    0  0.00000000000E+00  0.00000000000E+00  0.20783861394E+04  0.20783861395E+04  0.50400001928E-02 0.  1.
       -1   -1    0    0    0  501  0.00000000000E+00  0.00000000000E+00 -0.58379346967E+03  0.58379346970E+03  0.50400001928E-02 0. -1.
    10030    2    1    2    0    0  0.00000000000E+00  0.00000000000E+00  0.14945926698E+04  0.26621796092E+04  0.22030417660E+04 0.  0.
        1    1    3    3  502    0 -0.41023463740E+03  0.82799330532E+03  0.14718219274E+04  0.17378507293E+04  0.50400001928E-02 0.  1.
       -1    1    3    3    0  502  0.41023463740E+03 -0.82799330532E+03  0.22770742383E+02  0.92432887984E+03  0.50400001928E-02 0. -1.
</event>
<event>
 5   0  0.1884407E-05  0.2172752E+04  0.7818609E-02  0.8529856E-01
        1   -1    0    0  501    0  0.00000000000E+00  0.00000000000E+00  0.98072826931E+03  0.98072826932E+03  0.50400001928E-02 0. -1.
       -1   -1    0    0    0  501  0.00000000000E+00  0.00000000000E+00 -0.12034045927E+04  0.12034045927E+04  0.50400001928E-02 0.  1.
    10030    2    1    2    0    0  0.00000000000E+00  0.00000000000E+00 -0.22267632337E+03  0.21841328620E+04  0.21727520829E+04 0.  0.
        3    1    3    3  502    0 -0.60418837758E+03  0.32956044982E+03 -0.95631179706E+03  0.11782130321E+04  0.10100000352E+00 0.  1.
       -3    1    3    3    0  502  0.60418837758E+03 -0.32956044982E+03  0.73363547369E+03  0.10059198299E+04  0.10100000352E+00 0. -1.
</event>
<event>
 5   0  0.1788413E-05  0.2208894E+04  0.7818609E-02  0.8514735E-01
       -1   -1    0    0    0  501  0.00000000000E+00  0.00000000000E+00  0.76758152307E+03  0.76758152309E+03  0.50400001928E-02 0. -1.
        1   -1    0    0  501    0  0.00000000000E+00  0.00000000000E+00 -0.15891511979E+04  0.15891511979E+04  0.50400001928E-02 0.  1.
    10030    2    1    2    0    0  0.00000000000E+00  0.00000000000E+00 -0.82156967481E+03  0.23567327210E+04  0.22088939286E+04 0.  0.
        1    1    3    3  502    0  0.58554907385E+02 -0.69273705919E+03 -0.13264123513E+04  0.14975590259E+04  0.50400001928E-02 0.  1.
       -1    1    3    3    0  502 -0.58554907385E+02  0.69273705919E+03  0.50484267646E+03  0.85917369511E+03  0.50400001928E-02 0. -1.
</event>
<event>
 5   0  0.4132460E-05  0.2204149E+04  0.7818609E-02  0.8516703E-01
       -2   -1    0    0    0  501  0.00000000000E+00  0.00000000000E+00  0.10614820487E+04  0.10614820487E+04  0.25500000920E-02 0.  1.
        2   -1    0    0  501    0  0.00000000000E+00  0.00000000000E+00 -0.11442188793E+04  0.11442188793E+04  0.25500000920E-02 0. -1.
    10030    2    1    2    0    0  0.00000000000E+00  0.00000000000E+00 -0.82736830615E+02  0.22057009280E+04  0.22041486339E+04 0.  0.
        4    1    3    3  502    0 -0.43067500444E+03 -0.86906197670E+03 -0.56501172933E+03  0.11224925594E+04  0.12699999809E+01 0. -1.
       -4    1    3    3    0  502  0.43067500444E+03  0.86906197670E+03  0.48227489872E+03  0.10832083685E+04  0.12699999809E+01 0.  1.
</event>
<event>
 5   0  0.4143281E-05  0.2178425E+04  0.7818609E-02  0.8527462E-01
        2   -1    0    0  501    0  0.00000000000E+00  0.00000000000E+00  0.11721514131E+04  0.11721514131E+04  0.25500000920E-02 0. -1.
       -2   -1    0    0    0  501  0.00000000000E+00  0.00000000000E+00 -0.10121425942E+04  0.10121425942E+04  0.25500000920E-02 0.  1.
    10030    2    1    2    0    0  0.00000000000E+00  0.00000000000E+00  0.16000881886E+03  0.21842940073E+04  0.21784254608E+04 0.  0.
        2    1    3    3  502    0 -0.10881352942E+04 -0.44839866640E+02  0.61642788546E+02  0.10908019369E+04  0.25500000920E-02 0.  1.
       -2    1    3    3    0  502  0.10881352942E+04  0.44839866640E+02  0.98366030315E+02  0.10934920704E+04  0.25500000920E-02 0. -1.
</event>
<event>
 5   0  0.4143281E-05  0.2130554E+04  0.7818609E-02  0.8547902E-01
       -2   -1    0    0    0  501  0.00000000000E+00  0.00000000000E+00  0.91819803297E+03  0.91819803297E+03  0.25500000920E-02 0. -1.
        2   -1    0    0  501    0  0.00000000000E+00  0.00000000000E+00 -0.12359157720E+04  0.12359157720E+04  0.25500000920E-02 0.  1.
    10030    2    1    2    0    0  0.00000000000E+00  0.00000000000E+00 -0.31771773906E+03  0.21541138050E+04  0.21305543230E+04 0.  0.
        2    1    3    3  502    0  0.46111075167E+03 -0.93875849385E+03  0.45676910843E+02  0.10468892087E+04  0.25500000920E-02 0. -1.
       -2    1    3    3    0  502 -0.46111075167E+03  0.93875849385E+03 -0.36339464990E+03  0.11072245963E+04  0.25500000920E-02 0.  1.
</event>
<event>
 5   0  0.3963414E-05  0.2215246E+04  0.7818609E-02  0.8512109E-01
        2   -1    0    0  501    0  0.00000000000E+00  0.00000000000E+00  0.20581215500E+04  0.20581215500E+04  0.25500000920E-02 0.  1.
       -2   -1    0    0    0  501  0.00000000000E+00  0.00000000000E+00 -0.59609173711E+03  0.59609173712E+03  0.25500000920E-02 0. -1.
    10030    2    1    2    0    0  0.00000000000E+00  0.00000000000E+00  0.14620298129E+04  0.26542132871E+04  0.22152464874E+04 0.  0.
        1    1    3    3  502    0  0.35489962239E+03 -0.31185536277E+03 -0.46930993069E+03  0.66592741371E+03  0.50400001928E-02 0. -1.
       -1    1    3    3    0  502 -0.35489962239E+03  0.31185536277E+03  0.19313397436E+04  0.19882858734E+04  0.50400001928E-02 0.  1.
</event>
<event>
 5   0  0.4027923E-05  0.2248997E+04  0.7818609E-02  0.8498307E-01
       -2   -1    0    0    0  501  0.00000000000E+00  0.00000000000E+00  0.88194717267E+03  0.88194717268E+03  0.25500000920E-02 0. -1.
        2   -1    0    0  501    0  0.00000000000E+00  0.00000000000E+00 -0.14337554898E+04  0.14337554898E+04  0.25500000920E-02 0.  1.
    10030    2    1    2    0    0  0.00000000000E+00  0.00000000000E+00 -0.55180831712E+03  0.23157026625E+04  0.22489967546E+04 0.  0.
        5    1    3    3  502    0  0.51963896041E+03 -0.98637106102E+03 -0.42695918885E+03  0.11938462037E+04  0.46999998093E+01 0.  1.
       -5    1    3    3    0  502 -0.51963896041E+03  0.98637106102E+03 -0.12484912827E+03  0.11218564587E+04  0.46999998093E+01 0. -1.
</event>
<event>
 5   0  0.1815681E-05  0.2202223E+04  0.7818609E-02  0.8517504E-01
       -1   -1    0    0    0  501  0.00000000000E+00  0.00000000000E+00  0.94621083983E+03  0.94621083984E+03  0.50400001928E-02 0.  1.
        1   -1    0    0  501    0  0.00000000000E+00  0.00000000000E+00 -0.12813699006E+04  0.12813699006E+04  0.50400001928E-02 0. -1.
    10030    2    1    2    0    0  0.00000000000E+00  0.00000000000E+00 -0.33515906073E+03  0.22275807404E+04  0.22022225953E+04 0.  0.
        2    1    3    3  502    0  0.10762265592E+04  0.18557953642E+03 -0.25452815044E+02  0.10924061593E+04  0.25500000920E-02 0. -1.
       -2    1    3    3    0  502 -0.10762265592E+04 -0.18557953642E+03 -0.30970624568E+03  0.11351745811E+04  0.25500000920E-02 0.  1.
</event>
<event>
 5   0  0.1884407E-05  0.2204033E+04  0.7818609E-02  0.8516751E-01
       -1   -1    0    0    0  501  0.00000000000E+00  0.00000000000E+00  0.13078064137E+04  0.13078064137E+04  0.50400001928E-02 0.  1.
        1   -1    0    0  501    0  0.00000000000E+00  0.00000000000E+00 -0.92860863143E+03  0.92860863144E+03  0.50400001928E-02 0. -1.
    10030    2    1    2    0    0  0.00000000000E+00  0.00000000000E+00  0.37919778229E+03  0.22364150452E+04  0.22040329617E+04 0.  0.
        3    1    3    3  502    0 -0.79896396548E+03  0.35322056192E+03  0.87128186372E+03  0.12337910195E+04  0.10100000352E+00 0.  1.
       -3    1    3    3    0  502  0.79896396548E+03 -0.35322056192E+03 -0.49208408143E+03  0.10026240257E+04  0.10100000352E+00 0. -1.
</event>
<event>
 5   0  0.1788413E-05  0.2200049E+04  0.7818609E-02  0.8518408E-01
       -1   -1    0    0    0  501  0.00000000000E+00  0.00000000000E+00  0.10763914685E+04  0.10763914685E+04  0.50400001928E-02 0.  1.
        1   -1    0    0  501    0  0.00000000000E+00  0.00000000000E+00 -0.11241761713E+04  0.11241761713E+04  0.50400001928E-02 0. -1.
    10030    2    1    2    0    0  0.00000000000E+00  0.00000000000E+00 -0.47784702837E+02  0.22005676398E+04  0.22000487629E+04 0.  0.
        1    1    3    3  502    0  0.45748716579E+03 -0.10321399402E+02 -0.10244545238E+04  0.11220107440E+04  0.50400001928E-02 0. -1.
       -1    1    3    3    0  502 -0.45748716579E+03  0.10321399402E+02  0.97666982101E+03  0.10785568958E+04  0.50400001928E-02 0.  1.
</event>
<event>
 5   0  0.1815681E-05  0.2219357E+04  0.7818609E-02  0.8510414E-01
        1   -1    0    0  501    0  0.00000000000E+00  0.00000000000E+00  0.18364999043E+04  0.18364999043E+04  0.50400001928E-02 0.  1.
       -1   -1    0    0    0  501  0.00000000000E+00  0.00000000000E+00 -0.67050705762E+03  0.67050705764E+03  0.50400001928E-02 0. -1.
    10030    2    1    2    0    0  0.00000000000E+00  0.00000000000E+00  0.11659928466E+04  0.25070069619E+04  0.22193567961E+04 0.  0.
        2    1    3    3  502    0 -0.10640833040E+04  0.13448668880E+03  0.26145187709E+03  0.11039551763E+04  0.25500000920E-02 0. -1.
       -2    1    3    3    0  502  0.10640833040E+04 -0.13448668880E+03  0.90454096955E+03  0.14030517856E+04  0.25500000920E-02 0.  1.
</event>
<event>
 5   0  0.4029532E-05  0.2158070E+04  0.7818609E-02  0.8536086E-01
        2   -1    0    0  501    0  0.00000000000E+00  0.00000000000E+00  0.11216284904E+04  0.11216284904E+04  0.25500000920E-02 0.  1.
       -2   -1    0    0    0  501  0.00000000000E+00  0.00000000000E+00 -0.10380585537E+04  0.10380585537E+04  0.25500000920E-02 0. -1.
    10030    2    1    2    0    0  0.00000000000E+00  0.00000000000E+00  0.83569936664E+02  0.21596870441E+04  0.21580695526E+04 0.  0.
        3    1    3    3  502    0 -0.64461544359E+03  0.22741683850E+03 -0.79374711299E+03  0.10475122807E+04  0.10100000352E+00 0. -1.
       -3    1    3    3    0  502  0.64461544359E+03 -0.22741683850E+03  0.87731704966E+03  0.11121747634E+04  0.10100000352E+00 0.  1.
</event>
<event>
 5   0  0.1815681E-05  0.2223243E+04  0.7818609E-02  0.8508816E-01
       -1   -1    0    0    0  501  0.00000000000E+00  0.00000000000E+00  0.18811442557E+04  0.18811442557E+04  0.50400001928E-02 0. -1.
        1   -1    0    0  501    0  0.00000000000E+00  0.00000000000E+00 -0.65688871642E+03  0.65688871644E+03  0.50400001928E-02 0.  1.
    10030    2    1    2    0    0  0.00000000000E+00  0.00000000000E+00  0.12242555392E+04  0.25380329721E+04  0.22232430686E+04 0.  0.
        2    1    3    3  502    0  0.55436835068E+03  0.92510279731E+03  0.91964388000E+03  0.14173511632E+04  0.25500000920E-02 0.  1.
       -2    1    3    3    0  502 -0.55436835068E+03 -0.92510279731E+03  0.30461165923E+03  0.11206818089E+04  0.25500000920E-02 0. -1.
</event>
<event>
 5   0  0.4027923E-05  0.2212161E+04  0.7818609E-02  0.8513384E-01
       -2   -1    0    0    0  501  0.00000000000E+00  0.00000000000E+00  0.12785320866E+04  0.12785320866E+04  0.25500000920E-02 0.  1.
        2   -1    0    0  501    0  0.00000000000E+00  0.00000000000E+00 -0.95688930135E+03  0.95688930135E+03  0.25500000920E-02 0. -1.
    10030    2    1    2    0    0  0.00000000000E+00  0.00000000000E+00  0.32164278528E+03  0.22354213880E+04  0.22121606408E+04 0.  0.
        5    1    3    3  502    0  0.74700764627E+03 -0.74883897323E+03  0.48765909735E+03  0.11647376171E+04  0.46999998093E+01 0.  1.
       -5    1    3    3    0  502 -0.74700764627E+03  0.74883897323E+03 -0.16601631207E+03  0.10706837709E+04  0.46999998093E+01 0. -1.
</event>
<event>
 5   0  0.3963414E-05  0.2197454E+04  0.7818609E-02  0.8519489E-01
       -2   -1    0    0    0  501  0.00000000000E+00  0.00000000000E+00  0.10628274149E+04  0.10628274149E+04  0.25500000920E-02 0. -1.
        2   -1    0    0  501    0  0.00000000000E+00  0.00000000000E+00 -0.11358389471E+04  0.11358389471E+04  0.25500000920E-02 0.  1.
    10030    2    1    2    0    0  0.00000000000E+00  0.00000000000E+00 -0.73011532149E+02  0.21986663620E+04  0.21974537737E+04 0.  0.
        1    1    3    3  502    0 -0.12643147992E+03  0.82536862937E+03 -0.75103040935E+03  0.11230605368E+04  0.50400001928E-02 0. -1.
       -1    1    3    3    0  502  0.12643147992E+03 -0.82536862937E+03  0.67801887720E+03  0.10756058253E+04  0.50400001928E-02 0.  1.
</event>
<event>
 5   0  0.1786228E-05  0.2169301E+04  0.7818609E-02  0.8531315E-01
        1   -1    0    0  501    0  0.00000000000E+00  0.00000000000E+00  0.26803072808E+04  0.26803072808E+04  0.50400001928E-02 0. -1.
       -1   -1    0    0    0  501  0.00000000000E+00  0.00000000000E+00 -0.43892993454E+03  0.43892993457E+03  0.50400001928E-02 0.  1.
    10030    2    1    2    0    0  0.00000000000E+00  0.00000000000E+00  0.22413773463E+04  0.31192372154E+04  0.21693013616E+04 0.  0.
        5    1    3    3  502    0 -0.58189893351E+03  0.65542814429E+03  0.20394294415E+04  0.22197943504E+04  0.46999998093E+01 0. -1.
       -5    1    3    3    0  502  0.58189893351E+03 -0.65542814429E+03  0.20194790476E+03  0.89944286499E+03  0.46999998093E+01 0.  1.
</event>
<event>
 5   0  0.1884407E-05  0.2223045E+04  0.7818609E-02  0.8508897E-01
        1   -1    0    0  501    0  0.00000000000E+00  0.00000000000E+00  0.13771642858E+04  0.13771642858E+04  0.50400001928E-02 0. -1.
       -1   -1    0    0    0  501  0.00000000000E+00  0.00000000000E+00 -0.89712017571E+03  0.89712017573E+03  0.50400001928E-02 0.  1.
    10030    2    1    2    0    0  0.00000000000E+00  0.00000000000E+00  0.48004411009E+03  0.22742844615E+04  0.22230446384E+04 0.  0.
        3    1    3    3  502    0  0.19438263502E+03  0.59459998178E+03 -0.69993048694E+03  0.93874194744E+03  0.10100000352E+00 0.  1.
       -3    1    3    3    0  502 -0.19438263502E+03 -0.59459998178E+03  0.11799745970E+04  0.13355425141E+04  0.10100000352E+00 0. -1.
</event>
<event>
 5   0  0.1866935E-05  0.2200029E+04  0.7818609E-02  0.8518416E-01
        1   -1    0    0  501    0  0.00000000000E+00  0.00000000000E+00  0.11371825849E+04  0.11371825849E+04  0.50400001928E-02 0. -1.
       -1   -1    0    0    0  501  0.00000000000E+00  0.00000000000E+00 -0.10640608604E+04  0.10640608604E+04  0.50400001928E-02 0.  1.
    10030    2    1    2    0    0  0.00000000000E+00  0.00000000000E+00  0.73121724502E+02  0.22012434453E+04  0.22000286177E+04 0.  0.
        4    1    3    3  502    0  0.67296432173E+03  0.97911195664E+01  0.90712925315E+03  0.11295405877E+04  0.12699999809E+01 0. -1.
       -4    1    3    3    0  502 -0.67296432173E+03 -0.97911195664E+01 -0.83400752864E+03  0.10717028576E+04  0.12699999809E+01 0.  1.
</event>
<event>
 5   0  0.1786228E-05  0.2191763E+04  0.7818609E-02  0.8521864E-01
       -1   -1    0    0    0  501  0.00000000000E+00  0.00000000000E+00  0.92760630425E+03  0.92760630427E+03  0.50400001928E-02 0. -1.
        1   -1    0    0  501    0  0.00000000000E+00  0.00000000000E+00 -0.12946828134E+04  0.12946828134E+04  0.50400001928E-02 0.  1.
    10030    2    1    2    0    0  0.00000000000E+00  0.00000000000E+00 -0.36707650917E+03  0.22222891177E+04  0.21917627059E+04 0.  0.
        5    1    3    3  502    0  0.21892190999E+03  0.61500258768E+03 -0.10760129455E+04  0.12585630434E+04  0.46999998093E+01 0.  1.
       -5    1    3    3    0  502 -0.21892190999E+03 -0.61500258768E+03  0.70893643628E+03  0.96372607426E+03  0.46999998093E+01 0. -1.
</event>
<event>
 5   0  0.4143281E-05  0.2197080E+04  0.7818609E-02  0.8519645E-01
        2   -1    0    0  501    0  0.00000000000E+00  0.00000000000E+00  0.21275995745E+04  0.21275995745E+04  0.25500000920E-02 0.  1.
       -2   -1    0    0    0  501  0.00000000000E+00  0.00000000000E+00 -0.56720727823E+03  0.56720727823E+03  0.25500000920E-02 0. -1.
    10030    2    1    2    0    0  0.00000000000E+00  0.00000000000E+00  0.15603922963E+04  0.26948068527E+04  0.21970798473E+04 0.  0.
        2    1    3    3  502    0  0.57680171358E+03 -0.90483726784E+03  0.49160901548E+03  0.11803008609E+04  0.25500000920E-02 0. -1.
       -2    1    3    3    0  502 -0.57680171358E+03  0.90483726784E+03  0.10687832808E+04  0.15145059918E+04  0.25500000920E-02 0.  1.
</event>
<event>
 5   0  0.1815681E-05  0.2208155E+04  0.7818609E-02  0.8515042E-01
       -1   -1    0    0    0  501  0.00000000000E+00  0.00000000000E+00  0.10339856472E+04  0.10339856472E+04  0.50400001928E-02 0. -1.
        1   -1    0    0  501    0  0.00000000000E+00  0.00000000000E+00 -0.11789204338E+04  0.11789204338E+04  0.50400001928E-02 0.  1.
    10030    2    1    2    0    0  0.00000000000E+00  0.00000000000E+00 -0.14493478667E+03  0.22129060810E+04  0.22081547118E+04 0.  0.
        2    1    3    3  502    0 -0.34207871642E+03 -0.10478961910E+04 -0.10023347407E+02  0.11023632535E+04  0.25500000920E-02 0.  1.
       -2    1    3    3    0  502  0.34207871642E+03  0.10478961910E+04 -0.13491143926E+03  0.11105428275E+04  0.25500000920E-02 0. -1.
</event>
<event>
 5   0  0.4027923E-05  0.2203061E+04  0.7818609E-02  0.8517155E-01
        2   -1    0    0  501    0  0.00000000000E+00  0.00000000000E+00  0.96464699301E+03  0.96464699302E+03  0.25500000920E-02 0.  1.
       -2   -1    0    0    0  501  0.00000000000E+00  0.00000000000E+00 -0.12578381423E+04  0.12578381423E+04  0.25500000920E-02 0. -1.
    10030    2    1    2    0    0  0.00000000000E+00  0.00000000000E+00 -0.29319114927E+03  0.22224851353E+04  0.22030613080E+04 0.  0.
        5    1    3    3  502    0  0.90306359786E+03 -0.60836592985E+03  0.21349615698E+02  0.10890871694E+04  0.46999998093E+01 0. -1.
       -5    1    3    3    0  502 -0.90306359786E+03  0.60836592985E+03 -0.31454076497E+03  0.11333979659E+04  0.46999998093E+01 0.  1.
</event>
<event>
 5   0  0.1788413E-05  0.2209244E+04  0.7818609E-02  0.8514590E-01
       -1   -1    0    0    0  501  0.00000000000E+00  0.00000000000E+00  0.67265260905E+03  0.67265260907E+03  0.50400001928E-02 0. -1.
        1   -1    0    0  501    0  0.00000000000E+00  0.00000000000E+00 -0.18139966491E+04  0.18139966491E+04  0.50400001928E-02 0.  1.
    10030    2    1    2    0    0  0.00000000000E+00  0.00000000000E+00 -0.11413440400E+04  0.24866492581E+04  0.22092438334E+04 0.  0.
        1    1    3    3  502    0 -0.49828482561E+03 -0.18846192321E+03 -0.16598474940E+04  0.17432439207E+04  0.50400001928E-02 0.  1.
       -1    1    3    3    0  502  0.49828482561E+03  0.18846192321E+03  0.51850345394E+03  0.74340533742E+03  0.50400001928E-02 0. -1.
</event>
<event>
 5   0  0.4029532E-05  0.2190959E+04  0.7818609E-02  0.8522201E-01
       -2   -1    0    0    0  501  0.00000000000E+00  0.00000000000E+00  0.81387136721E+03  0.81387136721E+03  0.25500000920E-02 0.  1.
        2   -1    0    0  501    0  0.00000000000E+00  0.00000000000E+00 -0.14745273247E+04  0.14745273247E+04  0.25500000920E-02 0. -1.
    10030    2    1    2    0    0  0.00000000000E+00  0.00000000000E+00 -0.66065595754E+03  0.22883986920E+04  0.21909592144E+04 0.  0.
        3    1    3    3  502    0 -0.23668272438E+03 -0.52561397063E+03 -0.13033079894E+04  0.14250966576E+04  0.10100000352E+00 0. -1.
       -3    1    3    3    0  502  0.23668272438E+03  0.52561397063E+03  0.64265203189E+03  0.86330203430E+03  0.10100000352E+00 0.  1.
</event>
<event>
 5   0  0.4027923E-05  0.2200900E+04  0.7818609E-02  0.8518054E-01
       -2   -1    0    0    0  501  0.00000000000E+00  0.00000000000E+00  0.76742954496E+03  0.76742954497E+03  0.25500000920E-02 0. -1.
        2   -1    0    0  501    0  0.00000000000E+00  0.00000000000E+00 -0.15779819184E+04  0.15779819184E+04  0.25500000920E-02 0.  1.
    10030    2    1    2    0    0  0.00000000000E+00  0.00000000000E+00 -0.81055237340E+03  0.23454114633E+04  0.22008997665E+04 0.  0.
        5    1    3    3  502    0 -0.18457428782E+03 -0.52681164741E+03 -0.14158962116E+04  0.15219666066E+04  0.46999998093E+01 0.  1.
       -5    1    3    3    0  502  0.18457428782E+03  0.52681164741E+03  0.60534383822E+03  0.82344485671E+03  0.46999998093E+01 0. -1.
</event>
<event>
 5   0  0.4027923E-05  0.2204760E+04  0.7818609E-02  0.8516450E-01
        2   -1    0    0  501    0  0.00000000000E+00  0.00000000000E+00  0.12544060377E+04  0.12544060377E+04  0.25500000920E-02 0. -1.
       -2   -1    0    0    0  501  0.00000000000E+00  0.00000000000E+00 -0.96877832027E+03  0.96877832027E+03  0.25500000920E-02 0.  1.
    10030    2    1    2    0    0  0.00000000000E+00  0.00000000000E+00  0.28562771747E+03  0.22231843580E+04  0.22047597367E+04 0.  0.
        5    1    3    3  502    0  0.91623056946E+03 -0.60790778091E+03  0.63486505323E+02  0.11014004507E+04  0.46999998093E+01 0. -1.
       -5    1    3    3    0  502 -0.91623056946E+03  0.60790778091E+03  0.22214121215E+03  0.11217839073E+04  0.46999998093E+01 0.  1.
</event>
<event>
 5   0  0.4029532E-05  0.2199870E+04  0.7818609E-02  0.8518482E-01
       -2   -1    0    0    0  501  0.00000000000E+00  0.00000000000E+00  0.43901292246E+03  0.43901292247E+03  0.25500000920E-02 0. -1.
        2   -1    0    0  501    0  0.00000000000E+00  0.00000000000E+00 -0.27558570124E+04  0.27558570124E+04  0.25500000920E-02 0.  1.
    10030    2    1    2    0    0  0.00000000000E+00  0.00000000000E+00 -0.23168440899E+04  0.31948699349E+04  0.21998698515E+04 0.  0.
        3    1    3    3  502    0 -0.77699354548E+03 -0.11153438691E+03 -0.22774449243E+04  0.24089238848E+04  0.10100000352E+00 0.  1.
       -3    1    3    3    0  502  0.77699354548E+03  0.11153438691E+03 -0.39399165605E+02  0.78594605008E+03  0.10100000352E+00 0. -1.
</event>
<event>
 5   0  0.1788413E-05  0.2191703E+04  0.7818609E-02  0.8521889E-01
       -1   -1    0    0    0  501  0.00000000000E+00  0.00000000000E+00  0.92149276480E+03  0.92149276481E+03  0.50400001928E-02 0.  1.
        1   -1    0    0  501    0  0.00000000000E+00  0.00000000000E+00 -0.13032011243E+04  0.13032011244E+04  0.50400001928E-02 0. -1.
    10030    2    1    2    0    0  0.00000000000E+00  0.00000000000E+00 -0.38170835955E+03  0.22246938892E+04  0.21917029061E+04 0.  0.
        1    1    3    3  502    0  0.51538017259E+03 -0.67767231757E+03 -0.89119191254E+03  0.12325094390E+04  0.50400001928E-02 0. -1.
       -1    1    3    3    0  502 -0.51538017259E+03  0.67767231757E+03  0.50948355300E+03  0.99218445014E+03  0.50400001928E-02 0.  1.
</event>
<event>
 5   0  0.1815681E-05  0.2197972E+04  0.7818609E-02  0.8519273E-01
       -1   -1    0    0    0  501  0.00000000000E+00  0.00000000000E+00  0.47865921995E+03  0.47865921998E+03  0.50400001928E-02 0.  1.
        1   -1    0    0  501    0  0.00000000000E+00  0.00000000000E+00 -0.25232357272E+04  0.25232357272E+04  0.50400001928E-02 0. -1.
    10030    2    1    2    0    0  0.00000000000E+00  0.00000000000E+00 -0.20445765072E+04  0.30018949472E+04  0.21979718333E+04 0.  0.
        2    1    3    3  502    0  0.99923658244E+03  0.15019728961E+03 -0.43210261276E+03  0.10989748138E+04  0.25500000920E-02 0. -1.
       -2    1    3    3    0  502 -0.99923658244E+03 -0.15019728961E+03 -0.16124738945E+04  0.19029201333E+04  0.25500000920E-02 0.  1.
</event>
<event>
 5   0  0.1786228E-05  0.2191099E+04  0.7818609E-02  0.8522142E-01
        1   -1    0    0  501    0  0.00000000000E+00  0.00000000000E+00  0.18895916981E+04  0.18895916981E+04  0.50400001928E-02 0.  1.
       -1   -1    0    0    0  501  0.00000000000E+00  0.00000000000E+00 -0.63517883536E+03  0.63517883538E+03  0.50400001928E-02 0. -1.
    10030    2    1    2    0    0  0.00000000000E+00  0.00000000000E+00  0.12544128627E+04  0.25247705335E+04  0.21910989518E+04 0.  0.
        5    1    3    3  502    0  0.32179556240E+03  0.39261408801E+03  0.17458778105E+04  0.18181885560E+04  0.46999998093E+01 0.  1.
       -5    1    3    3    0  502 -0.32179556240E+03 -0.39261408801E+03 -0.49146494772E+03  0.70658197750E+03  0.46999998093E+01 0. -1.
</event>
<event>
 5   0  0.4143281E-05  0.2206691E+04  0.7818609E-02  0.8515648E-01
        2   -1    0    0  501    0  0.00000000000E+00  0.00000000000E+00  0.15788745766E+04  0.15788745766E+04  0.25500000920E-02 0.  1.
       -2   -1    0    0    0  501  0.00000000000E+00  0.00000000000E+00 -0.77103757335E+03  0.77103757336E+03  0.25500000920E-02 0. -1.
    10030    2    1    2    0    0  0.00000000000E+00  0.00000000000E+00  0.80783700323E+03  0.23499121499E+04  0.22066912989E+04 0.  0.
        2    1    3    3  502    0  0.27509648401E+03  0.23214228572E+02  0.15414994120E+04  0.15660259937E+04  0.25500000920E-02 0.  1.
       -2    1    3    3    0  502 -0.27509648401E+03 -0.23214228572E+02 -0.73366240873E+03  0.78388615622E+03  0.25500000920E-02 0. -1.
</event>
<event>
 5   0  0.1884407E-05  0.2181985E+04  0.7818609E-02  0.8525964E-01
       -1   -1    0    0    0  501  0.00000000000E+00  0.00000000000E+00  0.40989423052E+03  0.40989423055E+03  0.50400001928E-02 0.  1.
        1   -1    0    0  501    0  0.00000000000E+00  0.00000000000E+00 -0.29038347665E+04  0.29038347665E+04  0.50400001928E-02 0. -1.
    10030    2    1    2    0    0  0.00000000000E+00  0.00000000000E+00 -0.24939405360E+04  0.33137289970E+04  0.21819854419E+04 0.  0.
        3    1    3    3  502    0 -0.43200407383E+03  0.48517907677E+03  0.84137667459E+02  0.65506138157E+03  0.10100000352E+00 0.  1.
       -3    1    3    3    0  502  0.43200407383E+03 -0.48517907677E+03 -0.25780782034E+04  0.26586676155E+04  0.10100000352E+00 0. -1.
</event>
<event>
 5   0  0.1866935E-05  0.2177180E+04  0.7818609E-02  0.8527987E-01
       -1   -1    0    0    0  501  0.00000000000E+00  0.00000000000E+00  0.99591066393E+03  0.99591066395E+03  0.50400001928E-02 0. -1.
        1   -1    0    0  501    0  0.00000000000E+00  0.00000000000E+00 -0.11898941436E+04  0.11898941436E+04  0.50400001928E-02 0.  1.
    10030    2    1    2    0    0  0.00000000000E+00  0.00000000000E+00 -0.19398347964E+03  0.21858048075E+04  0.21771800721E+04 0.  0.
        4    1    3    3  502    0  0.10118173149E+04 -0.36573722332E+03  0.69462092317E+02  0.10781301362E+04  0.12699999809E+01 0. -1.
       -4    1    3    3    0  502 -0.10118173149E+04  0.36573722332E+03 -0.26344557196E+03  0.11076746714E+04  0.12699999809E+01 0.  1.
</event>
<event>
 5   0  0.4132460E-05  0.2156756E+04  0.7818609E-02  0.8536646E-01
       -2   -1    0    0    0  501  0.00000000000E+00  0.00000000000E+00  0.80070530315E+03  0.80070530315E+03  0.25500000920E-02 0.  1.
        2   -1    0    0  501    0  0.00000000000E+00  0.00000000000E+00 -0.14523428229E+04  0.14523428229E+04  0.25500000920E-02 0. -1.
    10030    2    1    2    0    0  0.00000000000E+00  0.00000000000E+00 -0.65163751976E+03  0.22530481261E+04  0.21567555265E+04 0.  0.
        4    1    3    3  502    0  0.78207167055E+03  0.15871630775E+03 -0.10835083606E+04  0.13456667287E+04  0.12699999809E+01 0. -1.
       -4    1    3    3    0  502 -0.78207167055E+03 -0.15871630775E+03  0.43187084087E+03  0.90738139738E+03  0.12699999809E+01 0.  1.
</event>
<event>
 5   0  0.1866935E-05  0.2179677E+04  0.7818609E-02  0.8526935E-01
        1   -1    0    0  501    0  0.00000000000E+00  0.00000000000E+00  0.10342483008E+04  0.10342483008E+04  0.50400001928E-02 0.  1.
       -1   -1    0    0    0  501  0.00000000000E+00  0.00000000000E+00 -0.11484168009E+04  0.11484168009E+04  0.50400001928E-02 0. -1.
    10030    2    1    2    0    0  0.00000000000E+00  0.00000000000E+00 -0.11416850008E+03  0.21826651017E+04  0.21796771550E+04 0.  0.
        4    1    3    3  502    0 -0.96140567386E+03 -0.34795971617E+03  0.32075205368E+03  0.10715690956E+04  0.12699999809E+01 0.  1.
       -4    1    3    3    0  502  0.96140567386E+03  0.34795971617E+03 -0.43492055375E+03  0.11110960061E+04  0.12699999809E+01 0. -1.
</event>
<event>
 5   0  0.1866935E-05  0.2201784E+04  0.7818609E-02  0.8517686E-01
       -1   -1    0    0    0  501  0.00000000000E+00  0.00000000000E+00  0.57230972057E+03  0.57230972059E+03  0.50400001928E-02 0.  1.
        1   -1    0    0  501    0  0.00000000000E+00  0.00000000000E+00 -0.21176706898E+04  0.21176706898E+04  0.50400001928E-02 0. -1.
    10030    2    1    2    0    0  0.00000000000E+00  0.00000000000E+00 -0.15453609693E+04  0.26899804104E+04  0.22017842953E+04 0.  0.
        4    1    3    3  502    0  0.26327413646E+03 -0.10413667385E+04 -0.47793267408E+03  0.11756611795E+04  0.12699999809E+01 0.  1.
       -4    1    3    3    0  502 -0.26327413646E+03  0.10413667385E+04 -0.10674282952E+04  0.15143192310E+04  0.12699999809E+01 0. -1.
</event>
<event>
 5   0  0.1788413E-05  0.2184835E+04  0.7818609E-02  0.8524767E-01
        1   -1    0    0  501    0  0.00000000000E+00  0.00000000000E+00  0.14124897611E+04  0.14124897611E+04  0.50400001928E-02 0.  1.
       -1   -1    0    0    0  501  0.00000000000E+00  0.00000000000E+00 -0.84487397894E+03  0.84487397896E+03  0.50400001928E-02 0. -1.
    10030    2    1    2    0    0  0.00000000000E+00  0.00000000000E+00  0.56761578217E+03  0.22573637401E+04  0.21848348631E+04 0.  0.
        1    1    3    3  502    0  0.43705963811E+03 -0.91515003812E+03 -0.13569422343E+03  0.10231977530E+04  0.50400001928E-02 0.  1.
       -1    1    3    3    0  502 -0.43705963811E+03  0.91515003812E+03  0.70331000560E+03  0.12341659870E+04  0.50400001928E-02 0. -1.
</event>
<event>
 5   0  0.3963414E-05  0.2185022E+04  0.7818609E-02  0.8524688E-01
        2   -1    0    0  501    0  0.00000000000E+00  0.00000000000E+00  0.12661947554E+04  0.12661947554E+04  0.25500000920E-02 0.  1.
       -2   -1    0    0    0  501  0.00000000000E+00  0.00000000000E+00 -0.94265138668E+03  0.94265138668E+03  0.25500000920E-02 0. -1.
    10030    2    1    2    0    0  0.00000000000E+00  0.00000000000E+00  0.32354336871E+03  0.22088461421E+04  0.21850219605E+04 0.  0.
        1    1    3    3  502    0  0.61449001254E+03  0.87387815561E+03 -0.69456279504E+02  0.10705536797E+04  0.50400001928E-02 0. -1.
       -1    1    3    3    0  502 -0.61449001254E+03 -0.87387815561E+03  0.39299964822E+03  0.11382924624E+04  0.50400001928E-02 0.  1.
</event>
<event>
 5   0  0.1884407E-05  0.2186352E+04  0.7818609E-02  0.8524130E-01
       -1   -1    0    0    0  501  0.00000000000E+00  0.00000000000E+00  0.86755381572E+03  0.86755381573E+03  0.50400001928E-02 0.  1.
        1   -1    0    0  501    0  0.00000000000E+00  0.00000000000E+00 -0.13774751236E+04  0.13774751236E+04  0.50400001928E-02 0. -1.
    10030    2    1    2    0    0  0.00000000000E+00  0.00000000000E+00 -0.50992130788E+03  0.22450289393E+04  0.21863520298E+04 0.  0.
        3    1    3    3  502    0 -0.59420727707E+03 -0.38036307726E+03  0.60247992882E+03  0.92776097864E+03  0.10100000352E+00 0.  1.
       -3    1    3    3    0  502  0.59420727707E+03  0.38036307726E+03 -0.11124012367E+04  0.13172679607E+04  0.10100000352E+00 0. -1.
</event>
<event>
 5   0  0.4143281E-05  0.2211649E+04  0.7818609E-02  0.8513595E-01
       -2   -1    0    0    0  501  0.00000000000E+00  0.00000000000E+00  0.94630004823E+03  0.94630004823E+03  0.25500000920E-02 0. -1.
        2   -1    0    0  501    0  0.00000000000E+00  0.00000000000E+00 -0.12922408509E+04  0.12922408509E+04  0.25500000920E-02 0.  1.
    10030    2    1    2    0    0  0.00000000000E+00  0.00000000000E+00 -0.34594080264E+03  0.22385408991E+04  0.22116487782E+04 0.  0.
        2    1    3    3  502    0 -0.60953120518E+03 -0.87140670512E+03  0.13398206393E+03  0.10718344692E+04  0.25500000920E-02 0.  1.
       -2    1    3    3    0  502  0.60953120518E+03  0.87140670512E+03 -0.47992286658E+03  0.11667064299E+04  0.25500000920E-02 0. -1.
</event>
<event>
 5   0  0.4029532E-05  0.2232413E+04  0.7818609E-02  0.8505057E-01
        2   -1    0    0  501    0  0.00000000000E+00  0.00000000000E+00  0.16387074517E+04  0.16387074517E+04  0.25500000920E-02 0. -1.
       -2   -1    0    0    0  501  0.00000000000E+00  0.00000000000E+00 -0.76030455531E+03  0.76030455532E+03  0.25500000920E-02 0.  1.
    10030    2    1    2    0    0  0.00000000000E+00  0.00000000000E+00  0.87840289635E+03  0.23990120070E+04  0.22324128116E+04 0.  0.
        3    1    3    3  502    0  0.11127303002E+04 -0.70163586014E+02  0.49631949103E+03  0.12204198856E+04  0.10100000352E+00 0.  1.
       -3    1    3    3    0  502 -0.11127303002E+04  0.70163586014E+02  0.38208340532E+03  0.11785921214E+04  0.10100000352E+00 0. -1.
</event>
<event>
 5   0  0.1433375E-05  0.2078454E+04  0.7818609E-02  0.8570794E-01
       -3   -1    0    0    0  501  0.00000000000E+00  0.00000000000E+00  0.12179436483E+04  0.12179436525E+04  0.10100000352E+00 0. -1.
        3   -1    0    0  501    0  0.00000000000E+00  0.00000000000E+00 -0.88673488939E+03  0.88673489515E+03  0.10100000352E+00 0.  1.
    10030    2    1    2    0    0  0.00000000000E+00  0.00000000000E+00  0.33120875890E+03  0.21046785476E+04  0.20784543649E+04 0.  0.
        3    1    3    3  502    0 -0.13066591639E+03 -0.20668105147E+03 -0.85719032339E+03  0.89138426027E+03  0.10100000352E+00 0.  1.
       -3    1    3    3    0  502  0.13066591639E+03  0.20668105147E+03  0.11883990823E+04  0.12132942874E+04  0.10100000352E+00 0. -1.
</event>
<event>
 5   0  0.1786228E-05  0.2203107E+04  0.7818609E-02  0.8517136E-01
        1   -1    0    0  501    0  0.00000000000E+00  0.00000000000E+00  0.14244731620E+04  0.14244731620E+04  0.50400001928E-02 0.  1.
       -1   -1    0    0    0  501  0.00000000000E+00  0.00000000000E+00 -0.85183755357E+03  0.85183755358E+03  0.50400001928E-02 0. -1.
    10030    2    1    2    0    0  0.00000000000E+00  0.00000000000E+00  0.57263560846E+03  0.22763107156E+04  0.22031066551E+04 0.  0.
        5    1    3    3  502    0  0.46527644941E+03  0.83489996644E+03  0.85210548791E+03  0.12804866188E+04  0.46999998093E+01 0.  1.
       -5    1    3    3    0  502 -0.46527644941E+03 -0.83489996644E+03 -0.27946987946E+03  0.99582409684E+03  0.46999998093E+01 0. -1.
</event>
<event>
 5   0  0.4132460E-05  0.2204905E+04  0.7818609E-02  0.8516389E-01
        2   -1    0    0  501    0  0.00000000000E+00  0.00000000000E+00  0.10437039692E+04  0.10437039692E+04  0.25500000920E-02 0.  1.
       -2   -1    0    0    0  501  0.00000000000E+00  0.00000000000E+00 -0.11645081259E+04  0.11645081259E+04  0.25500000920E-02 0. -1.
    10030    2    1    2    0    0  0.00000000000E+00  0.00000000000E+00 -0.12080415667E+03  0.22082120950E+04  0.22049052162E+04 0.  0.
        4    1    3    3  502    0  0.20943304518E+03  0.10793485904E+04  0.20617707749E+02  0.10996737165E+04  0.12699999809E+01 0. -1.
       -4    1    3    3    0  502 -0.20943304518E+03 -0.10793485904E+04 -0.14142186442E+03  0.11085383785E+04  0.12699999809E+01 0.  1.
</event>
<event>
 5   0  0.4132460E-05  0.2200172E+04  0.7818609E-02  0.8518356E-01
        2   -1    0    0  501    0  0.00000000000E+00  0.00000000000E+00  0.81108041187E+03  0.81108041187E+03  0.25500000920E-02 0.  1.
       -2   -1    0    0    0  501  0.00000000000E+00  0.00000000000E+00 -0.14920712391E+04  0.14920712391E+04  0.25500000920E-02 0. -1.
    10030    2    1    2    0    0  0.00000000000E+00  0.00000000000E+00 -0.68099082722E+03  0.23031516510E+04  0.22001724979E+04 0.  0.
        4    1    3    3  502    0  0.32025067021E+03 -0.81166683846E+03  0.36080505091E+03  0.94421684273E+03  0.12699999809E+01 0.  1.
       -4    1    3    3    0  502 -0.32025067021E+03  0.81166683846E+03 -0.10417958781E+04  0.13589348082E+04  0.12699999809E+01 0. -1.
</event>
<event>
 5   0  0.4143281E-05  0.2149440E+04  0.7818609E-02  0.8539772E-01
        2   -1    0    0  501    0  0.00000000000E+00  0.00000000000E+00  0.90952304794E+03  0.90952304794E+03  0.25500000920E-02 0.  1.
       -2   -1    0    0    0  501  0.00000000000E+00  0.00000000000E+00 -0.12699222583E+04  0.12699222583E+04  0.25500000920E-02 0. -1.
    10030    2    1    2    0    0  0.00000000000E+00  0.00000000000E+00 -0.36039921033E+03  0.21794453062E+04  0.21494404509E+04 0.  0.
        2    1    3    3  502    0  0.68543514395E+03 -0.51777725979E+03  0.47465563019E+03  0.98143394816E+03  0.25500000920E-02 0.  1.
       -2    1    3    3    0  502 -0.68543514395E+03  0.51777725979E+03 -0.83505484053E+03  0.11980113580E+04  0.25500000920E-02 0. -1.
</event>
<event>
 5   0  0.1786228E-05  0.2198622E+04  0.7818609E-02  0.8519002E-01
        1   -1    0    0  501    0  0.00000000000E+00  0.00000000000E+00  0.13108575862E+04  0.13108575862E+04  0.50400001928E-02 0.  1.
       -1   -1    0    0    0  501  0.00000000000E+00  0.00000000000E+00 -0.92190346501E+03  0.92190346502E+03  0.50400001928E-02 0. -1.
    10030    2    1    2    0    0  0.00000000000E+00  0.00000000000E+00  0.38895412117E+03  0.22327610512E+04  0.21986215235E+04 0.  0.
        5    1    3    3  502    0  0.60593516762E+03 -0.73016487345E+03 -0.36926786669E+03  0.10181743550E+04  0.46999998093E+01 0. -1.
       -5    1    3    3    0  502 -0.60593516762E+03  0.73016487345E+03  0.75822198786E+03  0.12145866962E+04  0.46999998093E+01 0.  1.
</event>
<event>
 5   0  0.4029532E-05  0.2198468E+04  0.7818609E-02  0.8519066E-01
        2   -1    0    0  501    0  0.00000000000E+00  0.00000000000E+00  0.12536219200E+04  0.12536219200E+04  0.25500000920E-02 0.  1.
       -2   -1    0    0    0  501  0.00000000000E+00  0.00000000000E+00 -0.96385992839E+03  0.96385992839E+03  0.25500000920E-02 0. -1.
    10030    2    1    2    0    0  0.00000000000E+00  0.00000000000E+00  0.28976199161E+03  0.22174818484E+04  0.21984684979E+04 0.  0.
        3    1    3    3  502    0 -0.49141898646E+03 -0.45127424190E+03 -0.73627308130E+03  0.99359907513E+03  0.10100000352E+00 0. -1.
       -3    1    3    3    0  502  0.49141898646E+03  0.45127424190E+03  0.10260350729E+04  0.12238827733E+04  0.10100000352E+00 0.  1.
</event>
<event>
 5   0  0.1433375E-05  0.2195233E+04  0.7818609E-02  0.8520415E-01
        3   -1    0    0  501    0  0.00000000000E+00  0.00000000000E+00  0.13589736000E+04  0.13589736037E+04  0.10100000352E+00 0.  1.
       -3   -1    0    0    0  501  0.00000000000E+00  0.00000000000E+00 -0.88652352730E+03  0.88652353306E+03  0.10100000352E+00 0. -1.
    10030    2    1    2    0    0  0.00000000000E+00  0.00000000000E+00  0.47245007269E+03  0.22454971368E+04  0.21952330902E+04 0.  0.
        2    1    3    3  502    0  0.70632260098E+03 -0.74185833427E+03 -0.16716052270E+03  0.10378767004E+04  0.25500000920E-02 0. -1.
       -2    1    3    3    0  502 -0.70632260098E+03  0.74185833427E+03  0.63961059538E+03  0.12076204364E+04  0.25500000920E-02 0.  1.
</event>
<event>
 5   0  0.1884407E-05  0.2200976E+04  0.7818609E-02  0.8518022E-01
       -1   -1    0    0    0  501  0.00000000000E+00  0.00000000000E+00  0.12402293994E+04  0.12402293994E+04  0.50400001928E-02 0.  1.
        1   -1    0    0  501    0  0.00000000000E+00  0.00000000000E+00 -0.97649212740E+03  0.97649212741E+03  0.50400001928E-02 0. -1.
    10030    2    1    2    0    0  0.00000000000E+00  0.00000000000E+00  0.26373727202E+03  0.22167215268E+04  0.22009763695E+04 0.  0.
        3    1    3    3  502    0 -0.74250280854E+03  0.81138972235E+03  0.16969436235E+03  0.11128611275E+04  0.10100000352E+00 0.  1.
       -3    1    3    3    0  502  0.74250280854E+03 -0.81138972235E+03  0.94042909667E+02  0.11038603994E+04  0.10100000352E+00 0. -1.
</event>
<event>
 5   0  0.1433375E-05  0.2202484E+04  0.7818609E-02  0.8517395E-01
       -3   -1    0    0    0  501  0.00000000000E+00  0.00000000000E+00  0.59308943035E+03  0.59308943895E+03  0.10100000352E+00 0. -1.
        3   -1    0    0  501    0  0.00000000000E+00  0.00000000000E+00 -0.20447743885E+04  0.20447743910E+04  0.10100000352E+00 0.  1.
    10030    2    1    2    0    0  0.00000000000E+00  0.00000000000E+00 -0.14516849582E+04  0.26378638300E+04  0.22024841356E+04 0.  0.
        4    1    3    3  502    0  0.86030303517E+03 -0.61383291484E+03 -0.35510337932E+03  0.11149045621E+04  0.12699999809E+01 0. -1.
       -4    1    3    3    0  502 -0.86030303517E+03  0.61383291484E+03 -0.10965815789E+04  0.15229592679E+04  0.12699999809E+01 0.  1.
</event>
<event>
 5   0  0.4132460E-05  0.2199753E+04  0.7818609E-02  0.8518531E-01
       -2   -1    0    0    0  501  0.00000000000E+00  0.00000000000E+00  0.78950444011E+03  0.78950444011E+03  0.25500000920E-02 0.  1.
        2   -1    0    0  501    0  0.00000000000E+00  0.00000000000E+00 -0.15322626406E+04  0.15322626406E+04  0.25500000920E-02 0. -1.
    10030    2    1    2    0    0  0.00000000000E+00  0.00000000000E+00 -0.74275820049E+03  0.23217670807E+04  0.21997528572E+04 0.  0.
        4    1    3    3  502    0  0.97246084679E+03 -0.25430803900E+03  0.99900754741E+02  0.10101160582E+04  0.12699999809E+01 0.  1.
       -4    1    3    3    0  502 -0.97246084679E+03  0.25430803900E+03 -0.84265895523E+03  0.13116510226E+04  0.12699999809E+01 0. -1.
</event>
<event>
 5   0  0.1866935E-05  0.2208332E+04  0.7818609E-02  0.8514968E-01
        1   -1    0    0  501    0  0.00000000000E+00  0.00000000000E+00  0.11528744651E+04  0.11528744651E+04  0.50400001928E-02 0. -1.
       -1   -1    0    0    0  501  0.00000000000E+00  0.00000000000E+00 -0.10575158090E+04  0.10575158090E+04  0.50400001928E-02 0.  1.
    10030    2    1    2    0    0  0.00000000000E+00  0.00000000000E+00  0.95358656127E+02  0.22103902742E+04  0.22083323778E+04 0.  0.
        4    1    3    3  502    0 -0.36932652796E+03 -0.94676763245E+03 -0.38447563364E+03  0.10865514990E+04  0.12699999809E+01 0.  1.
       -4    1    3    3    0  502  0.36932652796E+03  0.94676763245E+03  0.47983428976E+03  0.11238387752E+04  0.12699999809E+01 0. -1.
</event>
<event>
 5   0  0.1884407E-05  0.2205762E+04  0.7818609E-02  0.8516034E-01
        1   -1    0    0  501    0  0.00000000000E+00  0.00000000000E+00  0.10078300783E+04  0.10078300783E+04  0.50400001928E-02 0.  1.
       -1   -1    0    0    0  501  0.00000000000E+00  0.00000000000E+00 -0.12068962680E+04  0.12068962680E+04  0.50400001928E-02 0. -1.
    10030    2    1    2    0    0  0.00000000000E+00  0.00000000000E+00 -0.19906618965E+03  0.22147263463E+04  0.22057618732E+04 0.  0.
        3    1    3    3  502    0 -0.77573936574E+02 -0.15341421350E+03  0.99429451658E+03  0.10090466949E+04  0.10100000352E+00 0.  1.
       -3    1    3    3    0  502  0.77573936574E+02  0.15341421350E+03 -0.11933607062E+04  0.12056796515E+04  0.10100000352E+00 0. -1.
</event>
<event>
 5   0  0.4143281E-05  0.2227937E+04  0.7818609E-02  0.8506889E-01
        2   -1    0    0  501    0  0.00000000000E+00  0.00000000000E+00  0.65905365379E+03  0.65905365380E+03  0.25500000920E-02 0. -1.
       -2   -1    0    0    0  501  0.00000000000E+00  0.00000000000E+00 -0.18828905006E+04  0.18828905006E+04  0.25500000920E-02 0.  1.
    10030    2    1    2    0    0  0.00000000000E+00  0.00000000000E+00 -0.12238368468E+04  0.25419441544E+04  0.22279370405E+04 0.  0.
        2    1    3    3  502    0  0.28302818133E+03 -0.15159882923E+03 -0.18289544742E+04  0.18569226223E+04  0.25500000920E-02 0.  1.
       -2    1    3    3    0  502 -0.28302818133E+03  0.15159882923E+03  0.60511762740E+03  0.68502153210E+03  0.25500000920E-02 0. -1.
</event>
<event>
 5   0  0.1884407E-05  0.2196305E+04  0.7818609E-02  0.8519968E-01
        1   -1    0    0  501    0  0.00000000000E+00  0.00000000000E+00  0.14926441613E+04  0.14926441613E+04  0.50400001928E-02 0. -1.
       -1   -1    0    0    0  501  0.00000000000E+00  0.00000000000E+00 -0.80792107874E+03  0.80792107875E+03  0.50400001928E-02 0.  1.
    10030    2    1    2    0    0  0.00000000000E+00  0.00000000000E+00  0.68472308253E+03  0.23005652400E+04  0.21963047885E+04 0.  0.
        3    1    3    3  502    0  0.49937834971E+03  0.17562852310E+03 -0.66545270140E+03  0.85032430418E+03  0.10100000352E+00 0.  1.
       -3    1    3    3    0  502 -0.49937834971E+03 -0.17562852310E+03  0.13501757839E+04  0.14502409358E+04  0.10100000352E+00 0. -1.
</event>
<event>
 5   0  0.4132460E-05  0.2214781E+04  0.7818609E-02  0.8512301E-01
       -2   -1    0    0    0  501  0.00000000000E+00  0.00000000000E+00  0.65141174304E+03  0.65141174304E+03  0.25500000920E-02 0.  1.
        2   -1    0    0  501    0  0.00000000000E+00  0.00000000000E+00 -0.18825474104E+04  0.18825474104E+04  0.25500000920E-02 0. -1.
    10030    2    1    2    0    0  0.00000000000E+00  0.00000000000E+00 -0.12311356673E+04  0.25339591534E+04  0.22147807927E+04 0.  0.
        4    1    3    3  502    0 -0.10133673664E+04  0.32439852371E+03 -0.26448350921E+03  0.10964036487E+04  0.12699999809E+01 0. -1.
       -4    1    3    3    0  502  0.10133673664E+04 -0.32439852371E+03 -0.96665215813E+03  0.14375555047E+04  0.12699999809E+01 0.  1.
</event>
<event>
 5   0  0.3963414E-05  0.2206885E+04  0.7818609E-02  0.8515568E-01
       -2   -1    0    0    0  501  0.00000000000E+00  0.00000000000E+00  0.80530345343E+03  0.80530345343E+03  0.25500000920E-02 0.  1.
        2   -1    0    0  501    0  0.00000000000E+00  0.00000000000E+00 -0.15119584488E+04  0.15119584488E+04  0.25500000920E-02 0. -1.
    10030    2    1    2    0    0  0.00000000000E+00  0.00000000000E+00 -0.70665499535E+03  0.23172619022E+04  0.22068850086E+04 0.  0.
        1    1    3    3  502    0 -0.44442391094E+03  0.82633540290E+03  0.25644326780E+03  0.97267978304E+03  0.50400001928E-02 0. -1.
       -1    1    3    3    0  502  0.44442391094E+03 -0.82633540290E+03 -0.96309826315E+03  0.13445821192E+04  0.50400001928E-02 0.  1.
</event>
<event>
 5   0  0.3963414E-05  0.2183632E+04  0.7818609E-02  0.8525272E-01
       -2   -1    0    0    0  501  0.00000000000E+00  0.00000000000E+00  0.10201845314E+04  0.10201845314E+04  0.25500000920E-02 0.  1.
        2   -1    0    0  501    0  0.00000000000E+00  0.00000000000E+00 -0.11684765322E+04  0.11684765322E+04  0.25500000920E-02 0. -1.
    10030    2    1    2    0    0  0.00000000000E+00  0.00000000000E+00 -0.14829200071E+03  0.21886610636E+04  0.21836315472E+04 0.  0.
        1    1    3    3  502    0 -0.33429120664E+03 -0.54623391218E+02 -0.11144804887E+04  0.11648180482E+04  0.50400001928E-02 0. -1.
       -1    1    3    3    0  502  0.33429120664E+03  0.54623391218E+02  0.96618848802E+03  0.10238430154E+04  0.50400001928E-02 0.  1.
</event>
<event>
 5   0  0.4029532E-05  0.2183102E+04  0.7818609E-02  0.8525495E-01
       -2   -1    0    0    0  501  0.00000000000E+00  0.00000000000E+00  0.90456956169E+03  0.90456956170E+03  0.25500000920E-02 0.  1.
        2   -1    0    0  501    0  0.00000000000E+00  0.00000000000E+00 -0.13171823586E+04  0.13171823586E+04  0.25500000920E-02 0. -1.
    10030    2    1    2    0    0  0.00000000000E+00  0.00000000000E+00 -0.41261279687E+03  0.22217519203E+04  0.21831015265E+04 0.  0.
        3    1    3    3  502    0  0.10392310663E+04 -0.10000925714E+03 -0.53050553623E+03  0.11710846233E+04  0.10100000352E+00 0. -1.
       -3    1    3    3    0  502 -0.10392310663E+04  0.10000925714E+03  0.11789273936E+03  0.10506672970E+04  0.10100000352E+00 0.  1.
</event>
<event>
 5   0  0.4027923E-05  0.2221093E+04  0.7818609E-02  0.8509700E-01
        2   -1    0    0  501    0  0.00000000000E+00  0.00000000000E+00  0.14208661472E+04  0.14208661472E+04  0.25500000920E-02 0.  1.
       -2   -1    0    0    0  501  0.00000000000E+00  0.00000000000E+00 -0.86800107252E+03  0.86800107253E+03  0.25500000920E-02 0. -1.
    10030    2    1    2    0    0  0.00000000000E+00  0.00000000000E+00  0.55286507467E+03  0.22888672197E+04  0.22210928298E+04 0.  0.
        5    1    3    3  502    0 -0.20698090357E+03 -0.53014137929E+03 -0.70629116163E+03  0.90706133832E+03  0.46999998093E+01 0. -1.
       -5    1    3    3    0  502  0.20698090357E+03  0.53014137929E+03  0.12591562363E+04  0.13818058814E+04  0.46999998093E+01 0.  1.
</event>
<event>
 5   0  0.1884407E-05  0.2195569E+04  0.7818609E-02  0.8520275E-01
       -1   -1    0    0    0  501  0.00000000000E+00  0.00000000000E+00  0.97308361013E+03  0.97308361014E+03  0.50400001928E-02 0. -1.
        1   -1    0    0  501    0  0.00000000000E+00  0.00000000000E+00 -0.12384655745E+04  0.12384655745E+04  0.50400001928E-02 0.  1.
    10030    2    1    2    0    0  0.00000000000E+00  0.00000000000E+00 -0.26538196437E+03  0.22115491846E+04  0.21955687666E+04 0.  0.
        3    1    3    3  502    0  0.15595275961E+03 -0.29596216243E+03  0.92048872865E+03  0.97939490227E+03  0.10100000352E+00 0. -1.
       -3    1    3    3    0  502 -0.15595275961E+03  0.29596216243E+03 -0.11858706930E+04  0.12321542824E+04  0.10100000352E+00 0.  1.
</event>
<event>
 5   0  0.1866935E-05  0.2200304E+04  0.7818609E-02  0.8518302E-01
        1   -1    0    0  501    0  0.00000000000E+00  0.00000000000E+00  0.20224305000E+04  0.20224305000E+04  0.50400001928E-02 0. -1.
       -1   -1    0    0    0  501  0.00000000000E+00  0.00000000000E+00 -0.59845549672E+03  0.59845549674E+03  0.50400001928E-02 0.  1.
    10030    2    1    2    0    0  0.00000000000E+00  0.00000000000E+00  0.14239750033E+04  0.26208859967E+04  0.22003042058E+04 0.  0.
        4    1    3    3  502    0 -0.59337138459E+02 -0.10189564776E+04  0.22297868791E+03  0.10447556209E+04  0.12699999809E+01 0.  1.
       -4    1    3    3    0  502  0.59337138459E+02  0.10189564776E+04  0.12009963154E+04  0.15761303758E+04  0.12699999809E+01 0. -1.
</event>
<event>
 5   0  0.4132460E-05  0.2191157E+04  0.7818609E-02  0.8522118E-01
       -2   -1    0    0    0  501  0.00000000000E+00  0.00000000000E+00  0.75372222067E+03  0.75372222068E+03  0.25500000920E-02 0. -1.
        2   -1    0    0  501    0  0.00000000000E+00  0.00000000000E+00 -0.15924867233E+04  0.15924867233E+04  0.25500000920E-02 0.  1.
    10030    2    1    2    0    0  0.00000000000E+00  0.00000000000E+00 -0.83876450260E+03  0.23462089439E+04  0.21911573467E+04 0.  0.
        4    1    3    3  502    0 -0.12122515716E+03 -0.62444038913E+03 -0.13745057384E+04  0.15145590038E+04  0.12699999809E+01 0.  1.
       -4    1    3    3    0  502  0.12122515716E+03  0.62444038913E+03  0.53574123578E+03  0.83164994013E+03  0.12699999809E+01 0. -1.
</event>
<event>
 5   0  0.1884407E-05  0.2206292E+04  0.7818609E-02  0.8515814E-01
        1   -1    0    0  501    0  0.00000000000E+00  0.00000000000E+00  0.86942531913E+03  0.86942531915E+03  0.50400001928E-02 0. -1.
       -1   -1    0    0    0  501  0.00000000000E+00  0.00000000000E+00 -0.13996963913E+04  0.13996963913E+04  0.50400001928E-02 0.  1.
    10030    2    1    2    0    0  0.00000000000E+00  0.00000000000E+00 -0.53027107213E+03  0.22691217104E+04  0.22062923484E+04 0.  0.
        3    1    3    3  502    0  0.16050522786E+03 -0.80429476979E+02  0.85429988381E+03  0.87295998226E+03  0.10100000352E+00 0. -1.
       -3    1    3    3    0  502 -0.16050522786E+03  0.80429476979E+02 -0.13845709559E+04  0.13961617282E+04  0.10100000352E+00 0.  1.
</event>
<event>
 5   0  0.1815681E-05  0.2207332E+04  0.7818609E-02  0.8515383E-01
       -1   -1    0    0    0  501  0.00000000000E+00  0.00000000000E+00  0.13255372759E+04  0.13255372759E+04  0.50400001928E-02 0. -1.
        1   -1    0    0  501    0  0.00000000000E+00  0.00000000000E+00 -0.91893166761E+03  0.91893166762E+03  0.50400001928E-02 0.  1.
    10030    2    1    2    0    0  0.00000000000E+00  0.00000000000E+00  0.40660560827E+03  0.22444689435E+04  0.22073315831E+04 0.  0.
        2    1    3    3  502    0  0.28804234732E+03  0.82023717810E+03  0.89468424849E+03  0.12474843994E+04  0.25500000920E-02 0. -1.
       -2    1    3    3    0  502 -0.28804234732E+03 -0.82023717810E+03 -0.48807864022E+03  0.99698454413E+03  0.25500000920E-02 0.  1.
</event>
<event>
 5   0  0.1884407E-05  0.2128821E+04  0.7818609E-02  0.8548653E-01
        1   -1    0    0  501    0  0.00000000000E+00  0.00000000000E+00  0.92269620461E+03  0.92269620462E+03  0.50400001928E-02 0.  1.
       -1   -1    0    0    0  501  0.00000000000E+00  0.00000000000E+00 -0.12278906526E+04  0.12278906526E+04  0.50400001928E-02 0. -1.
    10030    2    1    2    0    0  0.00000000000E+00  0.00000000000E+00 -0.30519444797E+03  0.21505868572E+04  0.21288213122E+04 0.  0.
        3    1    3    3  502    0 -0.16457666072E+03 -0.10259809926E+04  0.80516388330E+02  0.10422117700E+04  0.10100000352E+00 0.  1.
       -3    1    3    3    0  502  0.16457666072E+03  0.10259809926E+04 -0.38571083630E+03  0.11083750872E+04  0.10100000352E+00 0. -1.
</event>
<event>
 5   0  0.1884407E-05  0.2200766E+04  0.7818609E-02  0.8518109E-01
        1   -1    0    0  501    0  0.00000000000E+00  0.00000000000E+00  0.12493090296E+04  0.12493090296E+04  0.50400001928E-02 0. -1.
       -1   -1    0    0    0  501  0.00000000000E+00  0.00000000000E+00 -0.96920980577E+03  0.96920980578E+03  0.50400001928E-02 0.  1.
    10030    2    1    2    0    0  0.00000000000E+00  0.00000000000E+00  0.28009922384E+03  0.22185188354E+04  0.22007658321E+04 0.  0.
        3    1    3    3  502    0 -0.82195751419E+03  0.37506530219E+03  0.77325228497E+03  0.11892044578E+04  0.10100000352E+00 0.  1.
       -3    1    3    3    0  502  0.82195751419E+03 -0.37506530219E+03 -0.49315306113E+03  0.10293143776E+04  0.10100000352E+00 0. -1.
</event>
<event>
 5   0  0.1786228E-05  0.2190098E+04  0.7818609E-02  0.8522561E-01
        1   -1    0    0  501    0  0.00000000000E+00  0.00000000000E+00  0.70876128524E+03  0.70876128526E+03  0.50400001928E-02 0.  1.
       -1   -1    0    0    0  501  0.00000000000E+00  0.00000000000E+00 -0.16918711722E+04  0.16918711722E+04  0.50400001928E-02 0. -1.
    10030    2    1    2    0    0  0.00000000000E+00  0.00000000000E+00 -0.98310988695E+03  0.24006324575E+04  0.21900984329E+04 0.  0.
        5    1    3    3  502    0 -0.10043175052E+04  0.18732063012E+02 -0.96948036099E+03  0.13960368197E+04  0.46999998093E+01 0. -1.
       -5    1    3    3    0  502  0.10043175052E+04 -0.18732063012E+02 -0.13629525960E+02  0.10045956378E+04  0.46999998093E+01 0.  1.
</event>
<event>
 5   0  0.1815681E-05  0.2198364E+04  0.7818609E-02  0.8519109E-01
        1   -1    0    0  501    0  0.00000000000E+00  0.00000000000E+00  0.15281267166E+04  0.15281267166E+04  0.50400001928E-02 0.  1.
       -1   -1    0    0    0  501  0.00000000000E+00  0.00000000000E+00 -0.79064188588E+03  0.79064188590E+03  0.50400001928E-02 0. -1.
    10030    2    1    2    0    0  0.00000000000E+00  0.00000000000E+00  0.73748483070E+03  0.23187686025E+04  0.21983639272E+04 0.  0.
        2    1    3    3  502    0  0.22043665373E+01  0.33890928598E+03 -0.73415411486E+03  0.80860783308E+03  0.25500000920E-02 0. -1.
       -2    1    3    3    0  502 -0.22043665373E+01 -0.33890928598E+03  0.14716389456E+04  0.15101607694E+04  0.25500000920E-02 0.  1.
</event>
<event>
 5   0  0.1433375E-05  0.2211774E+04  0.7818609E-02  0.8513543E-01
       -3   -1    0    0    0  501  0.00000000000E+00  0.00000000000E+00  0.57105786827E+03  0.57105787721E+03  0.10100000352E+00 0. -1.
        3   -1    0    0  501    0  0.00000000000E+00  0.00000000000E+00 -0.21416154342E+04  0.21416154366E+04  0.10100000352E+00 0.  1.
    10030    2    1    2    0    0  0.00000000000E+00  0.00000000000E+00 -0.15705575659E+04  0.27126733138E+04  0.22117742741E+04 0.  0.
        5    1    3    3  502    0 -0.42811520633E+03 -0.45535106425E+03  0.33365994513E+03  0.70850424881E+03  0.46999998093E+01 0. -1.
       -5    1    3    3    0  502  0.42811520633E+03  0.45535106425E+03 -0.19042175110E+04  0.20041690650E+04  0.46999998093E+01 0.  1.
</event>
<event>
 5   0  0.1815681E-05  0.2188025E+04  0.7818609E-02  0.8523429E-01
       -1   -1    0    0    0  501  0.00000000000E+00  0.00000000000E+00  0.12500209899E+04  0.12500209899E+04  0.50400001928E-02 0.  1.
        1   -1    0    0  501    0  0.00000000000E+00  0.00000000000E+00 -0.95747423332E+03  0.95747423333E+03  0.50400001928E-02 0. -1.
    10030    2    1    2    0    0  0.00000000000E+00  0.00000000000E+00  0.29254675658E+03  0.22074952232E+04  0.21880245784E+04 0.  0.
        2    1    3    3  502    0  0.20755006660E+03 -0.89914391940E+03  0.73914718018E+03  0.11823177965E+04  0.25500000920E-02 0.  1.
       -2    1    3    3    0  502 -0.20755006660E+03  0.89914391940E+03 -0.44660042361E+03  0.10251774267E+04  0.25500000920E-02 0. -1.
</event>
<event>
 5   0  0.4027923E-05  0.2207538E+04  0.7818609E-02  0.8515297E-01
       -2   -1    0    0    0  501  0.00000000000E+00  0.00000000000E+00  0.60498076656E+03  0.60498076657E+03  0.25500000920E-02 0. -1.
        2   -1    0    0  501    0  0.00000000000E+00  0.00000000000E+00 -0.20137925186E+04  0.20137925186E+04  0.25500000920E-02 0.  1.
    10030    2    1    2    0    0  0.00000000000E+00  0.00000000000E+00 -0.14088117520E+04  0.26187732851E+04  0.22075377610E+04 0.  0.
        5    1    3    3  502    0 -0.31400234702E+03  0.10436551018E+04 -0.91148077440E+03  0.14207859577E+04  0.46999998093E+01 0. -1.
       -5    1    3    3    0  502  0.31400234702E+03 -0.10436551018E+04 -0.49733097759E+03  0.11979873274E+04  0.46999998093E+01 0.  1.
</event>
<event>
 5   0  0.1884407E-05  0.2203356E+04  0.7818609E-02  0.8517033E-01
        1   -1    0    0  501    0  0.00000000000E+00  0.00000000000E+00  0.24065443222E+04  0.24065443222E+04  0.50400001928E-02 0. -1.
       -1   -1    0    0    0  501  0.00000000000E+00  0.00000000000E+00 -0.50433083780E+03  0.50433083782E+03  0.50400001928E-02 0.  1.
    10030    2    1    2    0    0  0.00000000000E+00  0.00000000000E+00  0.19022134844E+04  0.29108751600E+04  0.22033560895E+04 0.  0.
        3    1    3    3  502    0  0.66559788838E+03 -0.86066953738E+03  0.11796316230E+04  0.16047751799E+04  0.10100000352E+00 0.  1.
       -3    1    3    3    0  502 -0.66559788838E+03  0.86066953738E+03  0.72258186133E+03  0.13060999801E+04  0.10100000352E+00 0. -1.
</event>
<event>
 5   0  0.4027923E-05  0.2144455E+04  0.7818609E-02  0.8541910E-01
       -2   -1    0    0    0  501  0.00000000000E+00  0.00000000000E+00  0.10913912454E+04  0.10913912454E+04  0.25500000920E-02 0.  1.
        2   -1    0    0  501    0  0.00000000000E+00  0.00000000000E+00 -0.10534000719E+04  0.10534000719E+04  0.25500000920E-02 0. -1.
    10030    2    1    2    0    0  0.00000000000E+00  0.00000000000E+00  0.37991173489E+02  0.21447913173E+04  0.21444548178E+04 0.  0.
        5    1    3    3  502    0 -0.86775672751E+03  0.28237150602E+03 -0.54404400913E+03  0.10624224110E+04  0.46999998093E+01 0. -1.
       -5    1    3    3    0  502  0.86775672751E+03 -0.28237150602E+03  0.58203518262E+03  0.10823689063E+04  0.46999998093E+01 0.  1.
</event>
<event>
 5   0  0.1884407E-05  0.2204983E+04  0.7818609E-02  0.8516357E-01
        1   -1    0    0  501    0  0.00000000000E+00  0.00000000000E+00  0.10158876189E+04  0.10158876189E+04  0.50400001928E-02 0.  1.
       -1   -1    0    0    0  501  0.00000000000E+00  0.00000000000E+00 -0.11964788058E+04  0.11964788058E+04  0.50400001928E-02 0. -1.
    10030    2    1    2    0    0  0.00000000000E+00  0.00000000000E+00 -0.18059118694E+03  0.22123664247E+04  0.22049834513E+04 0.  0.
        3    1    3    3  502    0  0.95024369895E+03 -0.43446965603E+02 -0.64951019678E+03  0.11518308175E+04  0.10100000352E+00 0. -1.
       -3    1    3    3    0  502 -0.95024369895E+03  0.43446965603E+02  0.46891900984E+03  0.10605356072E+04  0.10100000352E+00 0.  1.
</event>
<event>
 5   0  0.4132460E-05  0.2155269E+04  0.7818609E-02  0.8537280E-01
        2   -1    0    0  501    0  0.00000000000E+00  0.00000000000E+00  0.12874181743E+04  0.12874181743E+04  0.25500000920E-02 0. -1.
       -2   -1    0    0    0  501  0.00000000000E+00  0.00000000000E+00 -0.90203476207E+03  0.90203476207E+03  0.25500000920E-02 0.  1.
    10030    2    1    2    0    0  0.00000000000E+00  0.00000000000E+00  0.38538341225E+03  0.21894529364E+04  0.21552688431E+04 0.  0.
        4    1    3    3  502    0  0.27472299569E+03 -0.97656695555E+03  0.56196593393E+03  0.11597254273E+04  0.12699999809E+01 0. -1.
       -4    1    3    3    0  502 -0.27472299569E+03  0.97656695555E+03 -0.17658252167E+03  0.10297275090E+04  0.12699999809E+01 0.  1.
</event>
<event>
 5   0  0.1866935E-05  0.2192142E+04  0.7818609E-02  0.8521706E-01
        1   -1    0    0  501    0  0.00000000000E+00  0.00000000000E+00  0.54650677428E+03  0.54650677431E+03  0.50400001928E-02 0. -1.
       -1   -1    0    0    0  501  0.00000000000E+00  0.00000000000E+00 -0.21982743779E+04  0.21982743779E+04  0.50400001928E-02 0.  1.
    10030    2    1    2    0    0  0.00000000000E+00  0.00000000000E+00 -0.16517676036E+04  0.27447811522E+04  0.21921421845E+04 0.  0.
        4    1    3    3  502    0 -0.26736856471E+03 -0.10074569214E+04 -0.40143331123E+03  0.11169627184E+04  0.12699999809E+01 0. -1.
       -4    1    3    3    0  502  0.26736856471E+03  0.10074569214E+04 -0.12503342923E+04  0.16278184338E+04  0.12699999809E+01 0.  1.
</event>
<event>
 5   0  0.4132460E-05  0.2193849E+04  0.7818609E-02  0.8520993E-01
       -2   -1    0    0    0  501  0.00000000000E+00  0.00000000000E+00  0.38345019789E+03  0.38345019790E+03  0.25500000920E-02 0.  1.
        2   -1    0    0  501    0  0.00000000000E+00  0.00000000000E+00 -0.31379389082E+04  0.31379389082E+04  0.25500000920E-02 0. -1.
    10030    2    1    2    0    0  0.00000000000E+00  0.00000000000E+00 -0.27544887103E+04  0.35213891061E+04  0.21938489422E+04 0.  0.
        4    1    3    3  502    0  0.57665974991E+02  0.99034398068E+03 -0.21286306792E+04  0.23484413439E+04  0.12699999809E+01 0. -1.
       -4    1    3    3    0  502 -0.57665974991E+02 -0.99034398068E+03 -0.62585803117E+03  0.11729477622E+04  0.12699999809E+01 0.  1.
</event>
<event>
 5   0  0.4143281E-05  0.2198022E+04  0.7818609E-02  0.8519252E-01
        2   -1    0    0  501    0  0.00000000000E+00  0.00000000000E+00  0.12278850061E+04  0.12278850061E+04  0.25500000920E-02 0.  1.
       -2   -1    0    0    0  501  0.00000000000E+00  0.00000000000E+00 -0.98366326564E+03  0.98366326565E+03  0.25500000920E-02 0. -1.
    10030    2    1    2    0    0  0.00000000000E+00  0.00000000000E+00  0.24422174048E+03  0.22115482718E+04  0.21980221791E+04 0.  0.
        2    1    3    3  502    0  0.59026797747E+03 -0.74936782584E+03  0.67123208540E+03  0.11664137071E+04  0.25500000920E-02 0.  1.
       -2    1    3    3    0  502 -0.59026797747E+03  0.74936782584E+03 -0.42701034491E+03  0.10451345647E+04  0.25500000920E-02 0. -1.
</event>
<event>
 5   0  0.1788413E-05  0.2174067E+04  0.7818609E-02  0.8529300E-01
        1   -1    0    0  501    0  0.00000000000E+00  0.00000000000E+00  0.18883474744E+04  0.18883474744E+04  0.50400001928E-02 0. -1.
       -1   -1    0    0    0  501  0.00000000000E+00  0.00000000000E+00 -0.62575445391E+03  0.62575445393E+03  0.50400001928E-02 0.  1.
    10030    2    1    2    0    0  0.00000000000E+00  0.00000000000E+00  0.12625930205E+04  0.25141019283E+04  0.21740670115E+04 0.  0.
        1    1    3    3  502    0  0.12633812851E+03 -0.64740980129E+02 -0.61498895151E+03  0.63116093647E+03  0.50400001928E-02 0.  1.
       -1    1    3    3    0  502 -0.12633812851E+03  0.64740980129E+02  0.18775819720E+04  0.18829409919E+04  0.50400001928E-02 0. -1.
</event>
<event>
 5   0  0.1433375E-05  0.2201279E+04  0.7818609E-02  0.8517896E-01
        3   -1    0    0  501    0  0.00000000000E+00  0.00000000000E+00  0.11802919900E+04  0.11802919943E+04  0.10100000352E+00 0.  1.
       -3   -1    0    0    0  501  0.00000000000E+00  0.00000000000E+00 -0.10263624362E+04  0.10263624412E+04  0.10100000352E+00 0. -1.
    10030    2    1    2    0    0  0.00000000000E+00  0.00000000000E+00  0.15392955380E+03  0.22066544355E+04  0.22012790578E+04 0.  0.
        4    1    3    3  502    0 -0.22225770698E+03  0.99043857366E+03  0.50349021785E+03  0.11330803453E+04  0.12699999809E+01 0.  1.
       -4    1    3    3    0  502  0.22225770698E+03 -0.99043857366E+03 -0.34956066406E+03  0.10735740902E+04  0.12699999809E+01 0. -1.
</event>
<event>
 5   0  0.1788413E-05  0.2208162E+04  0.7818609E-02  0.8515039E-01
       -1   -1    0    0    0  501  0.00000000000E+00  0.00000000000E+00  0.53895871841E+03  0.53895871843E+03  0.50400001928E-02 0.  1.
        1   -1    0    0  501    0  0.00000000000E+00  0.00000000000E+00 -0.22617586706E+04  0.22617586706E+04  0.50400001928E-02 0. -1.
    10030    2    1    2    0    0  0.00000000000E+00  0.00000000000E+00 -0.17227999522E+04  0.28007173890E+04  0.22081617282E+04 0.  0.
        1    1    3    3  502    0 -0.85329808941E+02  0.62957381518E+03  0.28387691453E+03  0.69586670253E+03  0.50400001928E-02 0.  1.
       -1    1    3    3    0  502  0.85329808941E+02 -0.62957381518E+03 -0.20066768667E+04  0.21048506865E+04  0.50400001928E-02 0. -1.
</event>
<event>
 5   0  0.4027923E-05  0.2191281E+04  0.7818609E-02  0.8522066E-01
        2   -1    0    0  501    0  0.00000000000E+00  0.00000000000E+00  0.19641780224E+04  0.19641780224E+04  0.25500000920E-02 0.  1.
       -2   -1    0    0    0  501  0.00000000000E+00  0.00000000000E+00 -0.61116054606E+03  0.61116054607E+03  0.25500000920E-02 0. -1.
    10030    2    1    2    0    0  0.00000000000E+00  0.00000000000E+00  0.13530174763E+04  0.25753385685E+04  0.21912810069E+04 0.  0.
        5    1    3    3  502    0 -0.29543513650E+03  0.10490957848E+04  0.80802379762E+03  0.13567639563E+04  0.46999998093E+01 0.  1.
       -5    1    3    3    0  502  0.29543513650E+03 -0.10490957848E+04  0.54499367872E+03  0.12185746122E+04  0.46999998093E+01 0. -1.
</event>
<event>
 5   0  0.4029532E-05  0.2202983E+04  0.7818609E-02  0.8517187E-01
       -2   -1    0    0    0  501  0.00000000000E+00  0.00000000000E+00  0.75303627206E+03  0.75303627206E+03  0.25500000920E-02 0.  1.
        2   -1    0    0  501    0  0.00000000000E+00  0.00000000000E+00 -0.16111889599E+04  0.16111889599E+04  0.25500000920E-02 0. -1.
    10030    2    1    2    0    0  0.00000000000E+00  0.00000000000E+00 -0.85815268780E+03  0.23642252319E+04  0.22029831846E+04 0.  0.
        3    1    3    3  502    0  0.15113023290E+02  0.74964131463E+03  0.43688648428E+03  0.86779047841E+03  0.10100000352E+00 0.  1.
       -3    1    3    3    0  502 -0.15113023290E+02 -0.74964131463E+03 -0.12950391721E+04  0.14964347535E+04  0.10100000352E+00 0. -1.
</event>
<event>
 5   0  0.4027923E-05  0.2196036E+04  0.7818609E-02  0.8520080E-01
        2   -1    0    0  501    0  0.00000000000E+00  0.00000000000E+00  0.78394647387E+03  0.78394647388E+03  0.25500000920E-02 0.  1.
       -2   -1    0    0    0  501  0.00000000000E+00  0.00000000000E+00 -0.15379152579E+04  0.15379152579E+04  0.25500000920E-02 0. -1.
    10030    2    1    2    0    0  0.00000000000E+00  0.00000000000E+00 -0.75396878403E+03  0.23218617318E+04  0.21960357407E+04 0.  0.
        5    1    3    3  502    0 -0.11835516141E+03  0.89058036573E+03  0.29043699128E+03  0.94420181527E+03  0.46999998093E+01 0.  1.
       -5    1    3    3    0  502  0.11835516141E+03 -0.89058036573E+03 -0.10444057753E+04  0.13776599165E+04  0.46999998093E+01 0. -1.
</event>
<event>
 5   0  0.1815681E-05  0.2040604E+04  0.7818609E-02  0.8587869E-01
       -1   -1    0    0    0  501  0.00000000000E+00  0.00000000000E+00  0.63816560354E+03  0.63816560356E+03  0.50400001928E-02 0.  1.
        1   -1    0    0  501    0  0.00000000000E+00  0.00000000000E+00 -0.16312635118E+04  0.16312635118E+04  0.50400001928E-02 0. -1.
    10030    2    1    2    0    0  0.00000000000E+00  0.00000000000E+00 -0.99309790825E+03  0.22694291154E+04  0.20406040905E+04 0.  0.
        2    1    3    3  502    0  0.71867419284E+03  0.26451517847E+03 -0.12463590343E+04  0.14628300371E+04  0.25500000920E-02 0. -1.
       -2    1    3    3    0  502 -0.71867419284E+03 -0.26451517847E+03  0.25326112603E+03  0.80659907826E+03  0.25500000920E-02 0.  1.
</event>
<event>
 5   0  0.4132460E-05  0.2214543E+04  0.7818609E-02  0.8512399E-01
       -2   -1    0    0    0  501  0.00000000000E+00  0.00000000000E+00  0.94477923574E+03  0.94477923575E+03  0.25500000920E-02 0.  1.
        2   -1    0    0  501    0  0.00000000000E+00  0.00000000000E+00 -0.12977109329E+04  0.12977109329E+04  0.25500000920E-02 0. -1.
    10030    2    1    2    0    0  0.00000000000E+00  0.00000000000E+00 -0.35293169716E+03  0.22424901687E+04  0.22145431524E+04 0.  0.
        4    1    3    3  502    0 -0.73482390986E+03 -0.53108217909E+03 -0.82012433943E+03  0.12225465245E+04  0.12699999809E+01 0. -1.
       -4    1    3    3    0  502  0.73482390986E+03  0.53108217909E+03  0.46719264226E+03  0.10199436442E+04  0.12699999809E+01 0.  1.
</event>
<event>
 5   0  0.1788413E-05  0.2197147E+04  0.7818609E-02  0.8519617E-01
        1   -1    0    0  501    0  0.00000000000E+00  0.00000000000E+00  0.15386930502E+04  0.15386930502E+04  0.50400001928E-02 0. -1.
       -1   -1    0    0    0  501  0.00000000000E+00  0.00000000000E+00 -0.78434338358E+03  0.78434338359E+03  0.50400001928E-02 0.  1.
    10030    2    1    2    0    0  0.00000000000E+00  0.00000000000E+00  0.75434966666E+03  0.23230364338E+04  0.21971469804E+04 0.  0.
        1    1    3    3  502    0 -0.92531436269E+03  0.12388452775E+03 -0.23506269653E+03  0.96270894736E+03  0.50400001928E-02 0.  1.
       -1    1    3    3    0  502  0.92531436269E+03 -0.12388452775E+03  0.98941236319E+03  0.13603274865E+04  0.50400001928E-02 0. -1.
</event>
<event>
 5   0  0.4029532E-05  0.2206265E+04  0.7818609E-02  0.8515825E-01
        2   -1    0    0  501    0  0.00000000000E+00  0.00000000000E+00  0.24845417408E+04  0.24845417408E+04  0.25500000920E-02 0. -1.
       -2   -1    0    0    0  501  0.00000000000E+00  0.00000000000E+00 -0.48978919247E+03  0.48978919247E+03  0.25500000920E-02 0.  1.
    10030    2    1    2    0    0  0.00000000000E+00  0.00000000000E+00  0.19947525483E+04  0.29743309333E+04  0.22062653448E+04 0.  0.
        3    1    3    3  502    0  0.23253816006E+03 -0.96542495699E+03  0.34973751796E+03  0.10528227226E+04  0.10100000352E+00 0. -1.
       -3    1    3    3    0  502 -0.23253816006E+03  0.96542495699E+03  0.16450150304E+04  0.19215082107E+04  0.10100000352E+00 0.  1.
</event>
<event>
 5   0  0.1788413E-05  0.2296981E+04  0.7818609E-02  0.8479113E-01
       -1   -1    0    0    0  501  0.00000000000E+00  0.00000000000E+00  0.10741309613E+04  0.10741309614E+04  0.50400001928E-02 0. -1.
        1   -1    0    0  501    0  0.00000000000E+00  0.00000000000E+00 -0.12279973660E+04  0.12279973660E+04  0.50400001928E-02 0.  1.
    10030    2    1    2    0    0  0.00000000000E+00  0.00000000000E+00 -0.15386640466E+03  0.23021283274E+04  0.22969806192E+04 0.  0.
        1    1    3    3  502    0 -0.41618130663E+03  0.50876186616E+03 -0.10208423764E+04  0.12141518331E+04  0.50400001928E-02 0.  1.
       -1    1    3    3    0  502  0.41618130663E+03 -0.50876186616E+03  0.86697597173E+03  0.10879764942E+04  0.50400001928E-02 0. -1.
</event>
<event>
 5   0  0.4027923E-05  0.2196429E+04  0.7818609E-02  0.8519916E-01
        2   -1    0    0  501    0  0.00000000000E+00  0.00000000000E+00  0.29127895671E+04  0.29127895671E+04  0.25500000920E-02 0. -1.
       -2   -1    0    0    0  501  0.00000000000E+00  0.00000000000E+00 -0.41406180522E+03  0.41406180523E+03  0.25500000920E-02 0.  1.
    10030    2    1    2    0    0  0.00000000000E+00  0.00000000000E+00  0.24987277619E+04  0.33268513723E+04  0.21964288346E+04 0.  0.
        5    1    3    3  502    0  0.28406913740E+03  0.91992281354E+03  0.44916887325E+03  0.10624161258E+04  0.46999998093E+01 0.  1.
       -5    1    3    3    0  502 -0.28406913740E+03 -0.91992281354E+03  0.20495588886E+04  0.22644352465E+04  0.46999998093E+01 0. -1.
</event>
<event>
 5   0  0.1433375E-05  0.2232358E+04  0.7818609E-02  0.8505080E-01
        3   -1    0    0  501    0  0.00000000000E+00  0.00000000000E+00  0.17040063986E+04  0.17040064016E+04  0.10100000352E+00 0. -1.
       -3   -1    0    0    0  501  0.00000000000E+00  0.00000000000E+00 -0.73113282794E+03  0.73113283492E+03  0.10100000352E+00 0.  1.
    10030    2    1    2    0    0  0.00000000000E+00  0.00000000000E+00  0.97287357071E+03  0.24351392366E+04  0.22323575244E+04 0.  0.
        3    1    3    3  502    0 -0.14133966464E+02 -0.46868480757E+03  0.15913586553E+04  0.16590019885E+04  0.10100000352E+00 0. -1.
       -3    1    3    3    0  502  0.14133966464E+02  0.46868480757E+03 -0.61848508456E+03  0.77613724809E+03  0.10100000352E+00 0.  1.
</event>
<event>
 5   0  0.1866935E-05  0.2206450E+04  0.7818609E-02  0.8515748E-01
       -1   -1    0    0    0  501  0.00000000000E+00  0.00000000000E+00  0.93734685347E+03  0.93734685348E+03  0.50400001928E-02 0.  1.
        1   -1    0    0  501    0  0.00000000000E+00  0.00000000000E+00 -0.12984573117E+04  0.12984573117E+04  0.50400001928E-02 0. -1.
    10030    2    1    2    0    0  0.00000000000E+00  0.00000000000E+00 -0.36111045819E+03  0.22358041652E+04  0.22064495240E+04 0.  0.
        4    1    3    3  502    0  0.65902220298E+03  0.24067170312E+03 -0.10432752289E+04  0.12572421998E+04  0.12699999809E+01 0. -1.
       -4    1    3    3    0  502 -0.65902220298E+03 -0.24067170312E+03  0.68216477075E+03  0.97856196537E+03  0.12699999809E+01 0.  1.
</event>
<event>
 5   0  0.4143281E-05  0.2203944E+04  0.7818609E-02  0.8516789E-01
        2   -1    0    0  501    0  0.00000000000E+00  0.00000000000E+00  0.10690220592E+04  0.10690220592E+04  0.25500000920E-02 0. -1.
       -2   -1    0    0    0  501  0.00000000000E+00  0.00000000000E+00 -0.11359370465E+04  0.11359370466E+04  0.25500000920E-02 0.  1.
    10030    2    1    2    0    0  0.00000000000E+00  0.00000000000E+00 -0.66914987383E+02  0.22049591057E+04  0.22039435207E+04 0.  0.
        2    1    3    3  502    0  0.60810405866E+03 -0.37854189442E+03  0.80433942751E+03  0.10770545142E+04  0.25500000920E-02 0. -1.
       -2    1    3    3    0  502 -0.60810405866E+03  0.37854189442E+03 -0.87125441489E+03  0.11279045915E+04  0.25500000920E-02 0.  1.
</event>
<event>
 5   0  0.4029532E-05  0.2182745E+04  0.7818609E-02  0.8525645E-01
       -2   -1    0    0    0  501  0.00000000000E+00  0.00000000000E+00  0.65606899438E+03  0.65606899438E+03  0.25500000920E-02 0.  1.
        2   -1    0    0  501    0  0.00000000000E+00  0.00000000000E+00 -0.18155006463E+04  0.18155006463E+04  0.25500000920E-02 0. -1.
    10030    2    1    2    0    0  0.00000000000E+00  0.00000000000E+00 -0.11594316519E+04  0.24715696407E+04  0.21827447705E+04 0.  0.
        3    1    3    3  502    0 -0.29773909569E+03  0.10215654571E+04 -0.30502770072E+03  0.11069265832E+04  0.10100000352E+00 0.  1.
       -3    1    3    3    0  502  0.29773909569E+03 -0.10215654571E+04 -0.85440395119E+03  0.13646430575E+04  0.10100000352E+00 0. -1.
</event>
<event>
 5   0  0.1786228E-05  0.2182495E+04  0.7818609E-02  0.8525750E-01
       -1   -1    0    0    0  501  0.00000000000E+00  0.00000000000E+00  0.60155337492E+03  0.60155337494E+03  0.50400001928E-02 0. -1.
        1   -1    0    0  501    0  0.00000000000E+00  0.00000000000E+00 -0.19795765581E+04  0.19795765581E+04  0.50400001928E-02 0.  1.
    10030    2    1    2    0    0  0.00000000000E+00  0.00000000000E+00 -0.13780231832E+04  0.25811299331E+04  0.21824948655E+04 0.  0.
        5    1    3    3  502    0  0.37025209893E+02  0.27491608528E+03  0.55914715777E+03  0.62419336280E+03  0.46999998093E+01 0. -1.
       -5    1    3    3    0  502 -0.37025209893E+02 -0.27491608528E+03 -0.19371703410E+04  0.19569365703E+04  0.46999998093E+01 0.  1.
</event>
<event>
 5   0  0.1433375E-05  0.2209120E+04  0.7818609E-02  0.8514642E-01
       -4   -1    0    0    0  501  0.00000000000E+00  0.00000000000E+00  0.11833386434E+04  0.11833393249E+04  0.12699999809E+01 0. -1.
        4   -1    0    0  501    0  0.00000000000E+00  0.00000000000E+00 -0.10310249126E+04  0.10310256948E+04  0.12699999809E+01 0.  1.
    10030    2    1    2    0    0  0.00000000000E+00  0.00000000000E+00  0.15231373075E+03  0.22143650197E+04  0.22091204059E+04 0.  0.
        2    1    3    3  502    0 -0.27223705315E+03  0.95911646695E+03  0.55271783409E+03  0.11399624618E+04  0.25500000920E-02 0. -1.
       -2    1    3    3    0  502  0.27223705315E+03 -0.95911646695E+03 -0.40040410333E+03  0.10744025578E+04  0.25500000920E-02 0.  1.
</event>
<event>
 5   0  0.4132460E-05  0.2215724E+04  0.7818609E-02  0.8511912E-01
        2   -1    0    0  501    0  0.00000000000E+00  0.00000000000E+00  0.14236407950E+04  0.14236407950E+04  0.25500000920E-02 0. -1.
       -2   -1    0    0    0  501  0.00000000000E+00  0.00000000000E+00 -0.86212605238E+03  0.86212605238E+03  0.25500000920E-02 0.  1.
    10030    2    1    2    0    0  0.00000000000E+00  0.00000000000E+00  0.56151474261E+03  0.22857668474E+04  0.22157236458E+04 0.  0.
        4    1    3    3  502    0  0.63518693405E+02  0.51538364527E+03  0.12903155950E+04  0.13908885196E+04  0.12699999809E+01 0. -1.
       -4    1    3    3    0  502 -0.63518693405E+02 -0.51538364527E+03 -0.72880085240E+03  0.89487832781E+03  0.12699999809E+01 0.  1.
</event>
<event>
 5   0  0.4143281E-05  0.2192160E+04  0.7818609E-02  0.8521699E-01
       -2   -1    0    0    0  501  0.00000000000E+00  0.00000000000E+00  0.10488242127E+04  0.10488242127E+04  0.25500000920E-02 0.  1.
        2   -1    0    0  501    0  0.00000000000E+00  0.00000000000E+00 -0.11454645356E+04  0.11454645356E+04  0.25500000920E-02 0. -1.
    10030    2    1    2    0    0  0.00000000000E+00  0.00000000000E+00 -0.96640322863E+02  0.21942887483E+04  0.21921596108E+04 0.  0.
        2    1    3    3  502    0  0.67109311941E+03  0.46823866736E+03 -0.77825919720E+03  0.11292921688E+04  0.25500000920E-02 0. -1.
       -2    1    3    3    0  502 -0.67109311941E+03 -0.46823866736E+03  0.68161887433E+03  0.10649965795E+04  0.25500000920E-02 0.  1.
</event>
<event>
 5   0  0.1815681E-05  0.2179602E+04  0.7818609E-02  0.8526967E-01
       -1   -1    0    0    0  501  0.00000000000E+00  0.00000000000E+00  0.94319426156E+03  0.94319426157E+03  0.50400001928E-02 0.  1.
        1   -1    0    0  501    0  0.00000000000E+00  0.00000000000E+00 -0.12591954029E+04  0.12591954029E+04  0.50400001928E-02 0. -1.
    10030    2    1    2    0    0  0.00000000000E+00  0.00000000000E+00 -0.31600114132E+03  0.22023896645E+04  0.21796016867E+04 0.  0.
        2    1    3    3  502    0 -0.30167532075E+03 -0.89788072290E+03 -0.70258627520E+03  0.11793325510E+04  0.25500000920E-02 0. -1.
       -2    1    3    3    0  502  0.30167532075E+03  0.89788072290E+03  0.38658513388E+03  0.10230571135E+04  0.25500000920E-02 0.  1.
</event>
<event>
 5   0  0.4143281E-05  0.2205281E+04  0.7818609E-02  0.8516233E-01
       -2   -1    0    0    0  501  0.00000000000E+00  0.00000000000E+00  0.89343825947E+03  0.89343825947E+03  0.25500000920E-02 0.  1.
        2   -1    0    0  501    0  0.00000000000E+00  0.00000000000E+00 -0.13608279529E+04  0.13608279529E+04  0.25500000920E-02 0. -1.
    10030    2    1    2    0    0  0.00000000000E+00  0.00000000000E+00 -0.46738969342E+03  0.22542662124E+04  0.22052807147E+04 0.  0.
        2    1    3    3  502    0  0.36974285265E+03  0.12498372085E+03  0.82046632775E+03  0.90856794052E+03  0.25500000920E-02 0.  1.
       -2    1    3    3    0  502 -0.36974285265E+03 -0.12498372085E+03 -0.12878560212E+04  0.13456982718E+04  0.25500000920E-02 0. -1.
</event>
<event>
 5   0  0.4027923E-05  0.2215279E+04  0.7818609E-02  0.8512095E-01
       -2   -1    0    0    0  501  0.00000000000E+00  0.00000000000E+00  0.11914953776E+04  0.11914953776E+04  0.25500000920E-02 0. -1.
        2   -1    0    0  501    0  0.00000000000E+00  0.00000000000E+00 -0.10296852528E+04  0.10296852528E+04  0.25500000920E-02 0.  1.
    10030    2    1    2    0    0  0.00000000000E+00  0.00000000000E+00  0.16181012486E+03  0.22211806304E+04  0.22152789613E+04 0.  0.
        5    1    3    3  502    0  0.35267691149E+03  0.63873788095E+03  0.91647746858E+03  0.11714606800E+04  0.46999998093E+01 0. -1.
       -5    1    3    3    0  502 -0.35267691149E+03 -0.63873788095E+03 -0.75466734372E+03  0.10497199503E+04  0.46999998093E+01 0.  1.
</event>
<event>
 5   0  0.4132460E-05  0.2195282E+04  0.7818609E-02  0.8520394E-01
       -2   -1    0    0    0  501  0.00000000000E+00  0.00000000000E+00  0.76793878348E+03  0.76793878348E+03  0.25500000920E-02 0. -1.
        2   -1    0    0  501    0  0.00000000000E+00  0.00000000000E+00 -0.15688960929E+04  0.15688960929E+04  0.25500000920E-02 0.  1.
    10030    2    1    2    0    0  0.00000000000E+00  0.00000000000E+00 -0.80095730939E+03  0.23368348764E+04  0.21952823572E+04 0.  0.
        4    1    3    3  502    0 -0.15054003937E+03  0.81239626839E+03  0.36872498041E+03  0.90477053690E+03  0.12699999809E+01 0. -1.
       -4    1    3    3    0  502  0.15054003937E+03 -0.81239626839E+03 -0.11696822898E+04  0.14320643395E+04  0.12699999809E+01 0.  1.
</event>
<event>
 5   0  0.4143281E-05  0.2175983E+04  0.7818609E-02  0.8528491E-01
       -2   -1    0    0    0  501  0.00000000000E+00  0.00000000000E+00  0.14692791689E+04  0.14692791689E+04  0.25500000920E-02 0. -1.
        2   -1    0    0  501    0  0.00000000000E+00  0.00000000000E+00 -0.80565056582E+03  0.80565056582E+03  0.25500000920E-02 0.  1.
    10030    2    1    2    0    0  0.00000000000E+00  0.00000000000E+00  0.66362860312E+03  0.22749297348E+04  0.21759830825E+04 0.  0.
        2    1    3    3  502    0  0.95283736736E+03 -0.27725769933E+03 -0.13451165400E+03  0.10014311087E+04  0.25500000920E-02 0.  1.
       -2    1    3    3    0  502 -0.95283736736E+03  0.27725769933E+03  0.79814025712E+03  0.12734986260E+04  0.25500000920E-02 0. -1.
</event>
<event>
 5   0  0.4027923E-05  0.2201858E+04  0.7818609E-02  0.8517655E-01
        2   -1    0    0  501    0  0.00000000000E+00  0.00000000000E+00  0.13916199020E+04  0.13916199020E+04  0.25500000920E-02 0.  1.
       -2   -1    0    0    0  501  0.00000000000E+00  0.00000000000E+00 -0.87095933209E+03  0.87095933210E+03  0.25500000920E-02 0. -1.
    10030    2    1    2    0    0  0.00000000000E+00  0.00000000000E+00  0.52066056993E+03  0.22625792341E+04  0.22018577069E+04 0.  0.
        5    1    3    3  502    0 -0.82829661291E+03  0.69406591677E+03  0.47641365096E+03  0.11810143236E+04  0.46999998093E+01 0.  1.
       -5    1    3    3    0  502  0.82829661291E+03 -0.69406591677E+03  0.44246918974E+02  0.10815649105E+04  0.46999998093E+01 0. -1.
</event>
<event>
 5   0  0.1788413E-05  0.2151802E+04  0.7818609E-02  0.8538761E-01
        1   -1    0    0  501    0  0.00000000000E+00  0.00000000000E+00  0.13306055357E+04  0.13306055357E+04  0.50400001928E-02 0.  1.
       -1   -1    0    0    0  501  0.00000000000E+00  0.00000000000E+00 -0.86995240917E+03  0.86995240918E+03  0.50400001928E-02 0. -1.
    10030    2    1    2    0    0  0.00000000000E+00  0.00000000000E+00  0.46065312656E+03  0.22005579449E+04  0.21518024923E+04 0.  0.
        1    1    3    3  502    0 -0.36511080362E+03  0.75791330194E+03  0.91621298647E+03  0.12438587978E+04  0.50400001928E-02 0.  1.
       -1    1    3    3    0  502  0.36511080362E+03 -0.75791330194E+03 -0.45555985991E+03  0.95669914715E+03  0.50400001928E-02 0. -1.
</event>
<event>
 5   0  0.4029532E-05  0.2183314E+04  0.7818609E-02  0.8525406E-01
        2   -1    0    0  501    0  0.00000000000E+00  0.00000000000E+00  0.14414509178E+04  0.14414509178E+04  0.25500000920E-02 0. -1.
       -2   -1    0    0    0  501  0.00000000000E+00  0.00000000000E+00 -0.82674664551E+03  0.82674664551E+03  0.25500000920E-02 0.  1.
    10030    2    1    2    0    0  0.00000000000E+00  0.00000000000E+00  0.61470427225E+03  0.22681975633E+04  0.21833137300E+04 0.  0.
        3    1    3    3  502    0 -0.27331156196E+03 -0.17613011037E+03 -0.77527368646E+03  0.84069633329E+03  0.10100000352E+00 0.  1.
       -3    1    3    3    0  502  0.27331156196E+03  0.17613011037E+03  0.13899779587E+04  0.14275012300E+04  0.10100000352E+00 0. -1.
</event>
<event>
 5   0  0.1788413E-05  0.2193312E+04  0.7818609E-02  0.8521217E-01
       -1   -1    0    0    0  501  0.00000000000E+00  0.00000000000E+00  0.78071474867E+03  0.78071474868E+03  0.50400001928E-02 0. -1.
        1   -1    0    0  501    0  0.00000000000E+00  0.00000000000E+00 -0.15404534867E+04  0.15404534867E+04  0.50400001928E-02 0.  1.
    10030    2    1    2    0    0  0.00000000000E+00  0.00000000000E+00 -0.75973873807E+03  0.23211682354E+04  0.21933123414E+04 0.  0.
        1    1    3    3  502    0 -0.47220704401E+03  0.33059100110E+03  0.60745941639E+03  0.83742273972E+03  0.50400001928E-02 0. -1.
       -1    1    3    3    0  502  0.47220704401E+03 -0.33059100110E+03 -0.13671981545E+04  0.14837454957E+04  0.50400001928E-02 0.  1.
</event>
<event>
 5   0  0.4143281E-05  0.2195436E+04  0.7818609E-02  0.8520330E-01
        2   -1    0    0  501    0  0.00000000000E+00  0.00000000000E+00  0.72652315873E+03  0.72652315873E+03  0.25500000920E-02 0. -1.
       -2   -1    0    0    0  501  0.00000000000E+00  0.00000000000E+00 -0.16585635163E+04  0.16585635163E+04  0.25500000920E-02 0.  1.
    10030    2    1    2    0    0  0.00000000000E+00  0.00000000000E+00 -0.93204035762E+03  0.23850866751E+04  0.21954359976E+04 0.  0.
        2    1    3    3  502    0 -0.17609100376E+02  0.46715108104E+03 -0.15450159270E+04  0.16141915709E+04  0.25500000920E-02 0.  1.
       -2    1    3    3    0  502  0.17609100376E+02 -0.46715108104E+03  0.61297556939E+03  0.77089510416E+03  0.25500000920E-02 0. -1.
</event>
<event>
 5   0  0.4027923E-05  0.2198209E+04  0.7818609E-02  0.8519174E-01
       -2   -1    0    0    0  501  0.00000000000E+00  0.00000000000E+00  0.15117311184E+04  0.15117311184E+04  0.25500000920E-02 0. -1.
        2   -1    0    0  501    0  0.00000000000E+00  0.00000000000E+00 -0.79910406062E+03  0.79910406062E+03  0.25500000920E-02 0.  1.
    10030    2    1    2    0    0  0.00000000000E+00  0.00000000000E+00  0.71262705777E+03  0.23108351790E+04  0.21982087938E+04 0.  0.
        5    1    3    3  502    0  0.77779318939E+03 -0.70587102178E+03  0.69661560000E+03  0.12603616660E+04  0.46999998093E+01 0.  1.
       -5    1    3    3    0  502 -0.77779318939E+03  0.70587102178E+03  0.16011457767E+02  0.10504735131E+04  0.46999998093E+01 0. -1.
</event>
<event>
 5   0  0.1788413E-05  0.2212507E+04  0.7818609E-02  0.8513240E-01
        1   -1    0    0  501    0  0.00000000000E+00  0.00000000000E+00  0.12847003799E+04  0.12847003799E+04  0.50400001928E-02 0.  1.
       -1   -1    0    0    0  501  0.00000000000E+00  0.00000000000E+00 -0.95259324147E+03  0.95259324149E+03  0.50400001928E-02 0. -1.
    10030    2    1    2    0    0  0.00000000000E+00  0.00000000000E+00  0.33210713843E+03  0.22372936214E+04  0.22125070840E+04 0.  0.
        1    1    3    3  502    0 -0.24463461884E+03 -0.36358798979E+03  0.11931861763E+04  0.12711158776E+04  0.50400001928E-02 0.  1.
       -1    1    3    3    0  502  0.24463461884E+03  0.36358798979E+03 -0.86107903787E+03  0.96617774376E+03  0.50400001928E-02 0. -1.
</event>
<event>
 5   0  0.1866935E-05  0.2203559E+04  0.7818609E-02  0.8516948E-01
        1   -1    0    0  501    0  0.00000000000E+00  0.00000000000E+00  0.15982666237E+04  0.15982666237E+04  0.50400001928E-02 0. -1.
       -1   -1    0    0    0  501  0.00000000000E+00  0.00000000000E+00 -0.75952170940E+03  0.75952170942E+03  0.50400001928E-02 0.  1.
    10030    2    1    2    0    0  0.00000000000E+00  0.00000000000E+00  0.83874491430E+03  0.23577883331E+04  0.22035591194E+04 0.  0.
        4    1    3    3  502    0  0.74477127228E+03 -0.45565209609E+03  0.11384298698E+04  0.14346871652E+04  0.12699999809E+01 0. -1.
       -4    1    3    3    0  502 -0.74477127228E+03  0.45565209609E+03 -0.29968495553E+03  0.92310116789E+03  0.12699999809E+01 0.  1.
</event>
<event>
 5   0  0.1786228E-05  0.2037706E+04  0.7818609E-02  0.8589192E-01
       -1   -1    0    0    0  501  0.00000000000E+00  0.00000000000E+00  0.10450186091E+04  0.10450186091E+04  0.50400001928E-02 0.  1.
        1   -1    0    0  501    0  0.00000000000E+00  0.00000000000E+00 -0.99334238181E+03  0.99334238183E+03  0.50400001928E-02 0. -1.
    10030    2    1    2    0    0  0.00000000000E+00  0.00000000000E+00  0.51676227276E+02  0.20383609909E+04  0.20377058416E+04 0.  0.
        5    1    3    3  502    0  0.67071053869E+03  0.15518383761E+02 -0.74118461268E+03  0.99973504841E+03  0.46999998093E+01 0. -1.
       -5    1    3    3    0  502 -0.67071053869E+03 -0.15518383761E+02  0.79286083996E+03  0.10386259425E+04  0.46999998093E+01 0.  1.
</event>
<event>
 5   0  0.1433375E-05  0.2273529E+04  0.7818609E-02  0.8488432E-01
        3   -1    0    0  501    0  0.00000000000E+00  0.00000000000E+00  0.19397840588E+04  0.19397840614E+04  0.10100000352E+00 0. -1.
       -3   -1    0    0    0  501  0.00000000000E+00  0.00000000000E+00 -0.66617368008E+03  0.66617368774E+03  0.10100000352E+00 0.  1.
    10030    2    1    2    0    0  0.00000000000E+00  0.00000000000E+00  0.12736103787E+04  0.26059577492E+04  0.22735286217E+04 0.  0.
        3    1    3    3  502    0  0.41782579470E+03 -0.48606369870E+03 -0.43929491267E+03  0.77705620415E+03  0.10100000352E+00 0.  1.
       -3    1    3    3    0  502 -0.41782579470E+03  0.48606369870E+03  0.17129052914E+04  0.18289015450E+04  0.10100000352E+00 0. -1.
</event>
<event>
 5   0  0.1433375E-05  0.2182154E+04  0.7818609E-02  0.8525893E-01
        3   -1    0    0  501    0  0.00000000000E+00  0.00000000000E+00  0.71852465309E+03  0.71852466019E+03  0.10100000352E+00 0.  1.
       -3   -1    0    0    0  501  0.00000000000E+00  0.00000000000E+00 -0.16567964123E+04  0.16567964153E+04  0.10100000352E+00 0. -1.
    10030    2    1    2    0    0  0.00000000000E+00  0.00000000000E+00 -0.93827175917E+03  0.23753210755E+04  0.21821540545E+04 0.  0.
        2    1    3    3  502    0  0.10100875397E+04 -0.37029519543E+03 -0.27123532104E+03  0.11094881563E+04  0.25500000920E-02 0. -1.
       -2    1    3    3    0  502 -0.10100875397E+04  0.37029519543E+03 -0.66703643813E+03  0.12658329192E+04  0.25500000920E-02 0.  1.
</event>
<event>
 5   0  0.1884407E-05  0.2199751E+04  0.7818609E-02  0.8518532E-01
        1   -1    0    0  501    0  0.00000000000E+00  0.00000000000E+00  0.18981691119E+04  0.18981691119E+04  0.50400001928E-02 0. -1.
       -1   -1    0    0    0  501  0.00000000000E+00  0.00000000000E+00 -0.63731217142E+03  0.63731217144E+03  0.50400001928E-02 0.  1.
    10030    2    1    2    0    0  0.00000000000E+00  0.00000000000E+00  0.12608569405E+04  0.25354812834E+04  0.21997511482E+04 0.  0.
        3    1    3    3  502    0 -0.71993043799E+02 -0.10891304330E+04  0.47434214677E+03  0.11901212463E+04  0.10100000352E+00 0. -1.
       -3    1    3    3    0  502  0.71993043799E+02  0.10891304330E+04  0.78651479374E+03  0.13453600371E+04  0.10100000352E+00 0.  1.
</event>
<event>
 5   0  0.4027923E-05  0.2234989E+04  0.7818609E-02  0.8504004E-01
       -2   -1    0    0    0  501  0.00000000000E+00  0.00000000000E+00  0.10798205593E+04  0.10798205593E+04  0.25500000920E-02 0. -1.
        2   -1    0    0  501    0  0.00000000000E+00  0.00000000000E+00 -0.11564828736E+04  0.11564828736E+04  0.25500000920E-02 0.  1.
    10030    2    1    2    0    0  0.00000000000E+00  0.00000000000E+00 -0.76662314325E+02  0.22363034330E+04  0.22349890232E+04 0.  0.
        5    1    3    3  502    0 -0.55196223480E+03 -0.51082275153E+03 -0.86535805491E+03  0.11465028763E+04  0.46999998093E+01 0.  1.
       -5    1    3    3    0  502  0.55196223480E+03  0.51082275153E+03  0.78869574059E+03  0.10898005567E+04  0.46999998093E+01 0. -1.
</event>
<event>
 5   0  0.1433375E-05  0.2068698E+04  0.7818609E-02  0.8575159E-01
        3   -1    0    0  501    0  0.00000000000E+00  0.00000000000E+00  0.11538877800E+04  0.11538877844E+04  0.10100000352E+00 0. -1.
       -3   -1    0    0    0  501  0.00000000000E+00  0.00000000000E+00 -0.92719428792E+03  0.92719429342E+03  0.10100000352E+00 0.  1.
    10030    2    1    2    0    0  0.00000000000E+00  0.00000000000E+00  0.22669349205E+03  0.20810820778E+04  0.20686983046E+04 0.  0.
        2    1    3    3  502    0  0.28988585915E+03  0.44715457438E+03 -0.77846852736E+03  0.94339507780E+03  0.25500000920E-02 0.  1.
       -2    1    3    3    0  502 -0.28988585915E+03 -0.44715457438E+03  0.10051620194E+04  0.11376870000E+04  0.25500000920E-02 0. -1.
</event>
<event>
 5   0  0.4027923E-05  0.2206886E+04  0.7818609E-02  0.8515567E-01
       -2   -1    0    0    0  501  0.00000000000E+00  0.00000000000E+00  0.12472278005E+04  0.12472278005E+04  0.25500000920E-02 0. -1.
        2   -1    0    0  501    0  0.00000000000E+00  0.00000000000E+00 -0.97623448898E+03  0.97623448898E+03  0.25500000920E-02 0.  1.
    10030    2    1    2    0    0  0.00000000000E+00  0.00000000000E+00  0.27099331150E+03  0.22234622895E+04  0.22068863083E+04 0.  0.
        5    1    3    3  502    0  0.69043830531E+03  0.61443297583E+03 -0.47180084607E+03  0.10377143459E+04  0.46999998093E+01 0.  1.
       -5    1    3    3    0  502 -0.69043830531E+03 -0.61443297583E+03  0.74279415758E+03  0.11857479436E+04  0.46999998093E+01 0. -1.
</event>
<event>
 5   0  0.1866935E-05  0.2187843E+04  0.7818609E-02  0.8523505E-01
       -1   -1    0    0    0  501  0.00000000000E+00  0.00000000000E+00  0.99593230450E+03  0.99593230452E+03  0.50400001928E-02 0.  1.
        1   -1    0    0  501    0  0.00000000000E+00  0.00000000000E+00 -0.12015516228E+04  0.12015516229E+04  0.50400001928E-02 0. -1.
    10030    2    1    2    0    0  0.00000000000E+00  0.00000000000E+00 -0.20561931834E+03  0.21974839274E+04  0.21878428433E+04 0.  0.
        4    1    3    3  502    0  0.79992736662E+03 -0.33399856204E+03  0.56738149145E+03  0.10360319498E+04  0.12699999809E+01 0.  1.
       -4    1    3    3    0  502 -0.79992736662E+03  0.33399856204E+03 -0.77300080979E+03  0.11614519775E+04  0.12699999809E+01 0. -1.
</event>
<event>
 5   0  0.1786228E-05  0.2241367E+04  0.7818609E-02  0.8501405E-01
        1   -1    0    0  501    0  0.00000000000E+00  0.00000000000E+00  0.15690088424E+04  0.15690088424E+04  0.50400001928E-02 0. -1.
       -1   -1    0    0    0  501  0.00000000000E+00  0.00000000000E+00 -0.80046153936E+03  0.80046153937E+03  0.50400001928E-02 0.  1.
    10030    2    1    2    0    0  0.00000000000E+00  0.00000000000E+00  0.76854730301E+03  0.23694703817E+04  0.22413667556E+04 0.  0.
        5    1    3    3  502    0 -0.92880449271E+03 -0.62708161791E+03  0.38432154722E+03  0.11847507260E+04  0.46999998093E+01 0.  1.
       -5    1    3    3    0  502  0.92880449271E+03  0.62708161791E+03  0.38422575579E+03  0.11847196557E+04  0.46999998093E+01 0. -1.
</event>
<event>
 5   0  0.4029532E-05  0.2222285E+04  0.7818609E-02  0.8509210E-01
       -2   -1    0    0    0  501  0.00000000000E+00  0.00000000000E+00  0.47645948525E+03  0.47645948526E+03  0.25500000920E-02 0. -1.
        2   -1    0    0  501    0  0.00000000000E+00  0.00000000000E+00 -0.25912745710E+04  0.25912745710E+04  0.25500000920E-02 0.  1.
    10030    2    1    2    0    0  0.00000000000E+00  0.00000000000E+00 -0.21148150857E+04  0.30677340562E+04  0.22222847236E+04 0.  0.
        3    1    3    3  502    0 -0.98967110697E+03 -0.72767207338E+02 -0.17474810826E+04  0.20095855570E+04  0.10100000352E+00 0. -1.
       -3    1    3    3    0  502  0.98967110697E+03  0.72767207338E+02 -0.36733400308E+03  0.10581484992E+04  0.10100000352E+00 0.  1.
</event>
<event>
 5   0  0.4027923E-05  0.2193405E+04  0.7818609E-02  0.8521178E-01
       -2   -1    0    0    0  501  0.00000000000E+00  0.00000000000E+00  0.61963162260E+03  0.61963162260E+03  0.25500000920E-02 0. -1.
        2   -1    0    0  501    0  0.00000000000E+00  0.00000000000E+00 -0.19410836036E+04  0.19410836036E+04  0.25500000920E-02 0.  1.
    10030    2    1    2    0    0  0.00000000000E+00  0.00000000000E+00 -0.13214519810E+04  0.25607152262E+04  0.21934053733E+04 0.  0.
        5    1    3    3  502    0 -0.48324924560E+03 -0.81687123612E+03 -0.19231674928E+02  0.94931575205E+03  0.46999998093E+01 0. -1.
       -5    1    3    3    0  502  0.48324924560E+03  0.81687123612E+03 -0.13022203061E+04  0.16113994742E+04  0.46999998093E+01 0.  1.
</event>
<event>
 5   0  0.1433375E-05  0.2161030E+04  0.7818609E-02  0.8534826E-01
       -3   -1    0    0    0  501  0.00000000000E+00  0.00000000000E+00  0.38834722101E+03  0.38834723415E+03  0.10100000352E+00 0.  1.
        3   -1    0    0  501    0  0.00000000000E+00  0.00000000000E+00 -0.30063634206E+04  0.30063634223E+04  0.10100000352E+00 0. -1.
    10030    2    1    2    0    0  0.00000000000E+00  0.00000000000E+00 -0.26180161996E+04  0.33947106564E+04  0.21610302218E+04 0.  0.
        4    1    3    3  502    0  0.91469063171E+02 -0.49965415161E+03  0.18909254282E+03  0.54201334244E+03  0.12699999809E+01 0.  1.
       -4    1    3    3    0  502 -0.91469063171E+02  0.49965415161E+03 -0.28071087424E+04  0.28526973140E+04  0.12699999809E+01 0. -1.
</event>
<event>
 5   0  0.4132460E-05  0.2197895E+04  0.7818609E-02  0.8519305E-01
       -2   -1    0    0    0  501  0.00000000000E+00  0.00000000000E+00  0.17036876630E+04  0.17036876630E+04  0.25500000920E-02 0. -1.
        2   -1    0    0  501    0  0.00000000000E+00  0.00000000000E+00 -0.70886578841E+03  0.70886578841E+03  0.25500000920E-02 0.  1.
    10030    2    1    2    0    0  0.00000000000E+00  0.00000000000E+00  0.99482187455E+03  0.24125534514E+04  0.21978952645E+04 0.  0.
        4    1    3    3  502    0  0.10387485104E+04  0.32093140279E+03  0.67334190964E+03  0.12788222602E+04  0.12699999809E+01 0. -1.
       -4    1    3    3    0  502 -0.10387485104E+04 -0.32093140279E+03  0.32147996491E+03  0.11337311912E+04  0.12699999809E+01 0.  1.
</event>
<event>
 5   0  0.1788413E-05  0.2201251E+04  0.7818609E-02  0.8517907E-01
       -1   -1    0    0    0  501  0.00000000000E+00  0.00000000000E+00  0.55221840117E+03  0.55221840120E+03  0.50400001928E-02 0. -1.
        1   -1    0    0  501    0  0.00000000000E+00  0.00000000000E+00 -0.21936556827E+04  0.21936556828E+04  0.50400001928E-02 0.  1.
    10030    2    1    2    0    0  0.00000000000E+00  0.00000000000E+00 -0.16414372816E+04  0.27458740839E+04  0.22012514930E+04 0.  0.
        1    1    3    3  502    0 -0.18325456548E+03  0.89032967427E+03 -0.46609579488E+02  0.91018768262E+03  0.50400001928E-02 0. -1.
       -1    1    3    3    0  502  0.18325456548E+03 -0.89032967427E+03 -0.15948277021E+04  0.18356864013E+04  0.50400001928E-02 0.  1.
</event>
<event>
 5   0  0.1815681E-05  0.2195262E+04  0.7818609E-02  0.8520403E-01
        1   -1    0    0  501    0  0.00000000000E+00  0.00000000000E+00  0.13820333225E+04  0.13820333225E+04  0.50400001928E-02 0.  1.
       -1   -1    0    0    0  501  0.00000000000E+00  0.00000000000E+00 -0.87175468992E+03  0.87175468993E+03  0.50400001928E-02 0. -1.
    10030    2    1    2    0    0  0.00000000000E+00  0.00000000000E+00  0.51027863258E+03  0.22537880124E+04  0.21952621990E+04 0.  0.
        2    1    3    3  502    0 -0.70969600865E+03  0.26484391274E+03 -0.56038253220E+03  0.94225225137E+03  0.25500000920E-02 0. -1.
       -2    1    3    3    0  502  0.70969600865E+03 -0.26484391274E+03  0.10706611648E+04  0.13115357611E+04  0.25500000920E-02 0.  1.
</event>
<event>
 5   0  0.1866935E-05  0.2200340E+04  0.7818609E-02  0.8518287E-01
       -1   -1    0    0    0  501  0.00000000000E+00  0.00000000000E+00  0.14547102814E+04  0.14547102814E+04  0.50400001928E-02 0. -1.
        1   -1    0    0  501    0  0.00000000000E+00  0.00000000000E+00 -0.83203785156E+03  0.83203785158E+03  0.50400001928E-02 0.  1.
    10030    2    1    2    0    0  0.00000000000E+00  0.00000000000E+00  0.62267242981E+03  0.22867481330E+04  0.22003399893E+04 0.  0.
        4    1    3    3  502    0  0.17410154260E+02 -0.14698785150E+03  0.14443143580E+04  0.14518795128E+04  0.12699999809E+01 0. -1.
       -4    1    3    3    0  502 -0.17410154260E+02  0.14698785150E+03 -0.82164192818E+03  0.83486862020E+03  0.12699999809E+01 0.  1.
</event>
<event>
 5   0  0.1866935E-05  0.2200662E+04  0.7818609E-02  0.8518152E-01
       -1   -1    0    0    0  501  0.00000000000E+00  0.00000000000E+00  0.10226144726E+04  0.10226144727E+04  0.50400001928E-02 0. -1.
        1   -1    0    0  501    0  0.00000000000E+00  0.00000000000E+00 -0.11839542655E+04  0.11839542655E+04  0.50400001928E-02 0.  1.
    10030    2    1    2    0    0  0.00000000000E+00  0.00000000000E+00 -0.16133979289E+03  0.22065687382E+04  0.22006624156E+04 0.  0.
        4    1    3    3  502    0 -0.70108526997E+03 -0.12778023227E+03  0.75995889429E+03  0.10418193113E+04  0.12699999809E+01 0. -1.
       -4    1    3    3    0  502  0.70108526997E+03  0.12778023227E+03 -0.92129868718E+03  0.11647494269E+04  0.12699999809E+01 0.  1.
</event>
<event>
 5   0  0.1788413E-05  0.2202426E+04  0.7818609E-02  0.8517419E-01
       -1   -1    0    0    0  501  0.00000000000E+00  0.00000000000E+00  0.10355129363E+04  0.10355129363E+04  0.50400001928E-02 0. -1.
        1   -1    0    0  501    0  0.00000000000E+00  0.00000000000E+00 -0.11710819519E+04  0.11710819519E+04  0.50400001928E-02 0.  1.
    10030    2    1    2    0    0  0.00000000000E+00  0.00000000000E+00 -0.13556901561E+03  0.22065948883E+04  0.22024263990E+04 0.  0.
        1    1    3    3  502    0  0.22235376052E+03 -0.15159533188E+03  0.10020605775E+04  0.10375681860E+04  0.50400001928E-02 0. -1.
       -1    1    3    3    0  502 -0.22235376052E+03  0.15159533188E+03 -0.11376295931E+04  0.11690267023E+04  0.50400001928E-02 0.  1.
</event>
<event>
 5   0  0.1786228E-05  0.2196850E+04  0.7818609E-02  0.8519740E-01
        1   -1    0    0  501    0  0.00000000000E+00  0.00000000000E+00  0.15062327705E+04  0.15062327705E+04  0.50400001928E-02 0. -1.
       -1   -1    0    0    0  501  0.00000000000E+00  0.00000000000E+00 -0.80102980868E+03  0.80102980869E+03  0.50400001928E-02 0.  1.
    10030    2    1    2    0    0  0.00000000000E+00  0.00000000000E+00  0.70520296181E+03  0.23072625792E+04  0.21968498793E+04 0.  0.
        5    1    3    3  502    0 -0.29396118417E+03 -0.20063061754E+03 -0.73878418271E+03  0.82005486470E+03  0.46999998093E+01 0.  1.
       -5    1    3    3    0  502  0.29396118417E+03  0.20063061754E+03  0.14439871445E+04  0.14872077145E+04  0.46999998093E+01 0. -1.
</event>
<event>
 5   0  0.4132460E-05  0.2193248E+04  0.7818609E-02  0.8521244E-01
       -2   -1    0    0    0  501  0.00000000000E+00  0.00000000000E+00  0.16262149432E+04  0.16262149432E+04  0.25500000920E-02 0.  1.
        2   -1    0    0  501    0  0.00000000000E+00  0.00000000000E+00 -0.73949868836E+03  0.73949868836E+03  0.25500000920E-02 0. -1.
    10030    2    1    2    0    0  0.00000000000E+00  0.00000000000E+00  0.88671625486E+03  0.23657136316E+04  0.21932476536E+04 0.  0.
        4    1    3    3  502    0 -0.58317446166E+03  0.36629363208E+03 -0.47716613000E+03  0.83782611928E+03  0.12699999809E+01 0. -1.
       -4    1    3    3    0  502  0.58317446166E+03 -0.36629363208E+03  0.13638823849E+04  0.15278875123E+04  0.12699999809E+01 0.  1.
</event>
<event>
 5   0  0.1786228E-05  0.2184252E+04  0.7818609E-02  0.8525011E-01
        1   -1    0    0  501    0  0.00000000000E+00  0.00000000000E+00  0.18689043826E+04  0.18689043826E+04  0.50400001928E-02 0. -1.
       -1   -1    0    0    0  501  0.00000000000E+00  0.00000000000E+00 -0.63820236691E+03  0.63820236693E+03  0.50400001928E-02 0.  1.
    10030    2    1    2    0    0  0.00000000000E+00  0.00000000000E+00  0.12307020157E+04  0.25071067495E+04  0.21842520006E+04 0.  0.
        5    1    3    3  502    0 -0.43706309616E+03 -0.51801040471E+03 -0.36759158546E+03  0.77104123957E+03  0.46999998093E+01 0.  1.
       -5    1    3    3    0  502  0.43706309616E+03  0.51801040471E+03  0.15982936012E+04  0.17360655100E+04  0.46999998093E+01 0. -1.
</event>
<event>
 5   0  0.4132460E-05  0.2194407E+04  0.7818609E-02  0.8520759E-01
        2   -1    0    0  501    0  0.00000000000E+00  0.00000000000E+00  0.17597535293E+04  0.17597535293E+04  0.25500000920E-02 0.  1.
       -2   -1    0    0    0  501  0.00000000000E+00  0.00000000000E+00 -0.68410491329E+03  0.68410491330E+03  0.25500000920E-02 0. -1.
    10030    2    1    2    0    0  0.00000000000E+00  0.00000000000E+00  0.10756486160E+04  0.24438584426E+04  0.21944074695E+04 0.  0.
        4    1    3    3  502    0  0.42356784892E+03  0.99530964401E+03  0.74258144415E+03  0.13120517612E+04  0.12699999809E+01 0.  1.
       -4    1    3    3    0  502 -0.42356784892E+03 -0.99530964401E+03  0.33306717187E+03  0.11318066814E+04  0.12699999809E+01 0. -1.
</event>
<event>
 5   0  0.1788413E-05  0.2196958E+04  0.7818609E-02  0.8519695E-01
        1   -1    0    0  501    0  0.00000000000E+00  0.00000000000E+00  0.17439295618E+04  0.17439295618E+04  0.50400001928E-02 0. -1.
       -1   -1    0    0    0  501  0.00000000000E+00  0.00000000000E+00 -0.69191778204E+03  0.69191778206E+03  0.50400001928E-02 0.  1.
    10030    2    1    2    0    0  0.00000000000E+00  0.00000000000E+00  0.10520117798E+04  0.24358473439E+04  0.21969577825E+04 0.  0.
        1    1    3    3  502    0 -0.10025813222E+04 -0.42886220389E+03  0.37906681138E+03  0.11544625352E+04  0.50400001928E-02 0. -1.
       -1    1    3    3    0  502  0.10025813222E+04  0.42886220389E+03  0.67294496842E+03  0.12813848088E+04  0.50400001928E-02 0.  1.
</event>
<event>
 5   0  0.3963414E-05  0.2199001E+04  0.7818609E-02  0.8518844E-01
       -2   -1    0    0    0  501  0.00000000000E+00  0.00000000000E+00  0.99674042560E+03  0.99674042561E+03  0.25500000920E-02 0. -1.
        2   -1    0    0  501    0  0.00000000000E+00  0.00000000000E+00 -0.12128546152E+04  0.12128546152E+04  0.25500000920E-02 0.  1.
    10030    2    1    2    0    0  0.00000000000E+00  0.00000000000E+00 -0.21611418962E+03  0.22095950408E+04  0.21990008871E+04 0.  0.
        1    1    3    3  502    0 -0.19784667354E+03 -0.56632331923E+03 -0.10339276820E+04  0.11953542822E+04  0.50400001928E-02 0.  1.
       -1    1    3    3    0  502  0.19784667354E+03  0.56632331923E+03  0.81781349243E+03  0.10142407587E+04  0.50400001928E-02 0. -1.
</event>
<event>
 5   0  0.1884407E-05  0.2229346E+04  0.7818609E-02  0.8506312E-01
       -1   -1    0    0    0  501  0.00000000000E+00  0.00000000000E+00  0.68291464731E+03  0.68291464733E+03  0.50400001928E-02 0. -1.
        1   -1    0    0  501    0  0.00000000000E+00  0.00000000000E+00 -0.18194020899E+04  0.18194020899E+04  0.50400001928E-02 0.  1.
    10030    2    1    2    0    0  0.00000000000E+00  0.00000000000E+00 -0.11364874426E+04  0.25023167372E+04  0.22293463944E+04 0.  0.
        3    1    3    3  502    0 -0.33830890720E+03 -0.42706142233E+02 -0.17594206312E+04  0.17921600651E+04  0.10100000352E+00 0.  1.
       -3    1    3    3    0  502  0.33830890720E+03  0.42706142233E+02  0.62293318862E+03  0.71015667212E+03  0.10100000352E+00 0. -1.
</event>
<event>
 5   0  0.4143281E-05  0.2202790E+04  0.7818609E-02  0.8517268E-01
       -2   -1    0    0    0  501  0.00000000000E+00  0.00000000000E+00  0.12046734096E+04  0.12046734096E+04  0.25500000920E-02 0. -1.
        2   -1    0    0  501    0  0.00000000000E+00  0.00000000000E+00 -0.10069706409E+04  0.10069706410E+04  0.25500000920E-02 0.  1.
    10030    2    1    2    0    0  0.00000000000E+00  0.00000000000E+00  0.19770276861E+03  0.22116440505E+04  0.22027898269E+04 0.  0.
        2    1    3    3  502    0 -0.84816485183E+03 -0.24229834462E+03 -0.56332873946E+03  0.10466285742E+04  0.25500000920E-02 0.  1.
       -2    1    3    3    0  502  0.84816485183E+03  0.24229834462E+03  0.76103150807E+03  0.11650154763E+04  0.25500000920E-02 0. -1.
</event>
<event>
 5   0  0.1788413E-05  0.2190268E+04  0.7818609E-02  0.8522490E-01
        1   -1    0    0  501    0  0.00000000000E+00  0.00000000000E+00  0.17827140071E+04  0.17827140071E+04  0.50400001928E-02 0. -1.
       -1   -1    0    0    0  501  0.00000000000E+00  0.00000000000E+00 -0.67274875896E+03  0.67274875898E+03  0.50400001928E-02 0.  1.
    10030    2    1    2    0    0  0.00000000000E+00  0.00000000000E+00  0.11099652481E+04  0.24554627661E+04  0.21902681442E+04 0.  0.
        1    1    3    3  502    0 -0.10327961678E+04  0.90684823102E+02  0.15953102420E+03  0.10489717866E+04  0.50400001928E-02 0.  1.
       -1    1    3    3    0  502  0.10327961678E+04 -0.90684823102E+02  0.95043422394E+03  0.14064909795E+04  0.50400001928E-02 0. -1.
</event>
<event>
 5   0  0.1884407E-05  0.2196782E+04  0.7818609E-02  0.8519769E-01
        1   -1    0    0  501    0  0.00000000000E+00  0.00000000000E+00  0.11198394974E+04  0.11198394974E+04  0.50400001928E-02 0. -1.
       -1   -1    0    0    0  501  0.00000000000E+00  0.00000000000E+00 -0.10773530251E+04  0.10773530251E+04  0.50400001928E-02 0.  1.
    10030    2    1    2    0    0  0.00000000000E+00  0.00000000000E+00  0.42486472367E+02  0.21971925225E+04  0.21967817098E+04 0.  0.
        3    1    3    3  502    0 -0.71498693430E+03  0.71644696987E+03  0.44789056695E+03  0.11068462165E+04  0.10100000352E+00 0.  1.
       -3    1    3    3    0  502  0.71498693430E+03 -0.71644696987E+03 -0.40540409458E+03  0.10903463060E+04  0.10100000352E+00 0. -1.
</event>
<event>
 5   0  0.1788413E-05  0.2288036E+04  0.7818609E-02  0.8482653E-01
        1   -1    0    0  501    0  0.00000000000E+00  0.00000000000E+00  0.12180849196E+04  0.12180849196E+04  0.50400001928E-02 0. -1.
       -1   -1    0    0    0  501  0.00000000000E+00  0.00000000000E+00 -0.10744549353E+04  0.10744549354E+04  0.50400001928E-02 0.  1.
    10030    2    1    2    0    0  0.00000000000E+00  0.00000000000E+00  0.14362998421E+03  0.22925398549E+04  0.22880361479E+04 0.  0.
        1    1    3    3  502    0  0.21677497174E+03  0.28389822453E+03  0.11607788916E+04  0.12144946379E+04  0.50400001928E-02 0. -1.
       -1    1    3    3    0  502 -0.21677497174E+03 -0.28389822453E+03 -0.10171489074E+04  0.10780452171E+04  0.50400001928E-02 0.  1.
</event>
<event>
 5   0  0.4027923E-05  0.2194237E+04  0.7818609E-02  0.8520831E-01
        2   -1    0    0  501    0  0.00000000000E+00  0.00000000000E+00  0.12293801530E+04  0.12293801530E+04  0.25500000920E-02 0. -1.
       -2   -1    0    0    0  501  0.00000000000E+00  0.00000000000E+00 -0.97908607226E+03  0.97908607226E+03  0.25500000920E-02 0.  1.
    10030    2    1    2    0    0  0.00000000000E+00  0.00000000000E+00  0.25029408075E+03  0.22084662253E+04  0.21942369838E+04 0.  0.
        5    1    3    3  502    0  0.16161472806E+03 -0.98799319451E+03 -0.32653596858E+03  0.10530421176E+04  0.46999998093E+01 0.  1.
       -5    1    3    3    0  502 -0.16161472806E+03  0.98799319451E+03  0.57683004932E+03  0.11554241076E+04  0.46999998093E+01 0. -1.
</event>
<event>
 5   0  0.4029532E-05  0.2196983E+04  0.7818609E-02  0.8519685E-01
        2   -1    0    0  501    0  0.00000000000E+00  0.00000000000E+00  0.12881206983E+04  0.12881206983E+04  0.25500000920E-02 0.  1.
       -2   -1    0    0    0  501  0.00000000000E+00  0.00000000000E+00 -0.93677805679E+03  0.93677805679E+03  0.25500000920E-02 0. -1.
    10030    2    1    2    0    0  0.00000000000E+00  0.00000000000E+00  0.35134264152E+03  0.22248987551E+04  0.21969826624E+04 0.  0.
        3    1    3    3  502    0 -0.68723098111E+03  0.55282551875E+03  0.83880524731E+03  0.12171675023E+04  0.10100000352E+00 0.  1.
       -3    1    3    3    0  502  0.68723098111E+03 -0.55282551875E+03 -0.48746260579E+03  0.10077312528E+04  0.10100000352E+00 0. -1.
</event>
<event>
 5   0  0.3963414E-05  0.2241238E+04  0.7818609E-02  0.8501458E-01
        2   -1    0    0  501    0  0.00000000000E+00  0.00000000000E+00  0.73409386845E+03  0.73409386846E+03  0.25500000920E-02 0.  1.
       -2   -1    0    0    0  501  0.00000000000E+00  0.00000000000E+00 -0.17106619692E+04  0.17106619692E+04  0.25500000920E-02 0. -1.
    10030    2    1    2    0    0  0.00000000000E+00  0.00000000000E+00 -0.97656810077E+03  0.24447558377E+04  0.22412375712E+04 0.  0.
        1    1    3    3  502    0 -0.80239282490E+03  0.77486658235E+03 -0.60543275988E+03  0.12691734683E+04  0.50400001928E-02 0.  1.
       -1    1    3    3    0  502  0.80239282490E+03 -0.77486658235E+03 -0.37113534089E+03  0.11755823694E+04  0.50400001928E-02 0. -1.
</event>
<event>
 5   0  0.1815681E-05  0.2189926E+04  0.7818609E-02  0.8522633E-01
        1   -1    0    0  501    0  0.00000000000E+00  0.00000000000E+00  0.14636216843E+04  0.14636216843E+04  0.50400001928E-02 0.  1.
       -1   -1    0    0    0  501  0.00000000000E+00  0.00000000000E+00 -0.81916245622E+03  0.81916245624E+03  0.50400001928E-02 0. -1.
    10030    2    1    2    0    0  0.00000000000E+00  0.00000000000E+00  0.64445922808E+03  0.22827841405E+04  0.21899259658E+04 0.  0.
        2    1    3    3  502    0  0.45276809165E+03 -0.74483520143E+03 -0.36856592952E+03  0.94637163235E+03  0.25500000920E-02 0. -1.
       -2    1    3    3    0  502 -0.45276809165E+03  0.74483520143E+03  0.10130251576E+04  0.13364125082E+04  0.25500000920E-02 0.  1.
</event>
<event>
 5   0  0.1788413E-05  0.2198627E+04  0.7818609E-02  0.8519000E-01
       -1   -1    0    0    0  501  0.00000000000E+00  0.00000000000E+00  0.10873656466E+04  0.10873656466E+04  0.50400001928E-02 0. -1.
        1   -1    0    0  501    0  0.00000000000E+00  0.00000000000E+00 -0.11113923083E+04  0.11113923083E+04  0.50400001928E-02 0.  1.
    10030    2    1    2    0    0  0.00000000000E+00  0.00000000000E+00 -0.24026661698E+02  0.21987579549E+04  0.21986266768E+04 0.  0.
        1    1    3    3  502    0 -0.61299718126E+03  0.75923998131E+03  0.49425688140E+03  0.10938467709E+04  0.50400001928E-02 0. -1.
       -1    1    3    3    0  502  0.61299718126E+03 -0.75923998131E+03 -0.51828354310E+03  0.11049111840E+04  0.50400001928E-02 0.  1.
</event>
<event>
 5   0  0.4027923E-05  0.2173787E+04  0.7818609E-02  0.8529418E-01
       -2   -1    0    0    0  501  0.00000000000E+00  0.00000000000E+00  0.56443937466E+03  0.56443937467E+03  0.25500000920E-02 0.  1.
        2   -1    0    0  501    0  0.00000000000E+00  0.00000000000E+00 -0.20929404541E+04  0.20929404541E+04  0.25500000920E-02 0. -1.
    10030    2    1    2    0    0  0.00000000000E+00  0.00000000000E+00 -0.15285010794E+04  0.26573798287E+04  0.21737874791E+04 0.  0.
        5    1    3    3  502    0  0.59324344428E+03  0.45724921453E+03 -0.17270545506E+04  0.18824861591E+04  0.46999998093E+01 0. -1.
       -5    1    3    3    0  502 -0.59324344428E+03 -0.45724921453E+03  0.19855347119E+03  0.77489366966E+03  0.46999998093E+01 0.  1.
</event>
<event>
 5   0  0.1884407E-05  0.2193399E+04  0.7818609E-02  0.8521181E-01
       -1   -1    0    0    0  501  0.00000000000E+00  0.00000000000E+00  0.62863175956E+03  0.62863175958E+03  0.50400001928E-02 0. -1.
        1   -1    0    0  501    0  0.00000000000E+00  0.00000000000E+00 -0.19132812168E+04  0.19132812169E+04  0.50400001928E-02 0.  1.
    10030    2    1    2    0    0  0.00000000000E+00  0.00000000000E+00 -0.12846494573E+04  0.25419129764E+04  0.21933985848E+04 0.  0.
        3    1    3    3  502    0 -0.96398131953E+03 -0.51084386979E+03 -0.51261218340E+03  0.12054014702E+04  0.10100000352E+00 0.  1.
       -3    1    3    3    0  502  0.96398131953E+03  0.51084386979E+03 -0.77203727388E+03  0.13365115062E+04  0.10100000352E+00 0. -1.
</event>
<event>
 5   0  0.1866935E-05  0.2190175E+04  0.7818609E-02  0.8522529E-01
       -1   -1    0    0    0  501  0.00000000000E+00  0.00000000000E+00  0.13522823915E+04  0.13522823916E+04  0.50400001928E-02 0. -1.
        1   -1    0    0  501    0  0.00000000000E+00  0.00000000000E+00 -0.88680913668E+03  0.88680913669E+03  0.50400001928E-02 0.  1.
    10030    2    1    2    0    0  0.00000000000E+00  0.00000000000E+00  0.46547325487E+03  0.22390915283E+04  0.21901747695E+04 0.  0.
        4    1    3    3  502    0 -0.70768795326E+03  0.31409989846E+03  0.10244579316E+04  0.12841326458E+04  0.12699999809E+01 0. -1.
       -4    1    3    3    0  502  0.70768795326E+03 -0.31409989846E+03 -0.55898467677E+03  0.95495888245E+03  0.12699999809E+01 0.  1.
</event>
<event>
 5   0  0.4027923E-05  0.2030375E+04  0.7818609E-02  0.8592550E-01
        2   -1    0    0  501    0  0.00000000000E+00  0.00000000000E+00  0.15046966958E+04  0.15046966958E+04  0.25500000920E-02 0.  1.
       -2   -1    0    0    0  501  0.00000000000E+00  0.00000000000E+00 -0.68492556150E+03  0.68492556151E+03  0.25500000920E-02 0. -1.
    10030    2    1    2    0    0  0.00000000000E+00  0.00000000000E+00  0.81977113430E+03  0.21896222573E+04  0.20303745756E+04 0.  0.
        5    1    3    3  502    0 -0.89060982547E+03  0.16649745877E+01  0.93533189870E+03  0.12915326105E+04  0.46999998093E+01 0.  1.
       -5    1    3    3    0  502  0.89060982547E+03 -0.16649745877E+01 -0.11556076440E+03  0.89808964677E+03  0.46999998093E+01 0. -1.
</event>
<event>
 5   0  0.1786228E-05  0.2247844E+04  0.7818609E-02  0.8498774E-01
       -1   -1    0    0    0  501  0.00000000000E+00  0.00000000000E+00  0.12854376272E+04  0.12854376272E+04  0.50400001928E-02 0. -1.
        1   -1    0    0  501    0  0.00000000000E+00  0.00000000000E+00 -0.98270059246E+03  0.98270059247E+03  0.50400001928E-02 0.  1.
    10030    2    1    2    0    0  0.00000000000E+00  0.00000000000E+00  0.30273703471E+03  0.22681382196E+04  0.22478436937E+04 0.  0.
        5    1    3    3  502    0 -0.70271434203E+03  0.34404351059E+03  0.96550181604E+03  0.12427345776E+04  0.46999998093E+01 0. -1.
       -5    1    3    3    0  502  0.70271434203E+03 -0.34404351059E+03 -0.66276478133E+03  0.10254036420E+04  0.46999998093E+01 0.  1.
</event>
<event>
 5   0  0.4027923E-05  0.2193216E+04  0.7818609E-02  0.8521257E-01
        2   -1    0    0  501    0  0.00000000000E+00  0.00000000000E+00  0.12897179185E+04  0.12897179185E+04  0.25500000920E-02 0. -1.
       -2   -1    0    0    0  501  0.00000000000E+00  0.00000000000E+00 -0.93241220336E+03  0.93241220336E+03  0.25500000920E-02 0.  1.
    10030    2    1    2    0    0  0.00000000000E+00  0.00000000000E+00  0.35730571511E+03  0.22221301218E+04  0.21932156539E+04 0.  0.
        5    1    3    3  502    0  0.10354248366E+04  0.93024025535E+02  0.53220686182E+03  0.11679145069E+04  0.46999998093E+01 0. -1.
       -5    1    3    3    0  502 -0.10354248366E+04 -0.93024025535E+02 -0.17490114670E+03  0.10542156149E+04  0.46999998093E+01 0.  1.
</event>
<event>
 5   0  0.4132460E-05  0.2204327E+04  0.7818609E-02  0.8516629E-01
        2   -1    0    0  501    0  0.00000000000E+00  0.00000000000E+00  0.16631649099E+04  0.16631649099E+04  0.25500000920E-02 0. -1.
       -2   -1    0    0    0  501  0.00000000000E+00  0.00000000000E+00 -0.73039347429E+03  0.73039347429E+03  0.25500000920E-02 0.  1.
    10030    2    1    2    0    0  0.00000000000E+00  0.00000000000E+00  0.93277143560E+03  0.23935583842E+04  0.22043273775E+04 0.  0.
        4    1    3    3  502    0 -0.60392275992E+03  0.44836361381E+02  0.14663248995E+04  0.15864562153E+04  0.12699999809E+01 0. -1.
       -4    1    3    3    0  502  0.60392275992E+03 -0.44836361381E+02 -0.53355346391E+03  0.80710216887E+03  0.12699999809E+01 0.  1.
</event>
<event>
 5   0  0.3963414E-05  0.2227656E+04  0.7818609E-02  0.8507004E-01
       -2   -1    0    0    0  501  0.00000000000E+00  0.00000000000E+00  0.15872068902E+04  0.15872068902E+04  0.25500000920E-02 0.  1.
        2   -1    0    0  501    0  0.00000000000E+00  0.00000000000E+00 -0.78163286774E+03  0.78163286775E+03  0.25500000920E-02 0. -1.
    10030    2    1    2    0    0  0.00000000000E+00  0.00000000000E+00  0.80557402244E+03  0.23688397579E+04  0.22276562332E+04 0.  0.
        1    1    3    3  502    0  0.10501101672E+04 -0.98638635652E+02  0.78345856512E+03  0.13138752859E+04  0.50400001928E-02 0.  1.
       -1    1    3    3    0  502 -0.10501101672E+04  0.98638635652E+02  0.22115457325E+02  0.10549644720E+04  0.50400001928E-02 0. -1.
</event>
<event>
 5   0  0.3963414E-05  0.2154400E+04  0.7818609E-02  0.8537651E-01
       -2   -1    0    0    0  501  0.00000000000E+00  0.00000000000E+00  0.60353033454E+03  0.60353033455E+03  0.25500000920E-02 0. -1.
        2   -1    0    0  501    0  0.00000000000E+00  0.00000000000E+00 -0.19226212878E+04  0.19226212878E+04  0.25500000920E-02 0.  1.
    10030    2    1    2    0    0  0.00000000000E+00  0.00000000000E+00 -0.13190909532E+04  0.25261516223E+04  0.21544003983E+04 0.  0.
        1    1    3    3  502    0 -0.21995256485E+03  0.10220884845E+04 -0.35532180146E+03  0.11042180870E+04  0.50400001928E-02 0. -1.
       -1    1    3    3    0  502  0.21995256485E+03 -0.10220884845E+04 -0.96376915178E+03  0.14219335353E+04  0.50400001928E-02 0.  1.
</event>
<event>
 5   0  0.1815681E-05  0.2207103E+04  0.7818609E-02  0.8515478E-01
       -1   -1    0    0    0  501  0.00000000000E+00  0.00000000000E+00  0.11700832331E+04  0.11700832331E+04  0.50400001928E-02 0.  1.
        1   -1    0    0  501    0  0.00000000000E+00  0.00000000000E+00 -0.10408023366E+04  0.10408023366E+04  0.50400001928E-02 0. -1.
    10030    2    1    2    0    0  0.00000000000E+00  0.00000000000E+00  0.12928089653E+03  0.22108855697E+04  0.22071025015E+04 0.  0.
        2    1    3    3  502    0  0.16458294953E+03  0.40333344434E+03 -0.95103038738E+03  0.10460517255E+04  0.25500000920E-02 0. -1.
       -2    1    3    3    0  502 -0.16458294953E+03 -0.40333344434E+03  0.10803112839E+04  0.11648338443E+04  0.25500000920E-02 0.  1.
</event>
<event>
 5   0  0.3963414E-05  0.2192925E+04  0.7818609E-02  0.8521379E-01
        2   -1    0    0  501    0  0.00000000000E+00  0.00000000000E+00  0.26553169828E+04  0.26553169828E+04  0.25500000920E-02 0. -1.
       -2   -1    0    0    0  501  0.00000000000E+00  0.00000000000E+00 -0.45276315369E+03  0.45276315369E+03  0.25500000920E-02 0.  1.
    10030    2    1    2    0    0  0.00000000000E+00  0.00000000000E+00  0.22025538291E+04  0.31080801365E+04  0.21929247057E+04 0.  0.
        1    1    3    3  502    0  0.91699689792E+03  0.45213173535E+03  0.53982551591E+03  0.11561652151E+04  0.50400001928E-02 0.  1.
       -1    1    3    3    0  502 -0.91699689792E+03 -0.45213173535E+03  0.16627283132E+04  0.19519149214E+04  0.50400001928E-02 0. -1.
</event>
<event>
 5   0  0.1786228E-05  0.2224263E+04  0.7818609E-02  0.8508397E-01
       -1   -1    0    0    0  501  0.00000000000E+00  0.00000000000E+00  0.86856052832E+03  0.86856052833E+03  0.50400001928E-02 0.  1.
        1   -1    0    0  501    0  0.00000000000E+00  0.00000000000E+00 -0.14240074269E+04  0.14240074269E+04  0.50400001928E-02 0. -1.
    10030    2    1    2    0    0  0.00000000000E+00  0.00000000000E+00 -0.55544689854E+03  0.22925679552E+04  0.22242631526E+04 0.  0.
        5    1    3    3  502    0 -0.96949253513E+03 -0.47943662274E+03 -0.54459408653E+03  0.12109418070E+04  0.46999998093E+01 0. -1.
       -5    1    3    3    0  502  0.96949253513E+03  0.47943662274E+03 -0.10852812010E+02  0.10816261482E+04  0.46999998093E+01 0.  1.
</event>
<event>
 5   0  0.1884407E-05  0.2205539E+04  0.7818609E-02  0.8516126E-01
       -1   -1    0    0    0  501  0.00000000000E+00  0.00000000000E+00  0.85303290355E+03  0.85303290356E+03  0.50400001928E-02 0. -1.
        1   -1    0    0  501    0  0.00000000000E+00  0.00000000000E+00 -0.14256197634E+04  0.14256197635E+04  0.50400001928E-02 0.  1.
    10030    2    1    2    0    0  0.00000000000E+00  0.00000000000E+00 -0.57258685989E+03  0.22786526670E+04  0.22055389964E+04 0.  0.
        3    1    3    3  502    0  0.24595231948E+03  0.33262254853E+03 -0.13424185047E+04  0.14047126949E+04  0.10100000352E+00 0.  1.
       -3    1    3    3    0  502 -0.24595231948E+03 -0.33262254853E+03  0.76983164483E+03  0.87393997210E+03  0.10100000352E+00 0. -1.
</event>
<event>
 5   0  0.4132460E-05  0.2201869E+04  0.7818609E-02  0.8517651E-01
       -2   -1    0    0    0  501  0.00000000000E+00  0.00000000000E+00  0.75352414843E+03  0.75352414844E+03  0.25500000920E-02 0.  1.
        2   -1    0    0  501    0  0.00000000000E+00  0.00000000000E+00 -0.16085169567E+04  0.16085169567E+04  0.25500000920E-02 0. -1.
    10030    2    1    2    0    0  0.00000000000E+00  0.00000000000E+00 -0.85499280822E+03  0.23620411051E+04  0.22018686337E+04 0.  0.
        4    1    3    3  502    0 -0.76076001622E+03 -0.11754928453E+03  0.41682944195E+03  0.87539821404E+03  0.12699999809E+01 0.  1.
       -4    1    3    3    0  502  0.76076001622E+03  0.11754928453E+03 -0.12718222502E+04  0.14866428911E+04  0.12699999809E+01 0. -1.
</event>
<event>
 5   0  0.1866935E-05  0.2157674E+04  0.7818609E-02  0.8536255E-01
       -1   -1    0    0    0  501  0.00000000000E+00  0.00000000000E+00  0.93077712464E+03  0.93077712465E+03  0.50400001928E-02 0.  1.
        1   -1    0    0  501    0  0.00000000000E+00  0.00000000000E+00 -0.12504489700E+04  0.12504489700E+04  0.50400001928E-02 0. -1.
    10030    2    1    2    0    0  0.00000000000E+00  0.00000000000E+00 -0.31967184537E+03  0.21812260947E+04  0.21576740225E+04 0.  0.
        4    1    3    3  502    0  0.26918252236E+02 -0.98672500527E+03 -0.59994637969E+03  0.11551138904E+04  0.12699999809E+01 0.  1.
       -4    1    3    3    0  502 -0.26918252236E+02  0.98672500527E+03  0.28027453432E+03  0.10261122043E+04  0.12699999809E+01 0. -1.
</event>
<event>
 5   0  0.4029532E-05  0.2193998E+04  0.7818609E-02  0.8520930E-01
        2   -1    0    0  501    0  0.00000000000E+00  0.00000000000E+00  0.16030820241E+04  0.16030820241E+04  0.25500000920E-02 0.  1.
       -2   -1    0    0    0  501  0.00000000000E+00  0.00000000000E+00 -0.75068357263E+03  0.75068357263E+03  0.25500000920E-02 0. -1.
    10030    2    1    2    0    0  0.00000000000E+00  0.00000000000E+00  0.85239845148E+03  0.23537655967E+04  0.21939984878E+04 0.  0.
        3    1    3    3  502    0 -0.67659111844E+03 -0.77417505803E+03  0.83652277417E+03  0.13254783755E+04  0.10100000352E+00 0.  1.
       -3    1    3    3    0  502  0.67659111844E+03  0.77417505803E+03  0.15875677312E+02  0.10282872212E+04  0.10100000352E+00 0. -1.
</event>
<event>
 5   0  0.4029532E-05  0.2197948E+04  0.7818609E-02  0.8519283E-01
        2   -1    0    0  501    0  0.00000000000E+00  0.00000000000E+00  0.15135697686E+04  0.15135697686E+04  0.25500000920E-02 0. -1.
       -2   -1    0    0    0  501  0.00000000000E+00  0.00000000000E+00 -0.79794396703E+03  0.79794396703E+03  0.25500000920E-02 0.  1.
    10030    2    1    2    0    0  0.00000000000E+00  0.00000000000E+00  0.71562580154E+03  0.23115137356E+04  0.21979480117E+04 0.  0.
        3    1    3    3  502    0 -0.99773483202E+03  0.45969672189E+03  0.39019310634E+03  0.11657815154E+04  0.10100000352E+00 0. -1.
       -3    1    3    3    0  502  0.99773483202E+03 -0.45969672189E+03  0.32543269520E+03  0.11457322202E+04  0.10100000352E+00 0.  1.
</event>
<event>
 5   0  0.4029532E-05  0.2179701E+04  0.7818609E-02  0.8526925E-01
       -2   -1    0    0    0  501  0.00000000000E+00  0.00000000000E+00  0.91870882564E+03  0.91870882565E+03  0.25500000920E-02 0.  1.
        2   -1    0    0  501    0  0.00000000000E+00  0.00000000000E+00 -0.12928729384E+04  0.12928729384E+04  0.25500000920E-02 0. -1.
    10030    2    1    2    0    0  0.00000000000E+00  0.00000000000E+00 -0.37416411280E+03  0.22115817641E+04  0.21797006941E+04 0.  0.
        3    1    3    3  502    0  0.89436256904E+03 -0.23927449099E+03 -0.77050286842E+03  0.12044963127E+04  0.10100000352E+00 0. -1.
       -3    1    3    3    0  502 -0.89436256904E+03  0.23927449099E+03  0.39633875562E+03  0.10070854514E+04  0.10100000352E+00 0.  1.
</event>
<event>
 5   0  0.1815681E-05  0.2203452E+04  0.7818609E-02  0.8516993E-01
        1   -1    0    0  501    0  0.00000000000E+00  0.00000000000E+00  0.16623398645E+04  0.16623398645E+04  0.50400001928E-02 0.  1.
       -1   -1    0    0    0  501  0.00000000000E+00  0.00000000000E+00 -0.73017565348E+03  0.73017565350E+03  0.50400001928E-02 0. -1.
    10030    2    1    2    0    0  0.00000000000E+00  0.00000000000E+00  0.93216421106E+03  0.23925155180E+04  0.22034519254E+04 0.  0.
        2    1    3    3  502    0  0.63470875612E+03  0.10274681605E+03  0.14374896311E+04  0.15747344389E+04  0.25500000920E-02 0.  1.
       -2    1    3    3    0  502 -0.63470875612E+03 -0.10274681605E+03 -0.50532542007E+03  0.81778107919E+03  0.25500000920E-02 0. -1.
</event>
<event>
 5   0  0.4027923E-05  0.2194702E+04  0.7818609E-02  0.8520636E-01
       -2   -1    0    0    0  501  0.00000000000E+00  0.00000000000E+00  0.58445520723E+03  0.58445520724E+03  0.25500000920E-02 0.  1.
        2   -1    0    0  501    0  0.00000000000E+00  0.00000000000E+00 -0.20603450822E+04  0.20603450822E+04  0.25500000920E-02 0. -1.
    10030    2    1    2    0    0  0.00000000000E+00  0.00000000000E+00 -0.14758898750E+04  0.26448002895E+04  0.21947021775E+04 0.  0.
        5    1    3    3  502    0 -0.24154500519E+02  0.41098883768E+02 -0.20590845184E+04  0.20596416441E+04  0.46999998093E+01 0. -1.
       -5    1    3    3    0  502  0.24154500519E+02 -0.41098883768E+02  0.58319464342E+03  0.58515864537E+03  0.46999998093E+01 0.  1.
</event>
<event>
 5   0  0.4027923E-05  0.2196122E+04  0.7818609E-02  0.8520044E-01
        2   -1    0    0  501    0  0.00000000000E+00  0.00000000000E+00  0.20335405820E+04  0.20335405820E+04  0.25500000920E-02 0.  1.
       -2   -1    0    0    0  501  0.00000000000E+00  0.00000000000E+00 -0.59292558404E+03  0.59292558405E+03  0.25500000920E-02 0. -1.
    10030    2    1    2    0    0  0.00000000000E+00  0.00000000000E+00  0.14406149979E+04  0.26264661660E+04  0.21961222527E+04 0.  0.
        5    1    3    3  502    0  0.55584437247E+03 -0.24238169780E+03 -0.37450165477E+03  0.71273096836E+03  0.46999998093E+01 0. -1.
       -5    1    3    3    0  502 -0.55584437247E+03  0.24238169780E+03  0.18151166527E+04  0.19137351977E+04  0.46999998093E+01 0.  1.
</event>
<event>
 5   0  0.4132460E-05  0.2201469E+04  0.7818609E-02  0.8517817E-01
        2   -1    0    0  501    0  0.00000000000E+00  0.00000000000E+00  0.14694668450E+04  0.14694668450E+04  0.25500000920E-02 0.  1.
       -2   -1    0    0    0  501  0.00000000000E+00  0.00000000000E+00 -0.82452796002E+03  0.82452796003E+03  0.25500000920E-02 0. -1.
    10030    2    1    2    0    0  0.00000000000E+00  0.00000000000E+00  0.64493888500E+03  0.22939948051E+04  0.22014690550E+04 0.  0.
        4    1    3    3  502    0 -0.74285424520E+03  0.48131917404E+03  0.10042737134E+04  0.13386813964E+04  0.12699999809E+01 0.  1.
       -4    1    3    3    0  502  0.74285424520E+03 -0.48131917404E+03 -0.35933482837E+03  0.95531340862E+03  0.12699999809E+01 0. -1.
</event>
<event>
 5   0  0.4132460E-05  0.2206590E+04  0.7818609E-02  0.8515690E-01
       -2   -1    0    0    0  501  0.00000000000E+00  0.00000000000E+00  0.72450938762E+03  0.72450938762E+03  0.25500000920E-02 0.  1.
        2   -1    0    0  501    0  0.00000000000E+00  0.00000000000E+00 -0.16801156819E+04  0.16801156819E+04  0.25500000920E-02 0. -1.
    10030    2    1    2    0    0  0.00000000000E+00  0.00000000000E+00 -0.95560629427E+03  0.24046250695E+04  0.22065897524E+04 0.  0.
        4    1    3    3  502    0  0.90041435975E+03  0.62673869985E+03 -0.60540391040E+03  0.12530215181E+04  0.12699999809E+01 0. -1.
       -4    1    3    3    0  502 -0.90041435975E+03 -0.62673869985E+03 -0.35020238387E+03  0.11516035514E+04  0.12699999809E+01 0.  1.
</event>
<event>
 5   0  0.1815681E-05  0.2228716E+04  0.7818609E-02  0.8506570E-01
        1   -1    0    0  501    0  0.00000000000E+00  0.00000000000E+00  0.13224067786E+04  0.13224067786E+04  0.50400001928E-02 0. -1.
       -1   -1    0    0    0  501  0.00000000000E+00  0.00000000000E+00 -0.93904081725E+03  0.93904081727E+03  0.50400001928E-02 0.  1.
    10030    2    1    2    0    0  0.00000000000E+00  0.00000000000E+00  0.38336596139E+03  0.22614475959E+04  0.22287161705E+04 0.  0.
        2    1    3    3  502    0 -0.16879069260E+03 -0.59645839951E+03  0.11313180483E+04  0.12900129638E+04  0.25500000920E-02 0. -1.
       -2    1    3    3    0  502  0.16879069260E+03  0.59645839951E+03 -0.74795208691E+03  0.97143463216E+03  0.25500000920E-02 0.  1.
</event>
<event>
 5   0  0.4029532E-05  0.2188570E+04  0.7818609E-02  0.8523201E-01
       -2   -1    0    0    0  501  0.00000000000E+00  0.00000000000E+00  0.57586527038E+03  0.57586527039E+03  0.25500000920E-02 0.  1.
        2   -1    0    0  501    0  0.00000000000E+00  0.00000000000E+00 -0.20794087484E+04  0.20794087484E+04  0.25500000920E-02 0. -1.
    10030    2    1    2    0    0  0.00000000000E+00  0.00000000000E+00 -0.15035434781E+04  0.26552740188E+04  0.21885696527E+04 0.  0.
        3    1    3    3  502    0  0.50051709821E+03 -0.54918398860E+03  0.22286522693E+03  0.77575082243E+03  0.10100000352E+00 0.  1.
       -3    1    3    3    0  502 -0.50051709821E+03  0.54918398860E+03 -0.17264087050E+04  0.18795231964E+04  0.10100000352E+00 0. -1.
</event>
<event>
 5   0  0.1866935E-05  0.2201886E+04  0.7818609E-02  0.8517643E-01
        1   -1    0    0  501    0  0.00000000000E+00  0.00000000000E+00  0.85033628733E+03  0.85033628734E+03  0.50400001928E-02 0. -1.
       -1   -1    0    0    0  501  0.00000000000E+00  0.00000000000E+00 -0.14254074149E+04  0.14254074149E+04  0.50400001928E-02 0.  1.
    10030    2    1    2    0    0  0.00000000000E+00  0.00000000000E+00 -0.57507112758E+03  0.22757437023E+04  0.22018861452E+04 0.  0.
        4    1    3    3  502    0 -0.40132724097E+03 -0.29202849231E+03  0.72814306999E+03  0.88121401369E+03  0.12699999809E+01 0. -1.
       -4    1    3    3    0  502  0.40132724097E+03  0.29202849231E+03 -0.13032141976E+04  0.13945296886E+04  0.12699999809E+01 0.  1.
</event>
<event>
 5   0  0.3963414E-05  0.2134085E+04  0.7818609E-02  0.8546375E-01
        2   -1    0    0  501    0  0.00000000000E+00  0.00000000000E+00  0.12218209293E+04  0.12218209293E+04  0.25500000920E-02 0.  1.
       -2   -1    0    0    0  501  0.00000000000E+00  0.00000000000E+00 -0.93187130066E+03  0.93187130066E+03  0.25500000920E-02 0. -1.
    10030    2    1    2    0    0  0.00000000000E+00  0.00000000000E+00  0.28994962863E+03  0.21536922300E+04  0.21340851516E+04 0.  0.
        1    1    3    3  502    0 -0.59526373897E+03 -0.65791468134E+03  0.74320195018E+03  0.11573848909E+04  0.50400001928E-02 0.  1.
       -1    1    3    3    0  502  0.59526373897E+03  0.65791468134E+03 -0.45325232155E+03  0.99630733907E+03  0.50400001928E-02 0. -1.
</event>
<event>
 5   0  0.4143281E-05  0.2201143E+04  0.7818609E-02  0.8517953E-01
       -2   -1    0    0    0  501  0.00000000000E+00  0.00000000000E+00  0.12200565777E+04  0.12200565777E+04  0.25500000920E-02 0.  1.
        2   -1    0    0  501    0  0.00000000000E+00  0.00000000000E+00 -0.99278764128E+03  0.99278764129E+03  0.25500000920E-02 0. -1.
    10030    2    1    2    0    0  0.00000000000E+00  0.00000000000E+00  0.22726893642E+03  0.22128442190E+04  0.22011425143E+04 0.  0.
        2    1    3    3  502    0 -0.20155314377E+03  0.46485897563E+03  0.10958338220E+04  0.12072983486E+04  0.25500000920E-02 0.  1.
       -2    1    3    3    0  502  0.20155314377E+03 -0.46485897563E+03 -0.86856488561E+03  0.10055458704E+04  0.25500000920E-02 0. -1.
</event>
<event>
 5   0  0.1866935E-05  0.2198278E+04  0.7818609E-02  0.8519145E-01
       -1   -1    0    0    0  501  0.00000000000E+00  0.00000000000E+00  0.81763433643E+03  0.81763433645E+03  0.50400001928E-02 0.  1.
        1   -1    0    0  501    0  0.00000000000E+00  0.00000000000E+00 -0.14775636380E+04  0.14775636380E+04  0.50400001928E-02 0. -1.
    10030    2    1    2    0    0  0.00000000000E+00  0.00000000000E+00 -0.65992930155E+03  0.22951979744E+04  0.21982782032E+04 0.  0.
        4    1    3    3  502    0 -0.72924675581E+03 -0.78465979316E+03 -0.58701699572E+03  0.12215082431E+04  0.12699999809E+01 0.  1.
       -4    1    3    3    0  502  0.72924675581E+03  0.78465979316E+03 -0.72912305830E+02  0.10736897313E+04  0.12699999809E+01 0. -1.
</event>
<event>
 5   0  0.1815681E-05  0.2187623E+04  0.7818609E-02  0.8523597E-01
       -1   -1    0    0    0  501  0.00000000000E+00  0.00000000000E+00  0.78322065230E+03  0.78322065231E+03  0.50400001928E-02 0.  1.
        1   -1    0    0  501    0  0.00000000000E+00  0.00000000000E+00 -0.15275690667E+04  0.15275690667E+04  0.50400001928E-02 0. -1.
    10030    2    1    2    0    0  0.00000000000E+00  0.00000000000E+00 -0.74434841443E+03  0.23107897190E+04  0.21876230396E+04 0.  0.
        2    1    3    3  502    0 -0.60825241401E+03  0.68937795776E+03  0.25382212800E+03  0.95374977875E+03  0.25500000920E-02 0.  1.
       -2    1    3    3    0  502  0.60825241401E+03 -0.68937795776E+03 -0.99817054243E+03  0.13570399403E+04  0.25500000920E-02 0. -1.
</event>
<event>
 5   0  0.4132460E-05  0.2208677E+04  0.7818609E-02  0.8514825E-01
       -2   -1    0    0    0  501  0.00000000000E+00  0.00000000000E+00  0.10838308744E+04  0.10838308744E+04  0.25500000920E-02 0.  1.
        2   -1    0    0  501    0  0.00000000000E+00  0.00000000000E+00 -0.11252343885E+04  0.11252343885E+04  0.25500000920E-02 0. -1.
    10030    2    1    2    0    0  0.00000000000E+00  0.00000000000E+00 -0.41403514137E+02  0.22090652629E+04  0.22086772252E+04 0.  0.
        4    1    3    3  502    0 -0.37480961304E+03  0.30073378806E+03  0.97377625442E+03  0.10858935785E+04  0.12699999809E+01 0.  1.
       -4    1    3    3    0  502  0.37480961304E+03 -0.30073378806E+03 -0.10151797686E+04  0.11231716844E+04  0.12699999809E+01 0. -1.
</event>
<event>
 5   0  0.4132460E-05  0.2195866E+04  0.7818609E-02  0.8520151E-01
       -2   -1    0    0    0  501  0.00000000000E+00  0.00000000000E+00  0.11430413932E+04  0.11430413932E+04  0.25500000920E-02 0.  1.
        2   -1    0    0  501    0  0.00000000000E+00  0.00000000000E+00 -0.10546052010E+04  0.10546052010E+04  0.25500000920E-02 0. -1.
    10030    2    1    2    0    0  0.00000000000E+00  0.00000000000E+00  0.88436192283E+02  0.21976465942E+04  0.21958664788E+04 0.  0.
        4    1    3    3  502    0 -0.32818472782E+03  0.32932072164E+03 -0.95122304444E+03  0.10587654350E+04  0.12699999809E+01 0. -1.
       -4    1    3    3    0  502  0.32818472782E+03 -0.32932072164E+03  0.10396592367E+04  0.11388811592E+04  0.12699999809E+01 0.  1.
</event>
<event>
 5   0  0.1866935E-05  0.2191568E+04  0.7818609E-02  0.8521946E-01
       -1   -1    0    0    0  501  0.00000000000E+00  0.00000000000E+00  0.63433049854E+03  0.63433049856E+03  0.50400001928E-02 0.  1.
        1   -1    0    0  501    0  0.00000000000E+00  0.00000000000E+00 -0.18929291231E+04  0.18929291231E+04  0.50400001928E-02 0. -1.
    10030    2    1    2    0    0  0.00000000000E+00  0.00000000000E+00 -0.12585986245E+04  0.25272596216E+04  0.21915680910E+04 0.  0.
        4    1    3    3  502    0 -0.74411942487E+03 -0.62173254334E+03 -0.40755583068E+02  0.97052959994E+03  0.12699999809E+01 0.  1.
       -4    1    3    3    0  502  0.74411942487E+03  0.62173254334E+03 -0.12178430415E+04  0.15567300217E+04  0.12699999809E+01 0. -1.
</event>
<event>
 5   0  0.1815681E-05  0.2170104E+04  0.7818609E-02  0.8530975E-01
       -1   -1    0    0    0  501  0.00000000000E+00  0.00000000000E+00  0.80283539577E+03  0.80283539578E+03  0.50400001928E-02 0. -1.
        1   -1    0    0  501    0  0.00000000000E+00  0.00000000000E+00 -0.14664748160E+04  0.14664748160E+04  0.50400001928E-02 0.  1.
    10030    2    1    2    0    0  0.00000000000E+00  0.00000000000E+00 -0.66363942021E+03  0.22693102118E+04  0.21701040429E+04 0.  0.
        2    1    3    3  502    0 -0.41571298861E+03  0.67131772668E+03 -0.11100544452E+04  0.13622428749E+04  0.25500000920E-02 0.  1.
       -2    1    3    3    0  502  0.41571298861E+03 -0.67131772668E+03  0.44641502495E+03  0.90706733684E+03  0.25500000920E-02 0. -1.
</event>
<event>
 5   0  0.4027923E-05  0.2192160E+04  0.7818609E-02  0.8521698E-01
        2   -1    0    0  501    0  0.00000000000E+00  0.00000000000E+00  0.14091363018E+04  0.14091363018E+04  0.25500000920E-02 0. -1.
       -2   -1    0    0    0  501  0.00000000000E+00  0.00000000000E+00 -0.85257272844E+03  0.85257272844E+03  0.25500000920E-02 0.  1.
    10030    2    1    2    0    0  0.00000000000E+00  0.00000000000E+00  0.55656357341E+03  0.22617090303E+04  0.21921598314E+04 0.  0.
        5    1    3    3  502    0 -0.44559013181E+03  0.70243039238E+03 -0.45809193074E+03  0.94964694951E+03  0.46999998093E+01 0.  1.
       -5    1    3    3    0  502  0.44559013181E+03 -0.70243039238E+03  0.10146555042E+04  0.13120620808E+04  0.46999998093E+01 0. -1.
</event>
<event>
 5   0  0.4027923E-05  0.2197114E+04  0.7818609E-02  0.8519630E-01
       -2   -1    0    0    0  501  0.00000000000E+00  0.00000000000E+00  0.67514170928E+03  0.67514170929E+03  0.25500000920E-02 0. -1.
        2   -1    0    0  501    0  0.00000000000E+00  0.00000000000E+00 -0.17875169785E+04  0.17875169786E+04  0.25500000920E-02 0.  1.
    10030    2    1    2    0    0  0.00000000000E+00  0.00000000000E+00 -0.11123752693E+04  0.24626586878E+04  0.21971138052E+04 0.  0.
        5    1    3    3  502    0 -0.22412381463E+03 -0.14408616936E+03  0.63836437902E+03  0.69175391497E+03  0.46999998093E+01 0. -1.
       -5    1    3    3    0  502  0.22412381463E+03  0.14408616936E+03 -0.17507396483E+04  0.17709047729E+04  0.46999998093E+01 0.  1.
</event>
<event>
 5   0  0.1786228E-05  0.2231975E+04  0.7818609E-02  0.8505236E-01
       -1   -1    0    0    0  501  0.00000000000E+00  0.00000000000E+00  0.62392083140E+03  0.62392083142E+03  0.50400001928E-02 0. -1.
        1   -1    0    0  501    0  0.00000000000E+00  0.00000000000E+00 -0.19961311458E+04  0.19961311458E+04  0.50400001928E-02 0.  1.
    10030    2    1    2    0    0  0.00000000000E+00  0.00000000000E+00 -0.13722103144E+04  0.26200519772E+04  0.22319747347E+04 0.  0.
        5    1    3    3  502    0 -0.63442303138E+03 -0.86689845175E+03 -0.33121478348E+03  0.11241578320E+04  0.46999998093E+01 0. -1.
       -5    1    3    3    0  502  0.63442303138E+03  0.86689845175E+03 -0.10409955309E+04  0.14958941452E+04  0.46999998093E+01 0.  1.
</event>
<event>
 5   0  0.4143281E-05  0.2234146E+04  0.7818609E-02  0.8504349E-01
       -2   -1    0    0    0  501  0.00000000000E+00  0.00000000000E+00  0.17821748154E+04  0.17821748154E+04  0.25500000920E-02 0.  1.
        2   -1    0    0  501    0  0.00000000000E+00  0.00000000000E+00 -0.70018520215E+03  0.70018520215E+03  0.25500000920E-02 0. -1.
    10030    2    1    2    0    0  0.00000000000E+00  0.00000000000E+00  0.10819896132E+04  0.24823600175E+04  0.22341463098E+04 0.  0.
        2    1    3    3  502    0 -0.69157090520E+03  0.68271707641E+03 -0.71098800919E+02  0.97438594142E+03  0.25500000920E-02 0. -1.
       -2    1    3    3    0  502  0.69157090520E+03 -0.68271707641E+03  0.11530884141E+04  0.15079740761E+04  0.25500000920E-02 0.  1.
</event>
<event>
 5   0  0.1866935E-05  0.2178790E+04  0.7818609E-02  0.8527308E-01
        1   -1    0    0  501    0  0.00000000000E+00  0.00000000000E+00  0.13825985353E+04  0.13825985353E+04  0.50400001928E-02 0. -1.
       -1   -1    0    0    0  501  0.00000000000E+00  0.00000000000E+00 -0.85837018985E+03  0.85837018987E+03  0.50400001928E-02 0.  1.
    10030    2    1    2    0    0  0.00000000000E+00  0.00000000000E+00  0.52422834540E+03  0.22409687251E+04  0.21787899093E+04 0.  0.
        4    1    3    3  502    0 -0.26281084153E+02  0.68149885733E+03 -0.61162791661E+03  0.91609044816E+03  0.12699999809E+01 0.  1.
       -4    1    3    3    0  502  0.26281084153E+02 -0.68149885733E+03  0.11358562620E+04  0.13248782770E+04  0.12699999809E+01 0. -1.
</event>
<event>
 5   0  0.4029532E-05  0.2211137E+04  0.7818609E-02  0.8513807E-01
       -2   -1    0    0    0  501  0.00000000000E+00  0.00000000000E+00  0.10844757572E+04  0.10844757572E+04  0.25500000920E-02 0. -1.
        2   -1    0    0  501    0  0.00000000000E+00  0.00000000000E+00 -0.11270719756E+04  0.11270719756E+04  0.25500000920E-02 0.  1.
    10030    2    1    2    0    0  0.00000000000E+00  0.00000000000E+00 -0.42596218387E+02  0.22115477328E+04  0.22111374758E+04 0.  0.
        3    1    3    3  502    0  0.64602932601E+02  0.10747867141E+03  0.10773395899E+04  0.10846132056E+04  0.10100000352E+00 0. -1.
       -3    1    3    3    0  502 -0.64602932601E+02 -0.10747867141E+03 -0.11199358083E+04  0.11269345272E+04  0.10100000352E+00 0.  1.
</event>
<event>
 5   0  0.4027923E-05  0.2195771E+04  0.7818609E-02  0.8520190E-01
       -2   -1    0    0    0  501  0.00000000000E+00  0.00000000000E+00  0.12614694080E+04  0.12614694080E+04  0.25500000920E-02 0.  1.
        2   -1    0    0  501    0  0.00000000000E+00  0.00000000000E+00 -0.95551475716E+03  0.95551475716E+03  0.25500000920E-02 0. -1.
    10030    2    1    2    0    0  0.00000000000E+00  0.00000000000E+00  0.30595465086E+03  0.22169841652E+04  0.21957710583E+04 0.  0.
        5    1    3    3  502    0  0.11240809919E+01 -0.63071476577E+03  0.10602845608E+04  0.12337049158E+04  0.46999998093E+01 0.  1.
       -5    1    3    3    0  502 -0.11240809919E+01  0.63071476577E+03 -0.75432990994E+03  0.98327924942E+03  0.46999998093E+01 0. -1.
</event>
<event>
 5   0  0.4143281E-05  0.2149654E+04  0.7818609E-02  0.8539680E-01
       -2   -1    0    0    0  501  0.00000000000E+00  0.00000000000E+00  0.96523008095E+03  0.96523008095E+03  0.25500000920E-02 0.  1.
        2   -1    0    0  501    0  0.00000000000E+00  0.00000000000E+00 -0.11968678487E+04  0.11968678487E+04  0.25500000920E-02 0. -1.
    10030    2    1    2    0    0  0.00000000000E+00  0.00000000000E+00 -0.23163776774E+03  0.21620979296E+04  0.21496537865E+04 0.  0.
        2    1    3    3  502    0  0.37202649523E+03 -0.83723108472E+03 -0.68111631585E+03  0.11416124728E+04  0.25500000920E-02 0. -1.
       -2    1    3    3    0  502 -0.37202649523E+03  0.83723108472E+03  0.44947854811E+03  0.10204854568E+04  0.25500000920E-02 0.  1.
</event>
<event>
 5   0  0.1884407E-05  0.2200815E+04  0.7818609E-02  0.8518089E-01
        1   -1    0    0  501    0  0.00000000000E+00  0.00000000000E+00  0.11740903939E+04  0.11740903939E+04  0.50400001928E-02 0. -1.
       -1   -1    0    0    0  501  0.00000000000E+00  0.00000000000E+00 -0.10313492201E+04  0.10313492201E+04  0.50400001928E-02 0.  1.
    10030    2    1    2    0    0  0.00000000000E+00  0.00000000000E+00  0.14274117385E+03  0.22054396140E+04  0.22008154962E+04 0.  0.
        3    1    3    3  502    0 -0.29795550117E+03 -0.38142992232E+03  0.10616933786E+04  0.11668157981E+04  0.10100000352E+00 0. -1.
       -3    1    3    3    0  502  0.29795550117E+03  0.38142992232E+03 -0.91895220472E+03  0.10386238160E+04  0.10100000352E+00 0.  1.
</event>
<event>
 5   0  0.4143281E-05  0.2177001E+04  0.7818609E-02  0.8528062E-01
       -2   -1    0    0    0  501  0.00000000000E+00  0.00000000000E+00  0.97373180548E+03  0.97373180548E+03  0.25500000920E-02 0. -1.
        2   -1    0    0  501    0  0.00000000000E+00  0.00000000000E+00 -0.12167961717E+04  0.12167961717E+04  0.25500000920E-02 0.  1.
    10030    2    1    2    0    0  0.00000000000E+00  0.00000000000E+00 -0.24306436620E+03  0.21905279772E+04  0.21770008114E+04 0.  0.
        2    1    3    3  502    0  0.67657315420E+03 -0.83217761005E+03 -0.30859681832E+03  0.11160209693E+04  0.25500000920E-02 0.  1.
       -2    1    3    3    0  502 -0.67657315420E+03  0.83217761005E+03  0.65532452123E+02  0.10745070079E+04  0.25500000920E-02 0. -1.
</event>
<event>
 5   0  0.1786228E-05  0.2214309E+04  0.7818609E-02  0.8512496E-01
       -1   -1    0    0    0  501  0.00000000000E+00  0.00000000000E+00  0.79473078678E+03  0.79473078679E+03  0.50400001928E-02 0.  1.
        1   -1    0    0  501    0  0.00000000000E+00  0.00000000000E+00 -0.15423980795E+04  0.15423980795E+04  0.50400001928E-02 0. -1.
    10030    2    1    2    0    0  0.00000000000E+00  0.00000000000E+00 -0.74766729272E+03  0.23371288663E+04  0.22143091376E+04 0.  0.
        5    1    3    3  502    0 -0.63374474249E+03 -0.36270070246E+03  0.50454330755E+03  0.88756421592E+03  0.46999998093E+01 0.  1.
       -5    1    3    3    0  502  0.63374474249E+03  0.36270070246E+03 -0.12522106003E+04  0.14495646504E+04  0.46999998093E+01 0. -1.
</event>
<event>
 5   0  0.1866935E-05  0.2431378E+04  0.7818609E-02  0.8427849E-01
       -1   -1    0    0    0  501  0.00000000000E+00  0.00000000000E+00  0.13254505241E+04  0.13254505241E+04  0.50400001928E-02 0.  1.
        1   -1    0    0  501    0  0.00000000000E+00  0.00000000000E+00 -0.11150164897E+04  0.11150164897E+04  0.50400001928E-02 0. -1.
    10030    2    1    2    0    0  0.00000000000E+00  0.00000000000E+00  0.21043403437E+03  0.24404670139E+04  0.24313775443E+04 0.  0.
        4    1    3    3  502    0  0.41726191780E+03  0.11314030936E+04 -0.49362313020E+02  0.12069046023E+04  0.12699999809E+01 0.  1.
       -4    1    3    3    0  502 -0.41726191780E+03 -0.11314030936E+04  0.25979634739E+03  0.12335624116E+04  0.12699999809E+01 0. -1.
</event>
<event>
 5   0  0.4029532E-05  0.2177679E+04  0.7818609E-02  0.8527776E-01
        2   -1    0    0  501    0  0.00000000000E+00  0.00000000000E+00  0.12896294639E+04  0.12896294639E+04  0.25500000920E-02 0.  1.
       -2   -1    0    0    0  501  0.00000000000E+00  0.00000000000E+00 -0.91931186259E+03  0.91931186259E+03  0.25500000920E-02 0. -1.
    10030    2    1    2    0    0  0.00000000000E+00  0.00000000000E+00  0.37031760132E+03  0.22089413265E+04  0.21776791908E+04 0.  0.
        3    1    3    3  502    0  0.88360562763E+03 -0.21775586752E+03 -0.42124874290E+03  0.10028095715E+04  0.10100000352E+00 0. -1.
       -3    1    3    3    0  502 -0.88360562763E+03  0.21775586752E+03  0.79156634422E+03  0.12061317550E+04  0.10100000352E+00 0.  1.
</event>
<event>
 5   0  0.1884407E-05  0.2215426E+04  0.7818609E-02  0.8512035E-01
        1   -1    0    0  501    0  0.00000000000E+00  0.00000000000E+00  0.92958284863E+03  0.92958284864E+03  0.50400001928E-02 0.  1.
       -1   -1    0    0    0  501  0.00000000000E+00  0.00000000000E+00 -0.13199768075E+04  0.13199768075E+04  0.50400001928E-02 0. -1.
    10030    2    1    2    0    0  0.00000000000E+00  0.00000000000E+00 -0.39039395888E+03  0.22495596562E+04  0.22154257387E+04 0.  0.
        3    1    3    3  502    0 -0.31534551421E+03 -0.91085171067E+03  0.35904633986E+03  0.10285951179E+04  0.10100000352E+00 0.  1.
       -3    1    3    3    0  502  0.31534551421E+03  0.91085171067E+03 -0.74944029875E+03  0.12209645383E+04  0.10100000352E+00 0. -1.
</event>
<event>
 5   0  0.1815681E-05  0.2185926E+04  0.7818609E-02  0.8524309E-01
        1   -1    0    0  501    0  0.00000000000E+00  0.00000000000E+00  0.83730277893E+03  0.83730277895E+03  0.50400001928E-02 0. -1.
       -1   -1    0    0    0  501  0.00000000000E+00  0.00000000000E+00 -0.14266853086E+04  0.14266853087E+04  0.50400001928E-02 0.  1.
    10030    2    1    2    0    0  0.00000000000E+00  0.00000000000E+00 -0.58938252972E+03  0.22639880876E+04  0.21859255007E+04 0.  0.
        2    1    3    3  502    0 -0.35166290530E+03  0.10253566662E+04 -0.14989716669E+03  0.10942998915E+04  0.25500000920E-02 0. -1.
       -2    1    3    3    0  502  0.35166290530E+03 -0.10253566662E+04 -0.43948536303E+03  0.11696881961E+04  0.25500000920E-02 0.  1.
</event>
<event>
 5   0  0.1815681E-05  0.2204561E+04  0.7818609E-02  0.8516532E-01
        1   -1    0    0  501    0  0.00000000000E+00  0.00000000000E+00  0.10047833852E+04  0.10047833852E+04  0.50400001928E-02 0. -1.
       -1   -1    0    0    0  501  0.00000000000E+00  0.00000000000E+00 -0.12092383429E+04  0.12092383429E+04  0.50400001928E-02 0.  1.
    10030    2    1    2    0    0  0.00000000000E+00  0.00000000000E+00 -0.20445495769E+03  0.22140217282E+04  0.22045612677E+04 0.  0.
        2    1    3    3  502    0  0.10298143455E+04  0.17875262451E+03  0.24934980672E+03  0.10745442816E+04  0.25500000920E-02 0. -1.
       -2    1    3    3    0  502 -0.10298143455E+04 -0.17875262451E+03 -0.45380476440E+03  0.11394774466E+04  0.25500000920E-02 0.  1.
</event>
<event>
 5   0  0.4132460E-05  0.2204913E+04  0.7818609E-02  0.8516386E-01
        2   -1    0    0  501    0  0.00000000000E+00  0.00000000000E+00  0.17383415090E+04  0.17383415090E+04  0.25500000920E-02 0. -1.
       -2   -1    0    0    0  501  0.00000000000E+00  0.00000000000E+00 -0.69917818498E+03  0.69917818498E+03  0.25500000920E-02 0.  1.
    10030    2    1    2    0    0  0.00000000000E+00  0.00000000000E+00  0.10391633241E+04  0.24375196940E+04  0.22049131150E+04 0.  0.
        4    1    3    3  502    0 -0.12865573568E+03  0.84025483290E+03  0.12956581047E+04  0.15496167332E+04  0.12699999809E+01 0. -1.
       -4    1    3    3    0  502  0.12865573568E+03 -0.84025483290E+03 -0.25649478062E+03  0.88790296087E+03  0.12699999809E+01 0.  1.
</event>
<event>
 5   0  0.1788413E-05  0.2188915E+04  0.7818609E-02  0.8523056E-01
       -1   -1    0    0    0  501  0.00000000000E+00  0.00000000000E+00  0.12804792915E+04  0.12804792915E+04  0.50400001928E-02 0. -1.
        1   -1    0    0  501    0  0.00000000000E+00  0.00000000000E+00 -0.93545986853E+03  0.93545986854E+03  0.50400001928E-02 0.  1.
    10030    2    1    2    0    0  0.00000000000E+00  0.00000000000E+00  0.34501942292E+03  0.22159391600E+04  0.21889147902E+04 0.  0.
        1    1    3    3  502    0  0.59345000800E+01  0.92472392914E+03  0.76513210951E+03  0.12002402711E+04  0.50400001928E-02 0. -1.
       -1    1    3    3    0  502 -0.59345000800E+01 -0.92472392914E+03 -0.42011268659E+03  0.10156988889E+04  0.50400001928E-02 0.  1.
</event>
<event>
 5   0  0.1788413E-05  0.2196063E+04  0.7818609E-02  0.8520069E-01
        1   -1    0    0  501    0  0.00000000000E+00  0.00000000000E+00  0.17759213649E+04  0.17759213649E+04  0.50400001928E-02 0. -1.
       -1   -1    0    0    0  501  0.00000000000E+00  0.00000000000E+00 -0.67889999576E+03  0.67889999577E+03  0.50400001928E-02 0.  1.
    10030    2    1    2    0    0  0.00000000000E+00  0.00000000000E+00  0.10970213691E+04  0.24548213607E+04  0.21960628471E+04 0.  0.
        1    1    3    3  502    0  0.90583438079E+03 -0.63361803460E+02 -0.14158187595E+03  0.91901908097E+03  0.50400001928E-02 0.  1.
       -1    1    3    3    0  502 -0.90583438079E+03  0.63361803460E+02  0.12386032451E+04  0.15358022797E+04  0.50400001928E-02 0. -1.
</event>
<event>
 5   0  0.4027923E-05  0.2218337E+04  0.7818609E-02  0.8510834E-01
       -2   -1    0    0    0  501  0.00000000000E+00  0.00000000000E+00  0.12197201672E+04  0.12197201672E+04  0.25500000920E-02 0. -1.
        2   -1    0    0  501    0  0.00000000000E+00  0.00000000000E+00 -0.10086371912E+04  0.10086371912E+04  0.25500000920E-02 0.  1.
    10030    2    1    2    0    0  0.00000000000E+00  0.00000000000E+00  0.21108297605E+03  0.22283573584E+04  0.22183373264E+04 0.  0.
        5    1    3    3  502    0 -0.30786527510E+03 -0.10369430524E+04 -0.14092592616E+03  0.10908318515E+04  0.46999998093E+01 0. -1.
       -5    1    3    3    0  502  0.30786527510E+03  0.10369430524E+04  0.35200890220E+03  0.11375255069E+04  0.46999998093E+01 0.  1.
</event>
<event>
 5   0  0.3963414E-05  0.2205099E+04  0.7818609E-02  0.8516309E-01
       -2   -1    0    0    0  501  0.00000000000E+00  0.00000000000E+00  0.73678679834E+03  0.73678679835E+03  0.25500000920E-02 0.  1.
        2   -1    0    0  501    0  0.00000000000E+00  0.00000000000E+00 -0.16498874383E+04  0.16498874383E+04  0.25500000920E-02 0. -1.
    10030    2    1    2    0    0  0.00000000000E+00  0.00000000000E+00 -0.91310063997E+03  0.23866742367E+04  0.22050988942E+04 0.  0.
        1    1    3    3  502    0 -0.64868187825E+03  0.23511679691E+03 -0.13873324163E+04  0.15494383888E+04  0.50400001928E-02 0. -1.
       -1    1    3    3    0  502  0.64868187825E+03 -0.23511679691E+03  0.47423177628E+03  0.83723584790E+03  0.50400001928E-02 0.  1.
</event>
<event>
 5   0  0.3963414E-05  0.2174360E+04  0.7818609E-02  0.8529177E-01
       -2   -1    0    0    0  501  0.00000000000E+00  0.00000000000E+00  0.92805360907E+03  0.92805360908E+03  0.25500000920E-02 0. -1.
        2   -1    0    0  501    0  0.00000000000E+00  0.00000000000E+00 -0.12735900240E+04  0.12735900240E+04  0.25500000920E-02 0.  1.
    10030    2    1    2    0    0  0.00000000000E+00  0.00000000000E+00 -0.34553641492E+03  0.22016436331E+04  0.21743595087E+04 0.  0.
        1    1    3    3  502    0  0.56917380764E+03  0.90695975266E+03 -0.36334526329E+03  0.11307318854E+04  0.50400001928E-02 0. -1.
       -1    1    3    3    0  502 -0.56917380764E+03 -0.90695975266E+03  0.17808848363E+02  0.10709117477E+04  0.50400001928E-02 0.  1.
</event>
<event>
 5   0  0.1884407E-05  0.2167437E+04  0.7818609E-02  0.8532105E-01
       -1   -1    0    0    0  501  0.00000000000E+00  0.00000000000E+00  0.65130659194E+03  0.65130659196E+03  0.50400001928E-02 0.  1.
        1   -1    0    0  501    0  0.00000000000E+00  0.00000000000E+00 -0.18032152532E+04  0.18032152532E+04  0.50400001928E-02 0. -1.
    10030    2    1    2    0    0  0.00000000000E+00  0.00000000000E+00 -0.11519086613E+04  0.24545218452E+04  0.21674371789E+04 0.  0.
        3    1    3    3  502    0 -0.17171216552E+03  0.67880919267E+03  0.36075586543E+03  0.78766223249E+03  0.10100000352E+00 0.  1.
       -3    1    3    3    0  502  0.17171216552E+03 -0.67880919267E+03 -0.15126645267E+04  0.16668596127E+04  0.10100000352E+00 0. -1.
</event>
<event>
 5   0  0.4027923E-05  0.2157569E+04  0.7818609E-02  0.8536299E-01
        2   -1    0    0  501    0  0.00000000000E+00  0.00000000000E+00  0.27585273069E+04  0.27585273069E+04  0.25500000920E-02 0.  1.
       -2   -1    0    0    0  501  0.00000000000E+00  0.00000000000E+00 -0.42188319783E+03  0.42188319784E+03  0.25500000920E-02 0. -1.
    10030    2    1    2    0    0  0.00000000000E+00  0.00000000000E+00  0.23366441091E+04  0.31804105048E+04  0.21575693005E+04 0.  0.
        5    1    3    3  502    0 -0.48749608801E+03  0.21445340121E+03 -0.21456681650E+03  0.57419831579E+03  0.46999998093E+01 0. -1.
       -5    1    3    3    0  502  0.48749608801E+03 -0.21445340121E+03  0.25512109256E+04  0.26062121890E+04  0.46999998093E+01 0.  1.
</event>
<event>
 5   0  0.4143281E-05  0.2185807E+04  0.7818609E-02  0.8524359E-01
        2   -1    0    0  501    0  0.00000000000E+00  0.00000000000E+00  0.11839479921E+04  0.11839479921E+04  0.25500000920E-02 0. -1.
       -2   -1    0    0    0  501  0.00000000000E+00  0.00000000000E+00 -0.10088597847E+04  0.10088597848E+04  0.25500000920E-02 0.  1.
    10030    2    1    2    0    0  0.00000000000E+00  0.00000000000E+00  0.17508820731E+03  0.21928077768E+04  0.21858065023E+04 0.  0.
        2    1    3    3  502    0  0.94577426575E+03  0.38280059121E+03 -0.30538924192E+03  0.10650295036E+04  0.25500000920E-02 0.  1.
       -2    1    3    3    0  502 -0.94577426575E+03 -0.38280059121E+03  0.48047744923E+03  0.11277782732E+04  0.25500000920E-02 0. -1.
</event>
<event>
 5   0  0.1786228E-05  0.2197631E+04  0.7818609E-02  0.8519415E-01
        1   -1    0    0  501    0  0.00000000000E+00  0.00000000000E+00  0.19091834980E+04  0.19091834980E+04  0.50400001928E-02 0. -1.
       -1   -1    0    0    0  501  0.00000000000E+00  0.00000000000E+00 -0.63241461436E+03  0.63241461438E+03  0.50400001928E-02 0.  1.
    10030    2    1    2    0    0  0.00000000000E+00  0.00000000000E+00  0.12767688836E+04  0.25415981123E+04  0.21976310388E+04 0.  0.
        5    1    3    3  502    0  0.68549338825E+02  0.88645874111E+03 -0.10832216651E+03  0.89569185176E+03  0.46999998093E+01 0.  1.
       -5    1    3    3    0  502 -0.68549338825E+02 -0.88645874111E+03  0.13850910501E+04  0.16459062606E+04  0.46999998093E+01 0. -1.
</event>
<event>
 5   0  0.3963414E-05  0.2220088E+04  0.7818609E-02  0.8510113E-01
       -2   -1    0    0    0  501  0.00000000000E+00  0.00000000000E+00  0.55955720779E+03  0.55955720780E+03  0.25500000920E-02 0. -1.
        2   -1    0    0  501    0  0.00000000000E+00  0.00000000000E+00 -0.22020933365E+04  0.22020933365E+04  0.25500000920E-02 0.  1.
    10030    2    1    2    0    0  0.00000000000E+00  0.00000000000E+00 -0.16425361287E+04  0.27616505443E+04  0.22200875646E+04 0.  0.
        1    1    3    3  502    0 -0.58815103873E+03 -0.12887093937E+03 -0.19813143622E+04  0.20707814866E+04  0.50400001928E-02 0.  1.
       -1    1    3    3    0  502  0.58815103873E+03  0.12887093937E+03  0.33877823349E+03  0.69086905770E+03  0.50400001928E-02 0. -1.
</event>
<event>
 5   0  0.4132460E-05  0.2196697E+04  0.7818609E-02  0.8519804E-01
       -2   -1    0    0    0  501  0.00000000000E+00  0.00000000000E+00  0.12641388890E+04  0.12641388890E+04  0.25500000920E-02 0.  1.
        2   -1    0    0  501    0  0.00000000000E+00  0.00000000000E+00 -0.95430172890E+03  0.95430172890E+03  0.25500000920E-02 0. -1.
    10030    2    1    2    0    0  0.00000000000E+00  0.00000000000E+00  0.30983716012E+03  0.22184406179E+04  0.21966974551E+04 0.  0.
        4    1    3    3  502    0  0.24331526481E+03 -0.45515012464E+03  0.11340534005E+04  0.12459705784E+04  0.12699999809E+01 0.  1.
       -4    1    3    3    0  502 -0.24331526481E+03  0.45515012464E+03 -0.82421624037E+03  0.97247003956E+03  0.12699999809E+01 0. -1.
</event>
<event>
 5   0  0.3963414E-05  0.2198758E+04  0.7818609E-02  0.8518945E-01
       -2   -1    0    0    0  501  0.00000000000E+00  0.00000000000E+00  0.54218229845E+03  0.54218229846E+03  0.25500000920E-02 0.  1.
        2   -1    0    0  501    0  0.00000000000E+00  0.00000000000E+00 -0.22292031634E+04  0.22292031634E+04  0.25500000920E-02 0. -1.
    10030    2    1    2    0    0  0.00000000000E+00  0.00000000000E+00 -0.16870208650E+04  0.27713854619E+04  0.21987582813E+04 0.  0.
        1    1    3    3  502    0  0.23510560868E+02  0.19540041966E+03  0.51979729223E+03  0.55580868608E+03  0.50400001928E-02 0.  1.
       -1    1    3    3    0  502 -0.23510560868E+02 -0.19540041966E+03 -0.22068181572E+04  0.22155767758E+04  0.50400001928E-02 0. -1.
</event>
<event>
 5   0  0.4143281E-05  0.2213966E+04  0.7818609E-02  0.8512638E-01
        2   -1    0    0  501    0  0.00000000000E+00  0.00000000000E+00  0.97935092626E+03  0.97935092627E+03  0.25500000920E-02 0.  1.
       -2   -1    0    0    0  501  0.00000000000E+00  0.00000000000E+00 -0.12512480087E+04  0.12512480087E+04  0.25500000920E-02 0. -1.
    10030    2    1    2    0    0  0.00000000000E+00  0.00000000000E+00 -0.27189708247E+03  0.22305989350E+04  0.22139655791E+04 0.  0.
        2    1    3    3  502    0 -0.89992197672E+03  0.64448278369E+03 -0.12194180398E+03  0.11135921274E+04  0.25500000920E-02 0.  1.
       -2    1    3    3    0  502  0.89992197672E+03 -0.64448278369E+03 -0.14995527849E+03  0.11170068076E+04  0.25500000920E-02 0. -1.
</event>
<event>
 5   0  0.1815681E-05  0.2257348E+04  0.7818609E-02  0.8494930E-01
       -1   -1    0    0    0  501  0.00000000000E+00  0.00000000000E+00  0.84322447550E+03  0.84322447551E+03  0.50400001928E-02 0.  1.
        1   -1    0    0  501    0  0.00000000000E+00  0.00000000000E+00 -0.15107547393E+04  0.15107547393E+04  0.50400001928E-02 0. -1.
    10030    2    1    2    0    0  0.00000000000E+00  0.00000000000E+00 -0.66753026382E+03  0.23539792148E+04  0.22573483317E+04 0.  0.
        2    1    3    3  502    0 -0.39454143071E+03 -0.70547163880E+03 -0.11552379603E+04  0.14099389769E+04  0.25500000920E-02 0. -1.
       -2    1    3    3    0  502  0.39454143071E+03  0.70547163880E+03  0.48770769644E+03  0.94404023796E+03  0.25500000920E-02 0.  1.
</event>
<event>
 5   0  0.1815681E-05  0.2211424E+04  0.7818609E-02  0.8513688E-01
        1   -1    0    0  501    0  0.00000000000E+00  0.00000000000E+00  0.18165764325E+04  0.18165764326E+04  0.50400001928E-02 0.  1.
       -1   -1    0    0    0  501  0.00000000000E+00  0.00000000000E+00 -0.67302348119E+03  0.67302348121E+03  0.50400001928E-02 0. -1.
    10030    2    1    2    0    0  0.00000000000E+00  0.00000000000E+00  0.11435529513E+04  0.24895999138E+04  0.22114236089E+04 0.  0.
        2    1    3    3  502    0 -0.61125706096E+03 -0.43433410243E+03  0.14865928980E+04  0.16650044298E+04  0.25500000920E-02 0. -1.
       -2    1    3    3    0  502  0.61125706096E+03  0.43433410243E+03 -0.34303994662E+03  0.82459548392E+03  0.25500000920E-02 0.  1.
</event>
<event>
 5   0  0.3963414E-05  0.2182355E+04  0.7818609E-02  0.8525808E-01
       -2   -1    0    0    0  501  0.00000000000E+00  0.00000000000E+00  0.48151632769E+03  0.48151632770E+03  0.25500000920E-02 0.  1.
        2   -1    0    0  501    0  0.00000000000E+00  0.00000000000E+00 -0.24727471831E+04  0.24727471831E+04  0.25500000920E-02 0. -1.
    10030    2    1    2    0    0  0.00000000000E+00  0.00000000000E+00 -0.19912308554E+04  0.29542635108E+04  0.21823548226E+04 0.  0.
        1    1    3    3  502    0  0.82666776827E+03  0.35893982573E+03 -0.18283920979E+04  0.20384393691E+04  0.50400001928E-02 0. -1.
       -1    1    3    3    0  502 -0.82666776827E+03 -0.35893982573E+03 -0.16283875748E+03  0.91582414172E+03  0.50400001928E-02 0.  1.
</event>
<event>
 5   0  0.1788413E-05  0.2130253E+04  0.7818609E-02  0.8548033E-01
       -1   -1    0    0    0  501  0.00000000000E+00  0.00000000000E+00  0.12394572125E+04  0.12394572125E+04  0.50400001928E-02 0.  1.
        1   -1    0    0  501    0  0.00000000000E+00  0.00000000000E+00 -0.91531516876E+03  0.91531516877E+03  0.50400001928E-02 0. -1.
    10030    2    1    2    0    0  0.00000000000E+00  0.00000000000E+00  0.32414204377E+03  0.21547723813E+04  0.21302525556E+04 0.  0.
        1    1    3    3  502    0  0.73218600117E+03  0.68756527678E+03  0.52062486496E+03  0.11313233844E+04  0.50400001928E-02 0.  1.
       -1    1    3    3    0  502 -0.73218600117E+03 -0.68756527678E+03 -0.19648282119E+03  0.10234489969E+04  0.50400001928E-02 0. -1.
</event>
<event>
 5   0  0.1786228E-05  0.2181191E+04  0.7818609E-02  0.8526298E-01
       -1   -1    0    0    0  501  0.00000000000E+00  0.00000000000E+00  0.11819065585E+04  0.11819065585E+04  0.50400001928E-02 0. -1.
        1   -1    0    0  501    0  0.00000000000E+00  0.00000000000E+00 -0.10063390519E+04  0.10063390519E+04  0.50400001928E-02 0.  1.
    10030    2    1    2    0    0  0.00000000000E+00  0.00000000000E+00  0.17556750660E+03  0.21882456104E+04  0.21811911659E+04 0.  0.
        5    1    3    3  502    0 -0.44515895575E+03 -0.12383734026E+03 -0.90327479149E+03  0.10146081124E+04  0.46999998093E+01 0.  1.
       -5    1    3    3    0  502  0.44515895575E+03  0.12383734026E+03  0.10788422981E+04  0.11736374981E+04  0.46999998093E+01 0. -1.
</event>
<event>
 5   0  0.3963414E-05  0.2203298E+04  0.7818609E-02  0.8517056E-01
       -2   -1    0    0    0  501  0.00000000000E+00  0.00000000000E+00  0.67756606016E+03  0.67756606016E+03  0.25500000920E-02 0. -1.
        2   -1    0    0  501    0  0.00000000000E+00  0.00000000000E+00 -0.17911626560E+04  0.17911626560E+04  0.25500000920E-02 0.  1.
    10030    2    1    2    0    0  0.00000000000E+00  0.00000000000E+00 -0.11135965959E+04  0.24687287162E+04  0.22032984582E+04 0.  0.
        1    1    3    3  502    0  0.42203842992E+02 -0.41862836115E+03 -0.16975882122E+04  0.17489530032E+04  0.50400001928E-02 0.  1.
       -1    1    3    3    0  502 -0.42203842992E+02  0.41862836115E+03  0.58399161630E+03  0.71977571303E+03  0.50400001928E-02 0. -1.
</event>
<event>
 5   0  0.1866935E-05  0.2205389E+04  0.7818609E-02  0.8516188E-01
       -1   -1    0    0    0  501  0.00000000000E+00  0.00000000000E+00  0.13021322590E+04  0.13021322591E+04  0.50400001928E-02 0.  1.
        1   -1    0    0  501    0  0.00000000000E+00  0.00000000000E+00 -0.93380322844E+03  0.93380322845E+03  0.50400001928E-02 0. -1.
    10030    2    1    2    0    0  0.00000000000E+00  0.00000000000E+00  0.36832903061E+03  0.22359354875E+04  0.22053891334E+04 0.  0.
        4    1    3    3  502    0 -0.10633188364E+04 -0.32312392640E+02  0.47843050024E+03  0.11664426240E+04  0.12699999809E+01 0.  1.
       -4    1    3    3    0  502  0.10633188364E+04  0.32312392640E+02 -0.11010146963E+03  0.10694928635E+04  0.12699999809E+01 0. -1.
</event>
<event>
 5   0  0.4143281E-05  0.2201857E+04  0.7818609E-02  0.8517656E-01
        2   -1    0    0  501    0  0.00000000000E+00  0.00000000000E+00  0.24028015417E+04  0.24028015417E+04  0.25500000920E-02 0.  1.
       -2   -1    0    0    0  501  0.00000000000E+00  0.00000000000E+00 -0.50442921448E+03  0.50442921449E+03  0.25500000920E-02 0. -1.
    10030    2    1    2    0    0  0.00000000000E+00  0.00000000000E+00  0.18983723272E+04  0.29072307562E+04  0.22018567567E+04 0.  0.
        2    1    3    3  502    0 -0.21494611949E+03  0.52828571900E+03 -0.29416105340E+03  0.64173075392E+03  0.25500000920E-02 0. -1.
       -2    1    3    3    0  502  0.21494611949E+03 -0.52828571900E+03  0.21925333806E+04  0.22655000023E+04  0.25500000920E-02 0.  1.
</event>
<event>
 5   0  0.1866935E-05  0.2195501E+04  0.7818609E-02  0.8520303E-01
       -1   -1    0    0    0  501  0.00000000000E+00  0.00000000000E+00  0.70499794533E+03  0.70499794535E+03  0.50400001928E-02 0. -1.
        1   -1    0    0  501    0  0.00000000000E+00  0.00000000000E+00 -0.17093039993E+04  0.17093039994E+04  0.50400001928E-02 0.  1.
    10030    2    1    2    0    0  0.00000000000E+00  0.00000000000E+00 -0.10043060540E+04  0.24143019447E+04  0.21955006787E+04 0.  0.
        4    1    3    3  502    0  0.55965400087E+03 -0.63477461225E+03 -0.12710519709E+04  0.15269990618E+04  0.12699999809E+01 0.  1.
       -4    1    3    3    0  502 -0.55965400087E+03  0.63477461225E+03  0.26674591685E+03  0.88730288296E+03  0.12699999809E+01 0. -1.
</event>
<event>
 5   0  0.1788413E-05  0.2204420E+04  0.7818609E-02  0.8516591E-01
        1   -1    0    0  501    0  0.00000000000E+00  0.00000000000E+00  0.71207250682E+03  0.71207250684E+03  0.50400001928E-02 0.  1.
       -1   -1    0    0    0  501  0.00000000000E+00  0.00000000000E+00 -0.17061002705E+04  0.17061002705E+04  0.50400001928E-02 0. -1.
    10030    2    1    2    0    0  0.00000000000E+00  0.00000000000E+00 -0.99402776365E+03  0.24181727773E+04  0.22044201927E+04 0.  0.
        1    1    3    3  502    0  0.74581228066E+03 -0.29948785744E+03  0.33040510000E+03  0.86896286737E+03  0.50400001928E-02 0.  1.
       -1    1    3    3    0  502 -0.74581228066E+03  0.29948785744E+03 -0.13244328636E+04  0.15492099099E+04  0.50400001928E-02 0. -1.
</event>
<event>
 5   0  0.4027923E-05  0.2188265E+04  0.7818609E-02  0.8523329E-01
        2   -1    0    0  501    0  0.00000000000E+00  0.00000000000E+00  0.96879517209E+03  0.96879517209E+03  0.25500000920E-02 0. -1.
       -2   -1    0    0    0  501  0.00000000000E+00  0.00000000000E+00 -0.12356849183E+04  0.12356849183E+04  0.25500000920E-02 0.  1.
    10030    2    1    2    0    0  0.00000000000E+00  0.00000000000E+00 -0.26688974618E+03  0.22044800904E+04  0.21882646851E+04 0.  0.
        5    1    3    3  502    0 -0.97064850349E+03 -0.50076421385E+03 -0.68311479096E+02  0.10943545419E+04  0.46999998093E+01 0. -1.
       -5    1    3    3    0  502  0.97064850349E+03  0.50076421385E+03 -0.19857826708E+03  0.11101255485E+04  0.46999998093E+01 0.  1.
</event>
<event>
 5   0  0.1884407E-05  0.2209626E+04  0.7818609E-02  0.8514432E-01
        1   -1    0    0  501    0  0.00000000000E+00  0.00000000000E+00  0.29090816779E+04  0.29090816779E+04  0.50400001928E-02 0.  1.
       -1   -1    0    0    0  501  0.00000000000E+00  0.00000000000E+00 -0.41958664496E+03  0.41958664499E+03  0.50400001928E-02 0. -1.
    10030    2    1    2    0    0  0.00000000000E+00  0.00000000000E+00  0.24894950329E+04  0.33286683229E+04  0.22096260509E+04 0.  0.
        3    1    3    3  502    0 -0.95010773223E+03  0.53525780129E+03  0.15117156335E+04  0.18639983325E+04  0.10100000352E+00 0.  1.
       -3    1    3    3    0  502  0.95010773223E+03 -0.53525780129E+03  0.97777939942E+03  0.14646699904E+04  0.10100000352E+00 0. -1.
</event>
<event>
 5   0  0.1884407E-05  0.2207650E+04  0.7818609E-02  0.8515251E-01
       -1   -1    0    0    0  501  0.00000000000E+00  0.00000000000E+00  0.22678260022E+04  0.22678260022E+04  0.50400001928E-02 0. -1.
        1   -1    0    0  501    0  0.00000000000E+00  0.00000000000E+00 -0.53726766604E+03  0.53726766606E+03  0.50400001928E-02 0.  1.
    10030    2    1    2    0    0  0.00000000000E+00  0.00000000000E+00  0.17305583361E+04  0.28050936682E+04  0.22076499571E+04 0.  0.
        3    1    3    3  502    0 -0.90508456944E+03  0.22278732146E+03  0.11397877715E+03  0.93904389689E+03  0.10100000352E+00 0.  1.
       -3    1    3    3    0  502  0.90508456944E+03 -0.22278732146E+03  0.16165795590E+04  0.18660497714E+04  0.10100000352E+00 0. -1.
</event>
<event>
 5   0  0.4143281E-05  0.2187615E+04  0.7818609E-02  0.8523601E-01
        2   -1    0    0  501    0  0.00000000000E+00  0.00000000000E+00  0.10659262306E+04  0.10659262306E+04  0.25500000920E-02 0. -1.
       -2   -1    0    0    0  501  0.00000000000E+00  0.00000000000E+00 -0.11224178710E+04  0.11224178710E+04  0.25500000920E-02 0.  1.
    10030    2    1    2    0    0  0.00000000000E+00  0.00000000000E+00 -0.56491640451E+02  0.21883441016E+04  0.21876148202E+04 0.  0.
        2    1    3    3  502    0  0.33546518973E+03  0.75033255776E+03  0.69371412079E+03  0.10755348075E+04  0.25500000920E-02 0. -1.
       -2    1    3    3    0  502 -0.33546518973E+03 -0.75033255776E+03 -0.75020576124E+03  0.11128092941E+04  0.25500000920E-02 0.  1.
</event>
<event>
 5   0  0.4132460E-05  0.2204928E+04  0.7818609E-02  0.8516380E-01
       -2   -1    0    0    0  501  0.00000000000E+00  0.00000000000E+00  0.85071325987E+03  0.85071325987E+03  0.25500000920E-02 0.  1.
        2   -1    0    0  501    0  0.00000000000E+00  0.00000000000E+00 -0.14287156895E+04  0.14287156895E+04  0.25500000920E-02 0. -1.
    10030    2    1    2    0    0  0.00000000000E+00  0.00000000000E+00 -0.57800242965E+03  0.22794289494E+04  0.22049284629E+04 0.  0.
        4    1    3    3  502    0 -0.23085101711E+03 -0.64298785434E+02 -0.14014645176E+04  0.14218055186E+04  0.12699999809E+01 0. -1.
       -4    1    3    3    0  502  0.23085101711E+03  0.64298785434E+02  0.82346208790E+03  0.85762343078E+03  0.12699999809E+01 0.  1.
</event>
<event>
 5   0  0.1884407E-05  0.2195208E+04  0.7818609E-02  0.8520425E-01
        1   -1    0    0  501    0  0.00000000000E+00  0.00000000000E+00  0.11129663665E+04  0.11129663665E+04  0.50400001928E-02 0.  1.
       -1   -1    0    0    0  501  0.00000000000E+00  0.00000000000E+00 -0.10824535149E+04  0.10824535149E+04  0.50400001928E-02 0. -1.
    10030    2    1    2    0    0  0.00000000000E+00  0.00000000000E+00  0.30512851592E+02  0.21954198813E+04  0.21952078310E+04 0.  0.
        3    1    3    3  502    0  0.93768548884E+03 -0.30843374980E+03 -0.46473669422E+03  0.10910387982E+04  0.10100000352E+00 0. -1.
       -3    1    3    3    0  502 -0.93768548884E+03  0.30843374980E+03  0.49524954581E+03  0.11043810832E+04  0.10100000352E+00 0.  1.
</event>
<event>
 5   0  0.4143281E-05  0.2133107E+04  0.7818609E-02  0.8546798E-01
        2   -1    0    0  501    0  0.00000000000E+00  0.00000000000E+00  0.11381616326E+04  0.11381616326E+04  0.25500000920E-02 0. -1.
       -2   -1    0    0    0  501  0.00000000000E+00  0.00000000000E+00 -0.99945097328E+03  0.99945097328E+03  0.25500000920E-02 0.  1.
    10030    2    1    2    0    0  0.00000000000E+00  0.00000000000E+00  0.13871065931E+03  0.21376126059E+04  0.21331073592E+04 0.  0.
        2    1    3    3  502    0 -0.80939952301E+03  0.67591360752E+03 -0.90825813805E+02  0.10584120753E+04  0.25500000920E-02 0.  1.
       -2    1    3    3    0  502  0.80939952301E+03 -0.67591360752E+03  0.22953647312E+03  0.10792005306E+04  0.25500000920E-02 0. -1.
</event>
<event>
 5   0  0.4132460E-05  0.2207658E+04  0.7818609E-02  0.8515247E-01
        2   -1    0    0  501    0  0.00000000000E+00  0.00000000000E+00  0.12639628082E+04  0.12639628082E+04  0.25500000920E-02 0.  1.
       -2   -1    0    0    0  501  0.00000000000E+00  0.00000000000E+00 -0.96398310714E+03  0.96398310714E+03  0.25500000920E-02 0. -1.
    10030    2    1    2    0    0  0.00000000000E+00  0.00000000000E+00  0.29997970105E+03  0.22279459153E+04  0.22076583025E+04 0.  0.
        4    1    3    3  502    0 -0.60763611699E+03  0.63079178748E+03  0.82796497069E+03  0.12052582858E+04  0.12699999809E+01 0.  1.
       -4    1    3    3    0  502  0.60763611699E+03 -0.63079178748E+03 -0.52798526964E+03  0.10226876296E+04  0.12699999809E+01 0. -1.
</event>
<event>
 5   0  0.4029532E-05  0.2211080E+04  0.7818609E-02  0.8513831E-01
       -2   -1    0    0    0  501  0.00000000000E+00  0.00000000000E+00  0.82380006072E+03  0.82380006072E+03  0.25500000920E-02 0.  1.
        2   -1    0    0  501    0  0.00000000000E+00  0.00000000000E+00 -0.14836345539E+04  0.14836345539E+04  0.25500000920E-02 0. -1.
    10030    2    1    2    0    0  0.00000000000E+00  0.00000000000E+00 -0.65983449318E+03  0.23074346146E+04  0.22110795875E+04 0.  0.
        3    1    3    3  502    0 -0.50805727404E+03  0.47624451675E+03 -0.12259902079E+04  0.14099585219E+04  0.10100000352E+00 0. -1.
       -3    1    3    3    0  502  0.50805727404E+03 -0.47624451675E+03  0.56615571474E+03  0.89747609270E+03  0.10100000352E+00 0.  1.
</event>
<event>
 5   0  0.1884407E-05  0.2200238E+04  0.7818609E-02  0.8518329E-01
       -1   -1    0    0    0  501  0.00000000000E+00  0.00000000000E+00  0.10389830947E+04  0.10389830947E+04  0.50400001928E-02 0.  1.
        1   -1    0    0  501    0  0.00000000000E+00  0.00000000000E+00 -0.11648523961E+04  0.11648523961E+04  0.50400001928E-02 0. -1.
    10030    2    1    2    0    0  0.00000000000E+00  0.00000000000E+00 -0.12586930145E+03  0.22038354908E+04  0.22002381211E+04 0.  0.
        3    1    3    3  502    0 -0.72188146239E+03 -0.79500699783E+03 -0.30230857546E+03  0.11155892870E+04  0.10100000352E+00 0.  1.
       -3    1    3    3    0  502  0.72188146239E+03  0.79500699783E+03  0.17643927402E+03  0.10882462037E+04  0.10100000352E+00 0. -1.
</event>
<event>
 5   0  0.4143281E-05  0.2199864E+04  0.7818609E-02  0.8518485E-01
       -2   -1    0    0    0  501  0.00000000000E+00  0.00000000000E+00  0.60634947234E+03  0.60634947235E+03  0.25500000920E-02 0.  1.
        2   -1    0    0  501    0  0.00000000000E+00  0.00000000000E+00 -0.19953023961E+04  0.19953023961E+04  0.25500000920E-02 0. -1.
    10030    2    1    2    0    0  0.00000000000E+00  0.00000000000E+00 -0.13889529238E+04  0.26016518685E+04  0.21998641368E+04 0.  0.
        2    1    3    3  502    0 -0.88303522743E+03  0.38804631307E+03 -0.69218398300E+02  0.96701723905E+03  0.25500000920E-02 0.  1.
       -2    1    3    3    0  502  0.88303522743E+03 -0.38804631307E+03 -0.13197345255E+04  0.16346346294E+04  0.25500000920E-02 0. -1.
</event>
<event>
 5   0  0.1786228E-05  0.2195753E+04  0.7818609E-02  0.8520198E-01
       -1   -1    0    0    0  501  0.00000000000E+00  0.00000000000E+00  0.10455587986E+04  0.10455587987E+04  0.50400001928E-02 0.  1.
        1   -1    0    0  501    0  0.00000000000E+00  0.00000000000E+00 -0.11528116226E+04  0.11528116227E+04  0.50400001928E-02 0. -1.
    10030    2    1    2    0    0  0.00000000000E+00  0.00000000000E+00 -0.10725282400E+03  0.21983704213E+04  0.21957525683E+04 0.  0.
        5    1    3    3  502    0 -0.10513324239E+04  0.27327945569E+03 -0.21296614428E+03  0.11069589853E+04  0.46999998093E+01 0. -1.
       -5    1    3    3    0  502  0.10513324239E+04 -0.27327945569E+03  0.10571332028E+03  0.10914114360E+04  0.46999998093E+01 0.  1.
</event>
<event>
 5   0  0.1866935E-05  0.2195815E+04  0.7818609E-02  0.8520172E-01
       -1   -1    0    0    0  501  0.00000000000E+00  0.00000000000E+00  0.59107397716E+03  0.59107397718E+03  0.50400001928E-02 0. -1.
        1   -1    0    0  501    0  0.00000000000E+00  0.00000000000E+00 -0.20393401770E+04  0.20393401770E+04  0.50400001928E-02 0.  1.
    10030    2    1    2    0    0  0.00000000000E+00  0.00000000000E+00 -0.14482661998E+04  0.26304141541E+04  0.21958150279E+04 0.  0.
        4    1    3    3  502    0 -0.54312551362E+03 -0.28825517813E+03 -0.18137301258E+04  0.19151226993E+04  0.12699999809E+01 0.  1.
       -4    1    3    3    0  502  0.54312551362E+03  0.28825517813E+03  0.36546392600E+03  0.71529145484E+03  0.12699999809E+01 0. -1.
</event>
<event>
 5   0  0.4143281E-05  0.2204791E+04  0.7818609E-02  0.8516437E-01
        2   -1    0    0  501    0  0.00000000000E+00  0.00000000000E+00  0.16900551940E+04  0.16900551940E+04  0.25500000920E-02 0. -1.
       -2   -1    0    0    0  501  0.00000000000E+00  0.00000000000E+00 -0.71907472105E+03  0.71907472106E+03  0.25500000920E-02 0.  1.
    10030    2    1    2    0    0  0.00000000000E+00  0.00000000000E+00  0.97098047298E+03  0.24091299151E+04  0.22047911168E+04 0.  0.
        2    1    3    3  502    0  0.31365422243E+03 -0.19032007135E+03  0.16213909593E+04  0.16623806254E+04  0.25500000920E-02 0. -1.
       -2    1    3    3    0  502 -0.31365422243E+03  0.19032007135E+03 -0.65041048637E+03  0.74674928965E+03  0.25500000920E-02 0.  1.
</event>
<event>
 5   0  0.1786228E-05  0.2205856E+04  0.7818609E-02  0.8515995E-01
        1   -1    0    0  501    0  0.00000000000E+00  0.00000000000E+00  0.18291195635E+04  0.18291195635E+04  0.50400001928E-02 0. -1.
       -1   -1    0    0    0  501  0.00000000000E+00  0.00000000000E+00 -0.66504690623E+03  0.66504690625E+03  0.50400001928E-02 0.  1.
    10030    2    1    2    0    0  0.00000000000E+00  0.00000000000E+00  0.11640726573E+04  0.24941664698E+04  0.22058561212E+04 0.  0.
        5    1    3    3  502    0 -0.52027619772E+03 -0.82683210624E+02 -0.51358111358E+03  0.73573873451E+03  0.46999998093E+01 0.  1.
       -5    1    3    3    0  502  0.52027619772E+03  0.82683210624E+02  0.16776537709E+04  0.17584277353E+04  0.46999998093E+01 0. -1.
</event>
<event>
 5   0  0.1884407E-05  0.2046238E+04  0.7818609E-02  0.8585303E-01
       -1   -1    0    0    0  501  0.00000000000E+00  0.00000000000E+00  0.92578565404E+03  0.92578565405E+03  0.50400001928E-02 0. -1.
        1   -1    0    0  501    0  0.00000000000E+00  0.00000000000E+00 -0.11306858447E+04  0.11306858447E+04  0.50400001928E-02 0.  1.
    10030    2    1    2    0    0  0.00000000000E+00  0.00000000000E+00 -0.20490019068E+03  0.20564714988E+04  0.20462382406E+04 0.  0.
        3    1    3    3  502    0  0.98651031216E+03 -0.27014253093E+03 -0.77973810661E+02  0.10257970113E+04  0.10100000352E+00 0.  1.
       -3    1    3    3    0  502 -0.98651031216E+03  0.27014253093E+03 -0.12692638002E+03  0.10306744875E+04  0.10100000352E+00 0. -1.
</event>
<event>
 5   0  0.1884407E-05  0.2035048E+04  0.7818609E-02  0.8590408E-01
       -1   -1    0    0    0  501  0.00000000000E+00  0.00000000000E+00  0.14108057939E+04  0.14108057939E+04  0.50400001928E-02 0. -1.
        1   -1    0    0  501    0  0.00000000000E+00  0.00000000000E+00 -0.73387500004E+03  0.73387500005E+03  0.50400001928E-02 0.  1.
    10030    2    1    2    0    0  0.00000000000E+00  0.00000000000E+00  0.67693079385E+03  0.21446807940E+04  0.20350480113E+04 0.  0.
        3    1    3    3  502    0  0.88562903596E+03  0.87743054675E+02  0.85831131608E+03  0.12364206236E+04  0.10100000352E+00 0. -1.
       -3    1    3    3    0  502 -0.88562903596E+03 -0.87743054675E+02 -0.18138052223E+03  0.90826017034E+03  0.10100000352E+00 0.  1.
</event>
<event>
 5   0  0.1815681E-05  0.2178483E+04  0.7818609E-02  0.8527438E-01
        1   -1    0    0  501    0  0.00000000000E+00  0.00000000000E+00  0.12923771896E+04  0.12923771896E+04  0.50400001928E-02 0.  1.
       -1   -1    0    0    0  501  0.00000000000E+00  0.00000000000E+00 -0.91803430389E+03  0.91803430390E+03  0.50400001928E-02 0. -1.
    10030    2    1    2    0    0  0.00000000000E+00  0.00000000000E+00  0.37434288570E+03  0.22104114935E+04  0.21784825853E+04 0.  0.
        2    1    3    3  502    0  0.71983131651E+03 -0.76220960860E+03  0.48701227636E+03  0.11559851076E+04  0.25500000920E-02 0.  1.
       -2    1    3    3    0  502 -0.71983131651E+03  0.76220960860E+03 -0.11266939065E+03  0.10544263859E+04  0.25500000920E-02 0. -1.
</event>
<event>
 5   0  0.4027923E-05  0.2196739E+04  0.7818609E-02  0.8519787E-01
       -2   -1    0    0    0  501  0.00000000000E+00  0.00000000000E+00  0.13301017486E+04  0.13301017486E+04  0.25500000920E-02 0.  1.
        2   -1    0    0  501    0  0.00000000000E+00  0.00000000000E+00 -0.90700969574E+03  0.90700969575E+03  0.25500000920E-02 0. -1.
    10030    2    1    2    0    0  0.00000000000E+00  0.00000000000E+00  0.42309205281E+03  0.22371114443E+04  0.21967386574E+04 0.  0.
        5    1    3    3  502    0 -0.35949536247E+03 -0.86788665939E+03 -0.36806159897E+03  0.10089378573E+04  0.46999998093E+01 0.  1.
       -5    1    3    3    0  502  0.35949536247E+03  0.86788665939E+03  0.79115365178E+03  0.12281735870E+04  0.46999998093E+01 0. -1.
</event>
<event>
 5   0  0.1866935E-05  0.2184016E+04  0.7818609E-02  0.8525110E-01
        1   -1    0    0  501    0  0.00000000000E+00  0.00000000000E+00  0.80679504388E+03  0.80679504389E+03  0.50400001928E-02 0.  1.
       -1   -1    0    0    0  501  0.00000000000E+00  0.00000000000E+00 -0.14780481315E+04  0.14780481315E+04  0.50400001928E-02 0. -1.
    10030    2    1    2    0    0  0.00000000000E+00  0.00000000000E+00 -0.67125308759E+03  0.22848431754E+04  0.21840163984E+04 0.  0.
        4    1    3    3  502    0  0.27553823282E+03  0.75710178651E+03 -0.11067833216E+04  0.13689760286E+04  0.12699999809E+01 0. -1.
       -4    1    3    3    0  502 -0.27553823282E+03 -0.75710178651E+03  0.43553023406E+03  0.91586714678E+03  0.12699999809E+01 0.  1.
</event>
<event>
 5   0  0.1884407E-05  0.2182946E+04  0.7818609E-02  0.8525560E-01
        1   -1    0    0  501    0  0.00000000000E+00  0.00000000000E+00  0.12630699359E+04  0.12630699359E+04  0.50400001928E-02 0.  1.
       -1   -1    0    0    0  501  0.00000000000E+00  0.00000000000E+00 -0.94318852686E+03  0.94318852687E+03  0.50400001928E-02 0. -1.
    10030    2    1    2    0    0  0.00000000000E+00  0.00000000000E+00  0.31988140906E+03  0.22062584628E+04  0.21829457824E+04 0.  0.
        3    1    3    3  502    0 -0.33023540171E+03  0.97630167213E+03  0.52307248468E+03  0.11557790489E+04  0.10100000352E+00 0.  1.
       -3    1    3    3    0  502  0.33023540171E+03 -0.97630167213E+03 -0.20319107562E+03  0.10504794139E+04  0.10100000352E+00 0. -1.
</event>
<event>
 5   0  0.4143281E-05  0.2200945E+04  0.7818609E-02  0.8518035E-01
        2   -1    0    0  501    0  0.00000000000E+00  0.00000000000E+00  0.74609880171E+03  0.74609880172E+03  0.25500000920E-02 0. -1.
       -2   -1    0    0    0  501  0.00000000000E+00  0.00000000000E+00 -0.16231629521E+04  0.16231629521E+04  0.25500000920E-02 0.  1.
    10030    2    1    2    0    0  0.00000000000E+00  0.00000000000E+00 -0.87706415034E+03  0.23692617538E+04  0.22009451911E+04 0.  0.
        2    1    3    3  502    0 -0.40015995329E+03  0.10858615767E+03  0.65879697144E+03  0.77841659247E+03  0.25500000920E-02 0. -1.
       -2    1    3    3    0  502  0.40015995329E+03 -0.10858615767E+03 -0.15358611218E+04  0.15908451613E+04  0.25500000920E-02 0.  1.
</event>
<event>
 5   0  0.1815681E-05  0.2108818E+04  0.7818609E-02  0.8557369E-01
        1   -1    0    0  501    0  0.00000000000E+00  0.00000000000E+00  0.11371841062E+04  0.11371841062E+04  0.50400001928E-02 0. -1.
       -1   -1    0    0    0  501  0.00000000000E+00  0.00000000000E+00 -0.97765924009E+03  0.97765924010E+03  0.50400001928E-02 0.  1.
    10030    2    1    2    0    0  0.00000000000E+00  0.00000000000E+00  0.15952486615E+03  0.21148433464E+04  0.21088181991E+04 0.  0.
        2    1    3    3  502    0  0.10241103110E+04 -0.21618751414E+03  0.20756113506E+03  0.10670616642E+04  0.25500000920E-02 0. -1.
       -2    1    3    3    0  502 -0.10241103110E+04  0.21618751414E+03 -0.48036268909E+02  0.10477816822E+04  0.25500000920E-02 0.  1.
</event>
<event>
 5   0  0.4027923E-05  0.2204473E+04  0.7818609E-02  0.8516569E-01
       -2   -1    0    0    0  501  0.00000000000E+00  0.00000000000E+00  0.66710032900E+03  0.66710032900E+03  0.25500000920E-02 0.  1.
        2   -1    0    0  501    0  0.00000000000E+00  0.00000000000E+00 -0.18212029348E+04  0.18212029348E+04  0.25500000920E-02 0. -1.
    10030    2    1    2    0    0  0.00000000000E+00  0.00000000000E+00 -0.11541026058E+04  0.24883032638E+04  0.22044727959E+04 0.  0.
        5    1    3    3  502    0 -0.60641017252E+03 -0.82411432930E+03 -0.10397092296E+04  0.14587375012E+04  0.46999998093E+01 0. -1.
       -5    1    3    3    0  502  0.60641017252E+03  0.82411432930E+03 -0.11439337616E+03  0.10295657626E+04  0.46999998093E+01 0.  1.
</event>
<event>
 5   0  0.1788413E-05  0.2222441E+04  0.7818609E-02  0.8509146E-01
       -1   -1    0    0    0  501  0.00000000000E+00  0.00000000000E+00  0.60727866579E+03  0.60727866582E+03  0.50400001928E-02 0.  1.
        1   -1    0    0  501    0  0.00000000000E+00  0.00000000000E+00 -0.20333507692E+04  0.20333507692E+04  0.50400001928E-02 0. -1.
    10030    2    1    2    0    0  0.00000000000E+00  0.00000000000E+00 -0.14260721034E+04  0.26406294351E+04  0.22224405884E+04 0.  0.
        1    1    3    3  502    0 -0.45685043928E+03 -0.48288988260E+03 -0.17710484955E+04  0.18916944087E+04  0.50400001928E-02 0. -1.
       -1    1    3    3    0  502  0.45685043928E+03  0.48288988260E+03  0.34497639204E+03  0.74893502634E+03  0.50400001928E-02 0.  1.
</event>
<event>
 5   0  0.4029532E-05  0.2188165E+04  0.7818609E-02  0.8523370E-01
       -2   -1    0    0    0  501  0.00000000000E+00  0.00000000000E+00  0.65857104289E+03  0.65857104289E+03  0.25500000920E-02 0. -1.
        2   -1    0    0  501    0  0.00000000000E+00  0.00000000000E+00 -0.18175974068E+04  0.18175974068E+04  0.25500000920E-02 0.  1.
    10030    2    1    2    0    0  0.00000000000E+00  0.00000000000E+00 -0.11590263639E+04  0.24761684497E+04  0.21881654597E+04 0.  0.
        3    1    3    3  502    0  0.20728957385E+03 -0.65005686114E+03 -0.15473441398E+04  0.16910992837E+04  0.10100000352E+00 0.  1.
       -3    1    3    3    0  502 -0.20728957385E+03  0.65005686114E+03  0.38831777588E+03  0.78506916600E+03  0.10100000352E+00 0. -1.
</event>
<event>
 5   0  0.4027923E-05  0.2194775E+04  0.7818609E-02  0.8520606E-01
        2   -1    0    0  501    0  0.00000000000E+00  0.00000000000E+00  0.10459882073E+04  0.10459882073E+04  0.25500000920E-02 0.  1.
       -2   -1    0    0    0  501  0.00000000000E+00  0.00000000000E+00 -0.11513121324E+04  0.11513121324E+04  0.25500000920E-02 0. -1.
    10030    2    1    2    0    0  0.00000000000E+00  0.00000000000E+00 -0.10532392513E+03  0.21973003397E+04  0.21947746248E+04 0.  0.
        5    1    3    3  502    0 -0.49724334717E+03  0.84621238208E+03 -0.54405312366E+03  0.11222041852E+04  0.46999998093E+01 0.  1.
       -5    1    3    3    0  502  0.49724334717E+03 -0.84621238208E+03  0.43872919853E+03  0.10750961546E+04  0.46999998093E+01 0. -1.
</event>
<event>
 5   0  0.1788413E-05  0.2225472E+04  0.7818609E-02  0.8507900E-01
        1   -1    0    0  501    0  0.00000000000E+00  0.00000000000E+00  0.20686511872E+04  0.20686511872E+04  0.50400001928E-02 0. -1.
       -1   -1    0    0    0  501  0.00000000000E+00  0.00000000000E+00 -0.59854542260E+03  0.59854542262E+03  0.50400001928E-02 0.  1.
    10030    2    1    2    0    0  0.00000000000E+00  0.00000000000E+00  0.14701057646E+04  0.26671966099E+04  0.22254722637E+04 0.  0.
        1    1    3    3  502    0 -0.53657351580E+03  0.69905306481E+03  0.15493137586E+04  0.17824027177E+04  0.50400001928E-02 0. -1.
       -1    1    3    3    0  502  0.53657351580E+03 -0.69905306481E+03 -0.79207994018E+02  0.88479389217E+03  0.50400001928E-02 0.  1.
</event>
<event>
 5   0  0.4143281E-05  0.2194210E+04  0.7818609E-02  0.8520842E-01
       -2   -1    0    0    0  501  0.00000000000E+00  0.00000000000E+00  0.63385673959E+03  0.63385673960E+03  0.25500000920E-02 0. -1.
        2   -1    0    0  501    0  0.00000000000E+00  0.00000000000E+00 -0.18989138529E+04  0.18989138529E+04  0.25500000920E-02 0.  1.
    10030    2    1    2    0    0  0.00000000000E+00  0.00000000000E+00 -0.12650571133E+04  0.25327705925E+04  0.21942099659E+04 0.  0.
        2    1    3    3  502    0  0.13412589515E+03 -0.88276277251E+03 -0.13683688315E+04  0.16339195596E+04  0.25500000920E-02 0.  1.
       -2    1    3    3    0  502 -0.13412589515E+03  0.88276277251E+03  0.10331171814E+03  0.89885103293E+03  0.25500000920E-02 0. -1.
</event>
<event>
 5   0  0.4027923E-05  0.2155888E+04  0.7818609E-02  0.8537016E-01
       -2   -1    0    0    0  501  0.00000000000E+00  0.00000000000E+00  0.90868041870E+03  0.90868041870E+03  0.25500000920E-02 0. -1.
        2   -1    0    0  501    0  0.00000000000E+00  0.00000000000E+00 -0.12787375594E+04  0.12787375594E+04  0.25500000920E-02 0.  1.
    10030    2    1    2    0    0  0.00000000000E+00  0.00000000000E+00 -0.37005714068E+03  0.21874179781E+04  0.21558884766E+04 0.  0.
        5    1    3    3  502    0  0.23854284020E+02  0.10745134416E+04 -0.10140029072E+03  0.10795611479E+04  0.46999998093E+01 0. -1.
       -5    1    3    3    0  502 -0.23854284020E+02 -0.10745134416E+04 -0.26865684997E+03  0.11078568302E+04  0.46999998093E+01 0.  1.
</event>
<event>
 5   0  0.1815681E-05  0.2192936E+04  0.7818609E-02  0.8521374E-01
        1   -1    0    0  501    0  0.00000000000E+00  0.00000000000E+00  0.20740898918E+04  0.20740898918E+04  0.50400001928E-02 0.  1.
       -1   -1    0    0    0  501  0.00000000000E+00  0.00000000000E+00 -0.57964777723E+03  0.57964777726E+03  0.50400001928E-02 0. -1.
    10030    2    1    2    0    0  0.00000000000E+00  0.00000000000E+00  0.14944421146E+04  0.26537376691E+04  0.21929355628E+04 0.  0.
        2    1    3    3  502    0 -0.21274593627E+03 -0.10711086805E+04  0.62799431764E+03  0.12597267568E+04  0.25500000920E-02 0. -1.
       -2    1    3    3    0  502  0.21274593627E+03  0.10711086805E+04  0.86644779693E+03  0.13940109123E+04  0.25500000920E-02 0.  1.
</event>
<event>
 5   0  0.4027923E-05  0.2199696E+04  0.7818609E-02  0.8518555E-01
       -2   -1    0    0    0  501  0.00000000000E+00  0.00000000000E+00  0.47491697266E+03  0.47491697267E+03  0.25500000920E-02 0. -1.
        2   -1    0    0  501    0  0.00000000000E+00  0.00000000000E+00 -0.25471097121E+04  0.25471097121E+04  0.25500000920E-02 0.  1.
    10030    2    1    2    0    0  0.00000000000E+00  0.00000000000E+00 -0.20721927394E+04  0.30220266847E+04  0.21996960095E+04 0.  0.
        5    1    3    3  502    0 -0.32184409005E+03 -0.23477669355E+03  0.37229888694E+03  0.54528182195E+03  0.46999998093E+01 0. -1.
       -5    1    3    3    0  502  0.32184409005E+03  0.23477669355E+03 -0.24444916263E+04  0.24767448628E+04  0.46999998093E+01 0.  1.
</event>
<event>
 5   0  0.1866935E-05  0.2206478E+04  0.7818609E-02  0.8515737E-01
        1   -1    0    0  501    0  0.00000000000E+00  0.00000000000E+00  0.15426127681E+04  0.15426127681E+04  0.50400001928E-02 0.  1.
       -1   -1    0    0    0  501  0.00000000000E+00  0.00000000000E+00 -0.78900927241E+03  0.78900927243E+03  0.50400001928E-02 0. -1.
    10030    2    1    2    0    0  0.00000000000E+00  0.00000000000E+00  0.75360349569E+03  0.23316220405E+04  0.22064775347E+04 0.  0.
        4    1    3    3  502    0  0.91895400173E+03 -0.30643567280E+03 -0.18111562654E+03  0.98548656101E+03  0.12699999809E+01 0. -1.
       -4    1    3    3    0  502 -0.91895400173E+03  0.30643567280E+03  0.93471912223E+03  0.13461354795E+04  0.12699999809E+01 0.  1.
</event>
<event>
 5   0  0.1786228E-05  0.2190759E+04  0.7818609E-02  0.8522284E-01
        1   -1    0    0  501    0  0.00000000000E+00  0.00000000000E+00  0.19673017538E+04  0.19673017538E+04  0.50400001928E-02 0. -1.
       -1   -1    0    0    0  501  0.00000000000E+00  0.00000000000E+00 -0.60989948027E+03  0.60989948029E+03  0.50400001928E-02 0.  1.
    10030    2    1    2    0    0  0.00000000000E+00  0.00000000000E+00  0.13574022736E+04  0.25772012341E+04  0.21907590623E+04 0.  0.
        5    1    3    3  502    0  0.82241696047E+03  0.72254041910E+03  0.72271649632E+03  0.13117833427E+04  0.46999998093E+01 0.  1.
       -5    1    3    3    0  502 -0.82241696047E+03 -0.72254041910E+03  0.63468577724E+03  0.12654178914E+04  0.46999998093E+01 0. -1.
</event>
<event>
 5   0  0.1786228E-05  0.2196624E+04  0.7818609E-02  0.8519835E-01
       -1   -1    0    0    0  501  0.00000000000E+00  0.00000000000E+00  0.76879090353E+03  0.76879090355E+03  0.50400001928E-02 0.  1.
        1   -1    0    0  501    0  0.00000000000E+00  0.00000000000E+00 -0.15690729850E+04  0.15690729850E+04  0.50400001928E-02 0. -1.
    10030    2    1    2    0    0  0.00000000000E+00  0.00000000000E+00 -0.80028208146E+03  0.23378638886E+04  0.21966238075E+04 0.  0.
        5    1    3    3  502    0 -0.15048930889E+03  0.82938477235E+03 -0.11495016749E+04  0.14254481132E+04  0.46999998093E+01 0. -1.
       -5    1    3    3    0  502  0.15048930889E+03 -0.82938477235E+03  0.34921959347E+03  0.91241577537E+03  0.46999998093E+01 0.  1.
</event>
<event>
 5   0  0.1433375E-05  0.2189568E+04  0.7818609E-02  0.8522783E-01
       -3   -1    0    0    0  501  0.00000000000E+00  0.00000000000E+00  0.11706243475E+04  0.11706243519E+04  0.10100000352E+00 0. -1.
        3   -1    0    0  501    0  0.00000000000E+00  0.00000000000E+00 -0.10238571180E+04  0.10238571230E+04  0.10100000352E+00 0.  1.
    10030    2    1    2    0    0  0.00000000000E+00  0.00000000000E+00  0.14676722949E+03  0.21944814749E+04  0.21895680679E+04 0.  0.
        2    1    3    3  502    0  0.38931946427E+03 -0.62698024320E+03 -0.73705831292E+03  0.10430382674E+04  0.25500000920E-02 0.  1.
       -2    1    3    3    0  502 -0.38931946427E+03  0.62698024320E+03  0.88382554241E+03  0.11514432075E+04  0.25500000920E-02 0. -1.
</event>
<event>
 5   0  0.4029532E-05  0.2233510E+04  0.7818609E-02  0.8504608E-01
       -2   -1    0    0    0  501  0.00000000000E+00  0.00000000000E+00  0.56298157377E+03  0.56298157378E+03  0.25500000920E-02 0. -1.
        2   -1    0    0  501    0  0.00000000000E+00  0.00000000000E+00 -0.22152447558E+04  0.22152447558E+04  0.25500000920E-02 0.  1.
    10030    2    1    2    0    0  0.00000000000E+00  0.00000000000E+00 -0.16522631820E+04  0.27782263296E+04  0.22335102229E+04 0.  0.
        3    1    3    3  502    0  0.14008795345E+03  0.10144283160E+04 -0.13802569092E+04  0.17186618598E+04  0.10100000352E+00 0.  1.
       -3    1    3    3    0  502 -0.14008795345E+03 -0.10144283160E+04 -0.27200627288E+03  0.10595644698E+04  0.10100000352E+00 0. -1.
</event>
<event>
 5   0  0.1786228E-05  0.2207211E+04  0.7818609E-02  0.8515433E-01
        1   -1    0    0  501    0  0.00000000000E+00  0.00000000000E+00  0.12677822843E+04  0.12677822844E+04  0.50400001928E-02 0.  1.
       -1   -1    0    0    0  501  0.00000000000E+00  0.00000000000E+00 -0.96068907938E+03  0.96068907940E+03  0.50400001928E-02 0. -1.
    10030    2    1    2    0    0  0.00000000000E+00  0.00000000000E+00  0.30709320496E+03  0.22284713638E+04  0.22072105433E+04 0.  0.
        5    1    3    3  502    0 -0.62922995404E+03 -0.17268341648E+03 -0.74506745116E+03  0.99040269293E+03  0.46999998093E+01 0.  1.
       -5    1    3    3    0  502  0.62922995404E+03  0.17268341648E+03  0.10521606561E+04  0.12380686708E+04  0.46999998093E+01 0. -1.
</event>
<event>
 5   0  0.1786228E-05  0.2215110E+04  0.7818609E-02  0.8512165E-01
       -1   -1    0    0    0  501  0.00000000000E+00  0.00000000000E+00  0.97423996306E+03  0.97423996308E+03  0.50400001928E-02 0. -1.
        1   -1    0    0  501    0  0.00000000000E+00  0.00000000000E+00 -0.12591133868E+04  0.12591133869E+04  0.50400001928E-02 0.  1.
    10030    2    1    2    0    0  0.00000000000E+00  0.00000000000E+00 -0.28487342378E+03  0.22333533499E+04  0.22151104528E+04 0.  0.
        5    1    3    3  502    0  0.75390275143E+03 -0.10305317018E+02  0.67552825208E+03  0.10123418729E+04  0.46999998093E+01 0. -1.
       -5    1    3    3    0  502 -0.75390275143E+03  0.10305317018E+02 -0.96040167586E+03  0.12210114771E+04  0.46999998093E+01 0.  1.
</event>
<event>
 5   0  0.4029532E-05  0.2196004E+04  0.7818609E-02  0.8520093E-01
        2   -1    0    0  501    0  0.00000000000E+00  0.00000000000E+00  0.10107364795E+04  0.10107364795E+04  0.25500000920E-02 0. -1.
       -2   -1    0    0    0  501  0.00000000000E+00  0.00000000000E+00 -0.11928020028E+04  0.11928020028E+04  0.25500000920E-02 0.  1.
    10030    2    1    2    0    0  0.00000000000E+00  0.00000000000E+00 -0.18206552330E+03  0.22035384824E+04  0.21960040958E+04 0.  0.
        3    1    3    3  502    0  0.61109282335E+03  0.34033756413E+03 -0.94030792953E+03  0.11719398913E+04  0.10100000352E+00 0.  1.
       -3    1    3    3    0  502 -0.61109282335E+03 -0.34033756413E+03  0.75824240623E+03  0.10315985911E+04  0.10100000352E+00 0. -1.
</event>
<event>
 5   0  0.3963414E-05  0.2201158E+04  0.7818609E-02  0.8517946E-01
        2   -1    0    0  501    0  0.00000000000E+00  0.00000000000E+00  0.16488519116E+04  0.16488519116E+04  0.25500000920E-02 0.  1.
       -2   -1    0    0    0  501  0.00000000000E+00  0.00000000000E+00 -0.73461694172E+03  0.73461694173E+03  0.25500000920E-02 0. -1.
    10030    2    1    2    0    0  0.00000000000E+00  0.00000000000E+00  0.91423496988E+03  0.23834688533E+04  0.22011583756E+04 0.  0.
        1    1    3    3  502    0  0.85861929818E+03 -0.52700710271E+03  0.93688458863E+03  0.13757602691E+04  0.50400001928E-02 0.  1.
       -1    1    3    3    0  502 -0.85861929818E+03  0.52700710271E+03 -0.22649618750E+02  0.10077085843E+04  0.50400001928E-02 0. -1.
</event>
<event>
 5   0  0.4132460E-05  0.2168429E+04  0.7818609E-02  0.8531685E-01
        2   -1    0    0  501    0  0.00000000000E+00  0.00000000000E+00  0.14268240800E+04  0.14268240800E+04  0.25500000920E-02 0.  1.
       -2   -1    0    0    0  501  0.00000000000E+00  0.00000000000E+00 -0.82387249472E+03  0.82387249473E+03  0.25500000920E-02 0. -1.
    10030    2    1    2    0    0  0.00000000000E+00  0.00000000000E+00  0.60295158529E+03  0.22506965747E+04  0.21684290298E+04 0.  0.
        4    1    3    3  502    0  0.37662534876E+03  0.97216123741E+03  0.61038314205E+03  0.12081031901E+04  0.12699999809E+01 0.  1.
       -4    1    3    3    0  502 -0.37662534876E+03 -0.97216123741E+03 -0.74315567587E+01  0.10425933847E+04  0.12699999809E+01 0. -1.
</event>
<event>
 5   0  0.1815681E-05  0.2191594E+04  0.7818609E-02  0.8521935E-01
       -1   -1    0    0    0  501  0.00000000000E+00  0.00000000000E+00  0.73628992012E+03  0.73628992014E+03  0.50400001928E-02 0. -1.
        1   -1    0    0  501    0  0.00000000000E+00  0.00000000000E+00 -0.16308397469E+04  0.16308397469E+04  0.50400001928E-02 0.  1.
    10030    2    1    2    0    0  0.00000000000E+00  0.00000000000E+00 -0.89454982675E+03  0.23671296670E+04  0.21915938191E+04 0.  0.
        2    1    3    3  502    0 -0.34138406032E+03 -0.40973774332E+03  0.58665466761E+03  0.79283781063E+03  0.25500000920E-02 0. -1.
       -2    1    3    3    0  502  0.34138406032E+03  0.40973774332E+03 -0.14812044944E+04  0.15742918564E+04  0.25500000920E-02 0.  1.
</event>
<event>
 5   0  0.4027923E-05  0.2197122E+04  0.7818609E-02  0.8519627E-01
       -2   -1    0    0    0  501  0.00000000000E+00  0.00000000000E+00  0.11417376557E+04  0.11417376557E+04  0.25500000920E-02 0.  1.
        2   -1    0    0  501    0  0.00000000000E+00  0.00000000000E+00 -0.10570170338E+04  0.10570170338E+04  0.25500000920E-02 0. -1.
    10030    2    1    2    0    0  0.00000000000E+00  0.00000000000E+00  0.84720621827E+02  0.21987546895E+04  0.21971218903E+04 0.  0.
        5    1    3    3  502    0  0.37386979711E+02 -0.94207201351E+03 -0.52189964043E+03  0.10776357407E+04  0.46999998093E+01 0. -1.
       -5    1    3    3    0  502 -0.37386979711E+02  0.94207201351E+03  0.60662026225E+03  0.11211189488E+04  0.46999998093E+01 0.  1.
</event>
<event>
 5   0  0.1866935E-05  0.2211887E+04  0.7818609E-02  0.8513497E-01
       -1   -1    0    0    0  501  0.00000000000E+00  0.00000000000E+00  0.84938272988E+03  0.84938272990E+03  0.50400001928E-02 0. -1.
        1   -1    0    0  501    0  0.00000000000E+00  0.00000000000E+00 -0.14400001822E+04  0.14400001823E+04  0.50400001928E-02 0.  1.
    10030    2    1    2    0    0  0.00000000000E+00  0.00000000000E+00 -0.59061745237E+03  0.22893829122E+04  0.22118872357E+04 0.  0.
        4    1    3    3  502    0 -0.75512563615E+03  0.53129232399E+03  0.33480926543E+03  0.98213294264E+03  0.12699999809E+01 0. -1.
       -4    1    3    3    0  502  0.75512563615E+03 -0.53129232399E+03 -0.92542671779E+03  0.13072499695E+04  0.12699999809E+01 0.  1.
</event>
<event>
 5   0  0.3963414E-05  0.2201821E+04  0.7818609E-02  0.8517671E-01
        2   -1    0    0  501    0  0.00000000000E+00  0.00000000000E+00  0.69875195383E+03  0.69875195383E+03  0.25500000920E-02 0. -1.
       -2   -1    0    0    0  501  0.00000000000E+00  0.00000000000E+00 -0.17345260507E+04  0.17345260507E+04  0.25500000920E-02 0.  1.
    10030    2    1    2    0    0  0.00000000000E+00  0.00000000000E+00 -0.10357740969E+04  0.24332780046E+04  0.22018205803E+04 0.  0.
        1    1    3    3  502    0 -0.64668660644E+03  0.13898689842E+03 -0.14904452933E+04  0.16306281296E+04  0.50400001928E-02 0.  1.
       -1    1    3    3    0  502  0.64668660644E+03 -0.13898689842E+03  0.45467119637E+03  0.80264987493E+03  0.50400001928E-02 0. -1.
</event>
<event>
 5   0  0.4027923E-05  0.2171340E+04  0.7818609E-02  0.8530453E-01
        2   -1    0    0  501    0  0.00000000000E+00  0.00000000000E+00  0.15933621974E+04  0.15933621974E+04  0.25500000920E-02 0. -1.
       -2   -1    0    0    0  501  0.00000000000E+00  0.00000000000E+00 -0.73974322722E+03  0.73974322723E+03  0.25500000920E-02 0.  1.
    10030    2    1    2    0    0  0.00000000000E+00  0.00000000000E+00  0.85361897017E+03  0.23331054246E+04  0.21713395810E+04 0.  0.
        5    1    3    3  502    0 -0.28284451204E+03 -0.10461366371E+04  0.35672830552E+03  0.11409119403E+04  0.46999998093E+01 0.  1.
       -5    1    3    3    0  502  0.28284451204E+03  0.10461366371E+04  0.49689066464E+03  0.11921934843E+04  0.46999998093E+01 0. -1.
</event>
<event>
 5   0  0.4143281E-05  0.2205945E+04  0.7818609E-02  0.8515958E-01
       -2   -1    0    0    0  501  0.00000000000E+00  0.00000000000E+00  0.87780336484E+03  0.87780336485E+03  0.25500000920E-02 0. -1.
        2   -1    0    0  501    0  0.00000000000E+00  0.00000000000E+00 -0.13859012822E+04  0.13859012822E+04  0.25500000920E-02 0.  1.
    10030    2    1    2    0    0  0.00000000000E+00  0.00000000000E+00 -0.50809791732E+03  0.22637046470E+04  0.22059454289E+04 0.  0.
        2    1    3    3  502    0 -0.73824722558E+03 -0.62877251708E+03 -0.79334224498E+03  0.12528989432E+04  0.25500000920E-02 0.  1.
       -2    1    3    3    0  502  0.73824722558E+03  0.62877251708E+03  0.28524432766E+03  0.10108057038E+04  0.25500000920E-02 0. -1.
</event>
<event>
 5   0  0.1788413E-05  0.2208840E+04  0.7818609E-02  0.8514758E-01
       -1   -1    0    0    0  501  0.00000000000E+00  0.00000000000E+00  0.10960512508E+04  0.10960512508E+04  0.50400001928E-02 0.  1.
        1   -1    0    0  501    0  0.00000000000E+00  0.00000000000E+00 -0.11128521972E+04  0.11128521972E+04  0.50400001928E-02 0. -1.
    10030    2    1    2    0    0  0.00000000000E+00  0.00000000000E+00 -0.16800946439E+02  0.22089034480E+04  0.22088395529E+04 0.  0.
        1    1    3    3  502    0 -0.41793839497E+03  0.13802017225E+03  0.10045557612E+04  0.10967471666E+04  0.50400001928E-02 0.  1.
       -1    1    3    3    0  502  0.41793839497E+03 -0.13802017225E+03 -0.10213567077E+04  0.11121562814E+04  0.50400001928E-02 0. -1.
</event>
<event>
 5   0  0.1866935E-05  0.2202567E+04  0.7818609E-02  0.8517361E-01
        1   -1    0    0  501    0  0.00000000000E+00  0.00000000000E+00  0.18349288800E+04  0.18349288800E+04  0.50400001928E-02 0. -1.
       -1   -1    0    0    0  501  0.00000000000E+00  0.00000000000E+00 -0.66096562797E+03  0.66096562799E+03  0.50400001928E-02 0.  1.
    10030    2    1    2    0    0  0.00000000000E+00  0.00000000000E+00  0.11739632521E+04  0.24958945080E+04  0.22025666115E+04 0.  0.
        4    1    3    3  502    0  0.84975460208E+03  0.33602806957E+02 -0.20592651839E+03  0.87499678643E+03  0.12699999809E+01 0.  1.
       -4    1    3    3    0  502 -0.84975460208E+03 -0.33602806957E+02  0.13798897704E+04  0.16208977216E+04  0.12699999809E+01 0. -1.
</event>
<event>
 5   0  0.4143281E-05  0.2096889E+04  0.7818609E-02  0.8562615E-01
       -2   -1    0    0    0  501  0.00000000000E+00  0.00000000000E+00  0.13738288845E+04  0.13738288845E+04  0.25500000920E-02 0.  1.
        2   -1    0    0  501    0  0.00000000000E+00  0.00000000000E+00 -0.80012571151E+03  0.80012571152E+03  0.25500000920E-02 0. -1.
    10030    2    1    2    0    0  0.00000000000E+00  0.00000000000E+00  0.57370317302E+03  0.21739545961E+04  0.20968889467E+04 0.  0.
        2    1    3    3  502    0  0.25254359571E+03 -0.10099574909E+04  0.15801278481E+03  0.10529769424E+04  0.25500000920E-02 0. -1.
       -2    1    3    3    0  502 -0.25254359571E+03  0.10099574909E+04  0.41569038821E+03  0.11209776536E+04  0.25500000920E-02 0.  1.
</event>
<event>
 5   0  0.4027923E-05  0.2194547E+04  0.7818609E-02  0.8520701E-01
        2   -1    0    0  501    0  0.00000000000E+00  0.00000000000E+00  0.12834622178E+04  0.12834622178E+04  0.25500000920E-02 0. -1.
       -2   -1    0    0    0  501  0.00000000000E+00  0.00000000000E+00 -0.93809439527E+03  0.93809439527E+03  0.25500000920E-02 0.  1.
    10030    2    1    2    0    0  0.00000000000E+00  0.00000000000E+00  0.34536782252E+03  0.22215566131E+04  0.21945466166E+04 0.  0.
        5    1    3    3  502    0  0.36894290482E+03  0.59766648126E+03 -0.68069967268E+03  0.97810951546E+03  0.46999998093E+01 0.  1.
       -5    1    3    3    0  502 -0.36894290482E+03 -0.59766648126E+03  0.10260674952E+04  0.12434470976E+04  0.46999998093E+01 0. -1.
</event>
<event>
 5   0  0.1866935E-05  0.2196072E+04  0.7818609E-02  0.8520065E-01
        1   -1    0    0  501    0  0.00000000000E+00  0.00000000000E+00  0.96214812782E+03  0.96214812783E+03  0.50400001928E-02 0.  1.
       -1   -1    0    0    0  501  0.00000000000E+00  0.00000000000E+00 -0.12531161003E+04  0.12531161003E+04  0.50400001928E-02 0. -1.
    10030    2    1    2    0    0  0.00000000000E+00  0.00000000000E+00 -0.29096797251E+03  0.22152642282E+04  0.21960722300E+04 0.  0.
        4    1    3    3  502    0 -0.13057109009E+02  0.12653262354E+03 -0.12456577049E+04  0.12521364636E+04  0.12699999809E+01 0. -1.
       -4    1    3    3    0  502  0.13057109009E+02 -0.12653262354E+03  0.95468973235E+03  0.96312776456E+03  0.12699999809E+01 0.  1.
</event>
<event>
 5   0  0.1815681E-05  0.2200723E+04  0.7818609E-02  0.8518127E-01
        1   -1    0    0  501    0  0.00000000000E+00  0.00000000000E+00  0.10516065077E+04  0.10516065077E+04  0.50400001928E-02 0.  1.
       -1   -1    0    0    0  501  0.00000000000E+00  0.00000000000E+00 -0.11513768716E+04  0.11513768716E+04  0.50400001928E-02 0. -1.
    10030    2    1    2    0    0  0.00000000000E+00  0.00000000000E+00 -0.99770363912E+02  0.22029833793E+04  0.22007229822E+04 0.  0.
        2    1    3    3  502    0  0.24545706187E+03 -0.10312879561E+04  0.24536079297E+03  0.10881203685E+04  0.25500000920E-02 0.  1.
       -2    1    3    3    0  502 -0.24545706187E+03  0.10312879561E+04 -0.34513115688E+03  0.11148630109E+04  0.25500000920E-02 0. -1.
</event>
<event>
 5   0  0.4132460E-05  0.2151926E+04  0.7818609E-02  0.8538708E-01
       -2   -1    0    0    0  501  0.00000000000E+00  0.00000000000E+00  0.11851058009E+04  0.11851058009E+04  0.25500000920E-02 0. -1.
        2   -1    0    0  501    0  0.00000000000E+00  0.00000000000E+00 -0.97687219934E+03  0.97687219934E+03  0.25500000920E-02 0.  1.
    10030    2    1    2    0    0  0.00000000000E+00  0.00000000000E+00  0.20823360155E+03  0.21619780002E+04  0.21519264952E+04 0.  0.
        4    1    3    3  502    0  0.98454165579E+03  0.97338056460E+02  0.52905617939E+03  0.11219175652E+04  0.12699999809E+01 0. -1.
       -4    1    3    3    0  502 -0.98454165579E+03 -0.97338056460E+02 -0.32082257784E+03  0.10400604351E+04  0.12699999809E+01 0.  1.
</event>
<event>
 5   0  0.1786228E-05  0.2198238E+04  0.7818609E-02  0.8519162E-01
       -1   -1    0    0    0  501  0.00000000000E+00  0.00000000000E+00  0.56531677222E+03  0.56531677225E+03  0.50400001928E-02 0.  1.
        1   -1    0    0  501    0  0.00000000000E+00  0.00000000000E+00 -0.21369663752E+04  0.21369663752E+04  0.50400001928E-02 0. -1.
    10030    2    1    2    0    0  0.00000000000E+00  0.00000000000E+00 -0.15716496030E+04  0.27022831475E+04  0.21982383252E+04 0.  0.
        5    1    3    3  502    0  0.13027638153E+03  0.95651923625E+03 -0.13984248925E+03  0.97543784871E+03  0.46999998093E+01 0.  1.
       -5    1    3    3    0  502 -0.13027638153E+03 -0.95651923625E+03 -0.14318071137E+04  0.17268452988E+04  0.46999998093E+01 0. -1.
</event>
<event>
 5   0  0.4132460E-05  0.2210529E+04  0.7818609E-02  0.8514059E-01
        2   -1    0    0  501    0  0.00000000000E+00  0.00000000000E+00  0.85641852546E+03  0.85641852546E+03  0.25500000920E-02 0.  1.
       -2   -1    0    0    0  501  0.00000000000E+00  0.00000000000E+00 -0.14264161909E+04  0.14264161909E+04  0.25500000920E-02 0. -1.
    10030    2    1    2    0    0  0.00000000000E+00  0.00000000000E+00 -0.56999766543E+03  0.22828347164E+04  0.22105286706E+04 0.  0.
        4    1    3    3  502    0 -0.10197567518E+03  0.99166838513E+03  0.20789964514E+03  0.10183462573E+04  0.12699999809E+01 0. -1.
       -4    1    3    3    0  502  0.10197567518E+03 -0.99166838513E+03 -0.77789731057E+03  0.12644884591E+04  0.12699999809E+01 0.  1.
</event>
<event>
 5   0  0.4132460E-05  0.2263645E+04  0.7818609E-02  0.8492395E-01
        2   -1    0    0  501    0  0.00000000000E+00  0.00000000000E+00  0.12285115293E+04  0.12285115293E+04  0.25500000920E-02 0. -1.
       -2   -1    0    0    0  501  0.00000000000E+00  0.00000000000E+00 -0.10427433520E+04  0.10427433520E+04  0.25500000920E-02 0.  1.
    10030    2    1    2    0    0  0.00000000000E+00  0.00000000000E+00  0.18576817729E+03  0.22712548812E+04  0.22636450516E+04 0.  0.
        4    1    3    3  502    0  0.84140543949E+02  0.99531722866E+03  0.62691823643E+03  0.11793066204E+04  0.12699999809E+01 0. -1.
       -4    1    3    3    0  502 -0.84140543949E+02 -0.99531722866E+03 -0.44115005914E+03  0.10919482609E+04  0.12699999809E+01 0.  1.
</event>
<event>
 5   0  0.4029532E-05  0.2195822E+04  0.7818609E-02  0.8520169E-01
       -2   -1    0    0    0  501  0.00000000000E+00  0.00000000000E+00  0.47898099140E+03  0.47898099141E+03  0.25500000920E-02 0. -1.
        2   -1    0    0  501    0  0.00000000000E+00  0.00000000000E+00 -0.25166111899E+04  0.25166111900E+04  0.25500000920E-02 0.  1.
    10030    2    1    2    0    0  0.00000000000E+00  0.00000000000E+00 -0.20376301986E+04  0.29955921814E+04  0.21958223268E+04 0.  0.
        3    1    3    3  502    0  0.10593524537E+04 -0.90420973558E+02 -0.64519383948E+03  0.12436553680E+04  0.10100000352E+00 0. -1.
       -3    1    3    3    0  502 -0.10593524537E+04  0.90420973558E+02 -0.13924363591E+04  0.17519368133E+04  0.10100000352E+00 0.  1.
</event>
<event>
 5   0  0.1815681E-05  0.2357572E+04  0.7818609E-02  0.8455561E-01
        1   -1    0    0  501    0  0.00000000000E+00  0.00000000000E+00  0.57403782883E+03  0.57403782886E+03  0.50400001928E-02 0. -1.
       -1   -1    0    0    0  501  0.00000000000E+00  0.00000000000E+00 -0.24206366065E+04  0.24206366065E+04  0.50400001928E-02 0.  1.
    10030    2    1    2    0    0  0.00000000000E+00  0.00000000000E+00 -0.18465987776E+04  0.29946744353E+04  0.23575724651E+04 0.  0.
        2    1    3    3  502    0 -0.24934186108E+03 -0.61917959857E+02 -0.23846410047E+04  0.23984407265E+04  0.25500000920E-02 0.  1.
       -2    1    3    3    0  502  0.24934186108E+03  0.61917959857E+02  0.53804222704E+03  0.59623370881E+03  0.25500000920E-02 0. -1.
</event>
<event>
 5   0  0.1788413E-05  0.2189382E+04  0.7818609E-02  0.8522860E-01
        1   -1    0    0  501    0  0.00000000000E+00  0.00000000000E+00  0.16048333392E+04  0.16048333392E+04  0.50400001928E-02 0. -1.
       -1   -1    0    0    0  501  0.00000000000E+00  0.00000000000E+00 -0.74671238242E+03  0.74671238244E+03  0.50400001928E-02 0.  1.
    10030    2    1    2    0    0  0.00000000000E+00  0.00000000000E+00  0.85812095675E+03  0.23515457216E+04  0.21893824939E+04 0.  0.
        1    1    3    3  502    0 -0.13828901753E+03  0.46076146749E+03  0.14852161691E+04  0.15611829013E+04  0.50400001928E-02 0. -1.
       -1    1    3    3    0  502  0.13828901753E+03 -0.46076146749E+03 -0.62709521238E+03  0.79036282030E+03  0.50400001928E-02 0.  1.
</event>
<event>
 5   0  0.1786228E-05  0.2103184E+04  0.7818609E-02  0.8559842E-01
        1   -1    0    0  501    0  0.00000000000E+00  0.00000000000E+00  0.20887847945E+04  0.20887847945E+04  0.50400001928E-02 0. -1.
       -1   -1    0    0    0  501  0.00000000000E+00  0.00000000000E+00 -0.52942048389E+03  0.52942048392E+03  0.50400001928E-02 0.  1.
    10030    2    1    2    0    0  0.00000000000E+00  0.00000000000E+00  0.15593643106E+04  0.26182052785E+04  0.21031837359E+04 0.  0.
        5    1    3    3  502    0 -0.19178821231E+02  0.87644390474E+03  0.56686489501E+02  0.87849712204E+03  0.46999998093E+01 0.  1.
       -5    1    3    3    0  502  0.19178821231E+02 -0.87644390474E+03  0.15026778211E+04  0.17397081564E+04  0.46999998093E+01 0. -1.
</event>
<event>
 5   0  0.3963414E-05  0.2197736E+04  0.7818609E-02  0.8519371E-01
       -2   -1    0    0    0  501  0.00000000000E+00  0.00000000000E+00  0.50545037080E+03  0.50545037080E+03  0.25500000920E-02 0. -1.
        2   -1    0    0  501    0  0.00000000000E+00  0.00000000000E+00 -0.23889803649E+04  0.23889803649E+04  0.25500000920E-02 0.  1.
    10030    2    1    2    0    0  0.00000000000E+00  0.00000000000E+00 -0.18835299941E+04  0.28944307357E+04  0.21977361182E+04 0.  0.
        1    1    3    3  502    0 -0.97834146281E+03  0.14162510455E+03 -0.15737922891E+04  0.18585025847E+04  0.50400001928E-02 0.  1.
       -1    1    3    3    0  502  0.97834146281E+03 -0.14162510455E+03 -0.30973770497E+03  0.10359281510E+04  0.50400001928E-02 0. -1.
</event>
<event>
 5   0  0.4027923E-05  0.2221628E+04  0.7818609E-02  0.8509480E-01
        2   -1    0    0  501    0  0.00000000000E+00  0.00000000000E+00  0.18118936421E+04  0.18118936421E+04  0.25500000920E-02 0. -1.
       -2   -1    0    0    0  501  0.00000000000E+00  0.00000000000E+00 -0.68100463658E+03  0.68100463658E+03  0.25500000920E-02 0.  1.
    10030    2    1    2    0    0  0.00000000000E+00  0.00000000000E+00  0.11308890055E+04  0.24928982786E+04  0.22216282058E+04 0.  0.
        5    1    3    3  502    0 -0.55726603561E+03 -0.22256629563E+03  0.16143596644E+04  0.17222834861E+04  0.46999998093E+01 0. -1.
       -5    1    3    3    0  502  0.55726603561E+03  0.22256629563E+03 -0.48347065895E+03  0.77061479253E+03  0.46999998093E+01 0.  1.
</event>
<event>
 5   0  0.4132460E-05  0.2202862E+04  0.7818609E-02  0.8517238E-01
       -2   -1    0    0    0  501  0.00000000000E+00  0.00000000000E+00  0.73336536716E+03  0.73336536716E+03  0.25500000920E-02 0.  1.
        2   -1    0    0  501    0  0.00000000000E+00  0.00000000000E+00 -0.16542230269E+04  0.16542230269E+04  0.25500000920E-02 0. -1.
    10030    2    1    2    0    0  0.00000000000E+00  0.00000000000E+00 -0.92085765975E+03  0.23875883941E+04  0.22028616638E+04 0.  0.
        4    1    3    3  502    0 -0.10915000202E+04 -0.14614426667E+03 -0.43827397889E+03  0.11852493975E+04  0.12699999809E+01 0.  1.
       -4    1    3    3    0  502  0.10915000202E+04  0.14614426667E+03 -0.48258368086E+03  0.12023389966E+04  0.12699999809E+01 0. -1.
</event>
<event>
 5   0  0.1786228E-05  0.2201611E+04  0.7818609E-02  0.8517758E-01
        1   -1    0    0  501    0  0.00000000000E+00  0.00000000000E+00  0.10398402575E+04  0.10398402575E+04  0.50400001928E-02 0. -1.
       -1   -1    0    0    0  501  0.00000000000E+00  0.00000000000E+00 -0.11653448792E+04  0.11653448792E+04  0.50400001928E-02 0.  1.
    10030    2    1    2    0    0  0.00000000000E+00  0.00000000000E+00 -0.12550462170E+03  0.22051851367E+04  0.22016107914E+04 0.  0.
        5    1    3    3  502    0  0.45381629147E+03 -0.99342908384E+02  0.93683191949E+03  0.10457028140E+04  0.46999998093E+01 0. -1.
       -5    1    3    3    0  502 -0.45381629147E+03  0.99342908384E+02 -0.10623365412E+04  0.11594823227E+04  0.46999998093E+01 0.  1.
</event>
<event>
 5   0  0.1788413E-05  0.2192213E+04  0.7818609E-02  0.8521676E-01
       -1   -1    0    0    0  501  0.00000000000E+00  0.00000000000E+00  0.11056480451E+04  0.11056480451E+04  0.50400001928E-02 0.  1.
        1   -1    0    0  501    0  0.00000000000E+00  0.00000000000E+00 -0.10866475335E+04  0.10866475336E+04  0.50400001928E-02 0. -1.
    10030    2    1    2    0    0  0.00000000000E+00  0.00000000000E+00  0.19000511568E+02  0.21922955787E+04  0.21922132389E+04 0.  0.
        1    1    3    3  502    0  0.66936205254E+03 -0.85959998090E+03  0.12988765262E+03  0.10971911806E+04  0.50400001928E-02 0. -1.
       -1    1    3    3    0  502 -0.66936205254E+03  0.85959998090E+03 -0.11088714105E+03  0.10951043980E+04  0.50400001928E-02 0.  1.
</event>
<event>
 5   0  0.1815681E-05  0.2189016E+04  0.7818609E-02  0.8523014E-01
       -1   -1    0    0    0  501  0.00000000000E+00  0.00000000000E+00  0.46085920541E+03  0.46085920544E+03  0.50400001928E-02 0. -1.
        1   -1    0    0  501    0  0.00000000000E+00  0.00000000000E+00 -0.25993801423E+04  0.25993801423E+04  0.50400001928E-02 0.  1.
    10030    2    1    2    0    0  0.00000000000E+00  0.00000000000E+00 -0.21385209369E+04  0.30602393478E+04  0.21890164613E+04 0.  0.
        2    1    3    3  502    0  0.76699848424E+03  0.30728434883E+03 -0.20727440636E+04  0.22313624311E+04  0.25500000920E-02 0.  1.
       -2    1    3    3    0  502 -0.76699848424E+03 -0.30728434883E+03 -0.65776873318E+02  0.82887691664E+03  0.25500000920E-02 0. -1.
</event>
<event>
 5   0  0.1815681E-05  0.2192130E+04  0.7818609E-02  0.8521711E-01
        1   -1    0    0  501    0  0.00000000000E+00  0.00000000000E+00  0.25056058402E+04  0.25056058402E+04  0.50400001928E-02 0. -1.
       -1   -1    0    0    0  501  0.00000000000E+00  0.00000000000E+00 -0.47946842684E+03  0.47946842686E+03  0.50400001928E-02 0.  1.
    10030    2    1    2    0    0  0.00000000000E+00  0.00000000000E+00  0.20261374133E+04  0.29850742670E+04  0.21921303707E+04 0.  0.
        2    1    3    3  502    0  0.45932085461E+03  0.68646660209E+03  0.19942152363E+04  0.21584963405E+04  0.25500000920E-02 0. -1.
       -2    1    3    3    0  502 -0.45932085461E+03 -0.68646660209E+03  0.31922177052E+02  0.82657792655E+03  0.25500000920E-02 0.  1.
</event>
<event>
 5   0  0.1786228E-05  0.2203261E+04  0.7818609E-02  0.8517072E-01
       -1   -1    0    0    0  501  0.00000000000E+00  0.00000000000E+00  0.12073146303E+04  0.12073146303E+04  0.50400001928E-02 0.  1.
        1   -1    0    0  501    0  0.00000000000E+00  0.00000000000E+00 -0.10051973454E+04  0.10051973454E+04  0.50400001928E-02 0. -1.
    10030    2    1    2    0    0  0.00000000000E+00  0.00000000000E+00  0.20211728489E+03  0.22125119757E+04  0.22032607304E+04 0.  0.
        5    1    3    3  502    0  0.61598947940E+03 -0.21744268574E+03 -0.78970766548E+03  0.10248827480E+04  0.46999998093E+01 0. -1.
       -5    1    3    3    0  502 -0.61598947940E+03  0.21744268574E+03  0.99182495037E+03  0.11876292277E+04  0.46999998093E+01 0.  1.
</event>
<event>
 5   0  0.3963414E-05  0.2195970E+04  0.7818609E-02  0.8520107E-01
       -2   -1    0    0    0  501  0.00000000000E+00  0.00000000000E+00  0.68928227941E+03  0.68928227942E+03  0.25500000920E-02 0.  1.
        2   -1    0    0  501    0  0.00000000000E+00  0.00000000000E+00 -0.17490241270E+04  0.17490241270E+04  0.25500000920E-02 0. -1.
    10030    2    1    2    0    0  0.00000000000E+00  0.00000000000E+00 -0.10597418476E+04  0.24383064064E+04  0.21959702521E+04 0.  0.
        1    1    3    3  502    0  0.10889914512E+04 -0.50376372665E+02 -0.67520097666E+03  0.12823168558E+04  0.50400001928E-02 0. -1.
       -1    1    3    3    0  502 -0.10889914512E+04  0.50376372665E+02 -0.38454087090E+03  0.11559895506E+04  0.50400001928E-02 0.  1.
</event>
<event>
 5   0  0.1815681E-05  0.2185270E+04  0.7818609E-02  0.8524584E-01
       -1   -1    0    0    0  501  0.00000000000E+00  0.00000000000E+00  0.15271702169E+04  0.15271702169E+04  0.50400001928E-02 0.  1.
        1   -1    0    0  501    0  0.00000000000E+00  0.00000000000E+00 -0.78174081429E+03  0.78174081430E+03  0.50400001928E-02 0. -1.
    10030    2    1    2    0    0  0.00000000000E+00  0.00000000000E+00  0.74542940257E+03  0.23089110312E+04  0.21852700418E+04 0.  0.
        2    1    3    3  502    0 -0.34310594733E+03 -0.93433285542E+03 -0.10351045295E+03  0.10007067451E+04  0.25500000920E-02 0. -1.
       -2    1    3    3    0  502  0.34310594733E+03  0.93433285542E+03  0.84893985551E+03  0.13082042861E+04  0.25500000920E-02 0.  1.
</event>
<event>
 5   0  0.1788413E-05  0.2201447E+04  0.7818609E-02  0.8517826E-01
        1   -1    0    0  501    0  0.00000000000E+00  0.00000000000E+00  0.23233173851E+04  0.23233173851E+04  0.50400001928E-02 0. -1.
       -1   -1    0    0    0  501  0.00000000000E+00  0.00000000000E+00 -0.52149235321E+03  0.52149235323E+03  0.50400001928E-02 0.  1.
    10030    2    1    2    0    0  0.00000000000E+00  0.00000000000E+00  0.18018250319E+04  0.28448097384E+04  0.22014470245E+04 0.  0.
        1    1    3    3  502    0  0.13374139149E+03  0.42541013966E+03  0.22013581166E+04  0.22460717051E+04  0.50400001928E-02 0. -1.
       -1    1    3    3    0  502 -0.13374139149E+03 -0.42541013966E+03 -0.39953308469E+03  0.59873803330E+03  0.50400001928E-02 0.  1.
</event>
<event>
 5   0  0.4132460E-05  0.2206141E+04  0.7818609E-02  0.8515877E-01
        2   -1    0    0  501    0  0.00000000000E+00  0.00000000000E+00  0.14183925418E+04  0.14183925418E+04  0.25500000920E-02 0.  1.
       -2   -1    0    0    0  501  0.00000000000E+00  0.00000000000E+00 -0.85784718119E+03  0.85784718119E+03  0.25500000920E-02 0. -1.
    10030    2    1    2    0    0  0.00000000000E+00  0.00000000000E+00  0.56054536065E+03  0.22762397230E+04  0.22061405611E+04 0.  0.
        4    1    3    3  502    0  0.13480063119E+03 -0.60700697305E+03  0.12203397841E+04  0.13696201945E+04  0.12699999809E+01 0.  1.
       -4    1    3    3    0  502 -0.13480063119E+03  0.60700697305E+03 -0.65979442345E+03  0.90661952859E+03  0.12699999809E+01 0. -1.
</event>
<event>
 5   0  0.1786228E-05  0.2224251E+04  0.7818609E-02  0.8508402E-01
        1   -1    0    0  501    0  0.00000000000E+00  0.00000000000E+00  0.12492177659E+04  0.12492177659E+04  0.50400001928E-02 0.  1.
       -1   -1    0    0    0  501  0.00000000000E+00  0.00000000000E+00 -0.99007820171E+03  0.99007820172E+03  0.50400001928E-02 0. -1.
    10030    2    1    2    0    0  0.00000000000E+00  0.00000000000E+00  0.25913956416E+03  0.22392959676E+04  0.22242511362E+04 0.  0.
        5    1    3    3  502    0  0.14152948741E+03  0.98163940645E+03  0.63611783210E+03  0.11782675869E+04  0.46999998093E+01 0. -1.
       -5    1    3    3    0  502 -0.14152948741E+03 -0.98163940645E+03 -0.37697826794E+03  0.10610283807E+04  0.46999998093E+01 0.  1.
</event>
<event>
 5   0  0.1786228E-05  0.2124249E+04  0.7818609E-02  0.8550636E-01
       -1   -1    0    0    0  501  0.00000000000E+00  0.00000000000E+00  0.13628960303E+04  0.13628960303E+04  0.50400001928E-02 0. -1.
        1   -1    0    0  501    0  0.00000000000E+00  0.00000000000E+00 -0.82772911201E+03  0.82772911202E+03  0.50400001928E-02 0.  1.
    10030    2    1    2    0    0  0.00000000000E+00  0.00000000000E+00  0.53516691826E+03  0.21906251423E+04  0.21242492518E+04 0.  0.
        5    1    3    3  502    0  0.35969394586E+03 -0.67978255756E+03 -0.48783739251E+03  0.91076422404E+03  0.46999998093E+01 0. -1.
       -5    1    3    3    0  502 -0.35969394586E+03  0.67978255756E+03  0.10230043108E+04  0.12798609183E+04  0.46999998093E+01 0.  1.
</event>
<event>
 5   0  0.1815681E-05  0.2183951E+04  0.7818609E-02  0.8525138E-01
       -1   -1    0    0    0  501  0.00000000000E+00  0.00000000000E+00  0.15731130025E+04  0.15731130025E+04  0.50400001928E-02 0. -1.
        1   -1    0    0  501    0  0.00000000000E+00  0.00000000000E+00 -0.75799412569E+03  0.75799412571E+03  0.50400001928E-02 0.  1.
    10030    2    1    2    0    0  0.00000000000E+00  0.00000000000E+00  0.81511887683E+03  0.23311071282E+04  0.21839509289E+04 0.  0.
        2    1    3    3  502    0 -0.54298275069E+03  0.94640888177E+03  0.36115137490E+03  0.11493260437E+04  0.25500000920E-02 0. -1.
       -2    1    3    3    0  502  0.54298275069E+03 -0.94640888177E+03  0.45396750193E+03  0.11817810846E+04  0.25500000920E-02 0.  1.
</event>
<event>
 5   0  0.3963414E-05  0.2163395E+04  0.7818609E-02  0.8533820E-01
       -2   -1    0    0    0  501  0.00000000000E+00  0.00000000000E+00  0.71778758858E+03  0.71778758859E+03  0.25500000920E-02 0.  1.
        2   -1    0    0  501    0  0.00000000000E+00  0.00000000000E+00 -0.16301054143E+04  0.16301054143E+04  0.25500000920E-02 0. -1.
    10030    2    1    2    0    0  0.00000000000E+00  0.00000000000E+00 -0.91231782573E+03  0.23478930029E+04  0.21633949565E+04 0.  0.
        1    1    3    3  502    0  0.72774869101E+03 -0.52005837509E+03  0.20398376808E+03  0.91743569171E+03  0.50400001928E-02 0.  1.
       -1    1    3    3    0  502 -0.72774869101E+03  0.52005837509E+03 -0.11163015938E+04  0.14304573112E+04  0.50400001928E-02 0. -1.
</event>
<event>
 5   0  0.1815681E-05  0.2194695E+04  0.7818609E-02  0.8520640E-01
       -1   -1    0    0    0  501  0.00000000000E+00  0.00000000000E+00  0.57778351331E+03  0.57778351334E+03  0.50400001928E-02 0. -1.
        1   -1    0    0  501    0  0.00000000000E+00  0.00000000000E+00 -0.20841214405E+04  0.20841214405E+04  0.50400001928E-02 0.  1.
    10030    2    1    2    0    0  0.00000000000E+00  0.00000000000E+00 -0.15063379272E+04  0.26619049539E+04  0.21946945192E+04 0.  0.
        2    1    3    3  502    0 -0.24188939468E+03 -0.83814006347E+03  0.54269447679E+02  0.87403341939E+03  0.25500000920E-02 0. -1.
       -2    1    3    3    0  502  0.24188939468E+03  0.83814006347E+03 -0.15606073749E+04  0.17878715345E+04  0.25500000920E-02 0.  1.
</event>
<event>
 5   0  0.3963414E-05  0.2191532E+04  0.7818609E-02  0.8521961E-01
        2   -1    0    0  501    0  0.00000000000E+00  0.00000000000E+00  0.97157462297E+03  0.97157462298E+03  0.25500000920E-02 0. -1.
       -2   -1    0    0    0  501  0.00000000000E+00  0.00000000000E+00 -0.12358318677E+04  0.12358318677E+04  0.25500000920E-02 0.  1.
    10030    2    1    2    0    0  0.00000000000E+00  0.00000000000E+00 -0.26425724477E+03  0.22074064907E+04  0.21915317757E+04 0.  0.
        1    1    3    3  502    0  0.60122905163E+03 -0.91477032572E+03 -0.82560774975E+02  0.10977692849E+04  0.50400001928E-02 0.  1.
       -1    1    3    3    0  502 -0.60122905163E+03  0.91477032572E+03 -0.18169646980E+03  0.11096372058E+04  0.50400001928E-02 0. -1.
</event>
<event>
 5   0  0.4029532E-05  0.2195437E+04  0.7818609E-02  0.8520330E-01
       -2   -1    0    0    0  501  0.00000000000E+00  0.00000000000E+00  0.95811274048E+03  0.95811274048E+03  0.25500000920E-02 0. -1.
        2   -1    0    0  501    0  0.00000000000E+00  0.00000000000E+00 -0.12576657945E+04  0.12576657945E+04  0.25500000920E-02 0.  1.
    10030    2    1    2    0    0  0.00000000000E+00  0.00000000000E+00 -0.29955305404E+03  0.22157785350E+04  0.21954367411E+04 0.  0.
        3    1    3    3  502    0 -0.16869248619E+03 -0.12309717276E+03 -0.12374330301E+04  0.12549305093E+04  0.10100000352E+00 0.  1.
       -3    1    3    3    0  502  0.16869248619E+03  0.12309717276E+03  0.93787997608E+03  0.96084802574E+03  0.10100000352E+00 0. -1.
</event>
<event>
 5   0  0.4029532E-05  0.2210221E+04  0.7818609E-02  0.8514186E-01
       -2   -1    0    0    0  501  0.00000000000E+00  0.00000000000E+00  0.67782362089E+03  0.67782362090E+03  0.25500000920E-02 0.  1.
        2   -1    0    0  501    0  0.00000000000E+00  0.00000000000E+00 -0.18017509551E+04  0.18017509551E+04  0.25500000920E-02 0. -1.
    10030    2    1    2    0    0  0.00000000000E+00  0.00000000000E+00 -0.11239273342E+04  0.24795745760E+04  0.22102211259E+04 0.  0.
        3    1    3    3  502    0  0.13975230403E+03  0.14710377475E+03 -0.17806745578E+04  0.17921975667E+04  0.10100000352E+00 0. -1.
       -3    1    3    3    0  502 -0.13975230403E+03 -0.14710377475E+03  0.65674722360E+03  0.68737700931E+03  0.10100000352E+00 0.  1.
</event>
<event>
 5   0  0.1788413E-05  0.2194301E+04  0.7818609E-02  0.8520804E-01
        1   -1    0    0  501    0  0.00000000000E+00  0.00000000000E+00  0.11652430924E+04  0.11652430925E+04  0.50400001928E-02 0.  1.
       -1   -1    0    0    0  501  0.00000000000E+00  0.00000000000E+00 -0.10330371389E+04  0.10330371389E+04  0.50400001928E-02 0. -1.
    10030    2    1    2    0    0  0.00000000000E+00  0.00000000000E+00  0.13220595357E+03  0.21982802313E+04  0.21943011556E+04 0.  0.
        1    1    3    3  502    0  0.28117253298E+03 -0.40260441473E+03 -0.91679341221E+03  0.10400281096E+04  0.50400001928E-02 0. -1.
       -1    1    3    3    0  502 -0.28117253298E+03  0.40260441473E+03  0.10489993658E+04  0.11582521217E+04  0.50400001928E-02 0.  1.
</event>
<event>
 5   0  0.1786228E-05  0.2217938E+04  0.7818609E-02  0.8510999E-01
       -1   -1    0    0    0  501  0.00000000000E+00  0.00000000000E+00  0.12926590806E+04  0.12926590806E+04  0.50400001928E-02 0. -1.
        1   -1    0    0  501    0  0.00000000000E+00  0.00000000000E+00 -0.95138192544E+03  0.95138192545E+03  0.50400001928E-02 0.  1.
    10030    2    1    2    0    0  0.00000000000E+00  0.00000000000E+00  0.34127715513E+03  0.22440410060E+04  0.22179382183E+04 0.  0.
        5    1    3    3  502    0  0.99497650147E+03  0.41686970572E+03  0.43062934664E+03  0.11615602930E+04  0.46999998093E+01 0. -1.
       -5    1    3    3    0  502 -0.99497650147E+03 -0.41686970572E+03 -0.89352191504E+02  0.10824807131E+04  0.46999998093E+01 0.  1.
</event>
<event>
 5   0  0.4029532E-05  0.2214443E+04  0.7818609E-02  0.8512441E-01
       -2   -1    0    0    0  501  0.00000000000E+00  0.00000000000E+00  0.66507566623E+03  0.66507566624E+03  0.25500000920E-02 0. -1.
        2   -1    0    0  501    0  0.00000000000E+00  0.00000000000E+00 -0.18433077079E+04  0.18433077079E+04  0.25500000920E-02 0.  1.
    10030    2    1    2    0    0  0.00000000000E+00  0.00000000000E+00 -0.11782320417E+04  0.25083833742E+04  0.22144426856E+04 0.  0.
        3    1    3    3  502    0  0.85926984407E+02  0.44919047588E+03  0.55308811238E+03  0.71767820123E+03  0.10100000352E+00 0. -1.
       -3    1    3    3    0  502 -0.85926984407E+02 -0.44919047588E+03 -0.17313201541E+04  0.17907051730E+04  0.10100000352E+00 0.  1.
</event>
<event>
 5   0  0.1786228E-05  0.2191938E+04  0.7818609E-02  0.8521791E-01
       -1   -1    0    0    0  501  0.00000000000E+00  0.00000000000E+00  0.71103077013E+03  0.71103077015E+03  0.50400001928E-02 0. -1.
        1   -1    0    0  501    0  0.00000000000E+00  0.00000000000E+00 -0.16893060341E+04  0.16893060341E+04  0.50400001928E-02 0.  1.
    10030    2    1    2    0    0  0.00000000000E+00  0.00000000000E+00 -0.97827526393E+03  0.24003368042E+04  0.21919384758E+04 0.  0.
        5    1    3    3  502    0 -0.85444505191E+03  0.62790491648E+03 -0.79258513805E+03  0.13238407087E+04  0.46999998093E+01 0.  1.
       -5    1    3    3    0  502  0.85444505191E+03 -0.62790491648E+03 -0.18569012588E+03  0.10764960955E+04  0.46999998093E+01 0. -1.
</event>
<event>
 5   0  0.4143281E-05  0.2202315E+04  0.7818609E-02  0.8517465E-01
        2   -1    0    0  501    0  0.00000000000E+00  0.00000000000E+00  0.24014678812E+04  0.24014678812E+04  0.25500000920E-02 0.  1.
       -2   -1    0    0    0  501  0.00000000000E+00  0.00000000000E+00 -0.50491949515E+03  0.50491949516E+03  0.25500000920E-02 0. -1.
    10030    2    1    2    0    0  0.00000000000E+00  0.00000000000E+00  0.18965483860E+04  0.29063873763E+04  0.22023151002E+04 0.  0.
        2    1    3    3  502    0  0.25017109212E+03 -0.74438146882E+03  0.19669726522E+04  0.21179402166E+04  0.25500000920E-02 0.  1.
       -2    1    3    3    0  502 -0.25017109212E+03  0.74438146882E+03 -0.70424266191E+02  0.78844715975E+03  0.25500000920E-02 0. -1.
</event>
<event>
 5   0  0.1788413E-05  0.2213984E+04  0.7818609E-02  0.8512630E-01
        1   -1    0    0  501    0  0.00000000000E+00  0.00000000000E+00  0.17857613886E+04  0.17857613886E+04  0.50400001928E-02 0. -1.
       -1   -1    0    0    0  501  0.00000000000E+00  0.00000000000E+00 -0.68622337912E+03  0.68622337914E+03  0.50400001928E-02 0.  1.
    10030    2    1    2    0    0  0.00000000000E+00  0.00000000000E+00  0.10995380095E+04  0.24719847678E+04  0.22139839335E+04 0.  0.
        1    1    3    3  502    0  0.73512303897E+03  0.20980568691E+03  0.14436972906E+04  0.16336113906E+04  0.50400001928E-02 0. -1.
       -1    1    3    3    0  502 -0.73512303897E+03 -0.20980568691E+03 -0.34415928110E+03  0.83837337713E+03  0.50400001928E-02 0.  1.
</event>
<event>
 5   0  0.1788413E-05  0.2195650E+04  0.7818609E-02  0.8520241E-01
        1   -1    0    0  501    0  0.00000000000E+00  0.00000000000E+00  0.17463645701E+04  0.17463645701E+04  0.50400001928E-02 0.  1.
       -1   -1    0    0    0  501  0.00000000000E+00  0.00000000000E+00 -0.69013072058E+03  0.69013072060E+03  0.50400001928E-02 0. -1.
    10030    2    1    2    0    0  0.00000000000E+00  0.00000000000E+00  0.10562338495E+04  0.24364952907E+04  0.21956500989E+04 0.  0.
        1    1    3    3  502    0 -0.42014387869E+03 -0.79025388507E+03  0.12336207852E+04  0.15240873739E+04  0.50400001928E-02 0.  1.
       -1    1    3    3    0  502  0.42014387869E+03  0.79025388507E+03 -0.17738693566E+03  0.91240791679E+03  0.50400001928E-02 0. -1.
</event>
<event>
 5   0  0.1866935E-05  0.2184282E+04  0.7818609E-02  0.8524999E-01
        1   -1    0    0  501    0  0.00000000000E+00  0.00000000000E+00  0.18725063182E+04  0.18725063182E+04  0.50400001928E-02 0. -1.
       -1   -1    0    0    0  501  0.00000000000E+00  0.00000000000E+00 -0.63699233290E+03  0.63699233292E+03  0.50400001928E-02 0.  1.
    10030    2    1    2    0    0  0.00000000000E+00  0.00000000000E+00  0.12355139853E+04  0.25094986511E+04  0.21842821869E+04 0.  0.
        4    1    3    3  502    0  0.22636018400E+03  0.34181501006E+03  0.17807452904E+04  0.18273291538E+04  0.12699999809E+01 0. -1.
       -4    1    3    3    0  502 -0.22636018400E+03 -0.34181501006E+03 -0.54523130517E+03  0.68216949730E+03  0.12699999809E+01 0.  1.
</event>
<event>
 5   0  0.4132460E-05  0.2197082E+04  0.7818609E-02  0.8519643E-01
        2   -1    0    0  501    0  0.00000000000E+00  0.00000000000E+00  0.94390018831E+03  0.94390018831E+03  0.25500000920E-02 0.  1.
       -2   -1    0    0    0  501  0.00000000000E+00  0.00000000000E+00 -0.12785172853E+04  0.12785172853E+04  0.25500000920E-02 0. -1.
    10030    2    1    2    0    0  0.00000000000E+00  0.00000000000E+00 -0.33461709698E+03  0.22224174736E+04  0.21970823438E+04 0.  0.
        4    1    3    3  502    0  0.24801739252E+03  0.91767503199E+03 -0.72424906482E+03  0.11950641874E+04  0.12699999809E+01 0. -1.
       -4    1    3    3    0  502 -0.24801739252E+03 -0.91767503199E+03  0.38963196784E+03  0.10273532862E+04  0.12699999809E+01 0.  1.
</event>
<event>
 5   0  0.1884407E-05  0.2206572E+04  0.7818609E-02  0.8515698E-01
        1   -1    0    0  501    0  0.00000000000E+00  0.00000000000E+00  0.69845725451E+03  0.69845725453E+03  0.50400001928E-02 0. -1.
       -1   -1    0    0    0  501  0.00000000000E+00  0.00000000000E+00 -0.17427554129E+04  0.17427554129E+04  0.50400001928E-02 0.  1.
    10030    2    1    2    0    0  0.00000000000E+00  0.00000000000E+00 -0.10442981584E+04  0.24412126674E+04  0.22065721479E+04 0.  0.
        3    1    3    3  502    0  0.22003298780E+03 -0.21086939773E+03 -0.16952628273E+04  0.17224391085E+04  0.10100000352E+00 0.  1.
       -3    1    3    3    0  502 -0.22003298780E+03  0.21086939773E+03  0.65096466893E+03  0.71877355893E+03  0.10100000352E+00 0. -1.
</event>
<event>
 5   0  0.1786228E-05  0.2250508E+04  0.7818609E-02  0.8497695E-01
        1   -1    0    0  501    0  0.00000000000E+00  0.00000000000E+00  0.11883778386E+04  0.11883778386E+04  0.50400001928E-02 0.  1.
       -1   -1    0    0    0  501  0.00000000000E+00  0.00000000000E+00 -0.10654834173E+04  0.10654834173E+04  0.50400001928E-02 0. -1.
    10030    2    1    2    0    0  0.00000000000E+00  0.00000000000E+00  0.12289442133E+03  0.22538612559E+04  0.22505082808E+04 0.  0.
        5    1    3    3  502    0  0.55139628259E+01  0.11195626656E+04 -0.51520778285E+02  0.11207709162E+04  0.46999998093E+01 0.  1.
       -5    1    3    3    0  502 -0.55139628259E+01 -0.11195626656E+04  0.17441519961E+03  0.11330903397E+04  0.46999998093E+01 0. -1.
</event>
<event>
 5   0  0.1866935E-05  0.2207968E+04  0.7818609E-02  0.8515119E-01
        1   -1    0    0  501    0  0.00000000000E+00  0.00000000000E+00  0.87872346964E+03  0.87872346965E+03  0.50400001928E-02 0. -1.
       -1   -1    0    0    0  501  0.00000000000E+00  0.00000000000E+00 -0.13869899154E+04  0.13869899154E+04  0.50400001928E-02 0.  1.
    10030    2    1    2    0    0  0.00000000000E+00  0.00000000000E+00 -0.50826644577E+03  0.22657133851E+04  0.22079679263E+04 0.  0.
        4    1    3    3  502    0  0.21729764868E+03  0.84019020995E+03 -0.95435864325E+03  0.12899379403E+04  0.12699999809E+01 0.  1.
       -4    1    3    3    0  502 -0.21729764868E+03 -0.84019020995E+03  0.44609219748E+03  0.97577544475E+03  0.12699999809E+01 0. -1.
</event>
<event>
 5   0  0.4143281E-05  0.2194983E+04  0.7818609E-02  0.8520519E-01
        2   -1    0    0  501    0  0.00000000000E+00  0.00000000000E+00  0.16118116999E+04  0.16118116999E+04  0.25500000920E-02 0.  1.
       -2   -1    0    0    0  501  0.00000000000E+00  0.00000000000E+00 -0.74728795630E+03  0.74728795630E+03  0.25500000920E-02 0. -1.
    10030    2    1    2    0    0  0.00000000000E+00  0.00000000000E+00  0.86452374363E+03  0.23590996562E+04  0.21949828894E+04 0.  0.
        2    1    3    3  502    0 -0.73768782588E+02  0.10824825484E+04  0.60976859476E+03  0.12445995500E+04  0.25500000920E-02 0.  1.
       -2    1    3    3    0  502  0.73768782588E+02 -0.10824825484E+04  0.25475514888E+03  0.11145001062E+04  0.25500000920E-02 0. -1.
</event>
<event>
 5   0  0.4132460E-05  0.2119471E+04  0.7818609E-02  0.8552714E-01
       -2   -1    0    0    0  501  0.00000000000E+00  0.00000000000E+00  0.83856207659E+03  0.83856207659E+03  0.25500000920E-02 0. -1.
        2   -1    0    0  501    0  0.00000000000E+00  0.00000000000E+00 -0.13392441895E+04  0.13392441895E+04  0.25500000920E-02 0.  1.
    10030    2    1    2    0    0  0.00000000000E+00  0.00000000000E+00 -0.50068211288E+03  0.21778062661E+04  0.21194710553E+04 0.  0.
        4    1    3    3  502    0 -0.23010434501E+03  0.10068726353E+04 -0.65401076932E+01  0.10328527965E+04  0.12699999809E+01 0. -1.
       -4    1    3    3    0  502  0.23010434501E+03 -0.10068726353E+04 -0.49414200519E+03  0.11449534696E+04  0.12699999809E+01 0.  1.
</event>
<event>
 5   0  0.4132460E-05  0.2214904E+04  0.7818609E-02  0.8512250E-01
        2   -1    0    0  501    0  0.00000000000E+00  0.00000000000E+00  0.30630449928E+04  0.30630449928E+04  0.25500000920E-02 0. -1.
       -2   -1    0    0    0  501  0.00000000000E+00  0.00000000000E+00 -0.40040217576E+03  0.40040217576E+03  0.25500000920E-02 0.  1.
    10030    2    1    2    0    0  0.00000000000E+00  0.00000000000E+00  0.26626428170E+04  0.34634471685E+04  0.22149039524E+04 0.  0.
        4    1    3    3  502    0  0.93035986537E+03 -0.59839878700E+03  0.14140303823E+04  0.17953089211E+04  0.12699999809E+01 0.  1.
       -4    1    3    3    0  502 -0.93035986537E+03  0.59839878700E+03  0.12486124347E+04  0.16681382474E+04  0.12699999809E+01 0. -1.
</event>
<event>
 5   0  0.1866935E-05  0.2204928E+04  0.7818609E-02  0.8516380E-01
        1   -1    0    0  501    0  0.00000000000E+00  0.00000000000E+00  0.10847706671E+04  0.10847706671E+04  0.50400001928E-02 0. -1.
       -1   -1    0    0    0  501  0.00000000000E+00  0.00000000000E+00 -0.11204455508E+04  0.11204455508E+04  0.50400001928E-02 0.  1.
    10030    2    1    2    0    0  0.00000000000E+00  0.00000000000E+00 -0.35674883712E+02  0.22052162179E+04  0.22049276338E+04 0.  0.
        4    1    3    3  502    0  0.93472197508E+03  0.12555026954E+03 -0.58883844257E+03  0.11118454772E+04  0.12699999809E+01 0. -1.
       -4    1    3    3    0  502 -0.93472197508E+03 -0.12555026954E+03  0.55316355885E+03  0.10933707407E+04  0.12699999809E+01 0.  1.
</event>
<event>
 5   0  0.4143281E-05  0.2183399E+04  0.7818609E-02  0.8525370E-01
       -2   -1    0    0    0  501  0.00000000000E+00  0.00000000000E+00  0.45218949950E+03  0.45218949950E+03  0.25500000920E-02 0. -1.
        2   -1    0    0  501    0  0.00000000000E+00  0.00000000000E+00 -0.26356379197E+04  0.26356379197E+04  0.25500000920E-02 0.  1.
    10030    2    1    2    0    0  0.00000000000E+00  0.00000000000E+00 -0.21834484202E+04  0.30878274192E+04  0.21833989940E+04 0.  0.
        2    1    3    3  502    0 -0.15712447127E+03  0.83134238361E+03 -0.11601902027E+03  0.85397814452E+03  0.25500000920E-02 0. -1.
       -2    1    3    3    0  502  0.15712447127E+03 -0.83134238361E+03 -0.20674293999E+04  0.22338492746E+04  0.25500000920E-02 0.  1.
</event>
<event>
 5   0  0.4132460E-05  0.2207551E+04  0.7818609E-02  0.8515292E-01
       -2   -1    0    0    0  501  0.00000000000E+00  0.00000000000E+00  0.10481605257E+04  0.10481605257E+04  0.25500000920E-02 0.  1.
        2   -1    0    0  501    0  0.00000000000E+00  0.00000000000E+00 -0.11623416070E+04  0.11623416070E+04  0.25500000920E-02 0. -1.
    10030    2    1    2    0    0  0.00000000000E+00  0.00000000000E+00 -0.11418108125E+03  0.22105021327E+04  0.22075512133E+04 0.  0.
        4    1    3    3  502    0  0.10372369314E+04 -0.33203432342E+03 -0.23680672840E+03  0.11145341104E+04  0.12699999809E+01 0. -1.
       -4    1    3    3    0  502 -0.10372369314E+04  0.33203432342E+03  0.12262564715E+03  0.10959680223E+04  0.12699999809E+01 0.  1.
</event>
<event>
 5   0  0.4027923E-05  0.2232620E+04  0.7818609E-02  0.8504972E-01
        2   -1    0    0  501    0  0.00000000000E+00  0.00000000000E+00  0.17627177267E+04  0.17627177267E+04  0.25500000920E-02 0.  1.
       -2   -1    0    0    0  501  0.00000000000E+00  0.00000000000E+00 -0.70694730460E+03  0.70694730461E+03  0.25500000920E-02 0. -1.
    10030    2    1    2    0    0  0.00000000000E+00  0.00000000000E+00  0.10557704221E+04  0.24696650313E+04  0.22326204744E+04 0.  0.
        5    1    3    3  502    0  0.39505835573E+03 -0.51380876359E+03 -0.47748929781E+03  0.80503954530E+03  0.46999998093E+01 0. -1.
       -5    1    3    3    0  502 -0.39505835573E+03  0.51380876359E+03  0.15332597199E+04  0.16646254860E+04  0.46999998093E+01 0.  1.
</event>
<event>
 5   0  0.1433375E-05  0.2196967E+04  0.7818609E-02  0.8519692E-01
        4   -1    0    0  501    0  0.00000000000E+00  0.00000000000E+00  0.75952848745E+03  0.75952954923E+03  0.12699999809E+01 0.  1.
       -4   -1    0    0    0  501  0.00000000000E+00  0.00000000000E+00 -0.15887011735E+04  0.15887016811E+04  0.12699999809E+01 0. -1.
    10030    2    1    2    0    0  0.00000000000E+00  0.00000000000E+00 -0.82917268603E+03  0.23482312303E+04  0.21969666743E+04 0.  0.
        4    1    3    3  502    0  0.47483379113E+03 -0.86923858932E+03 -0.92228652433E+03  0.13533871952E+04  0.12699999809E+01 0. -1.
       -4    1    3    3    0  502 -0.47483379113E+03  0.86923858932E+03  0.93113838300E+02  0.99484403509E+03  0.12699999809E+01 0.  1.
</event>
<event>
 5   0  0.4027923E-05  0.2209070E+04  0.7818609E-02  0.8514662E-01
        2   -1    0    0  501    0  0.00000000000E+00  0.00000000000E+00  0.81544726965E+03  0.81544726965E+03  0.25500000920E-02 0.  1.
       -2   -1    0    0    0  501  0.00000000000E+00  0.00000000000E+00 -0.14961089687E+04  0.14961089687E+04  0.25500000920E-02 0. -1.
    10030    2    1    2    0    0  0.00000000000E+00  0.00000000000E+00 -0.68066169905E+03  0.23115562384E+04  0.22090703688E+04 0.  0.
        5    1    3    3  502    0 -0.45037565883E+03  0.97965856471E+03 -0.89618123293E+02  0.10819531577E+04  0.46999998093E+01 0.  1.
       -5    1    3    3    0  502  0.45037565883E+03 -0.97965856471E+03 -0.59104357576E+03  0.12296030806E+04  0.46999998093E+01 0. -1.
</event>
<event>
 5   0  0.1786228E-05  0.2143405E+04  0.7818609E-02  0.8542360E-01
        1   -1    0    0  501    0  0.00000000000E+00  0.00000000000E+00  0.15790452849E+04  0.15790452849E+04  0.50400001928E-02 0. -1.
       -1   -1    0    0    0  501  0.00000000000E+00  0.00000000000E+00 -0.72736760381E+03  0.72736760383E+03  0.50400001928E-02 0.  1.
    10030    2    1    2    0    0  0.00000000000E+00  0.00000000000E+00  0.85167768105E+03  0.23064128887E+04  0.21434051275E+04 0.  0.
        5    1    3    3  502    0 -0.62558692843E+03 -0.50883138229E+03  0.11853934827E+04  0.14336834307E+04  0.46999998093E+01 0. -1.
       -5    1    3    3    0  502  0.62558692843E+03  0.50883138229E+03 -0.33371580163E+03  0.87272945801E+03  0.46999998093E+01 0.  1.
</event>
<event>
 5   0  0.1815681E-05  0.2199843E+04  0.7818609E-02  0.8518493E-01
        1   -1    0    0  501    0  0.00000000000E+00  0.00000000000E+00  0.16352214144E+04  0.16352214144E+04  0.50400001928E-02 0. -1.
       -1   -1    0    0    0  501  0.00000000000E+00  0.00000000000E+00 -0.73985550437E+03  0.73985550439E+03  0.50400001928E-02 0.  1.
    10030    2    1    2    0    0  0.00000000000E+00  0.00000000000E+00  0.89536590999E+03  0.23750769188E+04  0.21998432347E+04 0.  0.
        2    1    3    3  502    0  0.47822134630E+03 -0.54750160686E+03 -0.44352425737E+03  0.85156763234E+03  0.25500000920E-02 0.  1.
       -2    1    3    3    0  502 -0.47822134630E+03  0.54750160686E+03  0.13388901674E+04  0.15235092864E+04  0.25500000920E-02 0. -1.
</event>
<event>
 5   0  0.3963414E-05  0.2166154E+04  0.7818609E-02  0.8532649E-01
        2   -1    0    0  501    0  0.00000000000E+00  0.00000000000E+00  0.92504964173E+03  0.92504964174E+03  0.25500000920E-02 0. -1.
       -2   -1    0    0    0  501  0.00000000000E+00  0.00000000000E+00 -0.12680999730E+04  0.12680999730E+04  0.25500000920E-02 0.  1.
    10030    2    1    2    0    0  0.00000000000E+00  0.00000000000E+00 -0.34305033123E+03  0.21931496147E+04  0.21661536655E+04 0.  0.
        1    1    3    3  502    0  0.61954128952E+03 -0.62267479706E+03  0.47001201918E+03  0.99622618441E+03  0.50400001928E-02 0. -1.
       -1    1    3    3    0  502 -0.61954128952E+03  0.62267479706E+03 -0.81306235041E+03  0.11969234303E+04  0.50400001928E-02 0.  1.
</event>
<event>
 5   0  0.1866935E-05  0.2185375E+04  0.7818609E-02  0.8524540E-01
       -1   -1    0    0    0  501  0.00000000000E+00  0.00000000000E+00  0.11751617715E+04  0.11751617715E+04  0.50400001928E-02 0. -1.
        1   -1    0    0  501    0  0.00000000000E+00  0.00000000000E+00 -0.10160013044E+04  0.10160013044E+04  0.50400001928E-02 0.  1.
    10030    2    1    2    0    0  0.00000000000E+00  0.00000000000E+00  0.15916046707E+03  0.21911630759E+04  0.21853749268E+04 0.  0.
        4    1    3    3  502    0  0.18797261593E+03 -0.51033807262E+03 -0.87065645698E+03  0.10265587814E+04  0.12699999809E+01 0.  1.
       -4    1    3    3    0  502 -0.18797261593E+03  0.51033807262E+03  0.10298169241E+04  0.11646042945E+04  0.12699999809E+01 0. -1.
</event>
<event>
 5   0  0.4029532E-05  0.2171550E+04  0.7818609E-02  0.8530364E-01
        2   -1    0    0  501    0  0.00000000000E+00  0.00000000000E+00  0.93923916932E+03  0.93923916932E+03  0.25500000920E-02 0. -1.
       -2   -1    0    0    0  501  0.00000000000E+00  0.00000000000E+00 -0.12551725960E+04  0.12551725960E+04  0.25500000920E-02 0.  1.
    10030    2    1    2    0    0  0.00000000000E+00  0.00000000000E+00 -0.31593342664E+03  0.21944117653E+04  0.21715499224E+04 0.  0.
        3    1    3    3  502    0  0.38821804688E+03 -0.92346900164E+01  0.86666507996E+03  0.94968779209E+03  0.10100000352E+00 0. -1.
       -3    1    3    3    0  502 -0.38821804688E+03  0.92346900164E+01 -0.11825985066E+04  0.12447239732E+04  0.10100000352E+00 0.  1.
</event>
<event>
 5   0  0.1786228E-05  0.2209884E+04  0.7818609E-02  0.8514325E-01
       -1   -1    0    0    0  501  0.00000000000E+00  0.00000000000E+00  0.64299381204E+03  0.64299381206E+03  0.50400001928E-02 0. -1.
        1   -1    0    0  501    0  0.00000000000E+00  0.00000000000E+00 -0.18987695113E+04  0.18987695113E+04  0.50400001928E-02 0.  1.
    10030    2    1    2    0    0  0.00000000000E+00  0.00000000000E+00 -0.12557756993E+04  0.25417633234E+04  0.22098842017E+04 0.  0.
        5    1    3    3  502    0 -0.87081340321E+03 -0.59758248396E+03 -0.10013937140E+04  0.14554148099E+04  0.46999998093E+01 0.  1.
       -5    1    3    3    0  502  0.87081340321E+03  0.59758248396E+03 -0.25438198524E+03  0.10863485135E+04  0.46999998093E+01 0. -1.
</event>
<event>
 5   0  0.1884407E-05  0.2213281E+04  0.7818609E-02  0.8512920E-01
        1   -1    0    0  501    0  0.00000000000E+00  0.00000000000E+00  0.87235755483E+03  0.87235755484E+03  0.50400001928E-02 0. -1.
       -1   -1    0    0    0  501  0.00000000000E+00  0.00000000000E+00 -0.14038436690E+04  0.14038436690E+04  0.50400001928E-02 0.  1.
    10030    2    1    2    0    0  0.00000000000E+00  0.00000000000E+00 -0.53148611414E+03  0.22762012238E+04  0.22132813924E+04 0.  0.
        3    1    3    3  502    0  0.92987217268E+03  0.16401404391E+03  0.32780421033E+03  0.99950911683E+03  0.10100000352E+00 0. -1.
       -3    1    3    3    0  502 -0.92987217268E+03 -0.16401404391E+03 -0.85929032447E+03  0.12766921070E+04  0.10100000352E+00 0.  1.
</event>
<event>
 5   0  0.1433375E-05  0.2209101E+04  0.7818609E-02  0.8514650E-01
        3   -1    0    0  501    0  0.00000000000E+00  0.00000000000E+00  0.14727116748E+04  0.14727116782E+04  0.10100000352E+00 0. -1.
       -3   -1    0    0    0  501  0.00000000000E+00  0.00000000000E+00 -0.82842540661E+03  0.82842541276E+03  0.10100000352E+00 0.  1.
    10030    2    1    2    0    0  0.00000000000E+00  0.00000000000E+00  0.64428626816E+03  0.23011370910E+04  0.22091009747E+04 0.  0.
        4    1    3    3  502    0  0.19812851737E+03  0.95094193329E+03 -0.22558175265E+03  0.99721322189E+03  0.12699999809E+01 0.  1.
       -4    1    3    3    0  502 -0.19812851737E+03 -0.95094193329E+03  0.86986802081E+03  0.13039238691E+04  0.12699999809E+01 0. -1.
</event>
<event>
 5   0  0.4143281E-05  0.2203436E+04  0.7818609E-02  0.8516999E-01
       -2   -1    0    0    0  501  0.00000000000E+00  0.00000000000E+00  0.76270456036E+03  0.76270456036E+03  0.25500000920E-02 0.  1.
        2   -1    0    0  501    0  0.00000000000E+00  0.00000000000E+00 -0.15914187418E+04  0.15914187418E+04  0.25500000920E-02 0. -1.
    10030    2    1    2    0    0  0.00000000000E+00  0.00000000000E+00 -0.82871418140E+03  0.23541233021E+04  0.22034358006E+04 0.  0.
        2    1    3    3  502    0  0.11844317705E+03  0.67943326233E+03 -0.13322530635E+04  0.15001855117E+04  0.25500000920E-02 0. -1.
       -2    1    3    3    0  502 -0.11844317705E+03 -0.67943326233E+03  0.50353888213E+03  0.85393779045E+03  0.25500000920E-02 0.  1.
</event>
<event>
 5   0  0.4027923E-05  0.2137259E+04  0.7818609E-02  0.8545006E-01
        2   -1    0    0  501    0  0.00000000000E+00  0.00000000000E+00  0.92438124483E+03  0.92438124483E+03  0.25500000920E-02 0. -1.
       -2   -1    0    0    0  501  0.00000000000E+00  0.00000000000E+00 -0.12353876728E+04  0.12353876728E+04  0.25500000920E-02 0.  1.
    10030    2    1    2    0    0  0.00000000000E+00  0.00000000000E+00 -0.31100642798E+03  0.21597689176E+04  0.21372591746E+04 0.  0.
        5    1    3    3  502    0  0.47576128129E+02  0.19196839537E+03  0.90571507858E+03  0.92706917021E+03  0.46999998093E+01 0. -1.
       -5    1    3    3    0  502 -0.47576128129E+02 -0.19196839537E+03 -0.12167215066E+04  0.12326997474E+04  0.46999998093E+01 0.  1.
</event>
<event>
 5   0  0.1866935E-05  0.2206185E+04  0.7818609E-02  0.8515858E-01
       -1   -1    0    0    0  501  0.00000000000E+00  0.00000000000E+00  0.38074904083E+03  0.38074904086E+03  0.50400001928E-02 0.  1.
        1   -1    0    0  501    0  0.00000000000E+00  0.00000000000E+00 -0.31958395779E+04  0.31958395779E+04  0.50400001928E-02 0. -1.
    10030    2    1    2    0    0  0.00000000000E+00  0.00000000000E+00 -0.28150905371E+04  0.35765886188E+04  0.22061848100E+04 0.  0.
        4    1    3    3  502    0  0.30381460849E+03  0.10381779256E+04 -0.17578613353E+04  0.20640239360E+04  0.12699999809E+01 0. -1.
       -4    1    3    3    0  502 -0.30381460849E+03 -0.10381779256E+04 -0.10572292018E+04  0.15125646828E+04  0.12699999809E+01 0.  1.
</event>
<event>
 5   0  0.4132460E-05  0.2037264E+04  0.7818609E-02  0.8589394E-01
       -2   -1    0    0    0  501  0.00000000000E+00  0.00000000000E+00  0.57924140138E+03  0.57924140139E+03  0.25500000920E-02 0.  1.
        2   -1    0    0  501    0  0.00000000000E+00  0.00000000000E+00 -0.17913269229E+04  0.17913269229E+04  0.25500000920E-02 0. -1.
    10030    2    1    2    0    0  0.00000000000E+00  0.00000000000E+00 -0.12120855215E+04  0.23705683243E+04  0.20372635737E+04 0.  0.
        4    1    3    3  502    0  0.23616645973E+03  0.77038911386E+02 -0.17555396697E+04  0.17730286899E+04  0.12699999809E+01 0. -1.
       -4    1    3    3    0  502 -0.23616645973E+03 -0.77038911386E+02  0.54345414817E+03  0.59753963436E+03  0.12699999809E+01 0.  1.
</event>
<event>
 5   0  0.1786228E-05  0.2208924E+04  0.7818609E-02  0.8514723E-01
        1   -1    0    0  501    0  0.00000000000E+00  0.00000000000E+00  0.10716802920E+04  0.10716802921E+04  0.50400001928E-02 0. -1.
       -1   -1    0    0    0  501  0.00000000000E+00  0.00000000000E+00 -0.11382460911E+04  0.11382460911E+04  0.50400001928E-02 0.  1.
    10030    2    1    2    0    0  0.00000000000E+00  0.00000000000E+00 -0.66565799072E+02  0.22099263832E+04  0.22089236323E+04 0.  0.
        5    1    3    3  502    0 -0.75136934730E+03  0.71833621220E+03  0.34005000750E+03  0.10937179286E+04  0.46999998093E+01 0. -1.
       -5    1    3    3    0  502  0.75136934730E+03 -0.71833621220E+03 -0.40661580657E+03  0.11162084545E+04  0.46999998093E+01 0.  1.
</event>
<event>
 5   0  0.4143281E-05  0.2192393E+04  0.7818609E-02  0.8521601E-01
       -2   -1    0    0    0  501  0.00000000000E+00  0.00000000000E+00  0.61601996052E+03  0.61601996053E+03  0.25500000920E-02 0.  1.
        2   -1    0    0  501    0  0.00000000000E+00  0.00000000000E+00 -0.19506623245E+04  0.19506623245E+04  0.25500000920E-02 0. -1.
    10030    2    1    2    0    0  0.00000000000E+00  0.00000000000E+00 -0.13346423640E+04  0.25666822851E+04  0.21923931474E+04 0.  0.
        2    1    3    3  502    0  0.60662337643E+03  0.35690742677E+03 -0.16511956742E+04  0.17949434495E+04  0.25500000920E-02 0. -1.
       -2    1    3    3    0  502 -0.60662337643E+03 -0.35690742677E+03  0.31655331025E+03  0.77173883559E+03  0.25500000920E-02 0.  1.
</event>
<event>
 5   0  0.4029532E-05  0.2201167E+04  0.7818609E-02  0.8517943E-01
       -2   -1    0    0    0  501  0.00000000000E+00  0.00000000000E+00  0.56927978105E+03  0.56927978105E+03  0.25500000920E-02 0. -1.
        2   -1    0    0  501    0  0.00000000000E+00  0.00000000000E+00 -0.21277476757E+04  0.21277476757E+04  0.25500000920E-02 0.  1.
    10030    2    1    2    0    0  0.00000000000E+00  0.00000000000E+00 -0.15584678946E+04  0.26970274567E+04  0.22011667188E+04 0.  0.
        3    1    3    3  502    0 -0.24885675131E+02 -0.62257383449E+03 -0.18908372423E+04  0.19908498093E+04  0.10100000352E+00 0.  1.
       -3    1    3    3    0  502  0.24885675131E+02  0.62257383449E+03  0.33236934768E+03  0.70617764740E+03  0.10100000352E+00 0. -1.
</event>
<event>
 5   0  0.1815681E-05  0.2188356E+04  0.7818609E-02  0.8523290E-01
       -1   -1    0    0    0  501  0.00000000000E+00  0.00000000000E+00  0.10934771718E+04  0.10934771718E+04  0.50400001928E-02 0.  1.
        1   -1    0    0  501    0  0.00000000000E+00  0.00000000000E+00 -0.10948792905E+04  0.10948792905E+04  0.50400001928E-02 0. -1.
    10030    2    1    2    0    0  0.00000000000E+00  0.00000000000E+00 -0.14021187242E+01  0.21883564623E+04  0.21883560131E+04 0.  0.
        2    1    3    3  502    0  0.58440695554E+02  0.13048783399E+03 -0.10854976317E+04  0.10948732795E+04  0.25500000920E-02 0. -1.
       -2    1    3    3    0  502 -0.58440695554E+02 -0.13048783399E+03  0.10840955130E+04  0.10934831828E+04  0.25500000920E-02 0.  1.
</event>
<event>
 5   0  0.1786228E-05  0.2215384E+04  0.7818609E-02  0.8512052E-01
        1   -1    0    0  501    0  0.00000000000E+00  0.00000000000E+00  0.11602194157E+04  0.11602194157E+04  0.50400001928E-02 0.  1.
       -1   -1    0    0    0  501  0.00000000000E+00  0.00000000000E+00 -0.10575431095E+04  0.10575431095E+04  0.50400001928E-02 0. -1.
    10030    2    1    2    0    0  0.00000000000E+00  0.00000000000E+00  0.10267630625E+03  0.22177625252E+04  0.22153844349E+04 0.  0.
        5    1    3    3  502    0 -0.55264877998E+03  0.64603151228E+02  0.10101583945E+04  0.11532720031E+04  0.46999998093E+01 0.  1.
       -5    1    3    3    0  502  0.55264877998E+03 -0.64603151228E+02 -0.90748208824E+03  0.10644905221E+04  0.46999998093E+01 0. -1.
</event>
<event>
 5   0  0.4029532E-05  0.2233008E+04  0.7818609E-02  0.8504814E-01
       -2   -1    0    0    0  501  0.00000000000E+00  0.00000000000E+00  0.50269853140E+03  0.50269853141E+03  0.25500000920E-02 0.  1.
        2   -1    0    0  501    0  0.00000000000E+00  0.00000000000E+00 -0.24797792228E+04  0.24797792228E+04  0.25500000920E-02 0. -1.
    10030    2    1    2    0    0  0.00000000000E+00  0.00000000000E+00 -0.19770806914E+04  0.29824777542E+04  0.22330081715E+04 0.  0.
        3    1    3    3  502    0  0.73848508740E+03  0.81847068877E+03 -0.12249392218E+04  0.16479473900E+04  0.10100000352E+00 0. -1.
       -3    1    3    3    0  502 -0.73848508740E+03 -0.81847068877E+03 -0.75214146958E+03  0.13345303643E+04  0.10100000352E+00 0.  1.
</event>
<event>
 5   0  0.4029532E-05  0.2202848E+04  0.7818609E-02  0.8517244E-01
        2   -1    0    0  501    0  0.00000000000E+00  0.00000000000E+00  0.12549237768E+04  0.12549237768E+04  0.25500000920E-02 0.  1.
       -2   -1    0    0    0  501  0.00000000000E+00  0.00000000000E+00 -0.96670020806E+03  0.96670020806E+03  0.25500000920E-02 0. -1.
    10030    2    1    2    0    0  0.00000000000E+00  0.00000000000E+00  0.28822356874E+03  0.22216239849E+04  0.22028482255E+04 0.  0.
        3    1    3    3  502    0 -0.24285436376E+03  0.93209803105E+03  0.68284652541E+03  0.11807050305E+04  0.10100000352E+00 0.  1.
       -3    1    3    3    0  502  0.24285436376E+03 -0.93209803105E+03 -0.39462295667E+03  0.10409189544E+04  0.10100000352E+00 0. -1.
</event>
<event>
 5   0  0.4143281E-05  0.2193527E+04  0.7818609E-02  0.8521127E-01
        2   -1    0    0  501    0  0.00000000000E+00  0.00000000000E+00  0.14467223168E+04  0.14467223168E+04  0.25500000920E-02 0. -1.
       -2   -1    0    0    0  501  0.00000000000E+00  0.00000000000E+00 -0.83145884502E+03  0.83145884502E+03  0.25500000920E-02 0.  1.
    10030    2    1    2    0    0  0.00000000000E+00  0.00000000000E+00  0.61526347178E+03  0.22781811618E+04  0.21935269012E+04 0.  0.
        2    1    3    3  502    0 -0.60915800433E+02 -0.82565098797E+03 -0.43949105206E+03  0.93731674130E+03  0.25500000920E-02 0.  1.
       -2    1    3    3    0  502  0.60915800433E+02  0.82565098797E+03  0.10547545238E+04  0.13408644205E+04  0.25500000920E-02 0. -1.
</event>
<event>
 5   0  0.1788413E-05  0.2264285E+04  0.7818609E-02  0.8492138E-01
        1   -1    0    0  501    0  0.00000000000E+00  0.00000000000E+00  0.23261179267E+04  0.23261179267E+04  0.50400001928E-02 0. -1.
       -1   -1    0    0    0  501  0.00000000000E+00  0.00000000000E+00 -0.55102390593E+03  0.55102390595E+03  0.50400001928E-02 0.  1.
    10030    2    1    2    0    0  0.00000000000E+00  0.00000000000E+00  0.17750940207E+04  0.28771418326E+04  0.22642849517E+04 0.  0.
        1    1    3    3  502    0  0.33112832859E+03  0.15945773399E+03 -0.47311464105E+03  0.59909114709E+03  0.50400001928E-02 0.  1.
       -1    1    3    3    0  502 -0.33112832859E+03 -0.15945773399E+03  0.22482086618E+04  0.22780506856E+04  0.50400001928E-02 0. -1.
</event>
<event>
 5   0  0.4132460E-05  0.2163590E+04  0.7818609E-02  0.8533737E-01
       -2   -1    0    0    0  501  0.00000000000E+00  0.00000000000E+00  0.68276879183E+03  0.68276879183E+03  0.25500000920E-02 0.  1.
        2   -1    0    0  501    0  0.00000000000E+00  0.00000000000E+00 -0.17140217208E+04  0.17140217208E+04  0.25500000920E-02 0. -1.
    10030    2    1    2    0    0  0.00000000000E+00  0.00000000000E+00 -0.10312529290E+04  0.23967905127E+04  0.21635901086E+04 0.  0.
        4    1    3    3  502    0  0.45424616982E+03 -0.79486550746E+03 -0.11540486127E+04  0.14730853917E+04  0.12699999809E+01 0. -1.
       -4    1    3    3    0  502 -0.45424616982E+03  0.79486550746E+03  0.12279568369E+03  0.92370512101E+03  0.12699999809E+01 0.  1.
</event>
<event>
 5   0  0.4029532E-05  0.2192776E+04  0.7818609E-02  0.8521441E-01
        2   -1    0    0  501    0  0.00000000000E+00  0.00000000000E+00  0.14907678722E+04  0.14907678722E+04  0.25500000920E-02 0.  1.
       -2   -1    0    0    0  501  0.00000000000E+00  0.00000000000E+00 -0.80634041325E+03  0.80634041326E+03  0.25500000920E-02 0. -1.
    10030    2    1    2    0    0  0.00000000000E+00  0.00000000000E+00  0.68442745892E+03  0.22971082854E+04  0.21927757588E+04 0.  0.
        3    1    3    3  502    0 -0.33334532351E+03  0.14473153580E+03 -0.74141159448E+03  0.82568606915E+03  0.10100000352E+00 0. -1.
       -3    1    3    3    0  502  0.33334532351E+03 -0.14473153580E+03  0.14258390534E+04  0.14714222163E+04  0.10100000352E+00 0.  1.
</event>
<event>
 5   0  0.1815681E-05  0.2194069E+04  0.7818609E-02  0.8520901E-01
       -1   -1    0    0    0  501  0.00000000000E+00  0.00000000000E+00  0.77300526380E+03  0.77300526382E+03  0.50400001928E-02 0. -1.
        1   -1    0    0  501    0  0.00000000000E+00  0.00000000000E+00 -0.15568903963E+04  0.15568903963E+04  0.50400001928E-02 0.  1.
    10030    2    1    2    0    0  0.00000000000E+00  0.00000000000E+00 -0.78388513247E+03  0.23298956601E+04  0.21940687970E+04 0.  0.
        2    1    3    3  502    0  0.21465536258E+03  0.21866866641E+03  0.72663937544E+03  0.78860490254E+03  0.25500000920E-02 0. -1.
       -2    1    3    3    0  502 -0.21465536258E+03 -0.21866866641E+03 -0.15105245079E+04  0.15412907576E+04  0.25500000920E-02 0.  1.
</event>
<event>
 5   0  0.1788413E-05  0.2203444E+04  0.7818609E-02  0.8516996E-01
        1   -1    0    0  501    0  0.00000000000E+00  0.00000000000E+00  0.90229898457E+03  0.90229898459E+03  0.50400001928E-02 0.  1.
       -1   -1    0    0    0  501  0.00000000000E+00  0.00000000000E+00 -0.13452205659E+04  0.13452205659E+04  0.50400001928E-02 0. -1.
    10030    2    1    2    0    0  0.00000000000E+00  0.00000000000E+00 -0.44292158135E+03  0.22475195505E+04  0.22034438052E+04 0.  0.
        1    1    3    3  502    0 -0.21884779551E+03  0.44479839547E+03  0.78211611452E+03  0.92598357805E+03  0.50400001928E-02 0.  1.
       -1    1    3    3    0  502  0.21884779551E+03 -0.44479839547E+03 -0.12250376959E+04  0.13215359725E+04  0.50400001928E-02 0. -1.
</event>
<event>
 5   0  0.3963414E-05  0.2187874E+04  0.7818609E-02  0.8523492E-01
        2   -1    0    0  501    0  0.00000000000E+00  0.00000000000E+00  0.18227491475E+04  0.18227491475E+04  0.25500000920E-02 0.  1.
       -2   -1    0    0    0  501  0.00000000000E+00  0.00000000000E+00 -0.65653480336E+03  0.65653480336E+03  0.25500000920E-02 0. -1.
    10030    2    1    2    0    0  0.00000000000E+00  0.00000000000E+00  0.11662143441E+04  0.24792839508E+04  0.21878740851E+04 0.  0.
        1    1    3    3  502    0  0.58840421402E+03 -0.34684814071E+03  0.15514239451E+04  0.16951222402E+04  0.50400001928E-02 0.  1.
       -1    1    3    3    0  502 -0.58840421402E+03  0.34684814071E+03 -0.38520960094E+03  0.78416171066E+03  0.50400001928E-02 0. -1.
</event>
<event>
 5   0  0.1786228E-05  0.2202761E+04  0.7818609E-02  0.8517280E-01
       -1   -1    0    0    0  501  0.00000000000E+00  0.00000000000E+00  0.78321855333E+03  0.78321855334E+03  0.50400001928E-02 0.  1.
        1   -1    0    0  501    0  0.00000000000E+00  0.00000000000E+00 -0.15487878763E+04  0.15487878763E+04  0.50400001928E-02 0. -1.
    10030    2    1    2    0    0  0.00000000000E+00  0.00000000000E+00 -0.76556932292E+03  0.23320064296E+04  0.22027613578E+04 0.  0.
        5    1    3    3  502    0 -0.46413045842E+02  0.19723757583E+03 -0.15288748043E+04  0.15422506572E+04  0.46999998093E+01 0. -1.
       -5    1    3    3    0  502  0.46413045842E+02 -0.19723757583E+03  0.76330548142E+03  0.78975577244E+03  0.46999998093E+01 0.  1.
</event>
<event>
 5   0  0.1866935E-05  0.2189618E+04  0.7818609E-02  0.8522762E-01
        1   -1    0    0  501    0  0.00000000000E+00  0.00000000000E+00  0.73264273407E+03  0.73264273409E+03  0.50400001928E-02 0.  1.
       -1   -1    0    0    0  501  0.00000000000E+00  0.00000000000E+00 -0.16360038181E+04  0.16360038181E+04  0.50400001928E-02 0. -1.
    10030    2    1    2    0    0  0.00000000000E+00  0.00000000000E+00 -0.90336108405E+03  0.23686465522E+04  0.21896176016E+04 0.  0.
        4    1    3    3  502    0 -0.87109101151E+03 -0.13277405792E+03 -0.11545567718E+04  0.14523881895E+04  0.12699999809E+01 0.  1.
       -4    1    3    3    0  502  0.87109101151E+03  0.13277405792E+03  0.25119568776E+03  0.91625836271E+03  0.12699999809E+01 0. -1.
</event>
<event>
 5   0  0.4029532E-05  0.2200593E+04  0.7818609E-02  0.8518181E-01
       -2   -1    0    0    0  501  0.00000000000E+00  0.00000000000E+00  0.73893874133E+03  0.73893874133E+03  0.25500000920E-02 0.  1.
        2   -1    0    0  501    0  0.00000000000E+00  0.00000000000E+00 -0.16383663298E+04  0.16383663298E+04  0.25500000920E-02 0. -1.
    10030    2    1    2    0    0  0.00000000000E+00  0.00000000000E+00 -0.89942758852E+03  0.23773050712E+04  0.22005929688E+04 0.  0.
        3    1    3    3  502    0 -0.37078857022E+03 -0.88394049025E+03 -0.10332943049E+04  0.14094438921E+04  0.10100000352E+00 0. -1.
       -3    1    3    3    0  502  0.37078857022E+03  0.88394049025E+03  0.13386671639E+03  0.96786117913E+03  0.10100000352E+00 0.  1.
</event>
<event>
 5   0  0.1866935E-05  0.2196051E+04  0.7818609E-02  0.8520073E-01
        1   -1    0    0  501    0  0.00000000000E+00  0.00000000000E+00  0.10097561787E+04  0.10097561788E+04  0.50400001928E-02 0.  1.
       -1   -1    0    0    0  501  0.00000000000E+00  0.00000000000E+00 -0.11940112687E+04  0.11940112687E+04  0.50400001928E-02 0. -1.
    10030    2    1    2    0    0  0.00000000000E+00  0.00000000000E+00 -0.18425508992E+03  0.22037674474E+04  0.21960512344E+04 0.  0.
        4    1    3    3  502    0  0.96716948243E+03  0.84511743884E+02 -0.60686217793E+03  0.11449202411E+04  0.12699999809E+01 0. -1.
       -4    1    3    3    0  502 -0.96716948243E+03 -0.84511743884E+02  0.42260708802E+03  0.10588472063E+04  0.12699999809E+01 0.  1.
</event>
<event>
 5   0  0.1788413E-05  0.2180106E+04  0.7818609E-02  0.8526754E-01
        1   -1    0    0  501    0  0.00000000000E+00  0.00000000000E+00  0.10203073144E+04  0.10203073144E+04  0.50400001928E-02 0.  1.
       -1   -1    0    0    0  501  0.00000000000E+00  0.00000000000E+00 -0.11645664521E+04  0.11645664521E+04  0.50400001928E-02 0. -1.
    10030    2    1    2    0    0  0.00000000000E+00  0.00000000000E+00 -0.14425913769E+03  0.21848737665E+04  0.21801061160E+04 0.  0.
        1    1    3    3  502    0 -0.53067827705E+03  0.14343759610E+03  0.87121628095E+03  0.10301512442E+04  0.50400001928E-02 0.  1.
       -1    1    3    3    0  502  0.53067827705E+03 -0.14343759610E+03 -0.10154754186E+04  0.11547225223E+04  0.50400001928E-02 0. -1.
</event>
<event>
 5   0  0.1815681E-05  0.2187887E+04  0.7818609E-02  0.8523487E-01
        1   -1    0    0  501    0  0.00000000000E+00  0.00000000000E+00  0.10029787419E+04  0.10029787419E+04  0.50400001928E-02 0.  1.
       -1   -1    0    0    0  501  0.00000000000E+00  0.00000000000E+00 -0.11931577826E+04  0.11931577826E+04  0.50400001928E-02 0. -1.
    10030    2    1    2    0    0  0.00000000000E+00  0.00000000000E+00 -0.19017904063E+03  0.21961365245E+04  0.21878865525E+04 0.  0.
        2    1    3    3  502    0 -0.34442766877E+03  0.10279602061E+04  0.51678402369E+02  0.10853585867E+04  0.25500000920E-02 0.  1.
       -2    1    3    3    0  502  0.34442766877E+03 -0.10279602061E+04 -0.24185744299E+03  0.11107779378E+04  0.25500000920E-02 0. -1.
</event>
<event>
 5   0  0.3963414E-05  0.2192177E+04  0.7818609E-02  0.8521691E-01
       -2   -1    0    0    0  501  0.00000000000E+00  0.00000000000E+00  0.51417966511E+03  0.51417966512E+03  0.25500000920E-02 0.  1.
        2   -1    0    0  501    0  0.00000000000E+00  0.00000000000E+00 -0.23365564718E+04  0.23365564718E+04  0.25500000920E-02 0. -1.
    10030    2    1    2    0    0  0.00000000000E+00  0.00000000000E+00 -0.18223768067E+04  0.28507361370E+04  0.21921768398E+04 0.  0.
        1    1    3    3  502    0  0.59143494026E+03 -0.64964124538E+02 -0.21082711709E+04  0.21906215912E+04  0.50400001928E-02 0. -1.
       -1    1    3    3    0  502 -0.59143494026E+03  0.64964124538E+02  0.28589436412E+03  0.66011454574E+03  0.50400001928E-02 0.  1.
</event>
<event>
 5   0  0.1433375E-05  0.2142298E+04  0.7818609E-02  0.8542836E-01
       -3   -1    0    0    0  501  0.00000000000E+00  0.00000000000E+00  0.10358040190E+04  0.10358040239E+04  0.10100000352E+00 0. -1.
        3   -1    0    0  501    0  0.00000000000E+00  0.00000000000E+00 -0.11076996055E+04  0.11076996101E+04  0.10100000352E+00 0.  1.
    10030    2    1    2    0    0  0.00000000000E+00  0.00000000000E+00 -0.71895586463E+02  0.21435036340E+04  0.21422975642E+04 0.  0.
        2    1    3    3  502    0 -0.94128527153E+03  0.44808517718E+03 -0.28217864810E+03  0.10800106841E+04  0.25500000920E-02 0.  1.
       -2    1    3    3    0  502  0.94128527153E+03 -0.44808517718E+03  0.21028306164E+03  0.10634929499E+04  0.25500000920E-02 0. -1.
</event>
<event>
 5   0  0.4029532E-05  0.2216580E+04  0.7818609E-02  0.8511559E-01
       -2   -1    0    0    0  501  0.00000000000E+00  0.00000000000E+00  0.12170176032E+04  0.12170176032E+04  0.25500000920E-02 0.  1.
        2   -1    0    0  501    0  0.00000000000E+00  0.00000000000E+00 -0.10092764429E+04  0.10092764429E+04  0.25500000920E-02 0. -1.
    10030    2    1    2    0    0  0.00000000000E+00  0.00000000000E+00  0.20774116035E+03  0.22262940461E+04  0.22165804271E+04 0.  0.
        3    1    3    3  502    0 -0.94826281681E+03  0.11130851817E+03  0.66911138450E+03  0.11658910803E+04  0.10100000352E+00 0.  1.
       -3    1    3    3    0  502  0.94826281681E+03 -0.11130851817E+03 -0.46137022415E+03  0.10604029658E+04  0.10100000352E+00 0. -1.
</event>
<event>
 5   0  0.4143281E-05  0.2220014E+04  0.7818609E-02  0.8510144E-01
       -2   -1    0    0    0  501  0.00000000000E+00  0.00000000000E+00  0.10121258689E+04  0.10121258689E+04  0.25500000920E-02 0. -1.
        2   -1    0    0  501    0  0.00000000000E+00  0.00000000000E+00 -0.12173540584E+04  0.12173540584E+04  0.25500000920E-02 0.  1.
    10030    2    1    2    0    0  0.00000000000E+00  0.00000000000E+00 -0.20522818958E+03  0.22294799273E+04  0.22200139946E+04 0.  0.
        2    1    3    3  502    0 -0.69898057681E+03  0.15072681102E+03 -0.95524723165E+03  0.11932265887E+04  0.25500000920E-02 0.  1.
       -2    1    3    3    0  502  0.69898057681E+03 -0.15072681102E+03  0.75001904207E+03  0.10362533386E+04  0.25500000920E-02 0. -1.
</event>
<event>
 5   0  0.3963414E-05  0.2196833E+04  0.7818609E-02  0.8519747E-01
       -2   -1    0    0    0  501  0.00000000000E+00  0.00000000000E+00  0.14090388507E+04  0.14090388507E+04  0.25500000920E-02 0.  1.
        2   -1    0    0  501    0  0.00000000000E+00  0.00000000000E+00 -0.85627084304E+03  0.85627084305E+03  0.25500000920E-02 0. -1.
    10030    2    1    2    0    0  0.00000000000E+00  0.00000000000E+00  0.55276800766E+03  0.22653096937E+04  0.21968330702E+04 0.  0.
        1    1    3    3  502    0  0.45883928101E+03 -0.98548757901E+03  0.43877170349E+03  0.11722797712E+04  0.50400001928E-02 0.  1.
       -1    1    3    3    0  502 -0.45883928101E+03  0.98548757901E+03  0.11399630416E+03  0.10930299225E+04  0.50400001928E-02 0. -1.
</event>
<event>
 5   0  0.4029532E-05  0.2193230E+04  0.7818609E-02  0.8521251E-01
       -2   -1    0    0    0  501  0.00000000000E+00  0.00000000000E+00  0.21652973309E+04  0.21652973309E+04  0.25500000920E-02 0.  1.
        2   -1    0    0  501    0  0.00000000000E+00  0.00000000000E+00 -0.55538068509E+03  0.55538068509E+03  0.25500000920E-02 0. -1.
    10030    2    1    2    0    0  0.00000000000E+00  0.00000000000E+00  0.16099166458E+04  0.27206780160E+04  0.21932298695E+04 0.  0.
        3    1    3    3  502    0 -0.12840421022E+03  0.65582448644E+03  0.18835213696E+04  0.19985610219E+04  0.10100000352E+00 0.  1.
       -3    1    3    3    0  502  0.12840421022E+03 -0.65582448644E+03 -0.27360472374E+03  0.72211699417E+03  0.10100000352E+00 0. -1.
</event>
<event>
 5   0  0.1788413E-05  0.2203097E+04  0.7818609E-02  0.8517140E-01
       -1   -1    0    0    0  501  0.00000000000E+00  0.00000000000E+00  0.57701939449E+03  0.57701939451E+03  0.50400001928E-02 0.  1.
        1   -1    0    0  501    0  0.00000000000E+00  0.00000000000E+00 -0.21028916739E+04  0.21028916739E+04  0.50400001928E-02 0. -1.
    10030    2    1    2    0    0  0.00000000000E+00  0.00000000000E+00 -0.15258722794E+04  0.26799110684E+04  0.22030971657E+04 0.  0.
        1    1    3    3  502    0 -0.12603757541E+03 -0.10154370913E+04 -0.26671167943E+03  0.10574181182E+04  0.50400001928E-02 0.  1.
       -1    1    3    3    0  502  0.12603757541E+03  0.10154370913E+04 -0.12591606000E+04  0.16224929502E+04  0.50400001928E-02 0. -1.
</event>
<event>
 5   0  0.1433375E-05  0.2202736E+04  0.7818609E-02  0.8517290E-01
       -3   -1    0    0    0  501  0.00000000000E+00  0.00000000000E+00  0.16877097734E+04  0.16877097764E+04  0.10100000352E+00 0.  1.
        3   -1    0    0  501    0  0.00000000000E+00  0.00000000000E+00 -0.71873233131E+03  0.71873233841E+03  0.10100000352E+00 0. -1.
    10030    2    1    2    0    0  0.00000000000E+00  0.00000000000E+00  0.96897744211E+03  0.24064421148E+04  0.22027361097E+04 0.  0.
        2    1    3    3  502    0 -0.90154804455E+03 -0.63261606184E+03  0.47964793518E+03  0.12012718677E+04  0.25500000920E-02 0. -1.
       -2    1    3    3    0  502  0.90154804455E+03  0.63261606184E+03  0.48932950694E+03  0.12051702472E+04  0.25500000920E-02 0.  1.
</event>
<event>
 5   0  0.1433375E-05  0.2212788E+04  0.7818609E-02  0.8513124E-01
        3   -1    0    0  501    0  0.00000000000E+00  0.00000000000E+00  0.62764246164E+03  0.62764246977E+03  0.10100000352E+00 0. -1.
       -3   -1    0    0    0  501  0.00000000000E+00  0.00000000000E+00 -0.19503271607E+04  0.19503271633E+04  0.10100000352E+00 0.  1.
    10030    2    1    2    0    0  0.00000000000E+00  0.00000000000E+00 -0.13226846991E+04  0.25779696331E+04  0.22127884255E+04 0.  0.
        3    1    3    3  502    0 -0.34652305740E+02 -0.10864750498E+04 -0.42122324036E+03  0.11657863632E+04  0.10100000352E+00 0. -1.
       -3    1    3    3    0  502  0.34652305740E+02  0.10864750498E+04 -0.90146145873E+03  0.14121832699E+04  0.10100000352E+00 0.  1.
</event>
<event>
 5   0  0.4132460E-05  0.2210800E+04  0.7818609E-02  0.8513946E-01
        2   -1    0    0  501    0  0.00000000000E+00  0.00000000000E+00  0.97650709161E+03  0.97650709161E+03  0.25500000920E-02 0. -1.
       -2   -1    0    0    0  501  0.00000000000E+00  0.00000000000E+00 -0.12513056010E+04  0.12513056010E+04  0.25500000920E-02 0.  1.
    10030    2    1    2    0    0  0.00000000000E+00  0.00000000000E+00 -0.27479850939E+03  0.22278126926E+04  0.22107996681E+04 0.  0.
        4    1    3    3  502    0 -0.42059151946E+03  0.75835981523E+02 -0.11646847369E+04  0.12406210024E+04  0.12699999809E+01 0.  1.
       -4    1    3    3    0  502  0.42059151946E+03 -0.75835981523E+02  0.88988622753E+03  0.98719169019E+03  0.12699999809E+01 0. -1.
</event>
<event>
 5   0  0.4143281E-05  0.2173473E+04  0.7818609E-02  0.8529551E-01
        2   -1    0    0  501    0  0.00000000000E+00  0.00000000000E+00  0.21136120490E+04  0.21136120490E+04  0.25500000920E-02 0.  1.
       -2   -1    0    0    0  501  0.00000000000E+00  0.00000000000E+00 -0.55875714081E+03  0.55875714081E+03  0.25500000920E-02 0. -1.
    10030    2    1    2    0    0  0.00000000000E+00  0.00000000000E+00  0.15548549082E+04  0.26723691898E+04  0.21734726364E+04 0.  0.
        2    1    3    3  502    0 -0.85381051677E+03  0.14082230046E+03 -0.30869321999E+02  0.86589620273E+03  0.25500000920E-02 0.  1.
       -2    1    3    3    0  502  0.85381051677E+03 -0.14082230046E+03  0.15857242302E+04  0.18064729871E+04  0.25500000920E-02 0. -1.
</event>
<event>
 5   0  0.1815681E-05  0.2185060E+04  0.7818609E-02  0.8524672E-01
       -1   -1    0    0    0  501  0.00000000000E+00  0.00000000000E+00  0.72297270301E+03  0.72297270303E+03  0.50400001928E-02 0.  1.
        1   -1    0    0  501    0  0.00000000000E+00  0.00000000000E+00 -0.16509912305E+04  0.16509912305E+04  0.50400001928E-02 0. -1.
    10030    2    1    2    0    0  0.00000000000E+00  0.00000000000E+00 -0.92801852749E+03  0.23739639335E+04  0.21850598093E+04 0.  0.
        2    1    3    3  502    0 -0.64147546901E+03 -0.33447076729E+03  0.42546313909E+03  0.83927370640E+03  0.25500000920E-02 0.  1.
       -2    1    3    3    0  502  0.64147546901E+03  0.33447076729E+03 -0.13534816666E+04  0.15346902271E+04  0.25500000920E-02 0. -1.
</event>
<event>
 5   0  0.1433375E-05  0.2210991E+04  0.7818609E-02  0.8513867E-01
        4   -1    0    0  501    0  0.00000000000E+00  0.00000000000E+00  0.10468251107E+04  0.10468258810E+04  0.12699999809E+01 0.  1.
       -4   -1    0    0    0  501  0.00000000000E+00  0.00000000000E+00 -0.11674524812E+04  0.11674531720E+04  0.12699999809E+01 0. -1.
    10030    2    1    2    0    0  0.00000000000E+00  0.00000000000E+00 -0.12062737055E+03  0.22142790530E+04  0.22109909005E+04 0.  0.
        3    1    3    3  502    0  0.41561827587E+03 -0.10235261662E+04 -0.18110579419E+02  0.11048404262E+04  0.10100000352E+00 0.  1.
       -3    1    3    3    0  502 -0.41561827587E+03  0.10235261662E+04 -0.10251679113E+03  0.11094386268E+04  0.10100000352E+00 0. -1.
</event>
<event>
 5   0  0.3963414E-05  0.2197467E+04  0.7818609E-02  0.8519483E-01
       -2   -1    0    0    0  501  0.00000000000E+00  0.00000000000E+00  0.95648435631E+03  0.95648435631E+03  0.25500000920E-02 0.  1.
        2   -1    0    0  501    0  0.00000000000E+00  0.00000000000E+00 -0.12621385784E+04  0.12621385784E+04  0.25500000920E-02 0. -1.
    10030    2    1    2    0    0  0.00000000000E+00  0.00000000000E+00 -0.30565422212E+03  0.22186229347E+04  0.21974674566E+04 0.  0.
        1    1    3    3  502    0  0.10562974076E+04 -0.19400938623E+03  0.81380181114E+02  0.10770453051E+04  0.50400001928E-02 0.  1.
       -1    1    3    3    0  502 -0.10562974076E+04  0.19400938623E+03 -0.38703440323E+03  0.11415776297E+04  0.50400001928E-02 0. -1.
</event>
<event>
 5   0  0.1866935E-05  0.2170256E+04  0.7818609E-02  0.8530911E-01
       -1   -1    0    0    0  501  0.00000000000E+00  0.00000000000E+00  0.14531102026E+04  0.14531102026E+04  0.50400001928E-02 0.  1.
        1   -1    0    0  501    0  0.00000000000E+00  0.00000000000E+00 -0.81033239256E+03  0.81033239258E+03  0.50400001928E-02 0. -1.
    10030    2    1    2    0    0  0.00000000000E+00  0.00000000000E+00  0.64277781000E+03  0.22634425951E+04  0.21702555307E+04 0.  0.
        4    1    3    3  502    0  0.13623379747E+03 -0.10287592712E+04 -0.93974646706E+01  0.10377837978E+04  0.12699999809E+01 0. -1.
       -4    1    3    3    0  502 -0.13623379747E+03  0.10287592712E+04  0.65217527467E+03  0.12256587974E+04  0.12699999809E+01 0.  1.
</event>
<event>
 5   0  0.1786228E-05  0.2195770E+04  0.7818609E-02  0.8520191E-01
       -1   -1    0    0    0  501  0.00000000000E+00  0.00000000000E+00  0.77079224638E+03  0.77079224640E+03  0.50400001928E-02 0.  1.
        1   -1    0    0  501    0  0.00000000000E+00  0.00000000000E+00 -0.15637820809E+04  0.15637820809E+04  0.50400001928E-02 0. -1.
    10030    2    1    2    0    0  0.00000000000E+00  0.00000000000E+00 -0.79298983448E+03  0.23345743273E+04  0.21957696628E+04 0.  0.
        5    1    3    3  502    0  0.91491558813E+03 -0.57919110307E+03 -0.58903995411E+03  0.12326893464E+04  0.46999998093E+01 0. -1.
       -5    1    3    3    0  502 -0.91491558813E+03  0.57919110307E+03 -0.20394988037E+03  0.11018849808E+04  0.46999998093E+01 0.  1.
</event>
<event>
 5   0  0.1788413E-05  0.2142722E+04  0.7818609E-02  0.8542654E-01
        1   -1    0    0  501    0  0.00000000000E+00  0.00000000000E+00  0.77009356609E+03  0.77009356610E+03  0.50400001928E-02 0. -1.
       -1   -1    0    0    0  501  0.00000000000E+00  0.00000000000E+00 -0.14904870536E+04  0.14904870536E+04  0.50400001928E-02 0.  1.
    10030    2    1    2    0    0  0.00000000000E+00  0.00000000000E+00 -0.72039348748E+03  0.22605806197E+04  0.21427220915E+04 0.  0.
        1    1    3    3  502    0  0.47688310171E+03 -0.68862559686E+03  0.34452056395E+03  0.90571359952E+03  0.50400001928E-02 0. -1.
       -1    1    3    3    0  502 -0.47688310171E+03  0.68862559686E+03 -0.10649140514E+04  0.13548670201E+04  0.50400001928E-02 0.  1.
</event>
<event>
 5   0  0.1884407E-05  0.2194400E+04  0.7818609E-02  0.8520763E-01
       -1   -1    0    0    0  501  0.00000000000E+00  0.00000000000E+00  0.43070209627E+03  0.43070209630E+03  0.50400001928E-02 0.  1.
        1   -1    0    0  501    0  0.00000000000E+00  0.00000000000E+00 -0.27950814929E+04  0.27950814929E+04  0.50400001928E-02 0. -1.
    10030    2    1    2    0    0  0.00000000000E+00  0.00000000000E+00 -0.23643793966E+04  0.32257835892E+04  0.21943996521E+04 0.  0.
        3    1    3    3  502    0  0.88691100850E+03  0.61928635923E+03 -0.91224929111E+03  0.14150355158E+04  0.10100000352E+00 0. -1.
       -3    1    3    3    0  502 -0.88691100850E+03 -0.61928635923E+03 -0.14521301055E+04  0.18107480734E+04  0.10100000352E+00 0.  1.
</event>
<event>
 5   0  0.4029532E-05  0.2189955E+04  0.7818609E-02  0.8522621E-01
       -2   -1    0    0    0  501  0.00000000000E+00  0.00000000000E+00  0.12915687185E+04  0.12915687185E+04  0.25500000920E-02 0.  1.
        2   -1    0    0  501    0  0.00000000000E+00  0.00000000000E+00 -0.92831002285E+03  0.92831002286E+03  0.25500000920E-02 0. -1.
    10030    2    1    2    0    0  0.00000000000E+00  0.00000000000E+00  0.36325869567E+03  0.22198787414E+04  0.21899554211E+04 0.  0.
        3    1    3    3  502    0 -0.28583599442E+03 -0.10552885705E+04  0.24278608279E+03  0.11199469965E+04  0.10100000352E+00 0. -1.
       -3    1    3    3    0  502  0.28583599442E+03  0.10552885705E+04  0.12047261288E+03  0.10999317449E+04  0.10100000352E+00 0.  1.
</event>
<event>
 5   0  0.3963414E-05  0.2364953E+04  0.7818609E-02  0.8452742E-01
        2   -1    0    0  501    0  0.00000000000E+00  0.00000000000E+00  0.79677749307E+03  0.79677749307E+03  0.25500000920E-02 0.  1.
       -2   -1    0    0    0  501  0.00000000000E+00  0.00000000000E+00 -0.17548819265E+04  0.17548819265E+04  0.25500000920E-02 0. -1.
    10030    2    1    2    0    0  0.00000000000E+00  0.00000000000E+00 -0.95810443346E+03  0.25516594196E+04  0.23649527877E+04 0.  0.
        1    1    3    3  502    0 -0.41173573032E+03  0.39445619223E+03  0.63864991828E+03  0.85615169062E+03  0.50400001928E-02 0.  1.
       -1    1    3    3    0  502  0.41173573032E+03 -0.39445619223E+03 -0.15967543517E+04  0.16955077290E+04  0.50400001928E-02 0. -1.
</event>
<event>
 5   0  0.1433375E-05  0.2232361E+04  0.7818609E-02  0.8505078E-01
       -3   -1    0    0    0  501  0.00000000000E+00  0.00000000000E+00  0.36420823576E+03  0.36420824977E+03  0.10100000352E+00 0. -1.
        3   -1    0    0  501    0  0.00000000000E+00  0.00000000000E+00 -0.34207331574E+04  0.34207331589E+04  0.10100000352E+00 0.  1.
    10030    2    1    2    0    0  0.00000000000E+00  0.00000000000E+00 -0.30565249216E+04  0.37849414086E+04  0.22323612768E+04 0.  0.
        4    1    3    3  502    0 -0.38062493311E+03  0.47320097152E+03  0.59589836221E+02  0.61020247511E+03  0.12699999809E+01 0. -1.
       -4    1    3    3    0  502  0.38062493311E+03 -0.47320097152E+03 -0.31161147578E+04  0.31747389335E+04  0.12699999809E+01 0.  1.
</event>
<event>
 5   0  0.4132460E-05  0.2200602E+04  0.7818609E-02  0.8518178E-01
       -2   -1    0    0    0  501  0.00000000000E+00  0.00000000000E+00  0.12466138944E+04  0.12466138944E+04  0.25500000920E-02 0. -1.
        2   -1    0    0  501    0  0.00000000000E+00  0.00000000000E+00 -0.97116030051E+03  0.97116030051E+03  0.25500000920E-02 0.  1.
    10030    2    1    2    0    0  0.00000000000E+00  0.00000000000E+00  0.27545359386E+03  0.22177741949E+04  0.22006016671E+04 0.  0.
        4    1    3    3  502    0  0.65551491342E+03  0.84543974739E+03 -0.12155922809E+03  0.10766830671E+04  0.12699999809E+01 0.  1.
       -4    1    3    3    0  502 -0.65551491342E+03 -0.84543974739E+03  0.39701282195E+03  0.11410911278E+04  0.12699999809E+01 0. -1.
</event>
<event>
 5   0  0.1815681E-05  0.2194614E+04  0.7818609E-02  0.8520673E-01
        1   -1    0    0  501    0  0.00000000000E+00  0.00000000000E+00  0.21433023837E+04  0.21433023837E+04  0.50400001928E-02 0. -1.
       -1   -1    0    0    0  501  0.00000000000E+00  0.00000000000E+00 -0.56178831819E+03  0.56178831821E+03  0.50400001928E-02 0.  1.
    10030    2    1    2    0    0  0.00000000000E+00  0.00000000000E+00  0.15815140655E+04  0.27050907019E+04  0.21946136257E+04 0.  0.
        2    1    3    3  502    0 -0.54757053788E+03  0.54192331646E+03 -0.17238587825E+03  0.78944997683E+03  0.25500000920E-02 0.  1.
       -2    1    3    3    0  502  0.54757053788E+03 -0.54192331646E+03  0.17538999438E+04  0.19156407251E+04  0.25500000920E-02 0. -1.
</event>
<event>
 5   0  0.4027923E-05  0.2210238E+04  0.7818609E-02  0.8514179E-01
       -2   -1    0    0    0  501  0.00000000000E+00  0.00000000000E+00  0.58098180726E+03  0.58098180726E+03  0.25500000920E-02 0. -1.
        2   -1    0    0  501    0  0.00000000000E+00  0.00000000000E+00 -0.21021112394E+04  0.21021112394E+04  0.25500000920E-02 0.  1.
    10030    2    1    2    0    0  0.00000000000E+00  0.00000000000E+00 -0.15211294322E+04  0.26830930467E+04  0.22102383464E+04 0.  0.
        5    1    3    3  502    0 -0.34210796732E+03 -0.31276629318E+03  0.45725545833E+03  0.65112614725E+03  0.46999998093E+01 0. -1.
       -5    1    3    3    0  502  0.34210796732E+03  0.31276629318E+03 -0.19783848905E+04  0.20319668994E+04  0.46999998093E+01 0.  1.
</event>
<event>
 5   0  0.4027923E-05  0.2198155E+04  0.7818609E-02  0.8519196E-01
        2   -1    0    0  501    0  0.00000000000E+00  0.00000000000E+00  0.23304246387E+04  0.23304246387E+04  0.25500000920E-02 0.  1.
       -2   -1    0    0    0  501  0.00000000000E+00  0.00000000000E+00 -0.51834833829E+03  0.51834833830E+03  0.25500000920E-02 0. -1.
    10030    2    1    2    0    0  0.00000000000E+00  0.00000000000E+00  0.18120763004E+04  0.28487729770E+04  0.21981553530E+04 0.  0.
        5    1    3    3  502    0 -0.48690216122E+03  0.50678153133E+03 -0.18908582723E+03  0.72778896334E+03  0.46999998093E+01 0. -1.
       -5    1    3    3    0  502  0.48690216122E+03 -0.50678153133E+03  0.20011621277E+04  0.21209840137E+04  0.46999998093E+01 0.  1.
</event>
<event>
 5   0  0.4029532E-05  0.2186138E+04  0.7818609E-02  0.8524220E-01
       -2   -1    0    0    0  501  0.00000000000E+00  0.00000000000E+00  0.59703197489E+03  0.59703197490E+03  0.25500000920E-02 0.  1.
        2   -1    0    0  501    0  0.00000000000E+00  0.00000000000E+00 -0.20012324282E+04  0.20012324282E+04  0.25500000920E-02 0. -1.
    10030    2    1    2    0    0  0.00000000000E+00  0.00000000000E+00 -0.14042004533E+04  0.25982644031E+04  0.21861379177E+04 0.  0.
        3    1    3    3  502    0  0.72726920351E+03  0.65415025866E+03 -0.12231937845E+03  0.98579668077E+03  0.10100000352E+00 0.  1.
       -3    1    3    3    0  502 -0.72726920351E+03 -0.65415025866E+03 -0.12818810749E+04  0.16124677224E+04  0.10100000352E+00 0. -1.
</event>
<event>
 5   0  0.4027923E-05  0.2180353E+04  0.7818609E-02  0.8526650E-01
        2   -1    0    0  501    0  0.00000000000E+00  0.00000000000E+00  0.87765246124E+03  0.87765246124E+03  0.25500000920E-02 0. -1.
       -2   -1    0    0    0  501  0.00000000000E+00  0.00000000000E+00 -0.13541637429E+04  0.13541637429E+04  0.25500000920E-02 0.  1.
    10030    2    1    2    0    0  0.00000000000E+00  0.00000000000E+00 -0.47651128167E+03  0.22318162042E+04  0.21803533126E+04 0.  0.
        5    1    3    3  502    0 -0.58617926083E+03 -0.77517255833E+03  0.26733009037E+03  0.10079613526E+04  0.46999998093E+01 0. -1.
       -5    1    3    3    0  502  0.58617926083E+03  0.77517255833E+03 -0.74384137204E+03  0.12238548516E+04  0.46999998093E+01 0.  1.
</event>
<event>
 5   0  0.4143281E-05  0.2139138E+04  0.7818609E-02  0.8544196E-01
        2   -1    0    0  501    0  0.00000000000E+00  0.00000000000E+00  0.99924463352E+03  0.99924463352E+03  0.25500000920E-02 0.  1.
       -2   -1    0    0    0  501  0.00000000000E+00  0.00000000000E+00 -0.11448427448E+04  0.11448427448E+04  0.25500000920E-02 0. -1.
    10030    2    1    2    0    0  0.00000000000E+00  0.00000000000E+00 -0.14559811125E+03  0.21440873783E+04  0.21391381152E+04 0.  0.
        2    1    3    3  502    0  0.25626514038E+03 -0.10633001027E+03 -0.11081459361E+04  0.11423507819E+04  0.25500000920E-02 0. -1.
       -2    1    3    3    0  502 -0.25626514038E+03  0.10633001027E+03  0.96254782488E+03  0.10017365963E+04  0.25500000920E-02 0.  1.
</event>
<event>
 5   0  0.4027923E-05  0.2206584E+04  0.7818609E-02  0.8515693E-01
        2   -1    0    0  501    0  0.00000000000E+00  0.00000000000E+00  0.14303123684E+04  0.14303123684E+04  0.25500000920E-02 0.  1.
       -2   -1    0    0    0  501  0.00000000000E+00  0.00000000000E+00 -0.85104022419E+03  0.85104022420E+03  0.25500000920E-02 0. -1.
    10030    2    1    2    0    0  0.00000000000E+00  0.00000000000E+00  0.57927214424E+03  0.22813525926E+04  0.22065841101E+04 0.  0.
        5    1    3    3  502    0 -0.58829214920E+03  0.74870483323E+03  0.86582107077E+03  0.12869789418E+04  0.46999998093E+01 0.  1.
       -5    1    3    3    0  502  0.58829214920E+03 -0.74870483323E+03 -0.28654892653E+03  0.99437365080E+03  0.46999998093E+01 0. -1.
</event>
<event>
 5   0  0.4143281E-05  0.2204719E+04  0.7818609E-02  0.8516467E-01
       -2   -1    0    0    0  501  0.00000000000E+00  0.00000000000E+00  0.82613492893E+03  0.82613492893E+03  0.25500000920E-02 0.  1.
        2   -1    0    0  501    0  0.00000000000E+00  0.00000000000E+00 -0.14709418176E+04  0.14709418176E+04  0.25500000920E-02 0. -1.
    10030    2    1    2    0    0  0.00000000000E+00  0.00000000000E+00 -0.64480688869E+03  0.22970767465E+04  0.22047189517E+04 0.  0.
        2    1    3    3  502    0 -0.84787479299E+03  0.66463147697E+03 -0.56579093269E+03  0.12168590897E+04  0.25500000920E-02 0. -1.
       -2    1    3    3    0  502  0.84787479299E+03 -0.66463147697E+03 -0.79015955996E+02  0.10802176568E+04  0.25500000920E-02 0.  1.
</event>
<event>
 5   0  0.4132460E-05  0.2197862E+04  0.7818609E-02  0.8519319E-01
       -2   -1    0    0    0  501  0.00000000000E+00  0.00000000000E+00  0.13984460352E+04  0.13984460352E+04  0.25500000920E-02 0. -1.
        2   -1    0    0  501    0  0.00000000000E+00  0.00000000000E+00 -0.86356506776E+03  0.86356506776E+03  0.25500000920E-02 0.  1.
    10030    2    1    2    0    0  0.00000000000E+00  0.00000000000E+00  0.53488096744E+03  0.22620111030E+04  0.21978618202E+04 0.  0.
        4    1    3    3  502    0  0.78776820474E+03  0.64246794001E+03 -0.16224204260E+03  0.10294017154E+04  0.12699999809E+01 0. -1.
       -4    1    3    3    0  502 -0.78776820474E+03 -0.64246794001E+03  0.69712301004E+03  0.12326093876E+04  0.12699999809E+01 0.  1.
</event>
<event>
 5   0  0.3963414E-05  0.2192715E+04  0.7818609E-02  0.8521466E-01
       -2   -1    0    0    0  501  0.00000000000E+00  0.00000000000E+00  0.13229599000E+04  0.13229599000E+04  0.25500000920E-02 0.  1.
        2   -1    0    0  501    0  0.00000000000E+00  0.00000000000E+00 -0.90856855347E+03  0.90856855348E+03  0.25500000920E-02 0. -1.
    10030    2    1    2    0    0  0.00000000000E+00  0.00000000000E+00  0.41439134657E+03  0.22315284535E+04  0.21927149953E+04 0.  0.
        1    1    3    3  502    0  0.48914606722E+03 -0.97847909223E+03  0.13300426069E+03  0.11019869974E+04  0.50400001928E-02 0. -1.
       -1    1    3    3    0  502 -0.48914606722E+03  0.97847909223E+03  0.28138708587E+03  0.11295414561E+04  0.50400001928E-02 0.  1.
</event>
<event>
 5   0  0.1788413E-05  0.2149589E+04  0.7818609E-02  0.8539708E-01
       -1   -1    0    0    0  501  0.00000000000E+00  0.00000000000E+00  0.66377702043E+03  0.66377702045E+03  0.50400001928E-02 0.  1.
        1   -1    0    0  501    0  0.00000000000E+00  0.00000000000E+00 -0.17403184935E+04  0.17403184935E+04  0.50400001928E-02 0. -1.
    10030    2    1    2    0    0  0.00000000000E+00  0.00000000000E+00 -0.10765414731E+04  0.24040955140E+04  0.21495891926E+04 0.  0.
        1    1    3    3  502    0  0.97636259072E+03 -0.34897590258E+03 -0.85482930612E+03  0.13438010388E+04  0.50400001928E-02 0. -1.
       -1    1    3    3    0  502 -0.97636259072E+03  0.34897590258E+03 -0.22171216694E+03  0.10602944752E+04  0.50400001928E-02 0.  1.
</event>
<event>
 5   0  0.1786228E-05  0.2210707E+04  0.7818609E-02  0.8513985E-01
       -1   -1    0    0    0  501  0.00000000000E+00  0.00000000000E+00  0.20208091839E+04  0.20208091840E+04  0.50400001928E-02 0.  1.
        1   -1    0    0  501    0  0.00000000000E+00  0.00000000000E+00 -0.60461258903E+03  0.60461258905E+03  0.50400001928E-02 0. -1.
    10030    2    1    2    0    0  0.00000000000E+00  0.00000000000E+00  0.14161965949E+04  0.26254217730E+04  0.22107072829E+04 0.  0.
        5    1    3    3  502    0 -0.39472932953E+03 -0.69068047544E+03  0.16194816427E+04  0.18043263684E+04  0.46999998093E+01 0.  1.
       -5    1    3    3    0  502  0.39472932953E+03  0.69068047544E+03 -0.20328504780E+03  0.82109540457E+03  0.46999998093E+01 0. -1.
</event>
<event>
 5   0  0.1815681E-05  0.2219477E+04  0.7818609E-02  0.8510365E-01
       -1   -1    0    0    0  501  0.00000000000E+00  0.00000000000E+00  0.89812626293E+03  0.89812626295E+03  0.50400001928E-02 0. -1.
        1   -1    0    0  501    0  0.00000000000E+00  0.00000000000E+00 -0.13712100743E+04  0.13712100743E+04  0.50400001928E-02 0.  1.
    10030    2    1    2    0    0  0.00000000000E+00  0.00000000000E+00 -0.47308381137E+03  0.22693363373E+04  0.22194772175E+04 0.  0.
        2    1    3    3  502    0  0.36551963785E+03 -0.72822995309E+03 -0.10068562007E+04  0.12952539825E+04  0.25500000920E-02 0.  1.
       -2    1    3    3    0  502 -0.36551963785E+03  0.72822995309E+03  0.53377238935E+03  0.97408235477E+03  0.25500000920E-02 0. -1.
</event>
<event>
 5   0  0.1786228E-05  0.2200986E+04  0.7818609E-02  0.8518018E-01
       -1   -1    0    0    0  501  0.00000000000E+00  0.00000000000E+00  0.60390512792E+03  0.60390512794E+03  0.50400001928E-02 0.  1.
        1   -1    0    0  501    0  0.00000000000E+00  0.00000000000E+00 -0.20054221186E+04  0.20054221186E+04  0.50400001928E-02 0. -1.
    10030    2    1    2    0    0  0.00000000000E+00  0.00000000000E+00 -0.14015169906E+04  0.26093272465E+04  0.22009858710E+04 0.  0.
        5    1    3    3  502    0  0.96438114867E+03  0.34039146586E+03 -0.11825627698E+04  0.15634494378E+04  0.46999998093E+01 0. -1.
       -5    1    3    3    0  502 -0.96438114867E+03 -0.34039146586E+03 -0.21895422079E+03  0.10458778087E+04  0.46999998093E+01 0.  1.
</event>
<event>
 5   0  0.3963414E-05  0.2200730E+04  0.7818609E-02  0.8518124E-01
        2   -1    0    0  501    0  0.00000000000E+00  0.00000000000E+00  0.27348896405E+04  0.27348896405E+04  0.25500000920E-02 0. -1.
       -2   -1    0    0    0  501  0.00000000000E+00  0.00000000000E+00 -0.44272483393E+03  0.44272483393E+03  0.25500000920E-02 0.  1.
    10030    2    1    2    0    0  0.00000000000E+00  0.00000000000E+00  0.22921648065E+04  0.31776144744E+04  0.22007303896E+04 0.  0.
        1    1    3    3  502    0 -0.62173456922E+03  0.16309698926E+03 -0.14347385421E+03  0.65858883177E+03  0.50400001928E-02 0.  1.
       -1    1    3    3    0  502  0.62173456922E+03 -0.16309698926E+03  0.24356386607E+04  0.25190256426E+04  0.50400001928E-02 0. -1.
</event>
<event>
 5   0  0.4132460E-05  0.2174289E+04  0.7818609E-02  0.8529207E-01
       -2   -1    0    0    0  501  0.00000000000E+00  0.00000000000E+00  0.52898868137E+03  0.52898868138E+03  0.25500000920E-02 0.  1.
        2   -1    0    0  501    0  0.00000000000E+00  0.00000000000E+00 -0.22342307644E+04  0.22342307644E+04  0.25500000920E-02 0. -1.
    10030    2    1    2    0    0  0.00000000000E+00  0.00000000000E+00 -0.17052420830E+04  0.27632194458E+04  0.21742886524E+04 0.  0.
        4    1    3    3  502    0  0.41446460535E+03  0.15280899503E+02  0.42449457540E+03  0.59347423905E+03  0.12699999809E+01 0.  1.
       -4    1    3    3    0  502 -0.41446460535E+03 -0.15280899503E+02 -0.21297366584E+04  0.21697452067E+04  0.12699999809E+01 0. -1.
</event>
<event>
 5   0  0.1866935E-05  0.2197508E+04  0.7818609E-02  0.8519466E-01
       -1   -1    0    0    0  501  0.00000000000E+00  0.00000000000E+00  0.29413918790E+04  0.29413918790E+04  0.50400001928E-02 0. -1.
        1   -1    0    0  501    0  0.00000000000E+00  0.00000000000E+00 -0.41043836152E+03  0.41043836155E+03  0.50400001928E-02 0.  1.
    10030    2    1    2    0    0  0.00000000000E+00  0.00000000000E+00  0.25309535175E+04  0.33518302406E+04  0.21975077369E+04 0.  0.
        4    1    3    3  502    0  0.69385383986E+03 -0.73744600578E+03  0.19161841364E+04  0.21672616409E+04  0.12699999809E+01 0. -1.
       -4    1    3    3    0  502 -0.69385383986E+03  0.73744600578E+03  0.61476938105E+03  0.11845685997E+04  0.12699999809E+01 0.  1.
</event>
<event>
 5   0  0.1815681E-05  0.1936897E+04  0.7818609E-02  0.8636705E-01
        1   -1    0    0  501    0  0.00000000000E+00  0.00000000000E+00  0.15419735943E+04  0.15419735943E+04  0.50400001928E-02 0.  1.
       -1   -1    0    0    0  501  0.00000000000E+00  0.00000000000E+00 -0.60824173777E+03  0.60824173779E+03  0.50400001928E-02 0. -1.
    10030    2    1    2    0    0  0.00000000000E+00  0.00000000000E+00  0.93373185655E+03  0.21502153321E+04  0.19368972081E+04 0.  0.
        2    1    3    3  502    0 -0.52054016145E+03  0.78733182383E+03  0.70763767352E+03  0.11796628915E+04  0.25500000920E-02 0.  1.
       -2    1    3    3    0  502  0.52054016145E+03 -0.78733182383E+03  0.22609418303E+03  0.97055244067E+03  0.25500000920E-02 0. -1.
</event>
<event>
 5   0  0.1815681E-05  0.2228821E+04  0.7818609E-02  0.8506527E-01
       -1   -1    0    0    0  501  0.00000000000E+00  0.00000000000E+00  0.14972638854E+04  0.14972638854E+04  0.50400001928E-02 0. -1.
        1   -1    0    0  501    0  0.00000000000E+00  0.00000000000E+00 -0.82945359806E+03  0.82945359807E+03  0.50400001928E-02 0.  1.
    10030    2    1    2    0    0  0.00000000000E+00  0.00000000000E+00  0.66781028735E+03  0.23267174835E+04  0.22288211386E+04 0.  0.
        2    1    3    3  502    0  0.31155979111E+03  0.10489896645E+04  0.11378316499E+03  0.11001797254E+04  0.25500000920E-02 0. -1.
       -2    1    3    3    0  502 -0.31155979111E+03 -0.10489896645E+04  0.55402712237E+03  0.12265377581E+04  0.25500000920E-02 0.  1.
</event>
<event>
 5   0  0.4143281E-05  0.2178934E+04  0.7818609E-02  0.8527248E-01
        2   -1    0    0  501    0  0.00000000000E+00  0.00000000000E+00  0.17670685590E+04  0.17670685590E+04  0.25500000920E-02 0.  1.
       -2   -1    0    0    0  501  0.00000000000E+00  0.00000000000E+00 -0.67169936064E+03  0.67169936064E+03  0.25500000920E-02 0. -1.
    10030    2    1    2    0    0  0.00000000000E+00  0.00000000000E+00  0.10953691983E+04  0.24387679196E+04  0.21789344380E+04 0.  0.
        2    1    3    3  502    0 -0.61651332182E+03 -0.57627639029E+03  0.13188745991E+04  0.15657628691E+04  0.25500000920E-02 0.  1.
       -2    1    3    3    0  502  0.61651332182E+03  0.57627639029E+03 -0.22350540082E+03  0.87300505050E+03  0.25500000920E-02 0. -1.
</event>
<event>
 5   0  0.1788413E-05  0.2200572E+04  0.7818609E-02  0.8518190E-01
        1   -1    0    0  501    0  0.00000000000E+00  0.00000000000E+00  0.11156894841E+04  0.11156894841E+04  0.50400001928E-02 0.  1.
       -1   -1    0    0    0  501  0.00000000000E+00  0.00000000000E+00 -0.10850949527E+04  0.10850949527E+04  0.50400001928E-02 0. -1.
    10030    2    1    2    0    0  0.00000000000E+00  0.00000000000E+00  0.30594531392E+02  0.22007844368E+04  0.22005717693E+04 0.  0.
        1    1    3    3  502    0 -0.88953013194E+03 -0.52833388905E+03 -0.35920984938E+03  0.10951859522E+04  0.50400001928E-02 0. -1.
       -1    1    3    3    0  502  0.88953013194E+03  0.52833388905E+03  0.38980438077E+03  0.11055984846E+04  0.50400001928E-02 0.  1.
</event>
<event>
 5   0  0.1815681E-05  0.2188599E+04  0.7818609E-02  0.8523189E-01
        1   -1    0    0  501    0  0.00000000000E+00  0.00000000000E+00  0.11220656845E+04  0.11220656845E+04  0.50400001928E-02 0. -1.
       -1   -1    0    0    0  501  0.00000000000E+00  0.00000000000E+00 -0.10672202602E+04  0.10672202602E+04  0.50400001928E-02 0.  1.
    10030    2    1    2    0    0  0.00000000000E+00  0.00000000000E+00  0.54845424314E+02  0.21892859447E+04  0.21885988502E+04 0.  0.
        2    1    3    3  502    0 -0.57643018960E+03 -0.91553427834E+03 -0.13699571568E+03  0.10905240045E+04  0.25500000920E-02 0.  1.
       -2    1    3    3    0  502  0.57643018960E+03  0.91553427834E+03  0.19184113999E+03  0.10987619402E+04  0.25500000920E-02 0. -1.
</event>
<event>
 5   0  0.1884407E-05  0.2175837E+04  0.7818609E-02  0.8528553E-01
        1   -1    0    0  501    0  0.00000000000E+00  0.00000000000E+00  0.61659432079E+03  0.61659432081E+03  0.50400001928E-02 0. -1.
       -1   -1    0    0    0  501  0.00000000000E+00  0.00000000000E+00 -0.19195232767E+04  0.19195232767E+04  0.50400001928E-02 0.  1.
    10030    2    1    2    0    0  0.00000000000E+00  0.00000000000E+00 -0.13029289559E+04  0.25361175976E+04  0.21758374490E+04 0.  0.
        3    1    3    3  502    0  0.56677096614E+03  0.74998564943E+03 -0.12897305060E+04  0.15959676033E+04  0.10100000352E+00 0.  1.
       -3    1    3    3    0  502 -0.56677096614E+03 -0.74998564943E+03 -0.13198449917E+02  0.94014999425E+03  0.10100000352E+00 0. -1.
</event>
<event>
 5   0  0.1866935E-05  0.2160677E+04  0.7818609E-02  0.8534976E-01
        1   -1    0    0  501    0  0.00000000000E+00  0.00000000000E+00  0.11880262108E+04  0.11880262108E+04  0.50400001928E-02 0.  1.
       -1   -1    0    0    0  501  0.00000000000E+00  0.00000000000E+00 -0.98241183401E+03  0.98241183402E+03  0.50400001928E-02 0. -1.
    10030    2    1    2    0    0  0.00000000000E+00  0.00000000000E+00  0.20561437681E+03  0.21704380448E+04  0.21606767538E+04 0.  0.
        4    1    3    3  502    0  0.42162864949E+02  0.51272873468E+03  0.10570783495E+04  0.11756209902E+04  0.12699999809E+01 0.  1.
       -4    1    3    3    0  502 -0.42162864949E+02 -0.51272873468E+03 -0.85146397273E+03  0.99481705469E+03  0.12699999809E+01 0. -1.
</event>
<event>
 5   0  0.4132460E-05  0.2193298E+04  0.7818609E-02  0.8521223E-01
       -2   -1    0    0    0  501  0.00000000000E+00  0.00000000000E+00  0.63306445344E+03  0.63306445344E+03  0.25500000920E-02 0.  1.
        2   -1    0    0  501    0  0.00000000000E+00  0.00000000000E+00 -0.18997097564E+04  0.18997097564E+04  0.25500000920E-02 0. -1.
    10030    2    1    2    0    0  0.00000000000E+00  0.00000000000E+00 -0.12666453030E+04  0.25327742098E+04  0.21932977168E+04 0.  0.
        4    1    3    3  502    0  0.12314203670E+03  0.66432648672E+03 -0.16308161143E+04  0.17652355236E+04  0.12699999809E+01 0. -1.
       -4    1    3    3    0  502 -0.12314203670E+03 -0.66432648672E+03  0.36417081135E+03  0.76753868625E+03  0.12699999809E+01 0.  1.
</event>
<event>
 5   0  0.4143281E-05  0.2237845E+04  0.7818609E-02  0.8502839E-01
       -2   -1    0    0    0  501  0.00000000000E+00  0.00000000000E+00  0.62584374881E+03  0.62584374881E+03  0.25500000920E-02 0. -1.
        2   -1    0    0  501    0  0.00000000000E+00  0.00000000000E+00 -0.20004802766E+04  0.20004802766E+04  0.25500000920E-02 0.  1.
    10030    2    1    2    0    0  0.00000000000E+00  0.00000000000E+00 -0.13746365278E+04  0.26263240254E+04  0.22378454600E+04 0.  0.
        2    1    3    3  502    0  0.71586057281E+03 -0.39698813677E+03  0.20795246388E+03  0.84457099623E+03  0.25500000920E-02 0. -1.
       -2    1    3    3    0  502 -0.71586057281E+03  0.39698813677E+03 -0.15825889917E+04  0.17817530292E+04  0.25500000920E-02 0.  1.
</event>
<event>
 5   0  0.4027923E-05  0.2179780E+04  0.7818609E-02  0.8526892E-01
        2   -1    0    0  501    0  0.00000000000E+00  0.00000000000E+00  0.10986636375E+04  0.10986636375E+04  0.25500000920E-02 0.  1.
       -2   -1    0    0    0  501  0.00000000000E+00  0.00000000000E+00 -0.10811862432E+04  0.10811862432E+04  0.25500000920E-02 0. -1.
    10030    2    1    2    0    0  0.00000000000E+00  0.00000000000E+00  0.17477394337E+02  0.21798498807E+04  0.21797798153E+04 0.  0.
        5    1    3    3  502    0 -0.21496252562E+03 -0.10682115163E+04  0.32259438968E+02  0.10901135227E+04  0.46999998093E+01 0.  1.
       -5    1    3    3    0  502  0.21496252562E+03  0.10682115163E+04 -0.14782044632E+02  0.10897363580E+04  0.46999998093E+01 0. -1.
</event>
<event>
 5   0  0.4029532E-05  0.2197477E+04  0.7818609E-02  0.8519479E-01
        2   -1    0    0  501    0  0.00000000000E+00  0.00000000000E+00  0.86604427059E+03  0.86604427060E+03  0.25500000920E-02 0. -1.
       -2   -1    0    0    0  501  0.00000000000E+00  0.00000000000E+00 -0.13939540183E+04  0.13939540183E+04  0.25500000920E-02 0.  1.
    10030    2    1    2    0    0  0.00000000000E+00  0.00000000000E+00 -0.52790974766E+03  0.22599982889E+04  0.21974766356E+04 0.  0.
        3    1    3    3  502    0 -0.71414772960E+03  0.61860752838E+03  0.31284384789E+03  0.99526556116E+03  0.10100000352E+00 0. -1.
       -3    1    3    3    0  502  0.71414772960E+03 -0.61860752838E+03 -0.84075359555E+03  0.12647327277E+04  0.10100000352E+00 0.  1.
</event>
<event>
 5   0  0.3963414E-05  0.2219177E+04  0.7818609E-02  0.8510488E-01
        2   -1    0    0  501    0  0.00000000000E+00  0.00000000000E+00  0.16728801710E+04  0.16728801710E+04  0.25500000920E-02 0.  1.
       -2   -1    0    0    0  501  0.00000000000E+00  0.00000000000E+00 -0.73596851420E+03  0.73596851421E+03  0.25500000920E-02 0. -1.
    10030    2    1    2    0    0  0.00000000000E+00  0.00000000000E+00  0.93691165676E+03  0.24088486852E+04  0.22191774457E+04 0.  0.
        1    1    3    3  502    0  0.10063972995E+04  0.46694265834E+03  0.48775653136E+03  0.12119312706E+04  0.50400001928E-02 0.  1.
       -1    1    3    3    0  502 -0.10063972995E+04 -0.46694265834E+03  0.44915512540E+03  0.11969174146E+04  0.50400001928E-02 0. -1.
</event>
<event>
 5   0  0.1884407E-05  0.2183133E+04  0.7818609E-02  0.8525482E-01
       -1   -1    0    0    0  501  0.00000000000E+00  0.00000000000E+00  0.14351404115E+04  0.14351404115E+04  0.50400001928E-02 0. -1.
        1   -1    0    0  501    0  0.00000000000E+00  0.00000000000E+00 -0.83024436164E+03  0.83024436166E+03  0.50400001928E-02 0.  1.
    10030    2    1    2    0    0  0.00000000000E+00  0.00000000000E+00  0.60489604981E+03  0.22653847731E+04  0.21831328267E+04 0.  0.
        3    1    3    3  502    0 -0.31785098231E+03 -0.33941197495E+03 -0.72232608228E+03  0.85906036751E+03  0.10100000352E+00 0.  1.
       -3    1    3    3    0  502  0.31785098231E+03  0.33941197495E+03  0.13272221321E+04  0.14063244056E+04  0.10100000352E+00 0. -1.
</event>
<event>
 5   0  0.1884407E-05  0.2204200E+04  0.7818609E-02  0.8516682E-01
       -1   -1    0    0    0  501  0.00000000000E+00  0.00000000000E+00  0.23484811205E+04  0.23484811206E+04  0.50400001928E-02 0.  1.
        1   -1    0    0  501    0  0.00000000000E+00  0.00000000000E+00 -0.51719556697E+03  0.51719556699E+03  0.50400001928E-02 0. -1.
    10030    2    1    2    0    0  0.00000000000E+00  0.00000000000E+00  0.18312855536E+04  0.28656766875E+04  0.22041996504E+04 0.  0.
        3    1    3    3  502    0  0.79648478843E+03  0.66639509220E+03  0.13953660518E+04  0.17394012952E+04  0.10100000352E+00 0.  1.
       -3    1    3    3    0  502 -0.79648478843E+03 -0.66639509220E+03  0.43591950175E+03  0.11262753923E+04  0.10100000352E+00 0. -1.
</event>
<event>
 5   0  0.4027923E-05  0.2215666E+04  0.7818609E-02  0.8511936E-01
        2   -1    0    0  501    0  0.00000000000E+00  0.00000000000E+00  0.15573246127E+04  0.15573246127E+04  0.25500000920E-02 0. -1.
       -2   -1    0    0    0  501  0.00000000000E+00  0.00000000000E+00 -0.78807869513E+03  0.78807869514E+03  0.25500000920E-02 0.  1.
    10030    2    1    2    0    0  0.00000000000E+00  0.00000000000E+00  0.76924591753E+03  0.23454033078E+04  0.22156663545E+04 0.  0.
        5    1    3    3  502    0  0.37005660641E+03  0.33377441672E+02  0.14893888035E+04  0.15350430103E+04  0.46999998093E+01 0. -1.
       -5    1    3    3    0  502 -0.37005660641E+03 -0.33377441672E+02 -0.72014288596E+03  0.81036029749E+03  0.46999998093E+01 0.  1.
</event>
<event>
 5   0  0.1866935E-05  0.2203247E+04  0.7818609E-02  0.8517078E-01
        1   -1    0    0  501    0  0.00000000000E+00  0.00000000000E+00  0.10914758447E+04  0.10914758447E+04  0.50400001928E-02 0. -1.
       -1   -1    0    0    0  501  0.00000000000E+00  0.00000000000E+00 -0.11118655097E+04  0.11118655097E+04  0.50400001928E-02 0.  1.
    10030    2    1    2    0    0  0.00000000000E+00  0.00000000000E+00 -0.20389665031E+02  0.22033413544E+04  0.22032470097E+04 0.  0.
        4    1    3    3  502    0 -0.10373788486E+04  0.30300597354E+03  0.20336814136E+03  0.10996943709E+04  0.12699999809E+01 0.  1.
       -4    1    3    3    0  502  0.10373788486E+04 -0.30300597354E+03 -0.22375780639E+03  0.11036469836E+04  0.12699999809E+01 0. -1.
</event>
<event>
 5   0  0.3963414E-05  0.2213688E+04  0.7818609E-02  0.8512752E-01
        2   -1    0    0  501    0  0.00000000000E+00  0.00000000000E+00  0.18951255356E+04  0.18951255356E+04  0.25500000920E-02 0.  1.
       -2   -1    0    0    0  501  0.00000000000E+00  0.00000000000E+00 -0.64644980703E+03  0.64644980704E+03  0.25500000920E-02 0. -1.
    10030    2    1    2    0    0  0.00000000000E+00  0.00000000000E+00  0.12486757286E+04  0.25415753427E+04  0.22136879065E+04 0.  0.
        1    1    3    3  502    0 -0.14590255456E+03 -0.64717766451E+03 -0.39288257120E+03  0.77102736634E+03  0.50400001928E-02 0. -1.
       -1    1    3    3    0  502  0.14590255456E+03  0.64717766451E+03  0.16415582998E+04  0.17705479763E+04  0.50400001928E-02 0.  1.
</event>
<event>
 5   0  0.4029532E-05  0.2198293E+04  0.7818609E-02  0.8519139E-01
        2   -1    0    0  501    0  0.00000000000E+00  0.00000000000E+00  0.14537545755E+04  0.14537545755E+04  0.25500000920E-02 0. -1.
       -2   -1    0    0    0  501  0.00000000000E+00  0.00000000000E+00 -0.83103674235E+03  0.83103674235E+03  0.25500000920E-02 0.  1.
    10030    2    1    2    0    0  0.00000000000E+00  0.00000000000E+00  0.62271783312E+03  0.22847913178E+04  0.21982933986E+04 0.  0.
        3    1    3    3  502    0  0.88101100066E+03  0.10550498465E+02 -0.37163710549E+03  0.95624570309E+03  0.10100000352E+00 0.  1.
       -3    1    3    3    0  502 -0.88101100066E+03 -0.10550498465E+02  0.99435493861E+03  0.13285456147E+04  0.10100000352E+00 0. -1.
</event>
<event>
 5   0  0.1788413E-05  0.2047862E+04  0.7818609E-02  0.8584565E-01
       -1   -1    0    0    0  501  0.00000000000E+00  0.00000000000E+00  0.64097308402E+03  0.64097308404E+03  0.50400001928E-02 0.  1.
        1   -1    0    0  501    0  0.00000000000E+00  0.00000000000E+00 -0.16356925022E+04  0.16356925022E+04  0.50400001928E-02 0. -1.
    10030    2    1    2    0    0  0.00000000000E+00  0.00000000000E+00 -0.99471941819E+03  0.22766655863E+04  0.20478621708E+04 0.  0.
        1    1    3    3  502    0 -0.42448618597E+03  0.91138184873E+03 -0.28170319646E+03  0.10441082737E+04  0.50400001928E-02 0. -1.
       -1    1    3    3    0  502  0.42448618597E+03 -0.91138184873E+03 -0.71301622173E+03  0.12325573126E+04  0.50400001928E-02 0.  1.
</event>
<event>
 5   0  0.4029532E-05  0.2172794E+04  0.7818609E-02  0.8529838E-01
        2   -1    0    0  501    0  0.00000000000E+00  0.00000000000E+00  0.11528790781E+04  0.11528790781E+04  0.25500000920E-02 0.  1.
       -2   -1    0    0    0  501  0.00000000000E+00  0.00000000000E+00 -0.10237487549E+04  0.10237487549E+04  0.25500000920E-02 0. -1.
    10030    2    1    2    0    0  0.00000000000E+00  0.00000000000E+00  0.12913032317E+03  0.21766278330E+04  0.21727940729E+04 0.  0.
        3    1    3    3  502    0  0.72622874404E+03  0.80756891381E+03  0.90741160418E+02  0.10898668302E+04  0.10100000352E+00 0. -1.
       -3    1    3    3    0  502 -0.72622874404E+03 -0.80756891381E+03  0.38389162748E+02  0.10867610028E+04  0.10100000352E+00 0.  1.
</event>
<event>
 5   0  0.3963414E-05  0.2218635E+04  0.7818609E-02  0.8510712E-01
       -2   -1    0    0    0  501  0.00000000000E+00  0.00000000000E+00  0.12164444114E+04  0.12164444114E+04  0.25500000920E-02 0. -1.
        2   -1    0    0  501    0  0.00000000000E+00  0.00000000000E+00 -0.10116246228E+04  0.10116246228E+04  0.25500000920E-02 0.  1.
    10030    2    1    2    0    0  0.00000000000E+00  0.00000000000E+00  0.20481978861E+03  0.22280690343E+04  0.22186348225E+04 0.  0.
        1    1    3    3  502    0 -0.22189754040E+03 -0.29559127761E+03  0.11527888201E+04  0.12105927414E+04  0.50400001928E-02 0. -1.
       -1    1    3    3    0  502  0.22189754040E+03  0.29559127761E+03 -0.94796903147E+03  0.10174762928E+04  0.50400001928E-02 0.  1.
</event>
<event>
 5   0  0.1815681E-05  0.2198635E+04  0.7818609E-02  0.8518997E-01
        1   -1    0    0  501    0  0.00000000000E+00  0.00000000000E+00  0.16369965501E+04  0.16369965501E+04  0.50400001928E-02 0.  1.
       -1   -1    0    0    0  501  0.00000000000E+00  0.00000000000E+00 -0.73824127437E+03  0.73824127439E+03  0.50400001928E-02 0. -1.
    10030    2    1    2    0    0  0.00000000000E+00  0.00000000000E+00  0.89875527571E+03  0.23752378245E+04  0.21986345029E+04 0.  0.
        2    1    3    3  502    0 -0.68589473215E+03 -0.19967905093E+03 -0.45330739858E+03  0.84605608832E+03  0.25500000920E-02 0. -1.
       -2    1    3    3    0  502  0.68589473215E+03  0.19967905093E+03  0.13520626743E+04  0.15291817362E+04  0.25500000920E-02 0.  1.
</event>
<event>
 5   0  0.4132460E-05  0.2328537E+04  0.7818609E-02  0.8466753E-01
       -2   -1    0    0    0  501  0.00000000000E+00  0.00000000000E+00  0.99371781801E+03  0.99371781801E+03  0.25500000920E-02 0.  1.
        2   -1    0    0  501    0  0.00000000000E+00  0.00000000000E+00 -0.13640910841E+04  0.13640910841E+04  0.25500000920E-02 0. -1.
    10030    2    1    2    0    0  0.00000000000E+00  0.00000000000E+00 -0.37037326614E+03  0.23578089022E+04  0.23285374085E+04 0.  0.
        4    1    3    3  502    0 -0.41223996225E+03 -0.52852970072E+03 -0.11491170767E+04  0.13303221790E+04  0.12699999809E+01 0. -1.
       -4    1    3    3    0  502  0.41223996225E+03  0.52852970072E+03  0.77874381053E+03  0.10274867232E+04  0.12699999809E+01 0.  1.
</event>
<event>
 5   0  0.4143281E-05  0.2199095E+04  0.7818609E-02  0.8518805E-01
        2   -1    0    0  501    0  0.00000000000E+00  0.00000000000E+00  0.77687801145E+03  0.77687801145E+03  0.25500000920E-02 0.  1.
       -2   -1    0    0    0  501  0.00000000000E+00  0.00000000000E+00 -0.15562350107E+04  0.15562350107E+04  0.25500000920E-02 0. -1.
    10030    2    1    2    0    0  0.00000000000E+00  0.00000000000E+00 -0.77935699924E+03  0.23331130221E+04  0.21990950507E+04 0.  0.
        2    1    3    3  502    0 -0.73899732160E+03 -0.64506815904E+03 -0.91671679332E+03  0.13426092694E+04  0.25500000920E-02 0. -1.
       -2    1    3    3    0  502  0.73899732160E+03  0.64506815904E+03  0.13735979409E+03  0.99050375273E+03  0.25500000920E-02 0.  1.
</event>
<event>
 5   0  0.1884407E-05  0.2187506E+04  0.7818609E-02  0.8523647E-01
       -1   -1    0    0    0  501  0.00000000000E+00  0.00000000000E+00  0.73954896464E+03  0.73954896466E+03  0.50400001928E-02 0.  1.
        1   -1    0    0  501    0  0.00000000000E+00  0.00000000000E+00 -0.16176011171E+04  0.16176011171E+04  0.50400001928E-02 0. -1.
    10030    2    1    2    0    0  0.00000000000E+00  0.00000000000E+00 -0.87805215245E+03  0.23571500818E+04  0.21875056401E+04 0.  0.
        3    1    3    3  502    0  0.69771037834E+03 -0.33260493297E+03 -0.12729071521E+04  0.14892006049E+04  0.10100000352E+00 0. -1.
       -3    1    3    3    0  502 -0.69771037834E+03  0.33260493297E+03  0.39485499965E+03  0.86794947689E+03  0.10100000352E+00 0.  1.
</event>
<event>
 5   0  0.1866935E-05  0.2204133E+04  0.7818609E-02  0.8516710E-01
       -1   -1    0    0    0  501  0.00000000000E+00  0.00000000000E+00  0.92841277024E+03  0.92841277026E+03  0.50400001928E-02 0.  1.
        1   -1    0    0  501    0  0.00000000000E+00  0.00000000000E+00 -0.13082014806E+04  0.13082014806E+04  0.50400001928E-02 0. -1.
    10030    2    1    2    0    0  0.00000000000E+00  0.00000000000E+00 -0.37978871037E+03  0.22366142509E+04  0.22041333541E+04 0.  0.
        4    1    3    3  502    0  0.24387242006E+03  0.91570022579E+03  0.38104134324E+03  0.10213592800E+04  0.12699999809E+01 0. -1.
       -4    1    3    3    0  502 -0.24387242006E+03 -0.91570022579E+03 -0.76083005360E+03  0.12152549708E+04  0.12699999809E+01 0.  1.
</event>
<event>
 5   0  0.1786228E-05  0.2190173E+04  0.7818609E-02  0.8522529E-01
        1   -1    0    0  501    0  0.00000000000E+00  0.00000000000E+00  0.16175394729E+04  0.16175394729E+04  0.50400001928E-02 0. -1.
       -1   -1    0    0    0  501  0.00000000000E+00  0.00000000000E+00 -0.74138187529E+03  0.74138187531E+03  0.50400001928E-02 0.  1.
    10030    2    1    2    0    0  0.00000000000E+00  0.00000000000E+00  0.87615759763E+03  0.23589213482E+04  0.21901730049E+04 0.  0.
        5    1    3    3  502    0  0.10073276821E+04 -0.27088453490E+03  0.79072902133E+02  0.10461176340E+04  0.46999998093E+01 0.  1.
       -5    1    3    3    0  502 -0.10073276821E+04  0.27088453490E+03  0.79708469549E+03  0.13128037142E+04  0.46999998093E+01 0. -1.
</event>
<event>
 5   0  0.1866935E-05  0.2202395E+04  0.7818609E-02  0.8517432E-01
        1   -1    0    0  501    0  0.00000000000E+00  0.00000000000E+00  0.14275888122E+04  0.14275888122E+04  0.50400001928E-02 0. -1.
       -1   -1    0    0    0  501  0.00000000000E+00  0.00000000000E+00 -0.84942933822E+03  0.84942933824E+03  0.50400001928E-02 0.  1.
    10030    2    1    2    0    0  0.00000000000E+00  0.00000000000E+00  0.57815947396E+03  0.22770181504E+04  0.22023948965E+04 0.  0.
        4    1    3    3  502    0  0.23149000664E+03  0.22075476033E+03  0.13784968490E+04  0.14151238331E+04  0.12699999809E+01 0. -1.
       -4    1    3    3    0  502 -0.23149000664E+03 -0.22075476033E+03 -0.80033737507E+03  0.86189431731E+03  0.12699999809E+01 0.  1.
</event>
<event>
 5   0  0.1788413E-05  0.2199025E+04  0.7818609E-02  0.8518834E-01
        1   -1    0    0  501    0  0.00000000000E+00  0.00000000000E+00  0.95893631615E+03  0.95893631616E+03  0.50400001928E-02 0.  1.
       -1   -1    0    0    0  501  0.00000000000E+00  0.00000000000E+00 -0.12606966117E+04  0.12606966117E+04  0.50400001928E-02 0. -1.
    10030    2    1    2    0    0  0.00000000000E+00  0.00000000000E+00 -0.30176029552E+03  0.22196329278E+04  0.21990250245E+04 0.  0.
        1    1    3    3  502    0 -0.27406960836E+03 -0.16297450232E+02  0.92377951065E+03  0.96371590286E+03  0.50400001928E-02 0.  1.
       -1    1    3    3    0  502  0.27406960836E+03  0.16297450232E+02 -0.12255398062E+04  0.12559170250E+04  0.50400001928E-02 0. -1.
</event>
<event>
 5   0  0.4027923E-05  0.2214054E+04  0.7818609E-02  0.8512601E-01
       -2   -1    0    0    0  501  0.00000000000E+00  0.00000000000E+00  0.55880440791E+03  0.55880440791E+03  0.25500000920E-02 0. -1.
        2   -1    0    0  501    0  0.00000000000E+00  0.00000000000E+00 -0.21930903129E+04  0.21930903129E+04  0.25500000920E-02 0.  1.
    10030    2    1    2    0    0  0.00000000000E+00  0.00000000000E+00 -0.16342859049E+04  0.27518947208E+04  0.22140537787E+04 0.  0.
        5    1    3    3  502    0  0.72434152555E+02 -0.10811945637E+04 -0.53574255819E+03  0.12088302485E+04  0.46999998093E+01 0. -1.
       -5    1    3    3    0  502 -0.72434152555E+02  0.10811945637E+04 -0.10985433468E+04  0.15430644723E+04  0.46999998093E+01 0.  1.
</event>
<event>
 5   0  0.1866935E-05  0.2202322E+04  0.7818609E-02  0.8517462E-01
       -1   -1    0    0    0  501  0.00000000000E+00  0.00000000000E+00  0.16906837412E+04  0.16906837412E+04  0.50400001928E-02 0. -1.
        1   -1    0    0  501    0  0.00000000000E+00  0.00000000000E+00 -0.71719861953E+03  0.71719861955E+03  0.50400001928E-02 0.  1.
    10030    2    1    2    0    0  0.00000000000E+00  0.00000000000E+00  0.97348512164E+03  0.24078823607E+04  0.22023224517E+04 0.  0.
        4    1    3    3  502    0  0.49386510365E+03  0.19604807614E+03  0.15412422561E+04  0.16302658966E+04  0.12699999809E+01 0. -1.
       -4    1    3    3    0  502 -0.49386510365E+03 -0.19604807614E+03 -0.56775713441E+03  0.77761646417E+03  0.12699999809E+01 0.  1.
</event>
<event>
 5   0  0.4027923E-05  0.2197496E+04  0.7818609E-02  0.8519471E-01
        2   -1    0    0  501    0  0.00000000000E+00  0.00000000000E+00  0.22729335697E+04  0.22729335697E+04  0.25500000920E-02 0. -1.
       -2   -1    0    0    0  501  0.00000000000E+00  0.00000000000E+00 -0.53114075204E+03  0.53114075205E+03  0.25500000920E-02 0.  1.
    10030    2    1    2    0    0  0.00000000000E+00  0.00000000000E+00  0.17417928176E+04  0.28040743217E+04  0.21974964351E+04 0.  0.
        5    1    3    3  502    0 -0.41220996886E+03 -0.87069073767E+03  0.19664195992E+03  0.98321389814E+03  0.46999998093E+01 0.  1.
       -5    1    3    3    0  502  0.41220996886E+03  0.87069073767E+03  0.15451508577E+04  0.18208604236E+04  0.46999998093E+01 0. -1.
</event>
<event>
 5   0  0.4029532E-05  0.2194438E+04  0.7818609E-02  0.8520747E-01
        2   -1    0    0  501    0  0.00000000000E+00  0.00000000000E+00  0.11125779974E+04  0.11125779975E+04  0.25500000920E-02 0.  1.
       -2   -1    0    0    0  501  0.00000000000E+00  0.00000000000E+00 -0.10820723924E+04  0.10820723924E+04  0.25500000920E-02 0. -1.
    10030    2    1    2    0    0  0.00000000000E+00  0.00000000000E+00  0.30505605012E+02  0.21946503899E+04  0.21944383659E+04 0.  0.
        3    1    3    3  502    0  0.59031410468E+03 -0.61339257422E+03  0.70753983175E+03  0.11069479735E+04  0.10100000352E+00 0.  1.
       -3    1    3    3    0  502 -0.59031410468E+03  0.61339257422E+03 -0.67703422674E+03  0.10877024164E+04  0.10100000352E+00 0. -1.
</event>
<event>
 5   0  0.4029532E-05  0.2385681E+04  0.7818609E-02  0.8444884E-01
       -2   -1    0    0    0  501  0.00000000000E+00  0.00000000000E+00  0.92629098661E+03  0.92629098662E+03  0.25500000920E-02 0.  1.
        2   -1    0    0  501    0  0.00000000000E+00  0.00000000000E+00 -0.15360920614E+04  0.15360920614E+04  0.25500000920E-02 0. -1.
    10030    2    1    2    0    0  0.00000000000E+00  0.00000000000E+00 -0.60980107477E+03  0.24623830480E+04  0.23856808094E+04 0.  0.
        3    1    3    3  502    0 -0.21001632935E+03  0.92402667886E+02  0.90329970759E+03  0.93198470136E+03  0.10100000352E+00 0.  1.
       -3    1    3    3    0  502  0.21001632935E+03 -0.92402667886E+02 -0.15131007824E+04  0.15303983466E+04  0.10100000352E+00 0. -1.
</event>
<event>
 5   0  0.1786228E-05  0.2194444E+04  0.7818609E-02  0.8520744E-01
       -1   -1    0    0    0  501  0.00000000000E+00  0.00000000000E+00  0.18228219385E+04  0.18228219385E+04  0.50400001928E-02 0.  1.
        1   -1    0    0  501    0  0.00000000000E+00  0.00000000000E+00 -0.66045717528E+03  0.66045717530E+03  0.50400001928E-02 0. -1.
    10030    2    1    2    0    0  0.00000000000E+00  0.00000000000E+00  0.11623647632E+04  0.24832791138E+04  0.21944437369E+04 0.  0.
        5    1    3    3  502    0 -0.25520674916E+03 -0.10566847935E+04  0.41272467977E+03  0.11627884541E+04  0.46999998093E+01 0. -1.
       -5    1    3    3    0  502  0.25520674916E+03  0.10566847935E+04  0.74964008344E+03  0.13204906597E+04  0.46999998093E+01 0.  1.
</event>
<event>
 5   0  0.4027923E-05  0.2186021E+04  0.7818609E-02  0.8524269E-01
       -2   -1    0    0    0  501  0.00000000000E+00  0.00000000000E+00  0.86792485816E+03  0.86792485817E+03  0.25500000920E-02 0. -1.
        2   -1    0    0  501    0  0.00000000000E+00  0.00000000000E+00 -0.13764697846E+04  0.13764697846E+04  0.25500000920E-02 0.  1.
    10030    2    1    2    0    0  0.00000000000E+00  0.00000000000E+00 -0.50854492645E+03  0.22443946428E+04  0.21860213563E+04 0.  0.
        5    1    3    3  502    0  0.52758259370E+03  0.27076543357E+03  0.68839125385E+03  0.90860438122E+03  0.46999998093E+01 0. -1.
       -5    1    3    3    0  502 -0.52758259370E+03 -0.27076543357E+03 -0.11969361803E+04  0.13357902616E+04  0.46999998093E+01 0.  1.
</event>
<event>
 5   0  0.4029532E-05  0.2195149E+04  0.7818609E-02  0.8520450E-01
        2   -1    0    0  501    0  0.00000000000E+00  0.00000000000E+00  0.10667604131E+04  0.10667604131E+04  0.25500000920E-02 0.  1.
       -2   -1    0    0    0  501  0.00000000000E+00  0.00000000000E+00 -0.11292783801E+04  0.11292783801E+04  0.25500000920E-02 0. -1.
    10030    2    1    2    0    0  0.00000000000E+00  0.00000000000E+00 -0.62517966982E+02  0.21960387932E+04  0.21951487160E+04 0.  0.
        3    1    3    3  502    0  0.92636933417E+02 -0.34966525296E+03 -0.10679330222E+04  0.11275319688E+04  0.10100000352E+00 0. -1.
       -3    1    3    3    0  502 -0.92636933417E+02  0.34966525296E+03  0.10054150552E+04  0.10685068245E+04  0.10100000352E+00 0.  1.
</event>
<event>
 5   0  0.1884407E-05  0.1933614E+04  0.7818609E-02  0.8638303E-01
        1   -1    0    0  501    0  0.00000000000E+00  0.00000000000E+00  0.14487311790E+04  0.14487311791E+04  0.50400001928E-02 0. -1.
       -1   -1    0    0    0  501  0.00000000000E+00  0.00000000000E+00 -0.64519607361E+03  0.64519607363E+03  0.50400001928E-02 0.  1.
    10030    2    1    2    0    0  0.00000000000E+00  0.00000000000E+00  0.80353510543E+03  0.20939272527E+04  0.19336138895E+04 0.  0.
        3    1    3    3  502    0 -0.30888471951E+03 -0.79694760949E+03 -0.87559079259E+02  0.85918674617E+03  0.10100000352E+00 0.  1.
       -3    1    3    3    0  502  0.30888471951E+03  0.79694760949E+03  0.89109418469E+03  0.12347405065E+04  0.10100000352E+00 0. -1.
</event>
<event>
 5   0  0.1884407E-05  0.2201848E+04  0.7818609E-02  0.8517659E-01
        1   -1    0    0  501    0  0.00000000000E+00  0.00000000000E+00  0.69023827770E+03  0.69023827772E+03  0.50400001928E-02 0. -1.
       -1   -1    0    0    0  501  0.00000000000E+00  0.00000000000E+00 -0.17559642389E+04  0.17559642389E+04  0.50400001928E-02 0.  1.
    10030    2    1    2    0    0  0.00000000000E+00  0.00000000000E+00 -0.10657259612E+04  0.24462025166E+04  0.22018480710E+04 0.  0.
        3    1    3    3  502    0  0.86581553080E+03  0.40805760634E+03 -0.11371835808E+04  0.14863828747E+04  0.10100000352E+00 0.  1.
       -3    1    3    3    0  502 -0.86581553080E+03 -0.40805760634E+03  0.71457619612E+02  0.95981964194E+03  0.10100000352E+00 0. -1.
</event>
<event>
 5   0  0.1866935E-05  0.2179023E+04  0.7818609E-02  0.8527210E-01
        1   -1    0    0  501    0  0.00000000000E+00  0.00000000000E+00  0.39509985075E+03  0.39509985079E+03  0.50400001928E-02 0.  1.
       -1   -1    0    0    0  501  0.00000000000E+00  0.00000000000E+00 -0.30043934636E+04  0.30043934636E+04  0.50400001928E-02 0. -1.
    10030    2    1    2    0    0  0.00000000000E+00  0.00000000000E+00 -0.26092936129E+04  0.33994933144E+04  0.21790230922E+04 0.  0.
        4    1    3    3  502    0 -0.10519315773E+04 -0.79276763102E+02 -0.17295812788E+04  0.20259066764E+04  0.12699999809E+01 0. -1.
       -4    1    3    3    0  502  0.10519315773E+04  0.79276763102E+02 -0.87971233409E+03  0.13735866380E+04  0.12699999809E+01 0.  1.
</event>
<event>
 5   0  0.3963414E-05  0.2188849E+04  0.7818609E-02  0.8523084E-01
        2   -1    0    0  501    0  0.00000000000E+00  0.00000000000E+00  0.19169739505E+04  0.19169739505E+04  0.25500000920E-02 0. -1.
       -2   -1    0    0    0  501  0.00000000000E+00  0.00000000000E+00 -0.62482096445E+03  0.62482096446E+03  0.25500000920E-02 0.  1.
    10030    2    1    2    0    0  0.00000000000E+00  0.00000000000E+00  0.12921529861E+04  0.25417949150E+04  0.21888494810E+04 0.  0.
        1    1    3    3  502    0  0.25369890406E+03  0.47748352135E+03 -0.45888641483E+03  0.70917585183E+03  0.50400001928E-02 0.  1.
       -1    1    3    3    0  502 -0.25369890406E+03 -0.47748352135E+03  0.17510394009E+04  0.18326190632E+04  0.50400001928E-02 0. -1.
</event>
<event>
 5   0  0.4027923E-05  0.2212085E+04  0.7818609E-02  0.8513415E-01
        2   -1    0    0  501    0  0.00000000000E+00  0.00000000000E+00  0.20259692247E+04  0.20259692247E+04  0.25500000920E-02 0. -1.
       -2   -1    0    0    0  501  0.00000000000E+00  0.00000000000E+00 -0.60382474907E+03  0.60382474907E+03  0.25500000920E-02 0.  1.
    10030    2    1    2    0    0  0.00000000000E+00  0.00000000000E+00  0.14221444756E+04  0.26297939738E+04  0.22120853137E+04 0.  0.
        5    1    3    3  502    0  0.75601046761E+03  0.79891152006E+03  0.57295888851E+03  0.12402078140E+04  0.46999998093E+01 0.  1.
       -5    1    3    3    0  502 -0.75601046761E+03 -0.79891152006E+03  0.84918558713E+03  0.13895861598E+04  0.46999998093E+01 0. -1.
</event>
<event>
 5   0  0.4143281E-05  0.2217249E+04  0.7818609E-02  0.8511283E-01
       -2   -1    0    0    0  501  0.00000000000E+00  0.00000000000E+00  0.67050095536E+03  0.67050095536E+03  0.25500000920E-02 0.  1.
        2   -1    0    0  501    0  0.00000000000E+00  0.00000000000E+00 -0.18330290889E+04  0.18330290890E+04  0.25500000920E-02 0. -1.
    10030    2    1    2    0    0  0.00000000000E+00  0.00000000000E+00 -0.11625281336E+04  0.25035300443E+04  0.22172485250E+04 0.  0.
        2    1    3    3  502    0 -0.36314313631E+03 -0.56232029486E+03  0.41656420402E+03  0.78841790158E+03  0.25500000920E-02 0.  1.
       -2    1    3    3    0  502  0.36314313631E+03  0.56232029486E+03 -0.15790923376E+04  0.17151121427E+04  0.25500000920E-02 0. -1.
</event>
<event>
 5   0  0.4029532E-05  0.2186697E+04  0.7818609E-02  0.8523986E-01
        2   -1    0    0  501    0  0.00000000000E+00  0.00000000000E+00  0.29452800300E+04  0.29452800300E+04  0.25500000920E-02 0. -1.
       -2   -1    0    0    0  501  0.00000000000E+00  0.00000000000E+00 -0.40587347346E+03  0.40587347347E+03  0.25500000920E-02 0.  1.
    10030    2    1    2    0    0  0.00000000000E+00  0.00000000000E+00  0.25394065566E+04  0.33511535035E+04  0.21866970857E+04 0.  0.
        3    1    3    3  502    0  0.64604909597E+03 -0.22634468320E+03  0.25762142405E+04  0.26656127200E+04  0.10100000352E+00 0. -1.
       -3    1    3    3    0  502 -0.64604909597E+03  0.22634468320E+03 -0.36807683929E+02  0.68554078348E+03  0.10100000352E+00 0.  1.
</event>
<event>
 5   0  0.1815681E-05  0.2204055E+04  0.7818609E-02  0.8516742E-01
       -1   -1    0    0    0  501  0.00000000000E+00  0.00000000000E+00  0.95259575342E+03  0.95259575343E+03  0.50400001928E-02 0.  1.
        1   -1    0    0  501    0  0.00000000000E+00  0.00000000000E+00 -0.12749002670E+04  0.12749002670E+04  0.50400001928E-02 0. -1.
    10030    2    1    2    0    0  0.00000000000E+00  0.00000000000E+00 -0.32230451362E+03  0.22274960205E+04  0.22040549725E+04 0.  0.
        2    1    3    3  502    0 -0.17830630873E+03 -0.10978276358E+03  0.93230631472E+03  0.95553150623E+03  0.25500000920E-02 0.  1.
       -2    1    3    3    0  502  0.17830630873E+03  0.10978276358E+03 -0.12546108283E+04  0.12719645142E+04  0.25500000920E-02 0. -1.
</event>
<event>
 5   0  0.1788413E-05  0.2192271E+04  0.7818609E-02  0.8521652E-01
        1   -1    0    0  501    0  0.00000000000E+00  0.00000000000E+00  0.20996966119E+04  0.20996966119E+04  0.50400001928E-02 0. -1.
       -1   -1    0    0    0  501  0.00000000000E+00  0.00000000000E+00 -0.57223173335E+03  0.57223173337E+03  0.50400001928E-02 0.  1.
    10030    2    1    2    0    0  0.00000000000E+00  0.00000000000E+00  0.15274648785E+04  0.26719283453E+04  0.21922709976E+04 0.  0.
        1    1    3    3  502    0 -0.62689538479E+03 -0.68875025197E+03  0.14682530408E+04  0.17387184145E+04  0.50400001928E-02 0. -1.
       -1    1    3    3    0  502  0.62689538479E+03  0.68875025197E+03  0.59211837696E+02  0.93320993073E+03  0.50400001928E-02 0.  1.
</event>
<event>
 5   0  0.4029532E-05  0.1942614E+04  0.7818609E-02  0.8633931E-01
        2   -1    0    0  501    0  0.00000000000E+00  0.00000000000E+00  0.12917031036E+04  0.12917031036E+04  0.25500000920E-02 0.  1.
       -2   -1    0    0    0  501  0.00000000000E+00  0.00000000000E+00 -0.73038216413E+03  0.73038216413E+03  0.25500000920E-02 0. -1.
    10030    2    1    2    0    0  0.00000000000E+00  0.00000000000E+00  0.56132093946E+03  0.20220852677E+04  0.19426136087E+04 0.  0.
        3    1    3    3  502    0  0.35857079359E+03  0.39388856652E+02  0.12193927141E+04  0.12716300946E+04  0.10100000352E+00 0.  1.
       -3    1    3    3    0  502 -0.35857079359E+03 -0.39388856652E+02 -0.65807177467E+03  0.75045517312E+03  0.10100000352E+00 0. -1.
</event>
<event>
 5   0  0.4027923E-05  0.2203427E+04  0.7818609E-02  0.8517003E-01
        2   -1    0    0  501    0  0.00000000000E+00  0.00000000000E+00  0.12894207259E+04  0.12894207259E+04  0.25500000920E-02 0. -1.
       -2   -1    0    0    0  501  0.00000000000E+00  0.00000000000E+00 -0.94133211925E+03  0.94133211925E+03  0.25500000920E-02 0.  1.
    10030    2    1    2    0    0  0.00000000000E+00  0.00000000000E+00  0.34808860665E+03  0.22307528452E+04  0.22034274615E+04 0.  0.
        5    1    3    3  502    0 -0.62170503325E+03  0.85934810018E+03  0.47565622073E+03  0.11624402075E+04  0.46999998093E+01 0. -1.
       -5    1    3    3    0  502  0.62170503325E+03 -0.85934810018E+03 -0.12756761409E+03  0.10683126377E+04  0.46999998093E+01 0.  1.
</event>
<event>
 5   0  0.1884407E-05  0.2211696E+04  0.7818609E-02  0.8513576E-01
        1   -1    0    0  501    0  0.00000000000E+00  0.00000000000E+00  0.14050263925E+04  0.14050263926E+04  0.50400001928E-02 0. -1.
       -1   -1    0    0    0  501  0.00000000000E+00  0.00000000000E+00 -0.87037528589E+03  0.87037528591E+03  0.50400001928E-02 0.  1.
    10030    2    1    2    0    0  0.00000000000E+00  0.00000000000E+00  0.53465110666E+03  0.22754016785E+04  0.22116964060E+04 0.  0.
        3    1    3    3  502    0 -0.37909088797E+03  0.82704142619E+03 -0.37942540729E+03  0.98573377333E+03  0.10100000352E+00 0.  1.
       -3    1    3    3    0  502  0.37909088797E+03 -0.82704142619E+03  0.91407651395E+03  0.12896679051E+04  0.10100000352E+00 0. -1.
</event>
<event>
 5   0  0.1815681E-05  0.2200516E+04  0.7818609E-02  0.8518213E-01
        1   -1    0    0  501    0  0.00000000000E+00  0.00000000000E+00  0.13664735479E+04  0.13664735479E+04  0.50400001928E-02 0.  1.
       -1   -1    0    0    0  501  0.00000000000E+00  0.00000000000E+00 -0.88590653806E+03  0.88590653807E+03  0.50400001928E-02 0. -1.
    10030    2    1    2    0    0  0.00000000000E+00  0.00000000000E+00  0.48056700985E+03  0.22523800860E+04  0.22005161669E+04 0.  0.
        2    1    3    3  502    0 -0.86159033590E+03  0.47408890183E+03  0.74533950718E+03  0.12339486111E+04  0.25500000920E-02 0.  1.
       -2    1    3    3    0  502  0.86159033590E+03 -0.47408890183E+03 -0.26477249734E+03  0.10184314749E+04  0.25500000920E-02 0. -1.
</event>
<event>
 5   0  0.1815681E-05  0.2163328E+04  0.7818609E-02  0.8533849E-01
       -1   -1    0    0    0  501  0.00000000000E+00  0.00000000000E+00  0.61811540991E+03  0.61811540993E+03  0.50400001928E-02 0. -1.
        1   -1    0    0  501    0  0.00000000000E+00  0.00000000000E+00 -0.18928451381E+04  0.18928451381E+04  0.50400001928E-02 0.  1.
    10030    2    1    2    0    0  0.00000000000E+00  0.00000000000E+00 -0.12747297282E+04  0.25109605480E+04  0.21633277592E+04 0.  0.
        2    1    3    3  502    0 -0.32537411412E+03 -0.74833168750E+03  0.18675053153E+03  0.83710476626E+03  0.25500000920E-02 0. -1.
       -2    1    3    3    0  502  0.32537411412E+03  0.74833168750E+03 -0.14614802597E+04  0.16738557818E+04  0.25500000920E-02 0.  1.
</event>
<event>
 5   0  0.4132460E-05  0.2183097E+04  0.7818609E-02  0.8525496E-01
        2   -1    0    0  501    0  0.00000000000E+00  0.00000000000E+00  0.13697293054E+04  0.13697293054E+04  0.25500000920E-02 0. -1.
       -2   -1    0    0    0  501  0.00000000000E+00  0.00000000000E+00 -0.86986421254E+03  0.86986421254E+03  0.25500000920E-02 0.  1.
    10030    2    1    2    0    0  0.00000000000E+00  0.00000000000E+00  0.49986509291E+03  0.22395935180E+04  0.21830973443E+04 0.  0.
        4    1    3    3  502    0 -0.46657687833E+03 -0.38959861304E+03  0.11800352510E+04  0.13273906242E+04  0.12699999809E+01 0. -1.
       -4    1    3    3    0  502  0.46657687833E+03  0.38959861304E+03 -0.68017015807E+03  0.91220289382E+03  0.12699999809E+01 0.  1.
</event>
<event>
 5   0  0.1786228E-05  0.2185114E+04  0.7818609E-02  0.8524649E-01
       -1   -1    0    0    0  501  0.00000000000E+00  0.00000000000E+00  0.78256700159E+03  0.78256700161E+03  0.50400001928E-02 0.  1.
        1   -1    0    0  501    0  0.00000000000E+00  0.00000000000E+00 -0.15253405861E+04  0.15253405861E+04  0.50400001928E-02 0. -1.
    10030    2    1    2    0    0  0.00000000000E+00  0.00000000000E+00 -0.74277358449E+03  0.23079075877E+04  0.21851143759E+04 0.  0.
        5    1    3    3  502    0  0.79688937483E+02 -0.94373543258E+03 -0.94667130884E+03  0.13391025168E+04  0.46999998093E+01 0. -1.
       -5    1    3    3    0  502 -0.79688937483E+02  0.94373543258E+03  0.20389772435E+03  0.96880507093E+03  0.46999998093E+01 0.  1.
</event>
<event>
 5   0  0.4027923E-05  0.2209962E+04  0.7818609E-02  0.8514293E-01
        2   -1    0    0  501    0  0.00000000000E+00  0.00000000000E+00  0.12300198213E+04  0.12300198213E+04  0.25500000920E-02 0.  1.
       -2   -1    0    0    0  501  0.00000000000E+00  0.00000000000E+00 -0.99265345558E+03  0.99265345558E+03  0.25500000920E-02 0. -1.
    10030    2    1    2    0    0  0.00000000000E+00  0.00000000000E+00  0.23736636576E+03  0.22226732769E+04  0.22099623762E+04 0.  0.
        5    1    3    3  502    0 -0.61014605865E+03 -0.57661304268E+02 -0.80603874850E+03  0.10125826351E+04  0.46999998093E+01 0. -1.
       -5    1    3    3    0  502  0.61014605865E+03  0.57661304268E+02  0.10434051143E+04  0.12100906418E+04  0.46999998093E+01 0.  1.
</event>
<event>
 5   0  0.1815681E-05  0.2211718E+04  0.7818609E-02  0.8513567E-01
       -1   -1    0    0    0  501  0.00000000000E+00  0.00000000000E+00  0.75174312910E+03  0.75174312912E+03  0.50400001928E-02 0.  1.
        1   -1    0    0  501    0  0.00000000000E+00  0.00000000000E+00 -0.16267845954E+04  0.16267845954E+04  0.50400001928E-02 0. -1.
    10030    2    1    2    0    0  0.00000000000E+00  0.00000000000E+00 -0.87504146630E+03  0.23785277245E+04  0.22117180129E+04 0.  0.
        2    1    3    3  502    0  0.78077218666E+03  0.44252959906E+03 -0.11323845145E+04  0.14448987308E+04  0.25500000920E-02 0. -1.
       -2    1    3    3    0  502 -0.78077218666E+03 -0.44252959906E+03  0.25734304821E+03  0.93362899375E+03  0.25500000920E-02 0.  1.
</event>
<event>
 5   0  0.3963414E-05  0.2215793E+04  0.7818609E-02  0.8511883E-01
       -2   -1    0    0    0  501  0.00000000000E+00  0.00000000000E+00  0.89604876451E+03  0.89604876451E+03  0.25500000920E-02 0.  1.
        2   -1    0    0  501    0  0.00000000000E+00  0.00000000000E+00 -0.13698306539E+04  0.13698306539E+04  0.25500000920E-02 0. -1.
    10030    2    1    2    0    0  0.00000000000E+00  0.00000000000E+00 -0.47378188939E+03  0.22658794184E+04  0.22157933704E+04 0.  0.
        1    1    3    3  502    0  0.11033940376E+04 -0.42334848475E+02 -0.14449130084E+03  0.11136194941E+04  0.50400001928E-02 0.  1.
       -1    1    3    3    0  502 -0.11033940376E+04  0.42334848475E+02 -0.32929058856E+03  0.11522599244E+04  0.50400001928E-02 0. -1.
</event>
<event>
 5   0  0.1786228E-05  0.2195316E+04  0.7818609E-02  0.8520380E-01
       -1   -1    0    0    0  501  0.00000000000E+00  0.00000000000E+00  0.14300921043E+04  0.14300921043E+04  0.50400001928E-02 0. -1.
        1   -1    0    0  501    0  0.00000000000E+00  0.00000000000E+00 -0.84250028970E+03  0.84250028972E+03  0.50400001928E-02 0.  1.
    10030    2    1    2    0    0  0.00000000000E+00  0.00000000000E+00  0.58759181456E+03  0.22725923940E+04  0.21953159337E+04 0.  0.
        5    1    3    3  502    0  0.35019541998E+03  0.57713917330E+03 -0.60217872163E+03  0.90463681127E+03  0.46999998093E+01 0.  1.
       -5    1    3    3    0  502 -0.35019541998E+03 -0.57713917330E+03  0.11897705362E+04  0.13679555827E+04  0.46999998093E+01 0. -1.
</event>
<event>
 5   0  0.1815681E-05  0.2173652E+04  0.7818609E-02  0.8529476E-01
        1   -1    0    0  501    0  0.00000000000E+00  0.00000000000E+00  0.15403660855E+04  0.15403660855E+04  0.50400001928E-02 0.  1.
       -1   -1    0    0    0  501  0.00000000000E+00  0.00000000000E+00 -0.76682443371E+03  0.76682443373E+03  0.50400001928E-02 0. -1.
    10030    2    1    2    0    0  0.00000000000E+00  0.00000000000E+00  0.77354165176E+03  0.23071905192E+04  0.21736516292E+04 0.  0.
        2    1    3    3  502    0 -0.75415008732E+03  0.57188186230E+03  0.95381885048E+03  0.13437118806E+04  0.25500000920E-02 0. -1.
       -2    1    3    3    0  502  0.75415008732E+03 -0.57188186230E+03 -0.18027719871E+03  0.96347863858E+03  0.25500000920E-02 0.  1.
</event>
<event>
 5   0  0.4143281E-05  0.2211388E+04  0.7818609E-02  0.8513703E-01
        2   -1    0    0  501    0  0.00000000000E+00  0.00000000000E+00  0.12216730422E+04  0.12216730422E+04  0.25500000920E-02 0.  1.
       -2   -1    0    0    0  501  0.00000000000E+00  0.00000000000E+00 -0.10007253872E+04  0.10007253872E+04  0.25500000920E-02 0. -1.
    10030    2    1    2    0    0  0.00000000000E+00  0.00000000000E+00  0.22094765503E+03  0.22223984294E+04  0.22113880059E+04 0.  0.
        2    1    3    3  502    0  0.91910190962E+03  0.61171307855E+03  0.17092326966E+03  0.11172090113E+04  0.25500000920E-02 0.  1.
       -2    1    3    3    0  502 -0.91910190962E+03 -0.61171307855E+03  0.50024385374E+02  0.11051894181E+04  0.25500000920E-02 0. -1.
</event>
<event>
 5   0  0.4143281E-05  0.2143737E+04  0.7818609E-02  0.8542218E-01
       -2   -1    0    0    0  501  0.00000000000E+00  0.00000000000E+00  0.77201230740E+03  0.77201230741E+03  0.25500000920E-02 0.  1.
        2   -1    0    0  501    0  0.00000000000E+00  0.00000000000E+00 -0.14881915584E+04  0.14881915584E+04  0.25500000920E-02 0. -1.
    10030    2    1    2    0    0  0.00000000000E+00  0.00000000000E+00 -0.71617925098E+03  0.22602038658E+04  0.21437371097E+04 0.  0.
        2    1    3    3  502    0  0.82920435661E+03 -0.97489030109E+02 -0.10667823249E+04  0.13546617677E+04  0.25500000920E-02 0. -1.
       -2    1    3    3    0  502 -0.82920435661E+03  0.97489030109E+02  0.35060307393E+03  0.90554209812E+03  0.25500000920E-02 0.  1.
</event>
<event>
 5   0  0.4132460E-05  0.2214967E+04  0.7818609E-02  0.8512224E-01
       -2   -1    0    0    0  501  0.00000000000E+00  0.00000000000E+00  0.17234934777E+04  0.17234934777E+04  0.25500000920E-02 0.  1.
        2   -1    0    0  501    0  0.00000000000E+00  0.00000000000E+00 -0.71164761967E+03  0.71164761968E+03  0.25500000920E-02 0. -1.
    10030    2    1    2    0    0  0.00000000000E+00  0.00000000000E+00  0.10118458580E+04  0.24351410974E+04  0.22149672963E+04 0.  0.
        4    1    3    3  502    0  0.60765382179E+03 -0.87412655055E+03  0.17032941297E+03  0.10781252781E+04  0.12699999809E+01 0.  1.
       -4    1    3    3    0  502 -0.60765382179E+03  0.87412655055E+03  0.84151644506E+03  0.13570158193E+04  0.12699999809E+01 0. -1.
</event>
<event>
 5   0  0.4143281E-05  0.2170511E+04  0.7818609E-02  0.8530803E-01
       -2   -1    0    0    0  501  0.00000000000E+00  0.00000000000E+00  0.66675351647E+03  0.66675351647E+03  0.25500000920E-02 0.  1.
        2   -1    0    0  501    0  0.00000000000E+00  0.00000000000E+00 -0.17664388141E+04  0.17664388141E+04  0.25500000920E-02 0. -1.
    10030    2    1    2    0    0  0.00000000000E+00  0.00000000000E+00 -0.10996852977E+04  0.24331923306E+04  0.21705108071E+04 0.  0.
        2    1    3    3  502    0 -0.71308739954E+02  0.66293590836E+03  0.41006350437E+03  0.78276499194E+03  0.25500000920E-02 0.  1.
       -2    1    3    3    0  502  0.71308739954E+02 -0.66293590836E+03 -0.15097488020E+04  0.16504273387E+04  0.25500000920E-02 0. -1.
</event>
<event>
 5   0  0.4143281E-05  0.2197171E+04  0.7818609E-02  0.8519606E-01
       -2   -1    0    0    0  501  0.00000000000E+00  0.00000000000E+00  0.73426609374E+03  0.73426609374E+03  0.25500000920E-02 0.  1.
        2   -1    0    0  501    0  0.00000000000E+00  0.00000000000E+00 -0.16436690627E+04  0.16436690627E+04  0.25500000920E-02 0. -1.
    10030    2    1    2    0    0  0.00000000000E+00  0.00000000000E+00 -0.90940296900E+03  0.23779351565E+04  0.21971713289E+04 0.  0.
        2    1    3    3  502    0  0.94629467107E+03 -0.44590860598E+03 -0.91563830830E+02  0.10500914363E+04  0.25500000920E-02 0.  1.
       -2    1    3    3    0  502 -0.94629467107E+03  0.44590860598E+03 -0.81783913817E+03  0.13278437202E+04  0.25500000920E-02 0. -1.
</event>
<event>
 5   0  0.4029532E-05  0.2200530E+04  0.7818609E-02  0.8518207E-01
       -2   -1    0    0    0  501  0.00000000000E+00  0.00000000000E+00  0.48935167812E+03  0.48935167813E+03  0.25500000920E-02 0.  1.
        2   -1    0    0  501    0  0.00000000000E+00  0.00000000000E+00 -0.24738513597E+04  0.24738513597E+04  0.25500000920E-02 0. -1.
    10030    2    1    2    0    0  0.00000000000E+00  0.00000000000E+00 -0.19844996816E+04  0.29632030378E+04  0.22005302218E+04 0.  0.
        3    1    3    3  502    0 -0.27940599426E+03 -0.93406285618E+03 -0.30556735944E+03  0.10217203875E+04  0.10100000352E+00 0.  1.
       -3    1    3    3    0  502  0.27940599426E+03  0.93406285618E+03 -0.16789323221E+04  0.19414826503E+04  0.10100000352E+00 0. -1.
</event>
<event>
 5   0  0.1866935E-05  0.2204009E+04  0.7818609E-02  0.8516762E-01
       -1   -1    0    0    0  501  0.00000000000E+00  0.00000000000E+00  0.10118669906E+04  0.10118669906E+04  0.50400001928E-02 0.  1.
        1   -1    0    0  501    0  0.00000000000E+00  0.00000000000E+00 -0.12001709933E+04  0.12001709933E+04  0.50400001928E-02 0. -1.
    10030    2    1    2    0    0  0.00000000000E+00  0.00000000000E+00 -0.18830400270E+03  0.22120379839E+04  0.22040085401E+04 0.  0.
        4    1    3    3  502    0 -0.88013870746E+03  0.39082099758E+03 -0.63185242890E+03  0.11517917786E+04  0.12699999809E+01 0.  1.
       -4    1    3    3    0  502  0.88013870746E+03 -0.39082099758E+03  0.44354842620E+03  0.10602462053E+04  0.12699999809E+01 0. -1.
</event>
<event>
 5   0  0.1788413E-05  0.2209460E+04  0.7818609E-02  0.8514501E-01
        1   -1    0    0  501    0  0.00000000000E+00  0.00000000000E+00  0.11536632498E+04  0.11536632498E+04  0.50400001928E-02 0. -1.
       -1   -1    0    0    0  501  0.00000000000E+00  0.00000000000E+00 -0.10578719540E+04  0.10578719540E+04  0.50400001928E-02 0.  1.
    10030    2    1    2    0    0  0.00000000000E+00  0.00000000000E+00  0.95791295838E+02  0.22115352038E+04  0.22094596592E+04 0.  0.
        1    1    3    3  502    0 -0.38281990446E+03 -0.46687040126E+01 -0.98934762432E+03  0.10608400435E+04  0.50400001928E-02 0.  1.
       -1    1    3    3    0  502  0.38281990446E+03  0.46687040126E+01  0.10851389202E+04  0.11506951604E+04  0.50400001928E-02 0. -1.
</event>
<event>
 5   0  0.1884407E-05  0.2203450E+04  0.7818609E-02  0.8516993E-01
        1   -1    0    0  501    0  0.00000000000E+00  0.00000000000E+00  0.16116749664E+04  0.16116749664E+04  0.50400001928E-02 0.  1.
       -1   -1    0    0    0  501  0.00000000000E+00  0.00000000000E+00 -0.75312846187E+03  0.75312846188E+03  0.50400001928E-02 0. -1.
    10030    2    1    2    0    0  0.00000000000E+00  0.00000000000E+00  0.85854650452E+03  0.23648034283E+04  0.22034502840E+04 0.  0.
        3    1    3    3  502    0  0.47604887838E+03  0.17124113074E+03  0.14796401948E+04  0.15637394846E+04  0.10100000352E+00 0.  1.
       -3    1    3    3    0  502 -0.47604887838E+03 -0.17124113074E+03 -0.62109369030E+03  0.80106394364E+03  0.10100000352E+00 0. -1.
</event>
<event>
 5   0  0.1815681E-05  0.2200409E+04  0.7818609E-02  0.8518258E-01
        1   -1    0    0  501    0  0.00000000000E+00  0.00000000000E+00  0.11107845337E+04  0.11107845337E+04  0.50400001928E-02 0.  1.
       -1   -1    0    0    0  501  0.00000000000E+00  0.00000000000E+00 -0.10897248980E+04  0.10897248980E+04  0.50400001928E-02 0. -1.
    10030    2    1    2    0    0  0.00000000000E+00  0.00000000000E+00  0.21059635746E+02  0.22005094317E+04  0.22004086554E+04 0.  0.
        2    1    3    3  502    0 -0.26778171501E+02 -0.10877238409E+04  0.17359966122E+03  0.11018153506E+04  0.25500000920E-02 0.  1.
       -2    1    3    3    0  502  0.26778171501E+02  0.10877238409E+04 -0.15254002548E+03  0.10986940811E+04  0.25500000920E-02 0. -1.
</event>
<event>
 5   0  0.1788413E-05  0.2198760E+04  0.7818609E-02  0.8518944E-01
        1   -1    0    0  501    0  0.00000000000E+00  0.00000000000E+00  0.15311947706E+04  0.15311947706E+04  0.50400001928E-02 0.  1.
       -1   -1    0    0    0  501  0.00000000000E+00  0.00000000000E+00 -0.78934199019E+03  0.78934199021E+03  0.50400001928E-02 0. -1.
    10030    2    1    2    0    0  0.00000000000E+00  0.00000000000E+00  0.74185278045E+03  0.23205367609E+04  0.21987599484E+04 0.  0.
        1    1    3    3  502    0  0.83810549212E+03  0.24062593621E+03 -0.33571994448E+03  0.93436049694E+03  0.50400001928E-02 0. -1.
       -1    1    3    3    0  502 -0.83810549212E+03 -0.24062593621E+03  0.10775727249E+04  0.13861762639E+04  0.50400001928E-02 0.  1.
</event>
<event>
 5   0  0.4132460E-05  0.2070033E+04  0.7818609E-02  0.8574560E-01
       -2   -1    0    0    0  501  0.00000000000E+00  0.00000000000E+00  0.11175557863E+04  0.11175557863E+04  0.25500000920E-02 0.  1.
        2   -1    0    0  501    0  0.00000000000E+00  0.00000000000E+00 -0.95857294564E+03  0.95857294565E+03  0.25500000920E-02 0. -1.
    10030    2    1    2    0    0  0.00000000000E+00  0.00000000000E+00  0.15898284061E+03  0.20761287319E+04  0.20700326007E+04 0.  0.
        4    1    3    3  502    0 -0.91768442480E+03 -0.37495557320E+03  0.37789197116E+03  0.10609148600E+04  0.12699999809E+01 0.  1.
       -4    1    3    3    0  502  0.91768442480E+03  0.37495557320E+03 -0.21890913055E+03  0.10152138719E+04  0.12699999809E+01 0. -1.
</event>
<event>
 5   0  0.4132460E-05  0.2198486E+04  0.7818609E-02  0.8519059E-01
       -2   -1    0    0    0  501  0.00000000000E+00  0.00000000000E+00  0.11086247781E+04  0.11086247781E+04  0.25500000920E-02 0.  1.
        2   -1    0    0  501    0  0.00000000000E+00  0.00000000000E+00 -0.10899403137E+04  0.10899403137E+04  0.25500000920E-02 0. -1.
    10030    2    1    2    0    0  0.00000000000E+00  0.00000000000E+00  0.18684464382E+02  0.21985650918E+04  0.21984856955E+04 0.  0.
        4    1    3    3  502    0 -0.39573071385E+03 -0.90135446926E+03  0.49853322981E+03  0.11034399264E+04  0.12699999809E+01 0. -1.
       -4    1    3    3    0  502  0.39573071385E+03  0.90135446926E+03 -0.47984876543E+03  0.10951251653E+04  0.12699999809E+01 0.  1.
</event>
<event>
 5   0  0.4143281E-05  0.2226100E+04  0.7818609E-02  0.8507643E-01
       -2   -1    0    0    0  501  0.00000000000E+00  0.00000000000E+00  0.56539373876E+03  0.56539373877E+03  0.25500000920E-02 0. -1.
        2   -1    0    0  501    0  0.00000000000E+00  0.00000000000E+00 -0.21911805606E+04  0.21911805606E+04  0.25500000920E-02 0.  1.
    10030    2    1    2    0    0  0.00000000000E+00  0.00000000000E+00 -0.16257868219E+04  0.27565742994E+04  0.22260995211E+04 0.  0.
        2    1    3    3  502    0 -0.73745078821E+03  0.56897551056E+03 -0.15674558587E+04  0.18233169405E+04  0.25500000920E-02 0.  1.
       -2    1    3    3    0  502  0.73745078821E+03 -0.56897551056E+03 -0.58330963190E+02  0.93325735889E+03  0.25500000920E-02 0. -1.
</event>
<event>
 5   0  0.1786228E-05  0.2212382E+04  0.7818609E-02  0.8513292E-01
        1   -1    0    0  501    0  0.00000000000E+00  0.00000000000E+00  0.14751574846E+04  0.14751574846E+04  0.50400001928E-02 0. -1.
       -1   -1    0    0    0  501  0.00000000000E+00  0.00000000000E+00 -0.82951068919E+03  0.82951068920E+03  0.50400001928E-02 0.  1.
    10030    2    1    2    0    0  0.00000000000E+00  0.00000000000E+00  0.64564679536E+03  0.23046681738E+04  0.22123823374E+04 0.  0.
        5    1    3    3  502    0  0.80473834332E+03  0.25898836611E+03 -0.42034838235E+03  0.94413644540E+03  0.46999998093E+01 0. -1.
       -5    1    3    3    0  502 -0.80473834332E+03 -0.25898836611E+03  0.10659951777E+04  0.13605317284E+04  0.46999998093E+01 0.  1.
</event>
<event>
 5   0  0.1866935E-05  0.2199766E+04  0.7818609E-02  0.8518526E-01
        1   -1    0    0  501    0  0.00000000000E+00  0.00000000000E+00  0.13499206740E+04  0.13499206740E+04  0.50400001928E-02 0. -1.
       -1   -1    0    0    0  501  0.00000000000E+00  0.00000000000E+00 -0.89615807270E+03  0.89615807271E+03  0.50400001928E-02 0.  1.
    10030    2    1    2    0    0  0.00000000000E+00  0.00000000000E+00  0.45376260130E+03  0.22460787467E+04  0.21997657235E+04 0.  0.
        4    1    3    3  502    0 -0.50777459043E+03 -0.44020153957E+02 -0.76830184048E+03  0.92198814506E+03  0.12699999809E+01 0.  1.
       -4    1    3    3    0  502  0.50777459043E+03  0.44020153957E+02  0.12220644418E+04  0.13240906017E+04  0.12699999809E+01 0. -1.
</event>
<event>
 5   0  0.1884407E-05  0.2205011E+04  0.7818609E-02  0.8516345E-01
        1   -1    0    0  501    0  0.00000000000E+00  0.00000000000E+00  0.25135762375E+04  0.25135762375E+04  0.50400001928E-02 0.  1.
       -1   -1    0    0    0  501  0.00000000000E+00  0.00000000000E+00 -0.48358127077E+03  0.48358127079E+03  0.50400001928E-02 0. -1.
    10030    2    1    2    0    0  0.00000000000E+00  0.00000000000E+00  0.20299949667E+04  0.29971575083E+04  0.22050110124E+04 0.  0.
        3    1    3    3  502    0  0.28906721712E+03  0.38342224046E+03 -0.33398091341E+03  0.58490660042E+03  0.10100000352E+00 0.  1.
       -3    1    3    3    0  502 -0.28906721712E+03 -0.38342224046E+03  0.23639758801E+04  0.24122509079E+04  0.10100000352E+00 0. -1.
</event>
<event>
 5   0  0.1866935E-05  0.2194354E+04  0.7818609E-02  0.8520782E-01
       -1   -1    0    0    0  501  0.00000000000E+00  0.00000000000E+00  0.16777325365E+04  0.16777325366E+04  0.50400001928E-02 0.  1.
        1   -1    0    0  501    0  0.00000000000E+00  0.00000000000E+00 -0.71751433595E+03  0.71751433597E+03  0.50400001928E-02 0. -1.
    10030    2    1    2    0    0  0.00000000000E+00  0.00000000000E+00  0.96021820059E+03  0.23952468725E+04  0.21943537973E+04 0.  0.
        4    1    3    3  502    0 -0.29756367612E+03  0.82509449260E+03 -0.23937924541E+03  0.90919145349E+03  0.12699999809E+01 0. -1.
       -4    1    3    3    0  502  0.29756367612E+03 -0.82509449260E+03  0.11995974460E+04  0.14860554190E+04  0.12699999809E+01 0.  1.
</event>
<event>
 5   0  0.1866935E-05  0.2183147E+04  0.7818609E-02  0.8525476E-01
       -1   -1    0    0    0  501  0.00000000000E+00  0.00000000000E+00  0.87707929092E+03  0.87707929093E+03  0.50400001928E-02 0.  1.
        1   -1    0    0  501    0  0.00000000000E+00  0.00000000000E+00 -0.13585228509E+04  0.13585228509E+04  0.50400001928E-02 0. -1.
    10030    2    1    2    0    0  0.00000000000E+00  0.00000000000E+00 -0.48144355997E+03  0.22356021418E+04  0.21831465904E+04 0.  0.
        4    1    3    3  502    0  0.34915415187E+02  0.10909208716E+04 -0.25531952719E+03  0.11209447391E+04  0.12699999809E+01 0. -1.
       -4    1    3    3    0  502 -0.34915415187E+02 -0.10909208716E+04 -0.22612403279E+03  0.11146574027E+04  0.12699999809E+01 0.  1.
</event>
<event>
 5   0  0.3963414E-05  0.2212614E+04  0.7818609E-02  0.8513196E-01
        2   -1    0    0  501    0  0.00000000000E+00  0.00000000000E+00  0.14160512370E+04  0.14160512370E+04  0.25500000920E-02 0. -1.
       -2   -1    0    0    0  501  0.00000000000E+00  0.00000000000E+00 -0.86431569767E+03  0.86431569767E+03  0.25500000920E-02 0.  1.
    10030    2    1    2    0    0  0.00000000000E+00  0.00000000000E+00  0.55173553929E+03  0.22803669346E+04  0.22126141216E+04 0.  0.
        1    1    3    3  502    0 -0.21503593797E+03  0.89995308154E+03  0.90086902941E+03  0.12914027303E+04  0.50400001928E-02 0. -1.
       -1    1    3    3    0  502  0.21503593797E+03 -0.89995308154E+03 -0.34913349011E+03  0.98896420437E+03  0.50400001928E-02 0.  1.
</event>
<event>
 5   0  0.4143281E-05  0.2211680E+04  0.7818609E-02  0.8513582E-01
       -2   -1    0    0    0  501  0.00000000000E+00  0.00000000000E+00  0.52233800729E+03  0.52233800730E+03  0.25500000920E-02 0.  1.
        2   -1    0    0  501    0  0.00000000000E+00  0.00000000000E+00 -0.23411694323E+04  0.23411694323E+04  0.25500000920E-02 0. -1.
    10030    2    1    2    0    0  0.00000000000E+00  0.00000000000E+00 -0.18188314250E+04  0.28635074396E+04  0.22116797019E+04 0.  0.
        2    1    3    3  502    0 -0.77571283070E+03 -0.70315552753E+03 -0.44851754732E+03  0.11390022308E+04  0.25500000920E-02 0.  1.
       -2    1    3    3    0  502  0.77571283070E+03  0.70315552753E+03 -0.13703138777E+04  0.17245052087E+04  0.25500000920E-02 0. -1.
</event>
<event>
 5   0  0.4029532E-05  0.2196837E+04  0.7818609E-02  0.8519746E-01
       -2   -1    0    0    0  501  0.00000000000E+00  0.00000000000E+00  0.19972446820E+04  0.19972446820E+04  0.25500000920E-02 0. -1.
        2   -1    0    0  501    0  0.00000000000E+00  0.00000000000E+00 -0.60409402252E+03  0.60409402253E+03  0.25500000920E-02 0.  1.
    10030    2    1    2    0    0  0.00000000000E+00  0.00000000000E+00  0.13931506595E+04  0.26013387046E+04  0.21968373394E+04 0.  0.
        3    1    3    3  502    0 -0.46424571620E+03  0.66795173317E+03 -0.17746903609E+03  0.83257364349E+03  0.10100000352E+00 0.  1.
       -3    1    3    3    0  502  0.46424571620E+03 -0.66795173317E+03  0.15706196956E+04  0.17687650611E+04  0.10100000352E+00 0. -1.
</event>
<event>
 5   0  0.4027923E-05  0.2194197E+04  0.7818609E-02  0.8520847E-01
       -2   -1    0    0    0  501  0.00000000000E+00  0.00000000000E+00  0.92711935429E+03  0.92711935429E+03  0.25500000920E-02 0. -1.
        2   -1    0    0  501    0  0.00000000000E+00  0.00000000000E+00 -0.12982416512E+04  0.12982416512E+04  0.25500000920E-02 0.  1.
    10030    2    1    2    0    0  0.00000000000E+00  0.00000000000E+00 -0.37112229690E+03  0.22253610055E+04  0.21941968566E+04 0.  0.
        5    1    3    3  502    0  0.87315724498E+03  0.42521957703E+03 -0.70309056632E+03  0.11989886145E+04  0.46999998093E+01 0.  1.
       -5    1    3    3    0  502 -0.87315724498E+03 -0.42521957703E+03  0.33196826942E+03  0.10263723910E+04  0.46999998093E+01 0. -1.
</event>
<event>
 5   0  0.1786228E-05  0.2203324E+04  0.7818609E-02  0.8517046E-01
        1   -1    0    0  501    0  0.00000000000E+00  0.00000000000E+00  0.10464745654E+04  0.10464745654E+04  0.50400001928E-02 0. -1.
       -1   -1    0    0    0  501  0.00000000000E+00  0.00000000000E+00 -0.11597602368E+04  0.11597602368E+04  0.50400001928E-02 0.  1.
    10030    2    1    2    0    0  0.00000000000E+00  0.00000000000E+00 -0.11328567140E+03  0.22062348023E+04  0.22033243882E+04 0.  0.
        5    1    3    3  502    0 -0.51610559672E+01 -0.69696413068E+03  0.79762644347E+03  0.10592524106E+04  0.46999998093E+01 0. -1.
       -5    1    3    3    0  502  0.51610559672E+01  0.69696413068E+03 -0.91091211486E+03  0.11469823917E+04  0.46999998093E+01 0.  1.
</event>
<event>
 5   0  0.1815681E-05  0.2201835E+04  0.7818609E-02  0.8517665E-01
        1   -1    0    0  501    0  0.00000000000E+00  0.00000000000E+00  0.14447867358E+04  0.14447867358E+04  0.50400001928E-02 0. -1.
       -1   -1    0    0    0  501  0.00000000000E+00  0.00000000000E+00 -0.83889184566E+03  0.83889184568E+03  0.50400001928E-02 0.  1.
    10030    2    1    2    0    0  0.00000000000E+00  0.00000000000E+00  0.60589489017E+03  0.22836785815E+04  0.22018354266E+04 0.  0.
        2    1    3    3  502    0  0.61182491289E+02  0.31869673987E+03 -0.78815825681E+03  0.85235224352E+03  0.25500000920E-02 0.  1.
       -2    1    3    3    0  502 -0.61182491289E+02 -0.31869673987E+03  0.13940531470E+04  0.14313263380E+04  0.25500000920E-02 0. -1.
</event>
<event>
 5   0  0.1786228E-05  0.2199873E+04  0.7818609E-02  0.8518481E-01
        1   -1    0    0  501    0  0.00000000000E+00  0.00000000000E+00  0.13622571733E+04  0.13622571733E+04  0.50400001928E-02 0. -1.
       -1   -1    0    0    0  501  0.00000000000E+00  0.00000000000E+00 -0.88812936820E+03  0.88812936822E+03  0.50400001928E-02 0.  1.
    10030    2    1    2    0    0  0.00000000000E+00  0.00000000000E+00  0.47412780509E+03  0.22503865415E+04  0.21998732715E+04 0.  0.
        5    1    3    3  502    0 -0.42158597867E+03  0.10136054461E+04  0.16687518552E+03  0.11104054013E+04  0.46999998093E+01 0.  1.
       -5    1    3    3    0  502  0.42158597867E+03 -0.10136054461E+04  0.30725261958E+03  0.11399811402E+04  0.46999998093E+01 0. -1.
</event>
<event>
 5   0  0.4143281E-05  0.2197778E+04  0.7818609E-02  0.8519353E-01
       -2   -1    0    0    0  501  0.00000000000E+00  0.00000000000E+00  0.74332138834E+03  0.74332138834E+03  0.25500000920E-02 0. -1.
        2   -1    0    0  501    0  0.00000000000E+00  0.00000000000E+00 -0.16245424448E+04  0.16245424448E+04  0.25500000920E-02 0.  1.
    10030    2    1    2    0    0  0.00000000000E+00  0.00000000000E+00 -0.88122105643E+03  0.23678638331E+04  0.21977781012E+04 0.  0.
        2    1    3    3  502    0 -0.70151925619E+03  0.38186665474E+03  0.37251961271E+03  0.88131848424E+03  0.25500000920E-02 0. -1.
       -2    1    3    3    0  502  0.70151925619E+03 -0.38186665474E+03 -0.12537406691E+04  0.14865453489E+04  0.25500000920E-02 0.  1.
</event>
<event>
 5   0  0.3963414E-05  0.2206480E+04  0.7818609E-02  0.8515736E-01
       -2   -1    0    0    0  501  0.00000000000E+00  0.00000000000E+00  0.55382297484E+03  0.55382297484E+03  0.25500000920E-02 0.  1.
        2   -1    0    0  501    0  0.00000000000E+00  0.00000000000E+00 -0.21977030020E+04  0.21977030020E+04  0.25500000920E-02 0. -1.
    10030    2    1    2    0    0  0.00000000000E+00  0.00000000000E+00 -0.16438800271E+04  0.27515259768E+04  0.22064799246E+04 0.  0.
        1    1    3    3  502    0  0.23271259093E+03 -0.76777731439E+03 -0.17663070622E+04  0.19399685029E+04  0.50400001928E-02 0. -1.
       -1    1    3    3    0  502 -0.23271259093E+03  0.76777731439E+03  0.12242703505E+03  0.81155747387E+03  0.50400001928E-02 0.  1.
</event>
<event>
 5   0  0.3963414E-05  0.2198037E+04  0.7818609E-02  0.8519245E-01
        2   -1    0    0  501    0  0.00000000000E+00  0.00000000000E+00  0.16031469762E+04  0.16031469762E+04  0.25500000920E-02 0. -1.
       -2   -1    0    0    0  501  0.00000000000E+00  0.00000000000E+00 -0.75341945542E+03  0.75341945542E+03  0.25500000920E-02 0.  1.
    10030    2    1    2    0    0  0.00000000000E+00  0.00000000000E+00  0.84972752080E+03  0.23565664316E+04  0.21980374171E+04 0.  0.
        1    1    3    3  502    0  0.57571218818E+03  0.11309665216E+03  0.14211924102E+04  0.15375380461E+04  0.50400001928E-02 0. -1.
       -1    1    3    3    0  502 -0.57571218818E+03 -0.11309665216E+03 -0.57146488945E+03  0.81902838550E+03  0.50400001928E-02 0.  1.
</event>
<event>
 5   0  0.4029532E-05  0.2278590E+04  0.7818609E-02  0.8486411E-01
        2   -1    0    0  501    0  0.00000000000E+00  0.00000000000E+00  0.14838016010E+04  0.14838016010E+04  0.25500000920E-02 0.  1.
       -2   -1    0    0    0  501  0.00000000000E+00  0.00000000000E+00 -0.87477509759E+03  0.87477509759E+03  0.25500000920E-02 0. -1.
    10030    2    1    2    0    0  0.00000000000E+00  0.00000000000E+00  0.60902650336E+03  0.23585766985E+04  0.22785896430E+04 0.  0.
        3    1    3    3  502    0 -0.50518622185E+03  0.10458893038E+03 -0.74694059768E+03  0.90778424186E+03  0.10100000352E+00 0. -1.
       -3    1    3    3    0  502  0.50518622185E+03 -0.10458893038E+03  0.13559671010E+04  0.14507924567E+04  0.10100000352E+00 0.  1.
</event>
<event>
 5   0  0.1866935E-05  0.2218543E+04  0.7818609E-02  0.8510750E-01
       -1   -1    0    0    0  501  0.00000000000E+00  0.00000000000E+00  0.10094341636E+04  0.10094341636E+04  0.50400001928E-02 0.  1.
        1   -1    0    0  501    0  0.00000000000E+00  0.00000000000E+00 -0.12189827414E+04  0.12189827414E+04  0.50400001928E-02 0. -1.
    10030    2    1    2    0    0  0.00000000000E+00  0.00000000000E+00 -0.20954857779E+03  0.22284169051E+04  0.22185426064E+04 0.  0.
        4    1    3    3  502    0  0.98217593543E+03  0.46422628679E+03  0.12051307196E+03  0.10930236168E+04  0.12699999809E+01 0. -1.
       -4    1    3    3    0  502 -0.98217593543E+03 -0.46422628679E+03 -0.33006164975E+03  0.11353932883E+04  0.12699999809E+01 0.  1.
</event>
<event>
 5   0  0.4029532E-05  0.2197900E+04  0.7818609E-02  0.8519303E-01
       -2   -1    0    0    0  501  0.00000000000E+00  0.00000000000E+00  0.62875976315E+03  0.62875976316E+03  0.25500000920E-02 0. -1.
        2   -1    0    0  501    0  0.00000000000E+00  0.00000000000E+00 -0.19207512807E+04  0.19207512807E+04  0.25500000920E-02 0.  1.
    10030    2    1    2    0    0  0.00000000000E+00  0.00000000000E+00 -0.12919915176E+04  0.25495110439E+04  0.21979000163E+04 0.  0.
        3    1    3    3  502    0 -0.85873655837E+03  0.17985270494E+03  0.12162054865E+03  0.88575789029E+03  0.10100000352E+00 0. -1.
       -3    1    3    3    0  502  0.85873655837E+03 -0.17985270494E+03 -0.14136120662E+04  0.16637531536E+04  0.10100000352E+00 0.  1.
</event>
<event>
 5   0  0.1815681E-05  0.2196978E+04  0.7818609E-02  0.8519687E-01
        1   -1    0    0  501    0  0.00000000000E+00  0.00000000000E+00  0.91560438468E+03  0.91560438469E+03  0.50400001928E-02 0.  1.
       -1   -1    0    0    0  501  0.00000000000E+00  0.00000000000E+00 -0.13179028968E+04  0.13179028968E+04  0.50400001928E-02 0. -1.
    10030    2    1    2    0    0  0.00000000000E+00  0.00000000000E+00 -0.40229851211E+03  0.22335072815E+04  0.21969776247E+04 0.  0.
        2    1    3    3  502    0 -0.12603841532E+03  0.98104863969E+03  0.28464067652E+03  0.10292533363E+04  0.25500000920E-02 0.  1.
       -2    1    3    3    0  502  0.12603841532E+03 -0.98104863969E+03 -0.68693918863E+03  0.12042539452E+04  0.25500000920E-02 0. -1.
</event>
<event>
 5   0  0.4027923E-05  0.2201243E+04  0.7818609E-02  0.8517911E-01
       -2   -1    0    0    0  501  0.00000000000E+00  0.00000000000E+00  0.65811800999E+03  0.65811800999E+03  0.25500000920E-02 0. -1.
        2   -1    0    0  501    0  0.00000000000E+00  0.00000000000E+00 -0.18406547086E+04  0.18406547086E+04  0.25500000920E-02 0.  1.
    10030    2    1    2    0    0  0.00000000000E+00  0.00000000000E+00 -0.11825366987E+04  0.24987727186E+04  0.22012432977E+04 0.  0.
        5    1    3    3  502    0  0.10692262986E+04  0.75124665538E+01 -0.29515664702E+03  0.11092523838E+04  0.46999998093E+01 0.  1.
       -5    1    3    3    0  502 -0.10692262986E+04 -0.75124665538E+01 -0.88738005164E+03  0.13895203348E+04  0.46999998093E+01 0. -1.
</event>
<event>
 5   0  0.4029532E-05  0.2195036E+04  0.7818609E-02  0.8520497E-01
       -2   -1    0    0    0  501  0.00000000000E+00  0.00000000000E+00  0.14913526544E+04  0.14913526544E+04  0.25500000920E-02 0.  1.
        2   -1    0    0  501    0  0.00000000000E+00  0.00000000000E+00 -0.80768638004E+03  0.80768638005E+03  0.25500000920E-02 0. -1.
    10030    2    1    2    0    0  0.00000000000E+00  0.00000000000E+00  0.68366627435E+03  0.22990390344E+04  0.21950355139E+04 0.  0.
        3    1    3    3  502    0  0.96963692984E+03 -0.50458149292E+03  0.44523761340E+03  0.11802689529E+04  0.10100000352E+00 0.  1.
       -3    1    3    3    0  502 -0.96963692984E+03  0.50458149292E+03  0.23842866096E+03  0.11187700815E+04  0.10100000352E+00 0. -1.
</event>
<event>
 5   0  0.1815681E-05  0.2168558E+04  0.7818609E-02  0.8531630E-01
       -1   -1    0    0    0  501  0.00000000000E+00  0.00000000000E+00  0.42281870680E+03  0.42281870683E+03  0.50400001928E-02 0.  1.
        1   -1    0    0  501    0  0.00000000000E+00  0.00000000000E+00 -0.27805314208E+04  0.27805314208E+04  0.50400001928E-02 0. -1.
    10030    2    1    2    0    0  0.00000000000E+00  0.00000000000E+00 -0.23577127140E+04  0.32033501277E+04  0.21685577692E+04 0.  0.
        2    1    3    3  502    0 -0.54688688563E+03 -0.60742390144E+03 -0.12641186615E+03  0.82706047036E+03  0.25500000920E-02 0.  1.
       -2    1    3    3    0  502  0.54688688563E+03  0.60742390144E+03 -0.22313008479E+04  0.23762896573E+04  0.25500000920E-02 0. -1.
</event>
<event>
 5   0  0.1815681E-05  0.2201604E+04  0.7818609E-02  0.8517761E-01
        1   -1    0    0  501    0  0.00000000000E+00  0.00000000000E+00  0.27608336786E+04  0.27608336786E+04  0.50400001928E-02 0.  1.
       -1   -1    0    0    0  501  0.00000000000E+00  0.00000000000E+00 -0.43891271715E+03  0.43891271718E+03  0.50400001928E-02 0. -1.
    10030    2    1    2    0    0  0.00000000000E+00  0.00000000000E+00  0.23219209614E+04  0.31997463958E+04  0.22016039712E+04 0.  0.
        2    1    3    3  502    0  0.94479967759E+02 -0.69416807178E+03 -0.73095113814E+02  0.70437111799E+03  0.25500000920E-02 0. -1.
       -2    1    3    3    0  502 -0.94479967759E+02  0.69416807178E+03  0.23950160752E+04  0.24953752778E+04  0.25500000920E-02 0.  1.
</event>
<event>
 5   0  0.1786228E-05  0.2168959E+04  0.7818609E-02  0.8531460E-01
       -1   -1    0    0    0  501  0.00000000000E+00  0.00000000000E+00  0.14292409953E+04  0.14292409953E+04  0.50400001928E-02 0. -1.
        1   -1    0    0  501    0  0.00000000000E+00  0.00000000000E+00 -0.82288172363E+03  0.82288172364E+03  0.50400001928E-02 0.  1.
    10030    2    1    2    0    0  0.00000000000E+00  0.00000000000E+00  0.60635927168E+03  0.22521227190E+04  0.21689594683E+04 0.  0.
        5    1    3    3  502    0 -0.10079657405E+04  0.39537602001E+03  0.23953447250E+03  0.11089255993E+04  0.46999998093E+01 0. -1.
       -5    1    3    3    0  502  0.10079657405E+04 -0.39537602001E+03  0.36682479918E+03  0.11431971197E+04  0.46999998093E+01 0.  1.
</event>
<event>
 5   0  0.4143281E-05  0.2205395E+04  0.7818609E-02  0.8516186E-01
        2   -1    0    0  501    0  0.00000000000E+00  0.00000000000E+00  0.70968162200E+03  0.70968162200E+03  0.25500000920E-02 0.  1.
       -2   -1    0    0    0  501  0.00000000000E+00  0.00000000000E+00 -0.17133620726E+04  0.17133620726E+04  0.25500000920E-02 0. -1.
    10030    2    1    2    0    0  0.00000000000E+00  0.00000000000E+00 -0.10036804506E+04  0.24230436946E+04  0.22053948170E+04 0.  0.
        2    1    3    3  502    0  0.56246089702E+03 -0.74257791954E+03 -0.11501203078E+04  0.14800543739E+04  0.25500000920E-02 0. -1.
       -2    1    3    3    0  502 -0.56246089702E+03  0.74257791954E+03  0.14643985715E+03  0.94298932074E+03  0.25500000920E-02 0.  1.
</event>
<event>
 5   0  0.4143281E-05  0.2203482E+04  0.7818609E-02  0.8516980E-01
       -2   -1    0    0    0  501  0.00000000000E+00  0.00000000000E+00  0.95240335936E+03  0.95240335936E+03  0.25500000920E-02 0. -1.
        2   -1    0    0  501    0  0.00000000000E+00  0.00000000000E+00 -0.12744944988E+04  0.12744944988E+04  0.25500000920E-02 0.  1.
    10030    2    1    2    0    0  0.00000000000E+00  0.00000000000E+00 -0.32209113949E+03  0.22268978582E+04  0.22034816470E+04 0.  0.
        2    1    3    3  502    0  0.19035336636E+03  0.33613923869E+03 -0.12038092499E+04  0.12642708183E+04  0.25500000920E-02 0.  1.
       -2    1    3    3    0  502 -0.19035336636E+03 -0.33613923869E+03  0.88171811037E+03  0.96262703994E+03  0.25500000920E-02 0. -1.
</event>
<event>
 5   0  0.1884407E-05  0.2193716E+04  0.7818609E-02  0.8521048E-01
        1   -1    0    0  501    0  0.00000000000E+00  0.00000000000E+00  0.14917679006E+04  0.14917679006E+04  0.50400001928E-02 0. -1.
       -1   -1    0    0    0  501  0.00000000000E+00  0.00000000000E+00 -0.80649078578E+03  0.80649078579E+03  0.50400001928E-02 0.  1.
    10030    2    1    2    0    0  0.00000000000E+00  0.00000000000E+00  0.68527711482E+03  0.22982586864E+04  0.21937156300E+04 0.  0.
        3    1    3    3  502    0 -0.44664764221E+03 -0.26868160086E+03 -0.66845131492E+03  0.84765033449E+03  0.10100000352E+00 0.  1.
       -3    1    3    3    0  502  0.44664764221E+03  0.26868160086E+03  0.13537284297E+04  0.14506083519E+04  0.10100000352E+00 0. -1.
</event>
<event>
 5   0  0.4132460E-05  0.2204801E+04  0.7818609E-02  0.8516433E-01
       -2   -1    0    0    0  501  0.00000000000E+00  0.00000000000E+00  0.10418823168E+04  0.10418823168E+04  0.25500000920E-02 0. -1.
        2   -1    0    0  501    0  0.00000000000E+00  0.00000000000E+00 -0.11664338735E+04  0.11664338735E+04  0.25500000920E-02 0.  1.
    10030    2    1    2    0    0  0.00000000000E+00  0.00000000000E+00 -0.12455155675E+03  0.22083161903E+04  0.22048009675E+04 0.  0.
        4    1    3    3  502    0  0.13027988881E+03 -0.98713462948E+03 -0.53618719912E+03  0.11308872409E+04  0.12699999809E+01 0.  1.
       -4    1    3    3    0  502 -0.13027988881E+03  0.98713462948E+03  0.41163564237E+03  0.10774289495E+04  0.12699999809E+01 0. -1.
</event>
<event>
 5   0  0.1788413E-05  0.2188242E+04  0.7818609E-02  0.8523338E-01
        1   -1    0    0  501    0  0.00000000000E+00  0.00000000000E+00  0.93688818760E+03  0.93688818761E+03  0.50400001928E-02 0.  1.
       -1   -1    0    0    0  501  0.00000000000E+00  0.00000000000E+00 -0.12777418603E+04  0.12777418603E+04  0.50400001928E-02 0. -1.
    10030    2    1    2    0    0  0.00000000000E+00  0.00000000000E+00 -0.34085367267E+03  0.22146300479E+04  0.21882424507E+04 0.  0.
        1    1    3    3  502    0 -0.51552282832E+03 -0.77341845366E+03 -0.75458851745E+03  0.11972233383E+04  0.50400001928E-02 0. -1.
       -1    1    3    3    0  502  0.51552282832E+03  0.77341845366E+03  0.41373484478E+03  0.10174067096E+04  0.50400001928E-02 0.  1.
</event>
<event>
 5   0  0.4143281E-05  0.2209447E+04  0.7818609E-02  0.8514506E-01
       -2   -1    0    0    0  501  0.00000000000E+00  0.00000000000E+00  0.79918524189E+03  0.79918524189E+03  0.25500000920E-02 0. -1.
        2   -1    0    0  501    0  0.00000000000E+00  0.00000000000E+00 -0.15270732916E+04  0.15270732916E+04  0.25500000920E-02 0.  1.
    10030    2    1    2    0    0  0.00000000000E+00  0.00000000000E+00 -0.72788804976E+03  0.23262585335E+04  0.22094473861E+04 0.  0.
        2    1    3    3  502    0  0.50844136991E+02  0.37325871797E+03 -0.14573610904E+04  0.15052602913E+04  0.25500000920E-02 0.  1.
       -2    1    3    3    0  502 -0.50844136991E+02 -0.37325871797E+03  0.72947304061E+03  0.82099824226E+03  0.25500000920E-02 0. -1.
</event>
<event>
 5   0  0.1884407E-05  0.2156852E+04  0.7818609E-02  0.8536605E-01
        1   -1    0    0  501    0  0.00000000000E+00  0.00000000000E+00  0.12090009051E+04  0.12090009051E+04  0.50400001928E-02 0.  1.
       -1   -1    0    0    0  501  0.00000000000E+00  0.00000000000E+00 -0.96195328710E+03  0.96195328711E+03  0.50400001928E-02 0. -1.
    10030    2    1    2    0    0  0.00000000000E+00  0.00000000000E+00  0.24704761798E+03  0.21709541922E+04  0.21568517749E+04 0.  0.
        3    1    3    3  502    0 -0.73741356888E+03 -0.67150668687E+03  0.53645291088E+03  0.11324671023E+04  0.10100000352E+00 0.  1.
       -3    1    3    3    0  502  0.73741356888E+03  0.67150668687E+03 -0.28940529290E+03  0.10384870899E+04  0.10100000352E+00 0. -1.
</event>
<event>
 5   0  0.3963414E-05  0.2195087E+04  0.7818609E-02  0.8520476E-01
       -2   -1    0    0    0  501  0.00000000000E+00  0.00000000000E+00  0.80934491787E+03  0.80934491787E+03  0.25500000920E-02 0. -1.
        2   -1    0    0  501    0  0.00000000000E+00  0.00000000000E+00 -0.14883669278E+04  0.14883669278E+04  0.25500000920E-02 0.  1.
    10030    2    1    2    0    0  0.00000000000E+00  0.00000000000E+00 -0.67902200995E+03  0.22977118457E+04  0.21950874324E+04 0.  0.
        1    1    3    3  502    0 -0.22158945245E+02  0.38342796881E+03  0.73670781267E+03  0.83081070492E+03  0.50400001928E-02 0. -1.
       -1    1    3    3    0  502  0.22158945245E+02 -0.38342796881E+03 -0.14157298226E+04  0.14669011408E+04  0.50400001928E-02 0.  1.
</event>
<event>
 5   0  0.4027923E-05  0.2169840E+04  0.7818609E-02  0.8531087E-01
       -2   -1    0    0    0  501  0.00000000000E+00  0.00000000000E+00  0.11395795749E+04  0.11395795749E+04  0.25500000920E-02 0. -1.
        2   -1    0    0  501    0  0.00000000000E+00  0.00000000000E+00 -0.10328817506E+04  0.10328817506E+04  0.25500000920E-02 0.  1.
    10030    2    1    2    0    0  0.00000000000E+00  0.00000000000E+00  0.10669782431E+03  0.21724613256E+04  0.21698395759E+04 0.  0.
        5    1    3    3  502    0 -0.90697174877E+03 -0.14351835793E+03  0.63183036651E+03  0.11146420834E+04  0.46999998093E+01 0. -1.
       -5    1    3    3    0  502  0.90697174877E+03  0.14351835793E+03 -0.52513254220E+03  0.10578192421E+04  0.46999998093E+01 0.  1.
</event>
<event>
 5   0  0.1788413E-05  0.2024854E+04  0.7818609E-02  0.8595088E-01
        1   -1    0    0  501    0  0.00000000000E+00  0.00000000000E+00  0.22377499158E+04  0.22377499158E+04  0.50400001928E-02 0. -1.
       -1   -1    0    0    0  501  0.00000000000E+00  0.00000000000E+00 -0.45805335107E+03  0.45805335110E+03  0.50400001928E-02 0.  1.
    10030    2    1    2    0    0  0.00000000000E+00  0.00000000000E+00  0.17796965647E+04  0.26958032669E+04  0.20248544124E+04 0.  0.
        1    1    3    3  502    0  0.69624120182E+03  0.19134353887E+03  0.18346844750E+04  0.19716569894E+04  0.50400001928E-02 0. -1.
       -1    1    3    3    0  502 -0.69624120182E+03 -0.19134353887E+03 -0.54987910232E+02  0.72414627754E+03  0.50400001928E-02 0.  1.
</event>
<event>
 5   0  0.1866935E-05  0.2200085E+04  0.7818609E-02  0.8518393E-01
       -1   -1    0    0    0  501  0.00000000000E+00  0.00000000000E+00  0.98176279066E+03  0.98176279067E+03  0.50400001928E-02 0.  1.
        1   -1    0    0  501    0  0.00000000000E+00  0.00000000000E+00 -0.12325726544E+04  0.12325726544E+04  0.50400001928E-02 0. -1.
    10030    2    1    2    0    0  0.00000000000E+00  0.00000000000E+00 -0.25080986377E+03  0.22143354451E+04  0.22000854246E+04 0.  0.
        4    1    3    3  502    0  0.49278788155E+03 -0.79806212434E+02  0.86119077143E+03  0.99541955247E+03  0.12699999809E+01 0.  1.
       -4    1    3    3    0  502 -0.49278788155E+03  0.79806212434E+02 -0.11120006352E+04  0.12189158926E+04  0.12699999809E+01 0. -1.
</event>
<event>
 5   0  0.1866935E-05  0.2204979E+04  0.7818609E-02  0.8516359E-01
       -1   -1    0    0    0  501  0.00000000000E+00  0.00000000000E+00  0.83417314612E+03  0.83417314614E+03  0.50400001928E-02 0. -1.
        1   -1    0    0  501    0  0.00000000000E+00  0.00000000000E+00 -0.14571108202E+04  0.14571108202E+04  0.50400001928E-02 0.  1.
    10030    2    1    2    0    0  0.00000000000E+00  0.00000000000E+00 -0.62293767409E+03  0.22912839664E+04  0.22049786549E+04 0.  0.
        4    1    3    3  502    0  0.14055813408E+03  0.10900382379E+04 -0.22123000578E+03  0.11211085039E+04  0.12699999809E+01 0.  1.
       -4    1    3    3    0  502 -0.14055813408E+03 -0.10900382379E+04 -0.40170766831E+03  0.11701754624E+04  0.12699999809E+01 0. -1.
</event>
<event>
 5   0  0.4143281E-05  0.2219608E+04  0.7818609E-02  0.8510311E-01
        2   -1    0    0  501    0  0.00000000000E+00  0.00000000000E+00  0.19933190286E+04  0.19933190286E+04  0.25500000920E-02 0. -1.
       -2   -1    0    0    0  501  0.00000000000E+00  0.00000000000E+00 -0.61789648705E+03  0.61789648705E+03  0.25500000920E-02 0.  1.
    10030    2    1    2    0    0  0.00000000000E+00  0.00000000000E+00  0.13754225415E+04  0.26112155156E+04  0.22196079161E+04 0.  0.
        2    1    3    3  502    0 -0.49208362097E+03  0.25756799200E+03  0.18180510270E+04  0.19009989735E+04  0.25500000920E-02 0. -1.
       -2    1    3    3    0  502  0.49208362097E+03 -0.25756799200E+03 -0.44262848547E+03  0.71021654211E+03  0.25500000920E-02 0.  1.
</event>
<event>
 5   0  0.4143281E-05  0.2201656E+04  0.7818609E-02  0.8517739E-01
       -2   -1    0    0    0  501  0.00000000000E+00  0.00000000000E+00  0.74925108337E+03  0.74925108338E+03  0.25500000920E-02 0. -1.
        2   -1    0    0  501    0  0.00000000000E+00  0.00000000000E+00 -0.16173781798E+04  0.16173781798E+04  0.25500000920E-02 0.  1.
    10030    2    1    2    0    0  0.00000000000E+00  0.00000000000E+00 -0.86812709641E+03  0.23666292632E+04  0.22016560616E+04 0.  0.
        2    1    3    3  502    0  0.27944718949E+03  0.22497980327E+03 -0.15527752541E+04  0.15936805305E+04  0.25500000920E-02 0.  1.
       -2    1    3    3    0  502 -0.27944718949E+03 -0.22497980327E+03  0.68464815765E+03  0.77294873269E+03  0.25500000920E-02 0. -1.
</event>
<event>
 5   0  0.4132460E-05  0.2195889E+04  0.7818609E-02  0.8520141E-01
        2   -1    0    0  501    0  0.00000000000E+00  0.00000000000E+00  0.92525715767E+03  0.92525715767E+03  0.25500000920E-02 0. -1.
       -2   -1    0    0    0  501  0.00000000000E+00  0.00000000000E+00 -0.13028612836E+04  0.13028612836E+04  0.25500000920E-02 0.  1.
    10030    2    1    2    0    0  0.00000000000E+00  0.00000000000E+00 -0.37760412592E+03  0.22281184413E+04  0.21958886384E+04 0.  0.
        4    1    3    3  502    0  0.38544990485E+03  0.18160795418E+03  0.83794263027E+03  0.94005454240E+03  0.12699999809E+01 0. -1.
       -4    1    3    3    0  502 -0.38544990485E+03 -0.18160795418E+03 -0.12155467562E+04  0.12880638989E+04  0.12699999809E+01 0.  1.
</event>
<event>
 5   0  0.4027923E-05  0.2196383E+04  0.7818609E-02  0.8519935E-01
        2   -1    0    0  501    0  0.00000000000E+00  0.00000000000E+00  0.19136459518E+04  0.19136459518E+04  0.25500000920E-02 0. -1.
       -2   -1    0    0    0  501  0.00000000000E+00  0.00000000000E+00 -0.63022358679E+03  0.63022358680E+03  0.25500000920E-02 0.  1.
    10030    2    1    2    0    0  0.00000000000E+00  0.00000000000E+00  0.12834223650E+04  0.25438695386E+04  0.21963832230E+04 0.  0.
        5    1    3    3  502    0 -0.77141981217E+03 -0.59893607671E+03  0.12233460779E+04  0.15653787615E+04  0.46999998093E+01 0. -1.
       -5    1    3    3    0  502  0.77141981217E+03  0.59893607671E+03  0.60076287073E+02  0.97849077709E+03  0.46999998093E+01 0.  1.
</event>
<event>
 5   0  0.4143281E-05  0.2193345E+04  0.7818609E-02  0.8521203E-01
        2   -1    0    0  501    0  0.00000000000E+00  0.00000000000E+00  0.17075319008E+04  0.17075319008E+04  0.25500000920E-02 0. -1.
       -2   -1    0    0    0  501  0.00000000000E+00  0.00000000000E+00 -0.70434422888E+03  0.70434422888E+03  0.25500000920E-02 0.  1.
    10030    2    1    2    0    0  0.00000000000E+00  0.00000000000E+00  0.10031876719E+04  0.24118761297E+04  0.21933446970E+04 0.  0.
        2    1    3    3  502    0 -0.11927951724E+03  0.43709688936E+03 -0.59661451028E+03  0.74915296689E+03  0.25500000920E-02 0.  1.
       -2    1    3    3    0  502  0.11927951724E+03 -0.43709688936E+03  0.15998021822E+04  0.16627231628E+04  0.25500000920E-02 0. -1.
</event>
<event>
 5   0  0.3963414E-05  0.2197874E+04  0.7818609E-02  0.8519314E-01
        2   -1    0    0  501    0  0.00000000000E+00  0.00000000000E+00  0.88181872866E+03  0.88181872866E+03  0.25500000920E-02 0.  1.
       -2   -1    0    0    0  501  0.00000000000E+00  0.00000000000E+00 -0.13695130587E+04  0.13695130587E+04  0.25500000920E-02 0. -1.
    10030    2    1    2    0    0  0.00000000000E+00  0.00000000000E+00 -0.48769433003E+03  0.22513317874E+04  0.21978737583E+04 0.  0.
        1    1    3    3  502    0  0.82932804339E+03  0.40892606245E+03  0.36444588081E+03  0.99389452568E+03  0.50400001928E-02 0.  1.
       -1    1    3    3    0  502 -0.82932804339E+03 -0.40892606245E+03 -0.85214021085E+03  0.12574372617E+04  0.50400001928E-02 0. -1.
</event>
<event>
 5   0  0.4132460E-05  0.2190364E+04  0.7818609E-02  0.8522449E-01
        2   -1    0    0  501    0  0.00000000000E+00  0.00000000000E+00  0.27518866911E+04  0.27518866911E+04  0.25500000920E-02 0.  1.
       -2   -1    0    0    0  501  0.00000000000E+00  0.00000000000E+00 -0.43585512359E+03  0.43585512360E+03  0.25500000920E-02 0. -1.
    10030    2    1    2    0    0  0.00000000000E+00  0.00000000000E+00  0.23160315676E+04  0.31877418147E+04  0.21903642746E+04 0.  0.
        4    1    3    3  502    0 -0.31883085642E+03 -0.56040702612E+03 -0.13036832387E+03  0.65780442587E+03  0.12699999809E+01 0. -1.
       -4    1    3    3    0  502  0.31883085642E+03  0.56040702612E+03  0.24463998914E+04  0.25299373889E+04  0.12699999809E+01 0.  1.
</event>
<event>
 5   0  0.4132460E-05  0.2188782E+04  0.7818609E-02  0.8523112E-01
       -2   -1    0    0    0  501  0.00000000000E+00  0.00000000000E+00  0.68333755404E+03  0.68333755404E+03  0.25500000920E-02 0. -1.
        2   -1    0    0  501    0  0.00000000000E+00  0.00000000000E+00 -0.17527086404E+04  0.17527086404E+04  0.25500000920E-02 0.  1.
    10030    2    1    2    0    0  0.00000000000E+00  0.00000000000E+00 -0.10693710864E+04  0.24360461944E+04  0.21887819766E+04 0.  0.
        4    1    3    3  502    0 -0.62134604945E+03  0.74958665454E+03 -0.10908793670E+04  0.14621800410E+04  0.12699999809E+01 0.  1.
       -4    1    3    3    0  502  0.62134604945E+03 -0.74958665454E+03  0.21508280699E+02  0.97386615347E+03  0.12699999809E+01 0. -1.
</event>
<event>
 5   0  0.4027923E-05  0.2202404E+04  0.7818609E-02  0.8517428E-01
       -2   -1    0    0    0  501  0.00000000000E+00  0.00000000000E+00  0.90171272358E+03  0.90171272359E+03  0.25500000920E-02 0.  1.
        2   -1    0    0  501    0  0.00000000000E+00  0.00000000000E+00 -0.13448247428E+04  0.13448247428E+04  0.25500000920E-02 0. -1.
    10030    2    1    2    0    0  0.00000000000E+00  0.00000000000E+00 -0.44311201926E+03  0.22465374664E+04  0.22024037610E+04 0.  0.
        5    1    3    3  502    0  0.24426631202E+03 -0.10620261169E+04 -0.38302525615E+03  0.11551172846E+04  0.46999998093E+01 0. -1.
       -5    1    3    3    0  502 -0.24426631202E+03  0.10620261169E+04 -0.60086763105E+02  0.10914201819E+04  0.46999998093E+01 0.  1.
</event>
<event>
 5   0  0.1866935E-05  0.2249295E+04  0.7818609E-02  0.8498186E-01
       -1   -1    0    0    0  501  0.00000000000E+00  0.00000000000E+00  0.15403469415E+04  0.15403469416E+04  0.50400001928E-02 0.  1.
        1   -1    0    0  501    0  0.00000000000E+00  0.00000000000E+00 -0.82113451258E+03  0.82113451259E+03  0.50400001928E-02 0. -1.
    10030    2    1    2    0    0  0.00000000000E+00  0.00000000000E+00  0.71921242896E+03  0.23614814541E+04  0.22492950318E+04 0.  0.
        4    1    3    3  502    0 -0.57492475501E+03  0.54728459091E+03 -0.47685697478E+03  0.92598762663E+03  0.12699999809E+01 0. -1.
       -4    1    3    3    0  502  0.57492475501E+03 -0.54728459091E+03  0.11960694037E+04  0.14354938275E+04  0.12699999809E+01 0.  1.
</event>
<event>
 5   0  0.4027923E-05  0.2189964E+04  0.7818609E-02  0.8522617E-01
       -2   -1    0    0    0  501  0.00000000000E+00  0.00000000000E+00  0.60880902345E+03  0.60880902346E+03  0.25500000920E-02 0.  1.
        2   -1    0    0  501    0  0.00000000000E+00  0.00000000000E+00 -0.19693954665E+04  0.19693954665E+04  0.25500000920E-02 0. -1.
    10030    2    1    2    0    0  0.00000000000E+00  0.00000000000E+00 -0.13605864431E+04  0.25782044900E+04  0.21899641374E+04 0.  0.
        5    1    3    3  502    0 -0.88210072641E+03  0.58596637898E+03 -0.35254057757E+03  0.11161385387E+04  0.46999998093E+01 0.  1.
       -5    1    3    3    0  502  0.88210072641E+03 -0.58596637898E+03 -0.10080458655E+04  0.14620659512E+04  0.46999998093E+01 0. -1.
</event>
<event>
 5   0  0.4029532E-05  0.2206602E+04  0.7818609E-02  0.8515685E-01
        2   -1    0    0  501    0  0.00000000000E+00  0.00000000000E+00  0.84297624060E+03  0.84297624060E+03  0.25500000920E-02 0.  1.
       -2   -1    0    0    0  501  0.00000000000E+00  0.00000000000E+00 -0.14440188981E+04  0.14440188981E+04  0.25500000920E-02 0. -1.
    10030    2    1    2    0    0  0.00000000000E+00  0.00000000000E+00 -0.60104265755E+03  0.22869951387E+04  0.22066024763E+04 0.  0.
        3    1    3    3  502    0  0.89300220309E+03 -0.24800852356E+03  0.31987909982E+03  0.98045082038E+03  0.10100000352E+00 0.  1.
       -3    1    3    3    0  502 -0.89300220309E+03  0.24800852356E+03 -0.92092175736E+03  0.13065443184E+04  0.10100000352E+00 0. -1.
</event>
<event>
 5   0  0.4027923E-05  0.2199448E+04  0.7818609E-02  0.8518658E-01
       -2   -1    0    0    0  501  0.00000000000E+00  0.00000000000E+00  0.11763287531E+04  0.11763287531E+04  0.25500000920E-02 0. -1.
        2   -1    0    0  501    0  0.00000000000E+00  0.00000000000E+00 -0.10281080818E+04  0.10281080818E+04  0.25500000920E-02 0.  1.
    10030    2    1    2    0    0  0.00000000000E+00  0.00000000000E+00  0.14822067125E+03  0.22044368349E+04  0.21994482016E+04 0.  0.
        5    1    3    3  502    0  0.94754571023E+03 -0.54837070138E+03 -0.30133783473E+02  0.10952093106E+04  0.46999998093E+01 0. -1.
       -5    1    3    3    0  502 -0.94754571023E+03  0.54837070138E+03  0.17835445473E+03  0.11092275243E+04  0.46999998093E+01 0.  1.
</event>
<event>
 5   0  0.1788413E-05  0.2179246E+04  0.7818609E-02  0.8527116E-01
        1   -1    0    0  501    0  0.00000000000E+00  0.00000000000E+00  0.12597369453E+04  0.12597369453E+04  0.50400001928E-02 0. -1.
       -1   -1    0    0    0  501  0.00000000000E+00  0.00000000000E+00 -0.94248113343E+03  0.94248113345E+03  0.50400001928E-02 0.  1.
    10030    2    1    2    0    0  0.00000000000E+00  0.00000000000E+00  0.31725581190E+03  0.22022180788E+04  0.21792460202E+04 0.  0.
        1    1    3    3  502    0  0.32175956483E+03 -0.10290882345E+04  0.31753208408E+03  0.11240010838E+04  0.50400001928E-02 0. -1.
       -1    1    3    3    0  502 -0.32175956483E+03  0.10290882345E+04 -0.27627217968E+00  0.10782169950E+04  0.50400001928E-02 0.  1.
</event>
<event>
 5   0  0.1786228E-05  0.2197958E+04  0.7818609E-02  0.8519279E-01
        1   -1    0    0  501    0  0.00000000000E+00  0.00000000000E+00  0.12017337605E+04  0.12017337606E+04  0.50400001928E-02 0. -1.
       -1   -1    0    0    0  501  0.00000000000E+00  0.00000000000E+00 -0.10050099336E+04  0.10050099336E+04  0.50400001928E-02 0.  1.
    10030    2    1    2    0    0  0.00000000000E+00  0.00000000000E+00  0.19672382696E+03  0.22067436941E+04  0.21979575673E+04 0.  0.
        5    1    3    3  502    0  0.10741903348E+04 -0.22374254148E+03  0.16014387572E+03  0.11088795026E+04  0.46999998093E+01 0.  1.
       -5    1    3    3    0  502 -0.10741903348E+04  0.22374254148E+03  0.36579951238E+02  0.10978641916E+04  0.46999998093E+01 0. -1.
</event>
<event>
 5   0  0.1786228E-05  0.2178566E+04  0.7818609E-02  0.8527403E-01
       -1   -1    0    0    0  501  0.00000000000E+00  0.00000000000E+00  0.11612863767E+04  0.11612863767E+04  0.50400001928E-02 0.  1.
        1   -1    0    0  501    0  0.00000000000E+00  0.00000000000E+00 -0.10217444714E+04  0.10217444714E+04  0.50400001928E-02 0. -1.
    10030    2    1    2    0    0  0.00000000000E+00  0.00000000000E+00  0.13954190534E+03  0.21830308481E+04  0.21785664416E+04 0.  0.
        5    1    3    3  502    0  0.62348738278E+03 -0.54133954541E+02  0.96314089527E+03  0.11486206840E+04  0.46999998093E+01 0.  1.
       -5    1    3    3    0  502 -0.62348738278E+03  0.54133954541E+02 -0.82359898993E+03  0.10344101642E+04  0.46999998093E+01 0. -1.
</event>
<event>
 5   0  0.3963414E-05  0.2193563E+04  0.7818609E-02  0.8521112E-01
        2   -1    0    0  501    0  0.00000000000E+00  0.00000000000E+00  0.14159744594E+04  0.14159744594E+04  0.25500000920E-02 0. -1.
       -2   -1    0    0    0  501  0.00000000000E+00  0.00000000000E+00 -0.84954181407E+03  0.84954181407E+03  0.25500000920E-02 0.  1.
    10030    2    1    2    0    0  0.00000000000E+00  0.00000000000E+00  0.56643264534E+03  0.22655162735E+04  0.21935628652E+04 0.  0.
        1    1    3    3  502    0  0.14559196449E+03  0.84653385336E+03 -0.42114630560E+03  0.95665082227E+03  0.50400001928E-02 0.  1.
       -1    1    3    3    0  502 -0.14559196449E+03 -0.84653385336E+03  0.98757895094E+03  0.13088654512E+04  0.50400001928E-02 0. -1.
</event>
<event>
 5   0  0.3963414E-05  0.2235279E+04  0.7818609E-02  0.8503886E-01
        2   -1    0    0  501    0  0.00000000000E+00  0.00000000000E+00  0.16001795315E+04  0.16001795315E+04  0.25500000920E-02 0. -1.
       -2   -1    0    0    0  501  0.00000000000E+00  0.00000000000E+00 -0.78061119321E+03  0.78061119321E+03  0.25500000920E-02 0.  1.
    10030    2    1    2    0    0  0.00000000000E+00  0.00000000000E+00  0.81956833833E+03  0.23807907248E+04  0.22352790014E+04 0.  0.
        1    1    3    3  502    0  0.63509920202E+03 -0.31428003574E+03 -0.51076791339E+03  0.87350260368E+03  0.50400001928E-02 0.  1.
       -1    1    3    3    0  502 -0.63509920202E+03  0.31428003574E+03  0.13303362517E+04  0.15072881211E+04  0.50400001928E-02 0. -1.
</event>
<event>
 5   0  0.1866935E-05  0.2204989E+04  0.7818609E-02  0.8516355E-01
        1   -1    0    0  501    0  0.00000000000E+00  0.00000000000E+00  0.20269555862E+04  0.20269555862E+04  0.50400001928E-02 0. -1.
       -1   -1    0    0    0  501  0.00000000000E+00  0.00000000000E+00 -0.59966479597E+03  0.59966479600E+03  0.50400001928E-02 0.  1.
    10030    2    1    2    0    0  0.00000000000E+00  0.00000000000E+00  0.14272907902E+04  0.26266203822E+04  0.22049888055E+04 0.  0.
        4    1    3    3  502    0  0.61404665010E+02 -0.12041885448E+03 -0.58975574122E+03  0.60504932080E+03  0.12699999809E+01 0.  1.
       -4    1    3    3    0  502 -0.61404665010E+02  0.12041885448E+03  0.20170465314E+04  0.20215710614E+04  0.12699999809E+01 0. -1.
</event>
<event>
 5   0  0.4143281E-05  0.2200707E+04  0.7818609E-02  0.8518134E-01
        2   -1    0    0  501    0  0.00000000000E+00  0.00000000000E+00  0.13639986793E+04  0.13639986793E+04  0.25500000920E-02 0. -1.
       -2   -1    0    0    0  501  0.00000000000E+00  0.00000000000E+00 -0.88766780580E+03  0.88766780581E+03  0.25500000920E-02 0.  1.
    10030    2    1    2    0    0  0.00000000000E+00  0.00000000000E+00  0.47633087351E+03  0.22516664851E+04  0.22007068999E+04 0.  0.
        2    1    3    3  502    0  0.14688634767E+03 -0.10580420516E+04  0.50838156356E+03  0.11829963636E+04  0.25500000920E-02 0.  1.
       -2    1    3    3    0  502 -0.14688634767E+03  0.10580420516E+04 -0.32050690046E+02  0.10686701216E+04  0.25500000920E-02 0. -1.
</event>
<event>
 5   0  0.1433375E-05  0.2225479E+04  0.7818609E-02  0.8507897E-01
       -3   -1    0    0    0  501  0.00000000000E+00  0.00000000000E+00  0.12735188534E+04  0.12735188574E+04  0.10100000352E+00 0.  1.
        3   -1    0    0  501    0  0.00000000000E+00  0.00000000000E+00 -0.97225832066E+03  0.97225832591E+03  0.10100000352E+00 0. -1.
    10030    2    1    2    0    0  0.00000000000E+00  0.00000000000E+00  0.30126053271E+03  0.22457771833E+04  0.22254791054E+04 0.  0.
        1    1    3    3  502    0 -0.62740591289E+03 -0.42881304466E+03  0.97086017912E+03  0.12329186081E+04  0.50400001928E-02 0.  1.
       -1    1    3    3    0  502  0.62740591289E+03  0.42881304466E+03 -0.66959964641E+03  0.10128585752E+04  0.50400001928E-02 0. -1.
</event>
<event>
 5   0  0.4027923E-05  0.2226696E+04  0.7818609E-02  0.8507398E-01
        2   -1    0    0  501    0  0.00000000000E+00  0.00000000000E+00  0.13134864830E+04  0.13134864830E+04  0.25500000920E-02 0. -1.
       -2   -1    0    0    0  501  0.00000000000E+00  0.00000000000E+00 -0.94370467919E+03  0.94370467920E+03  0.25500000920E-02 0.  1.
    10030    2    1    2    0    0  0.00000000000E+00  0.00000000000E+00  0.36978180379E+03  0.22571911622E+04  0.22266956146E+04 0.  0.
        5    1    3    3  502    0  0.72913678629E+03 -0.73150836618E+03 -0.23646548470E+03  0.10595673449E+04  0.46999998093E+01 0.  1.
       -5    1    3    3    0  502 -0.72913678629E+03  0.73150836618E+03  0.60624728849E+03  0.11976238173E+04  0.46999998093E+01 0. -1.
</event>
<event>
 5   0  0.4027923E-05  0.2202998E+04  0.7818609E-02  0.8517181E-01
        2   -1    0    0  501    0  0.00000000000E+00  0.00000000000E+00  0.10495021975E+04  0.10495021975E+04  0.25500000920E-02 0.  1.
       -2   -1    0    0    0  501  0.00000000000E+00  0.00000000000E+00 -0.11560719712E+04  0.11560719712E+04  0.25500000920E-02 0. -1.
    10030    2    1    2    0    0  0.00000000000E+00  0.00000000000E+00 -0.10656977370E+03  0.22055741686E+04  0.22029980247E+04 0.  0.
        5    1    3    3  502    0  0.56614860140E+03 -0.24088755629E+03  0.86141741421E+03  0.10585901498E+04  0.46999998093E+01 0.  1.
       -5    1    3    3    0  502 -0.56614860140E+03  0.24088755629E+03 -0.96798718791E+03  0.11469840189E+04  0.46999998093E+01 0. -1.
</event>
<event>
 5   0  0.1788413E-05  0.2202405E+04  0.7818609E-02  0.8517428E-01
       -1   -1    0    0    0  501  0.00000000000E+00  0.00000000000E+00  0.11513971190E+04  0.11513971190E+04  0.50400001928E-02 0.  1.
        1   -1    0    0  501    0  0.00000000000E+00  0.00000000000E+00 -0.10531956492E+04  0.10531956492E+04  0.50400001928E-02 0. -1.
    10030    2    1    2    0    0  0.00000000000E+00  0.00000000000E+00  0.98201469769E+02  0.22045927682E+04  0.22024045371E+04 0.  0.
        1    1    3    3  502    0 -0.11375781584E+03  0.20324602415E+03 -0.10282569942E+04  0.10543065177E+04  0.50400001928E-02 0. -1.
       -1    1    3    3    0  502  0.11375781584E+03 -0.20324602415E+03  0.11264584640E+04  0.11502862505E+04  0.50400001928E-02 0.  1.
</event>
<event>
 5   0  0.1866935E-05  0.2198217E+04  0.7818609E-02  0.8519171E-01
       -1   -1    0    0    0  501  0.00000000000E+00  0.00000000000E+00  0.62087884216E+03  0.62087884218E+03  0.50400001928E-02 0. -1.
        1   -1    0    0  501    0  0.00000000000E+00  0.00000000000E+00 -0.19456925267E+04  0.19456925268E+04  0.50400001928E-02 0.  1.
    10030    2    1    2    0    0  0.00000000000E+00  0.00000000000E+00 -0.13248136846E+04  0.25665713689E+04  0.21982168439E+04 0.  0.
        4    1    3    3  502    0  0.47535818945E+03 -0.89684955277E+03 -0.11546357004E+04  0.15373645444E+04  0.12699999809E+01 0.  1.
       -4    1    3    3    0  502 -0.47535818945E+03  0.89684955277E+03 -0.17017798414E+03  0.10292068246E+04  0.12699999809E+01 0. -1.
</event>
<event>
 5   0  0.4029532E-05  0.2214503E+04  0.7818609E-02  0.8512416E-01
       -2   -1    0    0    0  501  0.00000000000E+00  0.00000000000E+00  0.68549954750E+03  0.68549954750E+03  0.25500000920E-02 0.  1.
        2   -1    0    0  501    0  0.00000000000E+00  0.00000000000E+00 -0.17884857023E+04  0.17884857023E+04  0.25500000920E-02 0. -1.
    10030    2    1    2    0    0  0.00000000000E+00  0.00000000000E+00 -0.11029861548E+04  0.24739852498E+04  0.22145032307E+04 0.  0.
        3    1    3    3  502    0  0.66237826667E+02 -0.16054852798E+03  0.67018798939E+03  0.69232595708E+03  0.10100000352E+00 0.  1.
       -3    1    3    3    0  502 -0.66237826667E+02  0.16054852798E+03 -0.17731741442E+04  0.17816592928E+04  0.10100000352E+00 0. -1.
</event>
<event>
 5   0  0.3963414E-05  0.2154218E+04  0.7818609E-02  0.8537729E-01
        2   -1    0    0  501    0  0.00000000000E+00  0.00000000000E+00  0.12493134278E+04  0.12493134278E+04  0.25500000920E-02 0.  1.
       -2   -1    0    0    0  501  0.00000000000E+00  0.00000000000E+00 -0.92864150197E+03  0.92864150197E+03  0.25500000920E-02 0. -1.
    10030    2    1    2    0    0  0.00000000000E+00  0.00000000000E+00  0.32067192583E+03  0.21779549298E+04  0.21542184643E+04 0.  0.
        1    1    3    3  502    0  0.57302964508E+03  0.15687406097E+03 -0.74800213344E+03  0.95523800009E+03  0.50400001928E-02 0. -1.
       -1    1    3    3    0  502 -0.57302964508E+03 -0.15687406097E+03  0.10686740593E+04  0.12227169297E+04  0.50400001928E-02 0.  1.
</event>
<event>
 5   0  0.4027923E-05  0.2195307E+04  0.7818609E-02  0.8520384E-01
        2   -1    0    0  501    0  0.00000000000E+00  0.00000000000E+00  0.16741617064E+04  0.16741617064E+04  0.25500000920E-02 0.  1.
       -2   -1    0    0    0  501  0.00000000000E+00  0.00000000000E+00 -0.71966924045E+03  0.71966924046E+03  0.25500000920E-02 0. -1.
    10030    2    1    2    0    0  0.00000000000E+00  0.00000000000E+00  0.95449246598E+03  0.23938309469E+04  0.21953065241E+04 0.  0.
        5    1    3    3  502    0 -0.51012243225E+03 -0.62811235829E+03 -0.33149113688E+03  0.87444753665E+03  0.46999998093E+01 0. -1.
       -5    1    3    3    0  502  0.51012243225E+03  0.62811235829E+03  0.12859836029E+04  0.15193834102E+04  0.46999998093E+01 0.  1.
</event>
<event>
 5   0  0.1433375E-05  0.2242218E+04  0.7818609E-02  0.8501059E-01
       -4   -1    0    0    0  501  0.00000000000E+00  0.00000000000E+00  0.11961399724E+04  0.11961406466E+04  0.12699999809E+01 0.  1.
        4   -1    0    0  501    0  0.00000000000E+00  0.00000000000E+00 -0.10507829234E+04  0.10507836909E+04  0.12699999809E+01 0. -1.
    10030    2    1    2    0    0  0.00000000000E+00  0.00000000000E+00  0.14535704901E+03  0.22469243376E+04  0.22422177207E+04 0.  0.
        4    1    3    3  502    0 -0.65441864252E+03 -0.35444030721E+03  0.91288454468E+03  0.11778164101E+04  0.12699999809E+01 0.  1.
       -4    1    3    3    0  502  0.65441864252E+03  0.35444030721E+03 -0.76752749568E+03  0.10691079275E+04  0.12699999809E+01 0. -1.
</event>
<event>
 5   0  0.4029532E-05  0.2290548E+04  0.7818609E-02  0.8481657E-01
        2   -1    0    0  501    0  0.00000000000E+00  0.00000000000E+00  0.22768697542E+04  0.22768697542E+04  0.25500000920E-02 0.  1.
       -2   -1    0    0    0  501  0.00000000000E+00  0.00000000000E+00 -0.57607691711E+03  0.57607691712E+03  0.25500000920E-02 0. -1.
    10030    2    1    2    0    0  0.00000000000E+00  0.00000000000E+00  0.17007928371E+04  0.28529466714E+04  0.22905476277E+04 0.  0.
        3    1    3    3  502    0  0.66909861277E+03  0.23195987433E+03 -0.27068732105E+03  0.75813585385E+03  0.10100000352E+00 0. -1.
       -3    1    3    3    0  502 -0.66909861277E+03 -0.23195987433E+03  0.19714801582E+04  0.20948108175E+04  0.10100000352E+00 0.  1.
</event>
<event>
 5   0  0.4132460E-05  0.2079520E+04  0.7818609E-02  0.8570319E-01
       -2   -1    0    0    0  501  0.00000000000E+00  0.00000000000E+00  0.13097750156E+04  0.13097750156E+04  0.25500000920E-02 0. -1.
        2   -1    0    0  501    0  0.00000000000E+00  0.00000000000E+00 -0.82540975693E+03  0.82540975694E+03  0.25500000920E-02 0.  1.
    10030    2    1    2    0    0  0.00000000000E+00  0.00000000000E+00  0.48436525869E+03  0.21351847726E+04  0.20795202113E+04 0.  0.
        4    1    3    3  502    0  0.45271830645E+03  0.81523738048E+03  0.71442180412E+03  0.11747195319E+04  0.12699999809E+01 0. -1.
       -4    1    3    3    0  502 -0.45271830645E+03 -0.81523738048E+03 -0.23005654543E+03  0.96046524066E+03  0.12699999809E+01 0.  1.
</event>
<event>
 5   0  0.1786228E-05  0.2186908E+04  0.7818609E-02  0.8523897E-01
        1   -1    0    0  501    0  0.00000000000E+00  0.00000000000E+00  0.11331281205E+04  0.11331281205E+04  0.50400001928E-02 0.  1.
       -1   -1    0    0    0  501  0.00000000000E+00  0.00000000000E+00 -0.10551687707E+04  0.10551687707E+04  0.50400001928E-02 0. -1.
    10030    2    1    2    0    0  0.00000000000E+00  0.00000000000E+00  0.77959349828E+02  0.21882968912E+04  0.21869077767E+04 0.  0.
        5    1    3    3  502    0 -0.35087125555E+03  0.12107504062E+03 -0.99019175024E+03  0.10574836148E+04  0.46999998093E+01 0. -1.
       -5    1    3    3    0  502  0.35087125555E+03 -0.12107504062E+03  0.10681511001E+04  0.11308132764E+04  0.46999998093E+01 0.  1.
</event>
<event>
 5   0  0.4029532E-05  0.2200964E+04  0.7818609E-02  0.8518027E-01
       -2   -1    0    0    0  501  0.00000000000E+00  0.00000000000E+00  0.67998251148E+03  0.67998251148E+03  0.25500000920E-02 0. -1.
        2   -1    0    0  501    0  0.00000000000E+00  0.00000000000E+00 -0.17810173469E+04  0.17810173469E+04  0.25500000920E-02 0.  1.
    10030    2    1    2    0    0  0.00000000000E+00  0.00000000000E+00 -0.11010348354E+04  0.24609998584E+04  0.22009640147E+04 0.  0.
        3    1    3    3  502    0  0.71924263972E+03 -0.50206072197E+03 -0.12936311958E+04  0.15629640509E+04  0.10100000352E+00 0.  1.
       -3    1    3    3    0  502 -0.71924263972E+03  0.50206072197E+03  0.19259636039E+03  0.89803580751E+03  0.10100000352E+00 0. -1.
</event>
<event>
 5   0  0.4132460E-05  0.2207111E+04  0.7818609E-02  0.8515474E-01
        2   -1    0    0  501    0  0.00000000000E+00  0.00000000000E+00  0.13074137260E+04  0.13074137260E+04  0.25500000920E-02 0. -1.
       -2   -1    0    0    0  501  0.00000000000E+00  0.00000000000E+00 -0.93148350714E+03  0.93148350715E+03  0.25500000920E-02 0.  1.
    10030    2    1    2    0    0  0.00000000000E+00  0.00000000000E+00  0.37593021885E+03  0.22388972332E+04  0.22071106205E+04 0.  0.
        4    1    3    3  502    0 -0.54954447488E+03 -0.16777722653E+03  0.11437041982E+04  0.12799254797E+04  0.12699999809E+01 0. -1.
       -4    1    3    3    0  502  0.54954447488E+03  0.16777722653E+03 -0.76777397938E+03  0.95897175346E+03  0.12699999809E+01 0.  1.
</event>
<event>
 5   0  0.3963414E-05  0.2186241E+04  0.7818609E-02  0.8524177E-01
       -2   -1    0    0    0  501  0.00000000000E+00  0.00000000000E+00  0.16298935285E+04  0.16298935285E+04  0.25500000920E-02 0.  1.
        2   -1    0    0  501    0  0.00000000000E+00  0.00000000000E+00 -0.73312293824E+03  0.73312293825E+03  0.25500000920E-02 0. -1.
    10030    2    1    2    0    0  0.00000000000E+00  0.00000000000E+00  0.89677059030E+03  0.23630164668E+04  0.21862409132E+04 0.  0.
        1    1    3    3  502    0  0.60663926069E+03 -0.53240202748E+03 -0.34841266937E+03  0.87912143625E+03  0.50400001928E-02 0. -1.
       -1    1    3    3    0  502 -0.60663926069E+03  0.53240202748E+03  0.12451832597E+04  0.14838950305E+04  0.50400001928E-02 0.  1.
</event>
<event>
 5   0  0.1866935E-05  0.2197095E+04  0.7818609E-02  0.8519638E-01
        1   -1    0    0  501    0  0.00000000000E+00  0.00000000000E+00  0.11373104493E+04  0.11373104494E+04  0.50400001928E-02 0.  1.
       -1   -1    0    0    0  501  0.00000000000E+00  0.00000000000E+00 -0.10611056290E+04  0.10611056290E+04  0.50400001928E-02 0. -1.
    10030    2    1    2    0    0  0.00000000000E+00  0.00000000000E+00  0.76204820355E+02  0.21984160784E+04  0.21970949181E+04 0.  0.
        4    1    3    3  502    0  0.62454745254E+03  0.12258376157E+03  0.93402823236E+03  0.11302639740E+04  0.12699999809E+01 0.  1.
       -4    1    3    3    0  502 -0.62454745254E+03 -0.12258376157E+03 -0.85782341200E+03  0.10681521044E+04  0.12699999809E+01 0. -1.
</event>
<event>
 5   0  0.4029532E-05  0.2166517E+04  0.7818609E-02  0.8532495E-01
       -2   -1    0    0    0  501  0.00000000000E+00  0.00000000000E+00  0.91093667077E+03  0.91093667077E+03  0.25500000920E-02 0. -1.
        2   -1    0    0  501    0  0.00000000000E+00  0.00000000000E+00 -0.12881778577E+04  0.12881778577E+04  0.25500000920E-02 0.  1.
    10030    2    1    2    0    0  0.00000000000E+00  0.00000000000E+00 -0.37724118689E+03  0.21991145284E+04  0.21665165118E+04 0.  0.
        3    1    3    3  502    0  0.10789462506E+04 -0.72105499282E+02 -0.12343419690E+03  0.10883750392E+04  0.10100000352E+00 0. -1.
       -3    1    3    3    0  502 -0.10789462506E+04  0.72105499282E+02 -0.25380699000E+03  0.11107394893E+04  0.10100000352E+00 0.  1.
</event>
<event>
 5   0  0.4027923E-05  0.2203560E+04  0.7818609E-02  0.8516948E-01
       -2   -1    0    0    0  501  0.00000000000E+00  0.00000000000E+00  0.59785566808E+03  0.59785566809E+03  0.25500000920E-02 0.  1.
        2   -1    0    0  501    0  0.00000000000E+00  0.00000000000E+00 -0.20304549286E+04  0.20304549286E+04  0.25500000920E-02 0. -1.
    10030    2    1    2    0    0  0.00000000000E+00  0.00000000000E+00 -0.14325992605E+04  0.26283105967E+04  0.22035598361E+04 0.  0.
        5    1    3    3  502    0  0.26790357139E+03 -0.19100755573E+03 -0.19704766655E+04  0.19977628961E+04  0.46999998093E+01 0. -1.
       -5    1    3    3    0  502 -0.26790357139E+03  0.19100755573E+03  0.53787740497E+03  0.63054770056E+03  0.46999998093E+01 0.  1.
</event>
<event>
 5   0  0.1884407E-05  0.2189136E+04  0.7818609E-02  0.8522963E-01
        1   -1    0    0  501    0  0.00000000000E+00  0.00000000000E+00  0.23140763944E+04  0.23140763944E+04  0.50400001928E-02 0. -1.
       -1   -1    0    0    0  501  0.00000000000E+00  0.00000000000E+00 -0.51773550363E+03  0.51773550365E+03  0.50400001928E-02 0.  1.
    10030    2    1    2    0    0  0.00000000000E+00  0.00000000000E+00  0.17963408908E+04  0.28318118980E+04  0.21891363663E+04 0.  0.
        3    1    3    3  502    0  0.12073477131E+03 -0.99470659435E+03  0.32831963463E+03  0.10544249080E+04  0.10100000352E+00 0.  1.
       -3    1    3    3    0  502 -0.12073477131E+03  0.99470659435E+03  0.14680212561E+04  0.17773869901E+04  0.10100000352E+00 0. -1.
</event>
<event>
 5   0  0.1866935E-05  0.2192404E+04  0.7818609E-02  0.8521596E-01
       -1   -1    0    0    0  501  0.00000000000E+00  0.00000000000E+00  0.95528305544E+03  0.95528305545E+03  0.50400001928E-02 0. -1.
        1   -1    0    0  501    0  0.00000000000E+00  0.00000000000E+00 -0.12579085441E+04  0.12579085441E+04  0.50400001928E-02 0.  1.
    10030    2    1    2    0    0  0.00000000000E+00  0.00000000000E+00 -0.30262548868E+03  0.22131915996E+04  0.21924039021E+04 0.  0.
        4    1    3    3  502    0 -0.28702460050E+03  0.97120699833E+03  0.27222582257E+03  0.10486823477E+04  0.12699999809E+01 0. -1.
       -4    1    3    3    0  502  0.28702460050E+03 -0.97120699833E+03 -0.57485131125E+03  0.11645092519E+04  0.12699999809E+01 0.  1.
</event>
<event>
 5   0  0.4132460E-05  0.2195112E+04  0.7818609E-02  0.8520465E-01
        2   -1    0    0  501    0  0.00000000000E+00  0.00000000000E+00  0.10722226351E+04  0.10722226351E+04  0.25500000920E-02 0. -1.
       -2   -1    0    0    0  501  0.00000000000E+00  0.00000000000E+00 -0.11234883458E+04  0.11234883458E+04  0.25500000920E-02 0.  1.
    10030    2    1    2    0    0  0.00000000000E+00  0.00000000000E+00 -0.51265710649E+02  0.21957109809E+04  0.21951124205E+04 0.  0.
        4    1    3    3  502    0  0.44030406889E+03  0.94457331910E+02  0.97555873249E+03  0.10744795550E+04  0.12699999809E+01 0. -1.
       -4    1    3    3    0  502 -0.44030406889E+03 -0.94457331910E+02 -0.10268244431E+04  0.11212314260E+04  0.12699999809E+01 0.  1.
</event>
<event>
 5   0  0.1884407E-05  0.2198796E+04  0.7818609E-02  0.8518929E-01
        1   -1    0    0  501    0  0.00000000000E+00  0.00000000000E+00  0.17446074553E+04  0.17446074554E+04  0.50400001928E-02 0.  1.
       -1   -1    0    0    0  501  0.00000000000E+00  0.00000000000E+00 -0.69280692998E+03  0.69280693000E+03  0.50400001928E-02 0. -1.
    10030    2    1    2    0    0  0.00000000000E+00  0.00000000000E+00  0.10518005254E+04  0.24374143854E+04  0.21987961572E+04 0.  0.
        3    1    3    3  502    0  0.17031376157E+03  0.81182600673E+03 -0.27393356942E+03  0.87356044624E+03  0.10100000352E+00 0. -1.
       -3    1    3    3    0  502 -0.17031376157E+03 -0.81182600673E+03  0.13257340948E+04  0.15638539391E+04  0.10100000352E+00 0.  1.
</event>
<event>
 5   0  0.4027923E-05  0.2191619E+04  0.7818609E-02  0.8521924E-01
       -2   -1    0    0    0  501  0.00000000000E+00  0.00000000000E+00  0.10312561306E+04  0.10312561306E+04  0.25500000920E-02 0.  1.
        2   -1    0    0  501    0  0.00000000000E+00  0.00000000000E+00 -0.11644039019E+04  0.11644039019E+04  0.25500000920E-02 0. -1.
    10030    2    1    2    0    0  0.00000000000E+00  0.00000000000E+00 -0.13314777134E+03  0.21956600325E+04  0.21916191844E+04 0.  0.
        5    1    3    3  502    0 -0.90754917267E+03  0.33235440975E+03  0.45078081687E+03  0.10664569327E+04  0.46999998093E+01 0.  1.
       -5    1    3    3    0  502  0.90754917267E+03 -0.33235440975E+03 -0.58392858821E+03  0.11292030998E+04  0.46999998093E+01 0. -1.
</event>
<event>
 5   0  0.4143281E-05  0.2213051E+04  0.7818609E-02  0.8513016E-01
       -2   -1    0    0    0  501  0.00000000000E+00  0.00000000000E+00  0.10889394156E+04  0.10889394156E+04  0.25500000920E-02 0. -1.
        2   -1    0    0  501    0  0.00000000000E+00  0.00000000000E+00 -0.11243950932E+04  0.11243950932E+04  0.25500000920E-02 0.  1.
    10030    2    1    2    0    0  0.00000000000E+00  0.00000000000E+00 -0.35455677639E+02  0.22133345088E+04  0.22130505061E+04 0.  0.
        2    1    3    3  502    0 -0.91702832686E+03 -0.13953806832E+03 -0.62111804278E+03  0.11163330363E+04  0.25500000920E-02 0.  1.
       -2    1    3    3    0  502  0.91702832686E+03  0.13953806832E+03  0.58566236514E+03  0.10970014725E+04  0.25500000920E-02 0. -1.
</event>
<event>
 5   0  0.4027923E-05  0.2220470E+04  0.7818609E-02  0.8509956E-01
        2   -1    0    0  501    0  0.00000000000E+00  0.00000000000E+00  0.21140713613E+04  0.21140713613E+04  0.25500000920E-02 0. -1.
       -2   -1    0    0    0  501  0.00000000000E+00  0.00000000000E+00 -0.58305587774E+03  0.58305587775E+03  0.25500000920E-02 0.  1.
    10030    2    1    2    0    0  0.00000000000E+00  0.00000000000E+00  0.15310154836E+04  0.26971272391E+04  0.22204699802E+04 0.  0.
        5    1    3    3  502    0 -0.42109493988E+03  0.31081340202E+03  0.19548091718E+04  0.20236666987E+04  0.46999998093E+01 0. -1.
       -5    1    3    3    0  502  0.42109493988E+03 -0.31081340202E+03 -0.42379368822E+03  0.67346054038E+03  0.46999998093E+01 0.  1.
</event>
<event>
 5   0  0.1786228E-05  0.2198550E+04  0.7818609E-02  0.8519032E-01
       -1   -1    0    0    0  501  0.00000000000E+00  0.00000000000E+00  0.63003750069E+03  0.63003750071E+03  0.50400001928E-02 0.  1.
        1   -1    0    0  501    0  0.00000000000E+00  0.00000000000E+00 -0.19179907100E+04  0.19179907100E+04  0.50400001928E-02 0. -1.
    10030    2    1    2    0    0  0.00000000000E+00  0.00000000000E+00 -0.12879532093E+04  0.25480282107E+04  0.21985504982E+04 0.  0.
        5    1    3    3  502    0 -0.26867427786E+03  0.98385895029E+03 -0.16863460363E+03  0.10337427249E+04  0.46999998093E+01 0.  1.
       -5    1    3    3    0  502  0.26867427786E+03 -0.98385895029E+03 -0.11193186056E+04  0.15142854858E+04  0.46999998093E+01 0. -1.
</event>
<event>
 5   0  0.1866935E-05  0.2205139E+04  0.7818609E-02  0.8516292E-01
       -1   -1    0    0    0  501  0.00000000000E+00  0.00000000000E+00  0.11520761012E+04  0.11520761012E+04  0.50400001928E-02 0.  1.
        1   -1    0    0  501    0  0.00000000000E+00  0.00000000000E+00 -0.10551899652E+04  0.10551899652E+04  0.50400001928E-02 0. -1.
    10030    2    1    2    0    0  0.00000000000E+00  0.00000000000E+00  0.96886136005E+02  0.22072660664E+04  0.22051386724E+04 0.  0.
        4    1    3    3  502    0 -0.85529653296E+03 -0.11369754733E+03 -0.63865797728E+03  0.10734732956E+04  0.12699999809E+01 0. -1.
       -4    1    3    3    0  502  0.85529653296E+03  0.11369754733E+03  0.73554411329E+03  0.11337927708E+04  0.12699999809E+01 0.  1.
</event>
<event>
 5   0  0.4029532E-05  0.2179223E+04  0.7818609E-02  0.8527126E-01
       -2   -1    0    0    0  501  0.00000000000E+00  0.00000000000E+00  0.56076108848E+03  0.56076108849E+03  0.25500000920E-02 0. -1.
        2   -1    0    0  501    0  0.00000000000E+00  0.00000000000E+00 -0.21172174117E+04  0.21172174117E+04  0.25500000920E-02 0.  1.
    10030    2    1    2    0    0  0.00000000000E+00  0.00000000000E+00 -0.15564563233E+04  0.26779785002E+04  0.21792229261E+04 0.  0.
        3    1    3    3  502    0 -0.30824048504E+03 -0.82328691172E+03  0.12880331367E+02  0.87919249812E+03  0.10100000352E+00 0. -1.
       -3    1    3    3    0  502  0.30824048504E+03  0.82328691172E+03 -0.15693366546E+04  0.17987860021E+04  0.10100000352E+00 0.  1.
</event>
<event>
 5   0  0.1815681E-05  0.2198773E+04  0.7818609E-02  0.8518939E-01
       -1   -1    0    0    0  501  0.00000000000E+00  0.00000000000E+00  0.77334511107E+03  0.77334511109E+03  0.50400001928E-02 0.  1.
        1   -1    0    0  501    0  0.00000000000E+00  0.00000000000E+00 -0.15628869835E+04  0.15628869835E+04  0.50400001928E-02 0. -1.
    10030    2    1    2    0    0  0.00000000000E+00  0.00000000000E+00 -0.78954187246E+03  0.23362320946E+04  0.21987733015E+04 0.  0.
        2    1    3    3  502    0  0.41514009395E+03 -0.14047698044E+03 -0.14660569668E+04  0.15301627722E+04  0.25500000920E-02 0. -1.
       -2    1    3    3    0  502 -0.41514009395E+03  0.14047698044E+03  0.67651509433E+03  0.80606932240E+03  0.25500000920E-02 0.  1.
</event>
<event>
 5   0  0.4132460E-05  0.2194634E+04  0.7818609E-02  0.8520665E-01
        2   -1    0    0  501    0  0.00000000000E+00  0.00000000000E+00  0.64050813982E+03  0.64050813983E+03  0.25500000920E-02 0.  1.
       -2   -1    0    0    0  501  0.00000000000E+00  0.00000000000E+00 -0.18799202529E+04  0.18799202529E+04  0.25500000920E-02 0. -1.
    10030    2    1    2    0    0  0.00000000000E+00  0.00000000000E+00 -0.12394121131E+04  0.25204283928E+04  0.21946336589E+04 0.  0.
        4    1    3    3  502    0 -0.24435629222E+03 -0.10214584616E+04 -0.98471688246E+03  0.14397070319E+04  0.12699999809E+01 0. -1.
       -4    1    3    3    0  502  0.24435629222E+03  0.10214584616E+04 -0.25469523066E+03  0.10807213608E+04  0.12699999809E+01 0.  1.
</event>
<event>
 5   0  0.1866935E-05  0.2186843E+04  0.7818609E-02  0.8523925E-01
       -1   -1    0    0    0  501  0.00000000000E+00  0.00000000000E+00  0.14311812861E+04  0.14311812861E+04  0.50400001928E-02 0.  1.
        1   -1    0    0  501    0  0.00000000000E+00  0.00000000000E+00 -0.83537289297E+03  0.83537289298E+03  0.50400001928E-02 0. -1.
    10030    2    1    2    0    0  0.00000000000E+00  0.00000000000E+00  0.59580839315E+03  0.22665541791E+04  0.21868425196E+04 0.  0.
        4    1    3    3  502    0  0.83941622812E+03  0.22534027413E+03  0.98554099377E+03  0.13140359609E+04  0.12699999809E+01 0. -1.
       -4    1    3    3    0  502 -0.83941622812E+03 -0.22534027413E+03 -0.38973260062E+03  0.95251821823E+03  0.12699999809E+01 0.  1.
</event>
<event>
 5   0  0.1788413E-05  0.2203418E+04  0.7818609E-02  0.8517007E-01
       -1   -1    0    0    0  501  0.00000000000E+00  0.00000000000E+00  0.63363235203E+03  0.63363235205E+03  0.50400001928E-02 0.  1.
        1   -1    0    0  501    0  0.00000000000E+00  0.00000000000E+00 -0.19155636360E+04  0.19155636360E+04  0.50400001928E-02 0. -1.
    10030    2    1    2    0    0  0.00000000000E+00  0.00000000000E+00 -0.12819312839E+04  0.25491959880E+04  0.22034183372E+04 0.  0.
        1    1    3    3  502    0  0.21892813606E+03 -0.15212380644E+02  0.60808899580E+03  0.64647751091E+03  0.50400001928E-02 0.  1.
       -1    1    3    3    0  502 -0.21892813606E+03  0.15212380644E+02 -0.18900202797E+04  0.19027184771E+04  0.50400001928E-02 0. -1.
</event>
<event>
 5   0  0.1786228E-05  0.2192217E+04  0.7818609E-02  0.8521674E-01
       -1   -1    0    0    0  501  0.00000000000E+00  0.00000000000E+00  0.14207709222E+04  0.14207709222E+04  0.50400001928E-02 0. -1.
        1   -1    0    0  501    0  0.00000000000E+00  0.00000000000E+00 -0.84563530150E+03  0.84563530151E+03  0.50400001928E-02 0.  1.
    10030    2    1    2    0    0  0.00000000000E+00  0.00000000000E+00  0.57513562071E+03  0.22664062237E+04  0.21922171856E+04 0.  0.
        5    1    3    3  502    0  0.97633239357E+03 -0.49655357008E+03  0.24568040907E+03  0.11225735362E+04  0.46999998093E+01 0.  1.
       -5    1    3    3    0  502 -0.97633239357E+03  0.49655357008E+03  0.32945521163E+03  0.11438326876E+04  0.46999998093E+01 0. -1.
</event>
<event>
 5   0  0.1884407E-05  0.2196024E+04  0.7818609E-02  0.8520085E-01
        1   -1    0    0  501    0  0.00000000000E+00  0.00000000000E+00  0.20347230382E+04  0.20347230382E+04  0.50400001928E-02 0.  1.
       -1   -1    0    0    0  501  0.00000000000E+00  0.00000000000E+00 -0.59252825877E+03  0.59252825879E+03  0.50400001928E-02 0. -1.
    10030    2    1    2    0    0  0.00000000000E+00  0.00000000000E+00  0.14421947794E+04  0.26272512970E+04  0.21960244980E+04 0.  0.
        3    1    3    3  502    0 -0.84087386844E+03  0.28344916995E+02 -0.12296357719E+03  0.85028956742E+03  0.10100000352E+00 0. -1.
       -3    1    3    3    0  502  0.84087386844E+03 -0.28344916995E+02  0.15651583566E+04  0.17769617296E+04  0.10100000352E+00 0.  1.
</event>
<event>
 5   0  0.4143281E-05  0.2183142E+04  0.7818609E-02  0.8525478E-01
        2   -1    0    0  501    0  0.00000000000E+00  0.00000000000E+00  0.15111752588E+04  0.15111752588E+04  0.25500000920E-02 0. -1.
       -2   -1    0    0    0  501  0.00000000000E+00  0.00000000000E+00 -0.78847693215E+03  0.78847693216E+03  0.25500000920E-02 0.  1.
    10030    2    1    2    0    0  0.00000000000E+00  0.00000000000E+00  0.72269832665E+03  0.22996521910E+04  0.21831416189E+04 0.  0.
        2    1    3    3  502    0 -0.59479820544E+03 -0.92733507122E+02 -0.59781913367E+03  0.84839385023E+03  0.25500000920E-02 0.  1.
       -2    1    3    3    0  502  0.59479820544E+03  0.92733507122E+02  0.13205174603E+04  0.14512583407E+04  0.25500000920E-02 0. -1.
</event>
<event>
 5   0  0.1866935E-05  0.2209648E+04  0.7818609E-02  0.8514423E-01
       -1   -1    0    0    0  501  0.00000000000E+00  0.00000000000E+00  0.12553732280E+04  0.12553732280E+04  0.50400001928E-02 0. -1.
        1   -1    0    0  501    0  0.00000000000E+00  0.00000000000E+00 -0.97232943886E+03  0.97232943887E+03  0.50400001928E-02 0.  1.
    10030    2    1    2    0    0  0.00000000000E+00  0.00000000000E+00  0.28304378915E+03  0.22277026669E+04  0.22096482493E+04 0.  0.
        4    1    3    3  502    0 -0.26317229571E+03  0.95902411616E+03 -0.34370871544E+03  0.10521996990E+04  0.12699999809E+01 0.  1.
       -4    1    3    3    0  502  0.26317229571E+03 -0.95902411616E+03  0.62675250459E+03  0.11755029679E+04  0.12699999809E+01 0. -1.
</event>
<event>
 5   0  0.4029532E-05  0.2126178E+04  0.7818609E-02  0.8549799E-01
        2   -1    0    0  501    0  0.00000000000E+00  0.00000000000E+00  0.14386269387E+04  0.14386269387E+04  0.25500000920E-02 0.  1.
       -2   -1    0    0    0  501  0.00000000000E+00  0.00000000000E+00 -0.78558119844E+03  0.78558119844E+03  0.25500000920E-02 0. -1.
    10030    2    1    2    0    0  0.00000000000E+00  0.00000000000E+00  0.65304574028E+03  0.22242081372E+04  0.21261780496E+04 0.  0.
        3    1    3    3  502    0  0.87684496111E+03 -0.24483826430E+03 -0.24774601507E+03  0.94349401676E+03  0.10100000352E+00 0. -1.
       -3    1    3    3    0  502 -0.87684496111E+03  0.24483826430E+03  0.90079175534E+03  0.12807141204E+04  0.10100000352E+00 0.  1.
</event>
<event>
 5   0  0.4132460E-05  0.2228220E+04  0.7818609E-02  0.8506773E-01
       -2   -1    0    0    0  501  0.00000000000E+00  0.00000000000E+00  0.59628447525E+03  0.59628447526E+03  0.25500000920E-02 0. -1.
        2   -1    0    0  501    0  0.00000000000E+00  0.00000000000E+00 -0.20816252925E+04  0.20816252925E+04  0.25500000920E-02 0.  1.
    10030    2    1    2    0    0  0.00000000000E+00  0.00000000000E+00 -0.14853408173E+04  0.26779097678E+04  0.22282197784E+04 0.  0.
        4    1    3    3  502    0  0.96534625173E+03  0.50003801588E+03 -0.44998981388E+03  0.11766154208E+04  0.12699999809E+01 0. -1.
       -4    1    3    3    0  502 -0.96534625173E+03 -0.50003801588E+03 -0.10353510034E+04  0.15012943469E+04  0.12699999809E+01 0.  1.
</event>
<event>
 5   0  0.1788413E-05  0.2202665E+04  0.7818609E-02  0.8517320E-01
       -1   -1    0    0    0  501  0.00000000000E+00  0.00000000000E+00  0.79740218497E+03  0.79740218498E+03  0.50400001928E-02 0. -1.
        1   -1    0    0  501    0  0.00000000000E+00  0.00000000000E+00 -0.15211057834E+04  0.15211057834E+04  0.50400001928E-02 0.  1.
    10030    2    1    2    0    0  0.00000000000E+00  0.00000000000E+00 -0.72370359846E+03  0.23185079684E+04  0.22026648182E+04 0.  0.
        1    1    3    3  502    0 -0.81234924397E+01 -0.70629269933E+03  0.52758412943E+03  0.88162371900E+03  0.50400001928E-02 0. -1.
       -1    1    3    3    0  502  0.81234924397E+01  0.70629269933E+03 -0.12512877279E+04  0.14368842494E+04  0.50400001928E-02 0.  1.
</event>
<event>
 5   0  0.4027923E-05  0.2178685E+04  0.7818609E-02  0.8527353E-01
        2   -1    0    0  501    0  0.00000000000E+00  0.00000000000E+00  0.88384208419E+03  0.88384208420E+03  0.25500000920E-02 0.  1.
       -2   -1    0    0    0  501  0.00000000000E+00  0.00000000000E+00 -0.13426231526E+04  0.13426231526E+04  0.25500000920E-02 0. -1.
    10030    2    1    2    0    0  0.00000000000E+00  0.00000000000E+00 -0.45878106840E+03  0.22264652368E+04  0.21786847826E+04 0.  0.
        5    1    3    3  502    0 -0.92727799153E+03 -0.11335147264E+03  0.34321159130E+03  0.99524334528E+03  0.46999998093E+01 0.  1.
       -5    1    3    3    0  502  0.92727799153E+03  0.11335147264E+03 -0.80199265970E+03  0.12312218915E+04  0.46999998093E+01 0. -1.
</event>
<event>
 5   0  0.1433375E-05  0.2197792E+04  0.7818609E-02  0.8519348E-01
       -3   -1    0    0    0  501  0.00000000000E+00  0.00000000000E+00  0.58891406625E+03  0.58891407491E+03  0.10100000352E+00 0. -1.
        3   -1    0    0  501    0  0.00000000000E+00  0.00000000000E+00 -0.20505068524E+04  0.20505068548E+04  0.10100000352E+00 0.  1.
    10030    2    1    2    0    0  0.00000000000E+00  0.00000000000E+00 -0.14615927861E+04  0.26394209298E+04  0.21977919310E+04 0.  0.
        5    1    3    3  502    0 -0.26370229578E+03  0.95416857263E+03 -0.13037020422E+04  0.16369598867E+04  0.46999998093E+01 0.  1.
       -5    1    3    3    0  502  0.26370229578E+03 -0.95416857263E+03 -0.15789074388E+03  0.10024610430E+04  0.46999998093E+01 0. -1.
</event>
<event>
 5   0  0.3963414E-05  0.2193925E+04  0.7818609E-02  0.8520961E-01
        2   -1    0    0  501    0  0.00000000000E+00  0.00000000000E+00  0.15818317549E+04  0.15818317549E+04  0.25500000920E-02 0. -1.
       -2   -1    0    0    0  501  0.00000000000E+00  0.00000000000E+00 -0.76071746265E+03  0.76071746266E+03  0.25500000920E-02 0.  1.
    10030    2    1    2    0    0  0.00000000000E+00  0.00000000000E+00  0.82111429229E+03  0.23425492176E+04  0.21939252849E+04 0.  0.
        1    1    3    3  502    0  0.10204813458E+04 -0.20445600847E+01  0.84023688203E+03  0.13218866726E+04  0.50400001928E-02 0. -1.
       -1    1    3    3    0  502 -0.10204813458E+04  0.20445600847E+01 -0.19122589737E+02  0.10206625450E+04  0.50400001928E-02 0.  1.
</event>
<event>
 5   0  0.4029532E-05  0.2204525E+04  0.7818609E-02  0.8516547E-01
        2   -1    0    0  501    0  0.00000000000E+00  0.00000000000E+00  0.21415541560E+04  0.21415541560E+04  0.25500000920E-02 0. -1.
       -2   -1    0    0    0  501  0.00000000000E+00  0.00000000000E+00 -0.56733675356E+03  0.56733675357E+03  0.25500000920E-02 0.  1.
    10030    2    1    2    0    0  0.00000000000E+00  0.00000000000E+00  0.15742174024E+04  0.27088909095E+04  0.22045247855E+04 0.  0.
        3    1    3    3  502    0 -0.10485926014E+04 -0.20141817510E+03  0.45089088562E+03  0.11590592418E+04  0.10100000352E+00 0.  1.
       -3    1    3    3    0  502  0.10485926014E+04  0.20141817510E+03  0.11233265168E+04  0.15498316678E+04  0.10100000352E+00 0. -1.
</event>
<event>
 5   0  0.1788413E-05  0.2017566E+04  0.7818609E-02  0.8598452E-01
       -1   -1    0    0    0  501  0.00000000000E+00  0.00000000000E+00  0.92162253018E+03  0.92162253020E+03  0.50400001928E-02 0.  1.
        1   -1    0    0  501    0  0.00000000000E+00  0.00000000000E+00 -0.11041860198E+04  0.11041860198E+04  0.50400001928E-02 0. -1.
    10030    2    1    2    0    0  0.00000000000E+00  0.00000000000E+00 -0.18256348963E+03  0.20258085500E+04  0.20175655760E+04 0.  0.
        1    1    3    3  502    0 -0.83365065979E+03  0.56758412738E+03 -0.11412439759E+03  0.10149628281E+04  0.50400001928E-02 0. -1.
       -1    1    3    3    0  502  0.83365065979E+03 -0.56758412738E+03 -0.68439092043E+02  0.10108457219E+04  0.50400001928E-02 0.  1.
</event>
<event>
 5   0  0.1815681E-05  0.2141429E+04  0.7818609E-02  0.8543210E-01
       -1   -1    0    0    0  501  0.00000000000E+00  0.00000000000E+00  0.63709789475E+03  0.63709789477E+03  0.50400001928E-02 0. -1.
        1   -1    0    0  501    0  0.00000000000E+00  0.00000000000E+00 -0.17994560411E+04  0.17994560411E+04  0.50400001928E-02 0.  1.
    10030    2    1    2    0    0  0.00000000000E+00  0.00000000000E+00 -0.11623581464E+04  0.24365539359E+04  0.21414291074E+04 0.  0.
        2    1    3    3  502    0 -0.56870805256E+03 -0.82028093303E+03 -0.14029893932E+03  0.10079550836E+04  0.25500000920E-02 0. -1.
       -2    1    3    3    0  502  0.56870805256E+03  0.82028093303E+03 -0.10220592071E+04  0.14285988523E+04  0.25500000920E-02 0.  1.
</event>
<event>
 5   0  0.3963414E-05  0.2254776E+04  0.7818609E-02  0.8495969E-01
        2   -1    0    0  501    0  0.00000000000E+00  0.00000000000E+00  0.20573162602E+04  0.20573162602E+04  0.25500000920E-02 0.  1.
       -2   -1    0    0    0  501  0.00000000000E+00  0.00000000000E+00 -0.61779698824E+03  0.61779698825E+03  0.25500000920E-02 0. -1.
    10030    2    1    2    0    0  0.00000000000E+00  0.00000000000E+00  0.14395192720E+04  0.26751132485E+04  0.22547760771E+04 0.  0.
        1    1    3    3  502    0 -0.76162708650E+03 -0.83122054470E+03  0.71903155433E+03  0.13371648324E+04  0.50400001928E-02 0. -1.
       -1    1    3    3    0  502  0.76162708650E+03  0.83122054470E+03  0.72048771766E+03  0.13379484161E+04  0.50400001928E-02 0.  1.
</event>
<event>
 5   0  0.4029532E-05  0.2194463E+04  0.7818609E-02  0.8520736E-01
        2   -1    0    0  501    0  0.00000000000E+00  0.00000000000E+00  0.33310277730E+04  0.33310277730E+04  0.25500000920E-02 0.  1.
       -2   -1    0    0    0  501  0.00000000000E+00  0.00000000000E+00 -0.36142501235E+03  0.36142501235E+03  0.25500000920E-02 0. -1.
    10030    2    1    2    0    0  0.00000000000E+00  0.00000000000E+00  0.29696027606E+04  0.36924527853E+04  0.21944628081E+04 0.  0.
        3    1    3    3  502    0  0.12680712333E+03  0.90093030961E+03  0.25167872899E+04  0.26761864177E+04  0.10100000352E+00 0.  1.
       -3    1    3    3    0  502 -0.12680712333E+03 -0.90093030961E+03  0.45281547073E+03  0.10162663677E+04  0.10100000352E+00 0. -1.
</event>
<event>
 5   0  0.1786228E-05  0.2171265E+04  0.7818609E-02  0.8530484E-01
       -1   -1    0    0    0  501  0.00000000000E+00  0.00000000000E+00  0.15742764563E+04  0.15742764563E+04  0.50400001928E-02 0. -1.
        1   -1    0    0  501    0  0.00000000000E+00  0.00000000000E+00 -0.74865981354E+03  0.74865981356E+03  0.50400001928E-02 0.  1.
    10030    2    1    2    0    0  0.00000000000E+00  0.00000000000E+00  0.82561664274E+03  0.23229362698E+04  0.21712646253E+04 0.  0.
        5    1    3    3  502    0  0.93665308737E+03 -0.16301790938E+03 -0.14790297968E+03  0.96218045410E+03  0.46999998093E+01 0.  1.
       -5    1    3    3    0  502 -0.93665308737E+03  0.16301790938E+03  0.97351962242E+03  0.13607558157E+04  0.46999998093E+01 0. -1.
</event>
<event>
 5   0  0.4029532E-05  0.2179141E+04  0.7818609E-02  0.8527161E-01
        2   -1    0    0  501    0  0.00000000000E+00  0.00000000000E+00  0.41501560068E+03  0.41501560069E+03  0.25500000920E-02 0. -1.
       -2   -1    0    0    0  501  0.00000000000E+00  0.00000000000E+00 -0.28605284879E+04  0.28605284879E+04  0.25500000920E-02 0.  1.
    10030    2    1    2    0    0  0.00000000000E+00  0.00000000000E+00 -0.24455128872E+04  0.32755440886E+04  0.21791410681E+04 0.  0.
        3    1    3    3  502    0 -0.96381658853E+02  0.84791400003E+03 -0.22410309605E+04  0.23980132093E+04  0.10100000352E+00 0.  1.
       -3    1    3    3    0  502  0.96381658853E+02 -0.84791400003E+03 -0.20448192670E+03  0.87753087932E+03  0.10100000352E+00 0. -1.
</event>
<event>
 5   0  0.1866935E-05  0.2186784E+04  0.7818609E-02  0.8523949E-01
        1   -1    0    0  501    0  0.00000000000E+00  0.00000000000E+00  0.73199144044E+03  0.73199144046E+03  0.50400001928E-02 0. -1.
       -1   -1    0    0    0  501  0.00000000000E+00  0.00000000000E+00 -0.16332238524E+04  0.16332238524E+04  0.50400001928E-02 0.  1.
    10030    2    1    2    0    0  0.00000000000E+00  0.00000000000E+00 -0.90123241199E+03  0.23652152929E+04  0.21867838305E+04 0.  0.
        4    1    3    3  502    0  0.14043683441E+03 -0.54884102535E+03  0.56086649689E+03  0.79719622164E+03  0.12699999809E+01 0. -1.
       -4    1    3    3    0  502 -0.14043683441E+03  0.54884102535E+03 -0.14620989089E+04  0.15680190713E+04  0.12699999809E+01 0.  1.
</event>
<event>
 5   0  0.1866935E-05  0.2186121E+04  0.7818609E-02  0.8524227E-01
       -1   -1    0    0    0  501  0.00000000000E+00  0.00000000000E+00  0.72449030085E+03  0.72449030087E+03  0.50400001928E-02 0.  1.
        1   -1    0    0  501    0  0.00000000000E+00  0.00000000000E+00 -0.16491331600E+04  0.16491331600E+04  0.50400001928E-02 0. -1.
    10030    2    1    2    0    0  0.00000000000E+00  0.00000000000E+00 -0.92464285910E+03  0.23736234608E+04  0.21861207462E+04 0.  0.
        4    1    3    3  502    0  0.60373445717E+03 -0.21187721034E+03 -0.14245559866E+04  0.15616493264E+04  0.12699999809E+01 0. -1.
       -4    1    3    3    0  502 -0.60373445717E+03  0.21187721034E+03  0.49991312745E+03  0.81197413440E+03  0.12699999809E+01 0.  1.
</event>
<event>
 5   0  0.4029532E-05  0.2202139E+04  0.7818609E-02  0.8517538E-01
        2   -1    0    0  501    0  0.00000000000E+00  0.00000000000E+00  0.24833839015E+04  0.24833839015E+04  0.25500000920E-02 0. -1.
       -2   -1    0    0    0  501  0.00000000000E+00  0.00000000000E+00 -0.48818625040E+03  0.48818625040E+03  0.25500000920E-02 0.  1.
    10030    2    1    2    0    0  0.00000000000E+00  0.00000000000E+00  0.19951976511E+04  0.29715701519E+04  0.22021388468E+04 0.  0.
        3    1    3    3  502    0 -0.58094458854E+03 -0.79080599760E+03  0.32359575320E+03  0.10332400314E+04  0.10100000352E+00 0.  1.
       -3    1    3    3    0  502  0.58094458854E+03  0.79080599760E+03  0.16716018979E+04  0.19383301205E+04  0.10100000352E+00 0. -1.
</event>
<event>
 5   0  0.1884407E-05  0.2200176E+04  0.7818609E-02  0.8518355E-01
       -1   -1    0    0    0  501  0.00000000000E+00  0.00000000000E+00  0.12927618500E+04  0.12927618500E+04  0.50400001928E-02 0. -1.
        1   -1    0    0  501    0  0.00000000000E+00  0.00000000000E+00 -0.93613017090E+03  0.93613017091E+03  0.50400001928E-02 0.  1.
    10030    2    1    2    0    0  0.00000000000E+00  0.00000000000E+00  0.35663167906E+03  0.22288920209E+04  0.22001757853E+04 0.  0.
        3    1    3    3  502    0 -0.56631564476E+02  0.87776727307E+03  0.84762869451E+03  0.12215387565E+04  0.10100000352E+00 0. -1.
       -3    1    3    3    0  502  0.56631564476E+02 -0.87776727307E+03 -0.49099701546E+03  0.10073532643E+04  0.10100000352E+00 0.  1.
</event>
<event>
 5   0  0.1788413E-05  0.2214610E+04  0.7818609E-02  0.8512371E-01
       -1   -1    0    0    0  501  0.00000000000E+00  0.00000000000E+00  0.85947167817E+03  0.85947167819E+03  0.50400001928E-02 0.  1.
        1   -1    0    0  501    0  0.00000000000E+00  0.00000000000E+00 -0.14266029240E+04  0.14266029240E+04  0.50400001928E-02 0. -1.
    10030    2    1    2    0    0  0.00000000000E+00  0.00000000000E+00 -0.56713124578E+03  0.22860746022E+04  0.22146104029E+04 0.  0.
        1    1    3    3  502    0  0.80595570008E+03 -0.49751816949E+02 -0.10656996015E+04  0.13370697343E+04  0.50400001928E-02 0. -1.
       -1    1    3    3    0  502 -0.80595570008E+03  0.49751816949E+02  0.49856835573E+03  0.94900486782E+03  0.50400001928E-02 0.  1.
</event>
<event>
 5   0  0.1866935E-05  0.2182012E+04  0.7818609E-02  0.8525953E-01
       -1   -1    0    0    0  501  0.00000000000E+00  0.00000000000E+00  0.14130636950E+04  0.14130636950E+04  0.50400001928E-02 0. -1.
        1   -1    0    0  501    0  0.00000000000E+00  0.00000000000E+00 -0.84234996738E+03  0.84234996740E+03  0.50400001928E-02 0.  1.
    10030    2    1    2    0    0  0.00000000000E+00  0.00000000000E+00  0.57071372760E+03  0.22554136624E+04  0.21820120599E+04 0.  0.
        4    1    3    3  502    0 -0.89494058845E+02 -0.10865977858E+04  0.24415871602E+03  0.11172819815E+04  0.12699999809E+01 0.  1.
       -4    1    3    3    0  502  0.89494058845E+02  0.10865977858E+04  0.32655501158E+03  0.11381316809E+04  0.12699999809E+01 0. -1.
</event>
<event>
 5   0  0.4143281E-05  0.2198490E+04  0.7818609E-02  0.8519057E-01
        2   -1    0    0  501    0  0.00000000000E+00  0.00000000000E+00  0.19461315715E+04  0.19461315715E+04  0.25500000920E-02 0. -1.
       -2   -1    0    0    0  501  0.00000000000E+00  0.00000000000E+00 -0.62089301229E+03  0.62089301230E+03  0.25500000920E-02 0.  1.
    10030    2    1    2    0    0  0.00000000000E+00  0.00000000000E+00  0.13252385592E+04  0.25670245838E+04  0.21984899306E+04 0.  0.
        2    1    3    3  502    0  0.16480144094E+03  0.51560126268E+03 -0.45448999277E+03  0.70679935665E+03  0.25500000920E-02 0.  1.
       -2    1    3    3    0  502 -0.16480144094E+03 -0.51560126268E+03  0.17797285520E+04  0.18602252272E+04  0.25500000920E-02 0. -1.
</event>
<event>
 5   0  0.4143281E-05  0.2193213E+04  0.7818609E-02  0.8521258E-01
        2   -1    0    0  501    0  0.00000000000E+00  0.00000000000E+00  0.88084606551E+03  0.88084606551E+03  0.25500000920E-02 0.  1.
       -2   -1    0    0    0  501  0.00000000000E+00  0.00000000000E+00 -0.13652166707E+04  0.13652166707E+04  0.25500000920E-02 0. -1.
    10030    2    1    2    0    0  0.00000000000E+00  0.00000000000E+00 -0.48437060521E+03  0.22460627362E+04  0.21932129244E+04 0.  0.
        2    1    3    3  502    0  0.76764003529E+03  0.71488326235E+03 -0.56960246583E+03  0.11936399255E+04  0.25500000920E-02 0. -1.
       -2    1    3    3    0  502 -0.76764003529E+03 -0.71488326235E+03  0.85231860617E+02  0.10524228108E+04  0.25500000920E-02 0.  1.
</event>
<event>
 5   0  0.4143281E-05  0.2190799E+04  0.7818609E-02  0.8522267E-01
        2   -1    0    0  501    0  0.00000000000E+00  0.00000000000E+00  0.22022444520E+04  0.22022444520E+04  0.25500000920E-02 0.  1.
       -2   -1    0    0    0  501  0.00000000000E+00  0.00000000000E+00 -0.54485336056E+03  0.54485336057E+03  0.25500000920E-02 0. -1.
    10030    2    1    2    0    0  0.00000000000E+00  0.00000000000E+00  0.16573910915E+04  0.27470978126E+04  0.21907992062E+04 0.  0.
        2    1    3    3  502    0 -0.10618279478E+04 -0.10685583007E+03  0.11384011300E+04  0.15604018367E+04  0.25500000920E-02 0.  1.
       -2    1    3    3    0  502  0.10618279478E+04  0.10685583007E+03  0.51898996148E+03  0.11866959759E+04  0.25500000920E-02 0. -1.
</event>
<event>
 5   0  0.1815681E-05  0.2206030E+04  0.7818609E-02  0.8515923E-01
        1   -1    0    0  501    0  0.00000000000E+00  0.00000000000E+00  0.90005351522E+03  0.90005351523E+03  0.50400001928E-02 0. -1.
       -1   -1    0    0    0  501  0.00000000000E+00  0.00000000000E+00 -0.13517439738E+04  0.13517439739E+04  0.50400001928E-02 0.  1.
    10030    2    1    2    0    0  0.00000000000E+00  0.00000000000E+00 -0.45169045863E+03  0.22517974891E+04  0.22060298415E+04 0.  0.
        2    1    3    3  502    0 -0.23072259467E+03 -0.86454959400E+03 -0.88417773314E+03  0.12579543632E+04  0.25500000920E-02 0.  1.
       -2    1    3    3    0  502  0.23072259467E+03  0.86454959400E+03  0.43248727452E+03  0.99384312586E+03  0.25500000920E-02 0. -1.
</event>
<event>
 5   0  0.1866935E-05  0.2216017E+04  0.7818609E-02  0.8511791E-01
       -1   -1    0    0    0  501  0.00000000000E+00  0.00000000000E+00  0.72370535992E+03  0.72370535994E+03  0.50400001928E-02 0.  1.
        1   -1    0    0  501    0  0.00000000000E+00  0.00000000000E+00 -0.16963854581E+04  0.16963854581E+04  0.50400001928E-02 0. -1.
    10030    2    1    2    0    0  0.00000000000E+00  0.00000000000E+00 -0.97268009821E+03  0.24200908181E+04  0.22160173723E+04 0.  0.
        4    1    3    3  502    0  0.95777965261E+03 -0.33960571203E+03 -0.96860357846E+03  0.14038762081E+04  0.12699999809E+01 0. -1.
       -4    1    3    3    0  502 -0.95777965261E+03  0.33960571203E+03 -0.40765197505E+01  0.10162146100E+04  0.12699999809E+01 0.  1.
</event>
<event>
 5   0  0.1884407E-05  0.2184463E+04  0.7818609E-02  0.8524923E-01
       -1   -1    0    0    0  501  0.00000000000E+00  0.00000000000E+00  0.10170041335E+04  0.10170041335E+04  0.50400001928E-02 0.  1.
        1   -1    0    0  501    0  0.00000000000E+00  0.00000000000E+00 -0.11730233169E+04  0.11730233169E+04  0.50400001928E-02 0. -1.
    10030    2    1    2    0    0  0.00000000000E+00  0.00000000000E+00 -0.15601918341E+03  0.21900274505E+04  0.21844629199E+04 0.  0.
        3    1    3    3  502    0 -0.89573344131E+00  0.20311917782E+03 -0.11539214756E+04  0.11716624876E+04  0.10100000352E+00 0. -1.
       -3    1    3    3    0  502  0.89573344131E+00 -0.20311917782E+03  0.99790229219E+03  0.10183649629E+04  0.10100000352E+00 0.  1.
</event>
<event>
 5   0  0.4027923E-05  0.2210097E+04  0.7818609E-02  0.8514237E-01
        2   -1    0    0  501    0  0.00000000000E+00  0.00000000000E+00  0.22979398051E+04  0.22979398051E+04  0.25500000920E-02 0. -1.
       -2   -1    0    0    0  501  0.00000000000E+00  0.00000000000E+00 -0.53140316303E+03  0.53140316304E+03  0.25500000920E-02 0.  1.
    10030    2    1    2    0    0  0.00000000000E+00  0.00000000000E+00  0.17665366421E+04  0.28293429681E+04  0.22100972656E+04 0.  0.
        5    1    3    3  502    0 -0.46406272964E+03 -0.35760532532E+03 -0.31620460820E+03  0.66576514627E+03  0.46999998093E+01 0.  1.
       -5    1    3    3    0  502  0.46406272964E+03  0.35760532532E+03  0.20827412503E+04  0.21635778219E+04  0.46999998093E+01 0. -1.
</event>
<event>
 5   0  0.1866935E-05  0.2196713E+04  0.7818609E-02  0.8519797E-01
       -1   -1    0    0    0  501  0.00000000000E+00  0.00000000000E+00  0.66092549009E+03  0.66092549011E+03  0.50400001928E-02 0.  1.
        1   -1    0    0  501    0  0.00000000000E+00  0.00000000000E+00 -0.18252996006E+04  0.18252996006E+04  0.50400001928E-02 0. -1.
    10030    2    1    2    0    0  0.00000000000E+00  0.00000000000E+00 -0.11643741105E+04  0.24862250907E+04  0.21967130291E+04 0.  0.
        4    1    3    3  502    0  0.73599644720E+03 -0.58858034053E+03 -0.12206908642E+04  0.15421431148E+04  0.12699999809E+01 0. -1.
       -4    1    3    3    0  502 -0.73599644720E+03  0.58858034053E+03  0.56316753760E+02  0.94408197590E+03  0.12699999809E+01 0.  1.
</event>
<event>
 5   0  0.4027923E-05  0.2172950E+04  0.7818609E-02  0.8529772E-01
       -2   -1    0    0    0  501  0.00000000000E+00  0.00000000000E+00  0.57235113555E+03  0.57235113556E+03  0.25500000920E-02 0.  1.
        2   -1    0    0  501    0  0.00000000000E+00  0.00000000000E+00 -0.20624190901E+04  0.20624190901E+04  0.25500000920E-02 0. -1.
    10030    2    1    2    0    0  0.00000000000E+00  0.00000000000E+00 -0.14900679546E+04  0.26347702257E+04  0.21729499840E+04 0.  0.
        5    1    3    3  502    0  0.43713097865E+03  0.84170338982E+03 -0.13876272981E+04  0.16807973398E+04  0.46999998093E+01 0. -1.
       -5    1    3    3    0  502 -0.43713097865E+03 -0.84170338982E+03 -0.10244065644E+03  0.95397288589E+03  0.46999998093E+01 0.  1.
</event>
<event>
 5   0  0.1866935E-05  0.2188834E+04  0.7818609E-02  0.8523090E-01
       -1   -1    0    0    0  501  0.00000000000E+00  0.00000000000E+00  0.72021288625E+03  0.72021288627E+03  0.50400001928E-02 0.  1.
        1   -1    0    0  501    0  0.00000000000E+00  0.00000000000E+00 -0.16630476901E+04  0.16630476901E+04  0.50400001928E-02 0. -1.
    10030    2    1    2    0    0  0.00000000000E+00  0.00000000000E+00 -0.94283480387E+03  0.23832605764E+04  0.21888338237E+04 0.  0.
        4    1    3    3  502    0 -0.22241215772E+03  0.83352913897E+03 -0.12046665770E+04  0.14817088675E+04  0.12699999809E+01 0. -1.
       -4    1    3    3    0  502  0.22241215772E+03 -0.83352913897E+03  0.26183177317E+03  0.90155170886E+03  0.12699999809E+01 0.  1.
</event>
<event>
 5   0  0.1786228E-05  0.2198949E+04  0.7818609E-02  0.8518866E-01
        1   -1    0    0  501    0  0.00000000000E+00  0.00000000000E+00  0.15267600638E+04  0.15267600638E+04  0.50400001928E-02 0.  1.
       -1   -1    0    0    0  501  0.00000000000E+00  0.00000000000E+00 -0.79177104773E+03  0.79177104774E+03  0.50400001928E-02 0. -1.
    10030    2    1    2    0    0  0.00000000000E+00  0.00000000000E+00  0.73498901604E+03  0.23185311115E+04  0.21989492176E+04 0.  0.
        5    1    3    3  502    0  0.45435185010E+03 -0.89953510755E+03 -0.95981746793E+02  0.10123406537E+04  0.46999998093E+01 0. -1.
       -5    1    3    3    0  502 -0.45435185010E+03  0.89953510755E+03  0.83097076284E+03  0.13061904578E+04  0.46999998093E+01 0.  1.
</event>
<event>
 5   0  0.1884407E-05  0.2193464E+04  0.7818609E-02  0.8521154E-01
        1   -1    0    0  501    0  0.00000000000E+00  0.00000000000E+00  0.17726364311E+04  0.17726364311E+04  0.50400001928E-02 0.  1.
       -1   -1    0    0    0  501  0.00000000000E+00  0.00000000000E+00 -0.67854916267E+03  0.67854916269E+03  0.50400001928E-02 0. -1.
    10030    2    1    2    0    0  0.00000000000E+00  0.00000000000E+00  0.10940872685E+04  0.24511855938E+04  0.21934638963E+04 0.  0.
        3    1    3    3  502    0  0.36836155232E+03  0.20377684903E+03  0.16787556368E+04  0.17307327164E+04  0.10100000352E+00 0.  1.
       -3    1    3    3    0  502 -0.36836155232E+03 -0.20377684903E+03 -0.58466836833E+03  0.72045287740E+03  0.10100000352E+00 0. -1.
</event>
<event>
 5   0  0.1788413E-05  0.2198008E+04  0.7818609E-02  0.8519258E-01
       -1   -1    0    0    0  501  0.00000000000E+00  0.00000000000E+00  0.12249208737E+04  0.12249208737E+04  0.50400001928E-02 0. -1.
        1   -1    0    0  501    0  0.00000000000E+00  0.00000000000E+00 -0.98603114428E+03  0.98603114429E+03  0.50400001928E-02 0.  1.
    10030    2    1    2    0    0  0.00000000000E+00  0.00000000000E+00  0.23888972938E+03  0.22109520180E+04  0.21980083082E+04 0.  0.
        1    1    3    3  502    0  0.22615978123E+03 -0.39036145611E+02 -0.96165779381E+03  0.98866464473E+03  0.50400001928E-02 0.  1.
       -1    1    3    3    0  502 -0.22615978123E+03  0.39036145611E+02  0.12005475232E+04  0.12222873732E+04  0.50400001928E-02 0. -1.
</event>
<event>
 5   0  0.4132460E-05  0.2166683E+04  0.7818609E-02  0.8532425E-01
       -2   -1    0    0    0  501  0.00000000000E+00  0.00000000000E+00  0.59834801185E+03  0.59834801185E+03  0.25500000920E-02 0. -1.
        2   -1    0    0  501    0  0.00000000000E+00  0.00000000000E+00 -0.19614484971E+04  0.19614484971E+04  0.25500000920E-02 0.  1.
    10030    2    1    2    0    0  0.00000000000E+00  0.00000000000E+00 -0.13631004852E+04  0.25597965089E+04  0.21666830027E+04 0.  0.
        4    1    3    3  502    0  0.56770321427E+03  0.27292836664E+03  0.35975667267E+03  0.72539872431E+03  0.12699999809E+01 0. -1.
       -4    1    3    3    0  502 -0.56770321427E+03 -0.27292836664E+03 -0.17228571579E+04  0.18343977846E+04  0.12699999809E+01 0.  1.
</event>
<event>
 5   0  0.4143281E-05  0.2205335E+04  0.7818609E-02  0.8516211E-01
        2   -1    0    0  501    0  0.00000000000E+00  0.00000000000E+00  0.11604889938E+04  0.11604889938E+04  0.25500000920E-02 0. -1.
       -2   -1    0    0    0  501  0.00000000000E+00  0.00000000000E+00 -0.10477266508E+04  0.10477266509E+04  0.25500000920E-02 0.  1.
    10030    2    1    2    0    0  0.00000000000E+00  0.00000000000E+00  0.11276234293E+03  0.22082156446E+04  0.22053346656E+04 0.  0.
        2    1    3    3  502    0 -0.87605599753E+03 -0.28349582132E+03 -0.55106714074E+03  0.10730885262E+04  0.25500000920E-02 0.  1.
       -2    1    3    3    0  502  0.87605599753E+03  0.28349582132E+03  0.66382948367E+03  0.11351271184E+04  0.25500000920E-02 0. -1.
</event>
<event>
 5   0  0.1884407E-05  0.2182247E+04  0.7818609E-02  0.8525854E-01
       -1   -1    0    0    0  501  0.00000000000E+00  0.00000000000E+00  0.10714992897E+04  0.10714992897E+04  0.50400001928E-02 0.  1.
        1   -1    0    0  501    0  0.00000000000E+00  0.00000000000E+00 -0.11111072391E+04  0.11111072391E+04  0.50400001928E-02 0. -1.
    10030    2    1    2    0    0  0.00000000000E+00  0.00000000000E+00 -0.39607949415E+02  0.21826065289E+04  0.21822471148E+04 0.  0.
        3    1    3    3  502    0  0.94592041391E+02  0.10863195994E+04 -0.58703580684E+02  0.10920091789E+04  0.10100000352E+00 0.  1.
       -3    1    3    3    0  502 -0.94592041391E+02 -0.10863195994E+04  0.19095631269E+02  0.10905973499E+04  0.10100000352E+00 0. -1.
</event>
<event>
 5   0  0.4029532E-05  0.2209507E+04  0.7818609E-02  0.8514482E-01
        2   -1    0    0  501    0  0.00000000000E+00  0.00000000000E+00  0.14141586219E+04  0.14141586219E+04  0.25500000920E-02 0.  1.
       -2   -1    0    0    0  501  0.00000000000E+00  0.00000000000E+00 -0.86304316166E+03  0.86304316167E+03  0.25500000920E-02 0. -1.
    10030    2    1    2    0    0  0.00000000000E+00  0.00000000000E+00  0.55111546023E+03  0.22772017836E+04  0.22095066672E+04 0.  0.
        3    1    3    3  502    0  0.82768103610E+03 -0.14068444288E+02  0.10295637970E+04  0.13210811637E+04  0.10100000352E+00 0.  1.
       -3    1    3    3    0  502 -0.82768103610E+03  0.14068444288E+02 -0.47844833678E+03  0.95612061991E+03  0.10100000352E+00 0. -1.
</event>
<event>
 5   0  0.1788413E-05  0.1937226E+04  0.7818609E-02  0.8636545E-01
        1   -1    0    0  501    0  0.00000000000E+00  0.00000000000E+00  0.11178537666E+04  0.11178537666E+04  0.50400001928E-02 0. -1.
       -1   -1    0    0    0  501  0.00000000000E+00  0.00000000000E+00 -0.83929693167E+03  0.83929693169E+03  0.50400001928E-02 0.  1.
    10030    2    1    2    0    0  0.00000000000E+00  0.00000000000E+00  0.27855683493E+03  0.19571506983E+04  0.19372260956E+04 0.  0.
        1    1    3    3  502    0 -0.59044500081E+03 -0.51810194615E+03  0.71181360959E+03  0.10600629889E+04  0.50400001928E-02 0. -1.
       -1    1    3    3    0  502  0.59044500081E+03  0.51810194615E+03 -0.43325677466E+03  0.89708770942E+03  0.50400001928E-02 0.  1.
</event>
<event>
 5   0  0.1866935E-05  0.2248448E+04  0.7818609E-02  0.8498529E-01
       -1   -1    0    0    0  501  0.00000000000E+00  0.00000000000E+00  0.10778197231E+04  0.10778197231E+04  0.50400001928E-02 0. -1.
        1   -1    0    0  501    0  0.00000000000E+00  0.00000000000E+00 -0.11726258602E+04  0.11726258602E+04  0.50400001928E-02 0.  1.
    10030    2    1    2    0    0  0.00000000000E+00  0.00000000000E+00 -0.94806137143E+02  0.22504455833E+04  0.22484477134E+04 0.  0.
        4    1    3    3  502    0 -0.91877666107E+03 -0.57595105535E+03  0.24952110436E+03  0.11127140538E+04  0.12699999809E+01 0. -1.
       -4    1    3    3    0  502  0.91877666107E+03  0.57595105535E+03 -0.34432724150E+03  0.11377315295E+04  0.12699999809E+01 0.  1.
</event>
<event>
 5   0  0.1786228E-05  0.2196352E+04  0.7818609E-02  0.8519948E-01
        1   -1    0    0  501    0  0.00000000000E+00  0.00000000000E+00  0.13813507765E+04  0.13813507765E+04  0.50400001928E-02 0.  1.
       -1   -1    0    0    0  501  0.00000000000E+00  0.00000000000E+00 -0.87305182373E+03  0.87305182375E+03  0.50400001928E-02 0. -1.
    10030    2    1    2    0    0  0.00000000000E+00  0.00000000000E+00  0.50829895278E+03  0.22544026003E+04  0.21963522620E+04 0.  0.
        5    1    3    3  502    0  0.43529577352E+03  0.90586700393E+01 -0.78066553039E+03  0.89388211207E+03  0.46999998093E+01 0. -1.
       -5    1    3    3    0  502 -0.43529577352E+03 -0.90586700393E+01  0.12889644832E+04  0.13605204882E+04  0.46999998093E+01 0.  1.
</event>
<event>
 5   0  0.4029532E-05  0.2217217E+04  0.7818609E-02  0.8511296E-01
        2   -1    0    0  501    0  0.00000000000E+00  0.00000000000E+00  0.15135946047E+04  0.15135946047E+04  0.25500000920E-02 0. -1.
       -2   -1    0    0    0  501  0.00000000000E+00  0.00000000000E+00 -0.81198280018E+03  0.81198280019E+03  0.25500000920E-02 0.  1.
    10030    2    1    2    0    0  0.00000000000E+00  0.00000000000E+00  0.70161180448E+03  0.23255774048E+04  0.22172169812E+04 0.  0.
        3    1    3    3  502    0 -0.40765128194E+03  0.70006818441E+03  0.11445865481E+04  0.14022672380E+04  0.10100000352E+00 0. -1.
       -3    1    3    3    0  502  0.40765128194E+03 -0.70006818441E+03 -0.44297474363E+03  0.92331016684E+03  0.10100000352E+00 0.  1.
</event>
<event>
 5   0  0.1788413E-05  0.2208916E+04  0.7818609E-02  0.8514726E-01
        1   -1    0    0  501    0  0.00000000000E+00  0.00000000000E+00  0.11718678268E+04  0.11718678268E+04  0.50400001928E-02 0. -1.
       -1   -1    0    0    0  501  0.00000000000E+00  0.00000000000E+00 -0.10409261603E+04  0.10409261604E+04  0.50400001928E-02 0.  1.
    10030    2    1    2    0    0  0.00000000000E+00  0.00000000000E+00  0.13094166645E+03  0.22127939872E+04  0.22089163655E+04 0.  0.
        1    1    3    3  502    0  0.32930293771E+03 -0.74233926323E+03  0.81533002943E+03  0.11507697700E+04  0.50400001928E-02 0. -1.
       -1    1    3    3    0  502 -0.32930293771E+03  0.74233926323E+03 -0.68438836298E+03  0.10620242172E+04  0.50400001928E-02 0.  1.
</event>
<event>
 5   0  0.3963414E-05  0.2189993E+04  0.7818609E-02  0.8522605E-01
        2   -1    0    0  501    0  0.00000000000E+00  0.00000000000E+00  0.92152278735E+03  0.92152278736E+03  0.25500000920E-02 0. -1.
       -2   -1    0    0    0  501  0.00000000000E+00  0.00000000000E+00 -0.13011265897E+04  0.13011265897E+04  0.25500000920E-02 0.  1.
    10030    2    1    2    0    0  0.00000000000E+00  0.00000000000E+00 -0.37960380238E+03  0.22226493771E+04  0.21899934262E+04 0.  0.
        1    1    3    3  502    0 -0.10058008186E+04 -0.26051954167E+03  0.16105825750E+03  0.10514016743E+04  0.50400001928E-02 0. -1.
       -1    1    3    3    0  502  0.10058008186E+04  0.26051954167E+03 -0.54066205988E+03  0.11712477028E+04  0.50400001928E-02 0.  1.
</event>
<event>
 5   0  0.1866935E-05  0.2149443E+04  0.7818609E-02  0.8539771E-01
       -1   -1    0    0    0  501  0.00000000000E+00  0.00000000000E+00  0.48689712948E+03  0.48689712951E+03  0.50400001928E-02 0. -1.
        1   -1    0    0  501    0  0.00000000000E+00  0.00000000000E+00 -0.23722186211E+04  0.23722186211E+04  0.50400001928E-02 0.  1.
    10030    2    1    2    0    0  0.00000000000E+00  0.00000000000E+00 -0.18853214916E+04  0.28591157506E+04  0.21494431252E+04 0.  0.
        4    1    3    3  502    0  0.88510390732E+02  0.59611245596E+03 -0.21263145091E+04  0.22100676808E+04  0.12699999809E+01 0.  1.
       -4    1    3    3    0  502 -0.88510390732E+02 -0.59611245596E+03  0.24099301753E+03  0.64904806972E+03  0.12699999809E+01 0. -1.
</event>
<event>
 5   0  0.1786228E-05  0.2231263E+04  0.7818609E-02  0.8505527E-01
        1   -1    0    0  501    0  0.00000000000E+00  0.00000000000E+00  0.12913725364E+04  0.12913725364E+04  0.50400001928E-02 0.  1.
       -1   -1    0    0    0  501  0.00000000000E+00  0.00000000000E+00 -0.96380668968E+03  0.96380668970E+03  0.50400001928E-02 0. -1.
    10030    2    1    2    0    0  0.00000000000E+00  0.00000000000E+00  0.32756584671E+03  0.22551792261E+04  0.22312628617E+04 0.  0.
        5    1    3    3  502    0  0.19170589628E+02  0.18210338217E+03  0.12760706479E+04  0.12891499299E+04  0.46999998093E+01 0.  1.
       -5    1    3    3    0  502 -0.19170589628E+02 -0.18210338217E+03 -0.94850480118E+03  0.96602929622E+03  0.46999998093E+01 0. -1.
</event>
<event>
 5   0  0.1815681E-05  0.2209800E+04  0.7818609E-02  0.8514360E-01
       -1   -1    0    0    0  501  0.00000000000E+00  0.00000000000E+00  0.48734498516E+03  0.48734498518E+03  0.50400001928E-02 0.  1.
        1   -1    0    0  501    0  0.00000000000E+00  0.00000000000E+00 -0.25050103112E+04  0.25050103112E+04  0.50400001928E-02 0. -1.
    10030    2    1    2    0    0  0.00000000000E+00  0.00000000000E+00 -0.20176653260E+04  0.29923552964E+04  0.22098001837E+04 0.  0.
        2    1    3    3  502    0 -0.15387721261E+02 -0.50038163124E+03 -0.23426230315E+04  0.23955169018E+04  0.25500000920E-02 0. -1.
       -2    1    3    3    0  502  0.15387721261E+02  0.50038163124E+03  0.32495770553E+03  0.59683839457E+03  0.25500000920E-02 0.  1.
</event>
<event>
 5   0  0.1815681E-05  0.2203932E+04  0.7818609E-02  0.8516793E-01
       -1   -1    0    0    0  501  0.00000000000E+00  0.00000000000E+00  0.80621502293E+03  0.80621502295E+03  0.50400001928E-02 0.  1.
        1   -1    0    0  501    0  0.00000000000E+00  0.00000000000E+00 -0.15062102968E+04  0.15062102968E+04  0.50400001928E-02 0. -1.
    10030    2    1    2    0    0  0.00000000000E+00  0.00000000000E+00 -0.69999527383E+03  0.23124253197E+04  0.22039322757E+04 0.  0.
        2    1    3    3  502    0  0.55083878638E+03 -0.95239356661E+03 -0.28487372295E+03  0.11364989716E+04  0.25500000920E-02 0. -1.
       -2    1    3    3    0  502 -0.55083878638E+03  0.95239356661E+03 -0.41512155088E+03  0.11759263482E+04  0.25500000920E-02 0.  1.
</event>
<event>
 5   0  0.1786228E-05  0.2198470E+04  0.7818609E-02  0.8519065E-01
        1   -1    0    0  501    0  0.00000000000E+00  0.00000000000E+00  0.20081306046E+04  0.20081306046E+04  0.50400001928E-02 0.  1.
       -1   -1    0    0    0  501  0.00000000000E+00  0.00000000000E+00 -0.60171254739E+03  0.60171254742E+03  0.50400001928E-02 0. -1.
    10030    2    1    2    0    0  0.00000000000E+00  0.00000000000E+00  0.14064180572E+04  0.26098431520E+04  0.21984698148E+04 0.  0.
        5    1    3    3  502    0 -0.94205455784E+03  0.38739080448E+03  0.11937586993E+04  0.15692738281E+04  0.46999998093E+01 0.  1.
       -5    1    3    3    0  502  0.94205455784E+03 -0.38739080448E+03  0.21265935787E+03  0.10405693239E+04  0.46999998093E+01 0. -1.
</event>
<event>
 5   0  0.4143281E-05  0.2206274E+04  0.7818609E-02  0.8515821E-01
        2   -1    0    0  501    0  0.00000000000E+00  0.00000000000E+00  0.62518543824E+03  0.62518543824E+03  0.25500000920E-02 0. -1.
       -2   -1    0    0    0  501  0.00000000000E+00  0.00000000000E+00 -0.19464808013E+04  0.19464808013E+04  0.25500000920E-02 0.  1.
    10030    2    1    2    0    0  0.00000000000E+00  0.00000000000E+00 -0.13212953630E+04  0.25716662395E+04  0.22062741922E+04 0.  0.
        2    1    3    3  502    0 -0.17626329691E+03 -0.47185957469E+03 -0.18046091111E+04  0.18735886026E+04  0.25500000920E-02 0.  1.
       -2    1    3    3    0  502  0.17626329691E+03  0.47185957469E+03  0.48331374805E+03  0.69807763689E+03  0.25500000920E-02 0. -1.
</event>
<event>
 5   0  0.1788413E-05  0.2187832E+04  0.7818609E-02  0.8523510E-01
       -1   -1    0    0    0  501  0.00000000000E+00  0.00000000000E+00  0.96783031685E+03  0.96783031686E+03  0.50400001928E-02 0.  1.
        1   -1    0    0  501    0  0.00000000000E+00  0.00000000000E+00 -0.12364274084E+04  0.12364274084E+04  0.50400001928E-02 0. -1.
    10030    2    1    2    0    0  0.00000000000E+00  0.00000000000E+00 -0.26859709157E+03  0.22042577253E+04  0.21878317399E+04 0.  0.
        1    1    3    3  502    0 -0.34898295066E+02  0.60747152018E+03  0.78159893250E+03  0.99052331125E+03  0.50400001928E-02 0.  1.
       -1    1    3    3    0  502  0.34898295066E+02 -0.60747152018E+03 -0.10501960241E+04  0.12137344140E+04  0.50400001928E-02 0. -1.
</event>
<event>
 5   0  0.1788413E-05  0.2214263E+04  0.7818609E-02  0.8512515E-01
       -1   -1    0    0    0  501  0.00000000000E+00  0.00000000000E+00  0.71566082731E+03  0.71566082732E+03  0.50400001928E-02 0. -1.
        1   -1    0    0  501    0  0.00000000000E+00  0.00000000000E+00 -0.17127383614E+04  0.17127383614E+04  0.50400001928E-02 0.  1.
    10030    2    1    2    0    0  0.00000000000E+00  0.00000000000E+00 -0.99707753408E+03  0.24283991887E+04  0.22142626337E+04 0.  0.
        1    1    3    3  502    0  0.63188673317E+02  0.42820944630E+03 -0.16160962247E+04  0.16730580223E+04  0.50400001928E-02 0.  1.
       -1    1    3    3    0  502 -0.63188673317E+02 -0.42820944630E+03  0.61901869064E+03  0.75534116644E+03  0.50400001928E-02 0. -1.
</event>
<event>
 5   0  0.1788413E-05  0.2204916E+04  0.7818609E-02  0.8516385E-01
        1   -1    0    0  501    0  0.00000000000E+00  0.00000000000E+00  0.18473535851E+04  0.18473535851E+04  0.50400001928E-02 0.  1.
       -1   -1    0    0    0  501  0.00000000000E+00  0.00000000000E+00 -0.65792127208E+03  0.65792127210E+03  0.50400001928E-02 0. -1.
    10030    2    1    2    0    0  0.00000000000E+00  0.00000000000E+00  0.11894323131E+04  0.25052748572E+04  0.22049156181E+04 0.  0.
        1    1    3    3  502    0 -0.62790154099E+03  0.31438124187E+03 -0.37095090391E+03  0.79416653389E+03  0.50400001928E-02 0. -1.
       -1    1    3    3    0  502  0.62790154099E+03 -0.31438124187E+03  0.15603832170E+04  0.17111083234E+04  0.50400001928E-02 0.  1.
</event>
<event>
 5   0  0.4132460E-05  0.2193112E+04  0.7818609E-02  0.8521301E-01
       -2   -1    0    0    0  501  0.00000000000E+00  0.00000000000E+00  0.47188926669E+03  0.47188926670E+03  0.25500000920E-02 0. -1.
        2   -1    0    0  501    0  0.00000000000E+00  0.00000000000E+00 -0.25481287381E+04  0.25481287381E+04  0.25500000920E-02 0.  1.
    10030    2    1    2    0    0  0.00000000000E+00  0.00000000000E+00 -0.20762394714E+04  0.30200180048E+04  0.21931115810E+04 0.  0.
        4    1    3    3  502    0 -0.53090832782E+03  0.94851012449E+03 -0.12371870325E+04  0.16468662590E+04  0.12699999809E+01 0. -1.
       -4    1    3    3    0  502  0.53090832782E+03 -0.94851012449E+03 -0.83905243894E+03  0.13731517458E+04  0.12699999809E+01 0.  1.
</event>
<event>
 5   0  0.1884407E-05  0.2191567E+04  0.7818609E-02  0.8521946E-01
        1   -1    0    0  501    0  0.00000000000E+00  0.00000000000E+00  0.12990531259E+04  0.12990531259E+04  0.50400001928E-02 0. -1.
       -1   -1    0    0    0  501  0.00000000000E+00  0.00000000000E+00 -0.92432066018E+03  0.92432066019E+03  0.50400001928E-02 0.  1.
    10030    2    1    2    0    0  0.00000000000E+00  0.00000000000E+00  0.37473246568E+03  0.22233737861E+04  0.21915671497E+04 0.  0.
        3    1    3    3  502    0 -0.88974275676E+03 -0.62120955492E+03  0.32846353619E+02  0.10856437618E+04  0.10100000352E+00 0. -1.
       -3    1    3    3    0  502  0.88974275676E+03  0.62120955492E+03  0.34188611206E+03  0.11377300243E+04  0.10100000352E+00 0.  1.
</event>
<event>
 5   0  0.4132460E-05  0.2198796E+04  0.7818609E-02  0.8518930E-01
       -2   -1    0    0    0  501  0.00000000000E+00  0.00000000000E+00  0.54804383481E+03  0.54804383482E+03  0.25500000920E-02 0.  1.
        2   -1    0    0  501    0  0.00000000000E+00  0.00000000000E+00 -0.22054361017E+04  0.22054361017E+04  0.25500000920E-02 0. -1.
    10030    2    1    2    0    0  0.00000000000E+00  0.00000000000E+00 -0.16573922668E+04  0.27534799365E+04  0.21987957237E+04 0.  0.
        4    1    3    3  502    0  0.36035872614E+03  0.80611832868E+03 -0.16488966664E+04  0.18704403227E+04  0.12699999809E+01 0. -1.
       -4    1    3    3    0  502 -0.36035872614E+03 -0.80611832868E+03 -0.84956003971E+01  0.88303961376E+03  0.12699999809E+01 0.  1.
</event>
<event>
 5   0  0.4029532E-05  0.2183950E+04  0.7818609E-02  0.8525138E-01
       -2   -1    0    0    0  501  0.00000000000E+00  0.00000000000E+00  0.55747436983E+03  0.55747436984E+03  0.25500000920E-02 0. -1.
        2   -1    0    0  501    0  0.00000000000E+00  0.00000000000E+00 -0.21389501135E+04  0.21389501135E+04  0.25500000920E-02 0.  1.
    10030    2    1    2    0    0  0.00000000000E+00  0.00000000000E+00 -0.15814757437E+04  0.26964244834E+04  0.21839504268E+04 0.  0.
        3    1    3    3  502    0  0.20347894873E+03 -0.21973310865E+03 -0.20872566388E+04  0.21086314538E+04  0.10100000352E+00 0.  1.
       -3    1    3    3    0  502 -0.20347894873E+03  0.21973310865E+03  0.50578089507E+03  0.58779302959E+03  0.10100000352E+00 0. -1.
</event>
<event>
 5   0  0.3963414E-05  0.2205607E+04  0.7818609E-02  0.8516098E-01
       -2   -1    0    0    0  501  0.00000000000E+00  0.00000000000E+00  0.54524577142E+03  0.54524577143E+03  0.25500000920E-02 0. -1.
        2   -1    0    0  501    0  0.00000000000E+00  0.00000000000E+00 -0.22305087811E+04  0.22305087811E+04  0.25500000920E-02 0.  1.
    10030    2    1    2    0    0  0.00000000000E+00  0.00000000000E+00 -0.16852630097E+04  0.27757545526E+04  0.22056069288E+04 0.  0.
        1    1    3    3  502    0  0.10330881357E+04  0.77836438658E+02 -0.13182807296E+04  0.16766614713E+04  0.50400001928E-02 0.  1.
       -1    1    3    3    0  502 -0.10330881357E+04 -0.77836438658E+02 -0.36698228016E+03  0.10990930813E+04  0.50400001928E-02 0. -1.
</event>
<event>
 5   0  0.4132460E-05  0.2221327E+04  0.7818609E-02  0.8509603E-01
        2   -1    0    0  501    0  0.00000000000E+00  0.00000000000E+00  0.83140251180E+03  0.83140251181E+03  0.25500000920E-02 0.  1.
       -2   -1    0    0    0  501  0.00000000000E+00  0.00000000000E+00 -0.14837259292E+04  0.14837259292E+04  0.25500000920E-02 0. -1.
    10030    2    1    2    0    0  0.00000000000E+00  0.00000000000E+00 -0.65232341741E+03  0.23151284410E+04  0.22213270488E+04 0.  0.
        4    1    3    3  502    0  0.10766887254E+04 -0.23851504622E+03 -0.46373501818E+03  0.11963276385E+04  0.12699999809E+01 0. -1.
       -4    1    3    3    0  502 -0.10766887254E+04  0.23851504622E+03 -0.18858839924E+03  0.11188008026E+04  0.12699999809E+01 0.  1.
</event>
<event>
 5   0  0.1884407E-05  0.2186851E+04  0.7818609E-02  0.8523921E-01
        1   -1    0    0  501    0  0.00000000000E+00  0.00000000000E+00  0.10295042824E+04  0.10295042825E+04  0.50400001928E-02 0. -1.
       -1   -1    0    0    0  501  0.00000000000E+00  0.00000000000E+00 -0.11613156055E+04  0.11613156055E+04  0.50400001928E-02 0.  1.
    10030    2    1    2    0    0  0.00000000000E+00  0.00000000000E+00 -0.13181132305E+03  0.21908198880E+04  0.21868510596E+04 0.  0.
        3    1    3    3  502    0  0.86882095428E+03 -0.64355593312E+03 -0.22919008016E+03  0.11052339991E+04  0.10100000352E+00 0.  1.
       -3    1    3    3    0  502 -0.86882095428E+03  0.64355593312E+03  0.97378757101E+02  0.10855858889E+04  0.10100000352E+00 0. -1.
</event>
<event>
 5   0  0.4029532E-05  0.2092130E+04  0.7818609E-02  0.8564718E-01
        2   -1    0    0  501    0  0.00000000000E+00  0.00000000000E+00  0.23466224396E+04  0.23466224396E+04  0.25500000920E-02 0.  1.
       -2   -1    0    0    0  501  0.00000000000E+00  0.00000000000E+00 -0.46630930798E+03  0.46630930798E+03  0.25500000920E-02 0. -1.
    10030    2    1    2    0    0  0.00000000000E+00  0.00000000000E+00  0.18803131316E+04  0.28129317476E+04  0.20921299060E+04 0.  0.
        3    1    3    3  502    0  0.35823686419E+03  0.97534525688E+03  0.11027271909E+04  0.15151367228E+04  0.10100000352E+00 0.  1.
       -3    1    3    3    0  502 -0.35823686419E+03 -0.97534525688E+03  0.77758594076E+03  0.12977950248E+04  0.10100000352E+00 0. -1.
</event>
<event>
 5   0  0.1788413E-05  0.2176272E+04  0.7818609E-02  0.8528369E-01
       -1   -1    0    0    0  501  0.00000000000E+00  0.00000000000E+00  0.11276032983E+04  0.11276032983E+04  0.50400001928E-02 0. -1.
        1   -1    0    0  501    0  0.00000000000E+00  0.00000000000E+00 -0.10500503318E+04  0.10500503318E+04  0.50400001928E-02 0.  1.
    10030    2    1    2    0    0  0.00000000000E+00  0.00000000000E+00  0.77552966502E+02  0.21776536302E+04  0.21762722418E+04 0.  0.
        1    1    3    3  502    0 -0.48036357017E+03  0.74075196841E+03 -0.59769138978E+03  0.10661602298E+04  0.50400001928E-02 0.  1.
       -1    1    3    3    0  502  0.48036357017E+03 -0.74075196841E+03  0.67524435628E+03  0.11114934003E+04  0.50400001928E-02 0. -1.
</event>
<event>
 5   0  0.4132460E-05  0.2208606E+04  0.7818609E-02  0.8514855E-01
        2   -1    0    0  501    0  0.00000000000E+00  0.00000000000E+00  0.12948726342E+04  0.12948726342E+04  0.25500000920E-02 0.  1.
       -2   -1    0    0    0  501  0.00000000000E+00  0.00000000000E+00 -0.94177976305E+03  0.94177976305E+03  0.25500000920E-02 0. -1.
    10030    2    1    2    0    0  0.00000000000E+00  0.00000000000E+00  0.35309287113E+03  0.22366523972E+04  0.22086057526E+04 0.  0.
        4    1    3    3  502    0  0.30294649139E+03  0.60774973095E+03  0.10584361119E+04  0.12575471872E+04  0.12699999809E+01 0.  1.
       -4    1    3    3    0  502 -0.30294649139E+03 -0.60774973095E+03 -0.70534324078E+03  0.97910521004E+03  0.12699999809E+01 0. -1.
</event>
<event>
 5   0  0.4143281E-05  0.2217957E+04  0.7818609E-02  0.8510991E-01
        2   -1    0    0  501    0  0.00000000000E+00  0.00000000000E+00  0.21566727126E+04  0.21566727126E+04  0.25500000920E-02 0.  1.
       -2   -1    0    0    0  501  0.00000000000E+00  0.00000000000E+00 -0.57024584531E+03  0.57024584531E+03  0.25500000920E-02 0. -1.
    10030    2    1    2    0    0  0.00000000000E+00  0.00000000000E+00  0.15864268673E+04  0.27269185579E+04  0.22179573071E+04 0.  0.
        2    1    3    3  502    0 -0.96007666296E+03  0.50116717508E+03  0.49989221026E+03  0.11928151399E+04  0.25500000920E-02 0. -1.
       -2    1    3    3    0  502  0.96007666296E+03 -0.50116717508E+03  0.10865346570E+04  0.15341034180E+04  0.25500000920E-02 0.  1.
</event>
<event>
 5   0  0.3963414E-05  0.2196107E+04  0.7818609E-02  0.8520050E-01
       -2   -1    0    0    0  501  0.00000000000E+00  0.00000000000E+00  0.70151212591E+03  0.70151212591E+03  0.25500000920E-02 0.  1.
        2   -1    0    0  501    0  0.00000000000E+00  0.00000000000E+00 -0.17187465564E+04  0.17187465564E+04  0.25500000920E-02 0. -1.
    10030    2    1    2    0    0  0.00000000000E+00  0.00000000000E+00 -0.10172344304E+04  0.24202586823E+04  0.21961070563E+04 0.  0.
        1    1    3    3  502    0 -0.96153026438E+03  0.52245562564E+03 -0.60854273792E+03  0.12521280262E+04  0.50400001928E-02 0. -1.
       -1    1    3    3    0  502  0.96153026438E+03 -0.52245562564E+03 -0.40869169253E+03  0.11681306561E+04  0.50400001928E-02 0.  1.
</event>
<event>
 5   0  0.4029532E-05  0.2201799E+04  0.7818609E-02  0.8517680E-01
        2   -1    0    0  501    0  0.00000000000E+00  0.00000000000E+00  0.19097587251E+04  0.19097587251E+04  0.25500000920E-02 0. -1.
       -2   -1    0    0    0  501  0.00000000000E+00  0.00000000000E+00 -0.63462437652E+03  0.63462437653E+03  0.25500000920E-02 0.  1.
    10030    2    1    2    0    0  0.00000000000E+00  0.00000000000E+00  0.12751343485E+04  0.25443831016E+04  0.22017987558E+04 0.  0.
        3    1    3    3  502    0 -0.10756712341E+04 -0.11460963360E+03  0.87375934154E+03  0.13905608110E+04  0.10100000352E+00 0.  1.
       -3    1    3    3    0  502  0.10756712341E+04  0.11460963360E+03  0.40137500700E+03  0.11538222906E+04  0.10100000352E+00 0. -1.
</event>
<event>
 5   0  0.4143281E-05  0.2192344E+04  0.7818609E-02  0.8521622E-01
        2   -1    0    0  501    0  0.00000000000E+00  0.00000000000E+00  0.17390366303E+04  0.17390366303E+04  0.25500000920E-02 0.  1.
       -2   -1    0    0    0  501  0.00000000000E+00  0.00000000000E+00 -0.69095311508E+03  0.69095311508E+03  0.25500000920E-02 0. -1.
    10030    2    1    2    0    0  0.00000000000E+00  0.00000000000E+00  0.10480835152E+04  0.24299897454E+04  0.21923437476E+04 0.  0.
        2    1    3    3  502    0  0.54355369544E+03  0.94848912464E+03  0.61347607880E+03  0.12535689605E+04  0.25500000920E-02 0.  1.
       -2    1    3    3    0  502 -0.54355369544E+03 -0.94848912464E+03  0.43460743642E+03  0.11764207849E+04  0.25500000920E-02 0. -1.
</event>
<event>
 5   0  0.1815681E-05  0.2196000E+04  0.7818609E-02  0.8520095E-01
        1   -1    0    0  501    0  0.00000000000E+00  0.00000000000E+00  0.12339578237E+04  0.12339578238E+04  0.50400001928E-02 0. -1.
       -1   -1    0    0    0  501  0.00000000000E+00  0.00000000000E+00 -0.97702162019E+03  0.97702162020E+03  0.50400001928E-02 0.  1.
    10030    2    1    2    0    0  0.00000000000E+00  0.00000000000E+00  0.25693620356E+03  0.22109794440E+04  0.21959995193E+04 0.  0.
        2    1    3    3  502    0 -0.29724677014E+03  0.40533237703E+03  0.11113205357E+04  0.12197062398E+04  0.25500000920E-02 0. -1.
       -2    1    3    3    0  502  0.29724677014E+03 -0.40533237703E+03 -0.85438433218E+03  0.99127320417E+03  0.25500000920E-02 0.  1.
</event>
<event>
 5   0  0.1815681E-05  0.2195480E+04  0.7818609E-02  0.8520312E-01
        1   -1    0    0  501    0  0.00000000000E+00  0.00000000000E+00  0.11635376044E+04  0.11635376045E+04  0.50400001928E-02 0.  1.
       -1   -1    0    0    0  501  0.00000000000E+00  0.00000000000E+00 -0.10356632212E+04  0.10356632213E+04  0.50400001928E-02 0. -1.
    10030    2    1    2    0    0  0.00000000000E+00  0.00000000000E+00  0.12787438320E+03  0.21992008257E+04  0.21954799962E+04 0.  0.
        2    1    3    3  502    0  0.10874974041E+04  0.13066801593E+03  0.13691922571E+03  0.11038440147E+04  0.25500000920E-02 0. -1.
       -2    1    3    3    0  502 -0.10874974041E+04 -0.13066801593E+03 -0.90448425072E+01  0.10953568110E+04  0.25500000920E-02 0.  1.
</event>
<event>
 5   0  0.1866935E-05  0.2210774E+04  0.7818609E-02  0.8513957E-01
       -1   -1    0    0    0  501  0.00000000000E+00  0.00000000000E+00  0.18493598510E+04  0.18493598510E+04  0.50400001928E-02 0. -1.
        1   -1    0    0  501    0  0.00000000000E+00  0.00000000000E+00 -0.66070477989E+03  0.66070477991E+03  0.50400001928E-02 0.  1.
    10030    2    1    2    0    0  0.00000000000E+00  0.00000000000E+00  0.11886550711E+04  0.25100646309E+04  0.22107744284E+04 0.  0.
        4    1    3    3  502    0 -0.82801408148E+03 -0.52984800638E+03  0.11682642565E+04  0.15268232429E+04  0.12699999809E+01 0. -1.
       -4    1    3    3    0  502  0.82801408148E+03  0.52984800638E+03  0.20390814621E+02  0.98324138807E+03  0.12699999809E+01 0.  1.
</event>
<event>
 5   0  0.1786228E-05  0.2212247E+04  0.7818609E-02  0.8513348E-01
        1   -1    0    0  501    0  0.00000000000E+00  0.00000000000E+00  0.88168311806E+03  0.88168311808E+03  0.50400001928E-02 0.  1.
       -1   -1    0    0    0  501  0.00000000000E+00  0.00000000000E+00 -0.13876965804E+04  0.13876965804E+04  0.50400001928E-02 0. -1.
    10030    2    1    2    0    0  0.00000000000E+00  0.00000000000E+00 -0.50601346233E+03  0.22693796985E+04  0.22122465034E+04 0.  0.
        5    1    3    3  502    0  0.71605319889E+03 -0.85046360517E+02  0.60741690553E+03  0.94283744844E+03  0.46999998093E+01 0.  1.
       -5    1    3    3    0  502 -0.71605319889E+03  0.85046360517E+02 -0.11134303679E+04  0.13265422500E+04  0.46999998093E+01 0. -1.
</event>
<event>
 5   0  0.1786228E-05  0.2201504E+04  0.7818609E-02  0.8517803E-01
        1   -1    0    0  501    0  0.00000000000E+00  0.00000000000E+00  0.15643216739E+04  0.15643216739E+04  0.50400001928E-02 0. -1.
       -1   -1    0    0    0  501  0.00000000000E+00  0.00000000000E+00 -0.77455581640E+03  0.77455581641E+03  0.50400001928E-02 0.  1.
    10030    2    1    2    0    0  0.00000000000E+00  0.00000000000E+00  0.78976585748E+03  0.23388774903E+04  0.22015035328E+04 0.  0.
        5    1    3    3  502    0 -0.15707421133E+02 -0.57784517569E+03 -0.60030900438E+03  0.83339352103E+03  0.46999998093E+01 0.  1.
       -5    1    3    3    0  502  0.15707421133E+02  0.57784517569E+03  0.13900748619E+04  0.15054839693E+04  0.46999998093E+01 0. -1.
</event>
<event>
 5   0  0.4029532E-05  0.2205274E+04  0.7818609E-02  0.8516236E-01
        2   -1    0    0  501    0  0.00000000000E+00  0.00000000000E+00  0.13866532970E+04  0.13866532970E+04  0.25500000920E-02 0.  1.
       -2   -1    0    0    0  501  0.00000000000E+00  0.00000000000E+00 -0.87679353652E+03  0.87679353653E+03  0.25500000920E-02 0. -1.
    10030    2    1    2    0    0  0.00000000000E+00  0.00000000000E+00  0.50985976052E+03  0.22634468336E+04  0.22052742671E+04 0.  0.
        3    1    3    3  502    0  0.63305919177E+03 -0.17124956702E+03  0.11647197936E+04  0.13366609750E+04  0.10100000352E+00 0.  1.
       -3    1    3    3    0  502 -0.63305919177E+03  0.17124956702E+03 -0.65486003304E+03  0.92678585853E+03  0.10100000352E+00 0. -1.
</event>
<event>
 5   0  0.4029532E-05  0.2179212E+04  0.7818609E-02  0.8527131E-01
        2   -1    0    0  501    0  0.00000000000E+00  0.00000000000E+00  0.11368331619E+04  0.11368331619E+04  0.25500000920E-02 0.  1.
       -2   -1    0    0    0  501  0.00000000000E+00  0.00000000000E+00 -0.10443408630E+04  0.10443408630E+04  0.25500000920E-02 0. -1.
    10030    2    1    2    0    0  0.00000000000E+00  0.00000000000E+00  0.92492298925E+02  0.21811740249E+04  0.21792120827E+04 0.  0.
        3    1    3    3  502    0 -0.57015064765E+03 -0.52024664589E+03 -0.72354508067E+03  0.10579441514E+04  0.10100000352E+00 0. -1.
       -3    1    3    3    0  502  0.57015064765E+03  0.52024664589E+03  0.81603737959E+03  0.11232298735E+04  0.10100000352E+00 0.  1.
</event>
<event>
 5   0  0.1786228E-05  0.2121550E+04  0.7818609E-02  0.8551809E-01
        1   -1    0    0  501    0  0.00000000000E+00  0.00000000000E+00  0.96840393076E+03  0.96840393078E+03  0.50400001928E-02 0. -1.
       -1   -1    0    0    0  501  0.00000000000E+00  0.00000000000E+00 -0.11619571868E+04  0.11619571868E+04  0.50400001928E-02 0.  1.
    10030    2    1    2    0    0  0.00000000000E+00  0.00000000000E+00 -0.19355325607E+03  0.21303611176E+04  0.21215502889E+04 0.  0.
        5    1    3    3  502    0 -0.98184751414E+03 -0.34948569606E+03  0.10167262682E+03  0.10471505173E+04  0.46999998093E+01 0. -1.
       -5    1    3    3    0  502  0.98184751414E+03  0.34948569606E+03 -0.29522588289E+03  0.10832106003E+04  0.46999998093E+01 0.  1.
</event>
<event>
 5   0  0.3963414E-05  0.2191005E+04  0.7818609E-02  0.8522181E-01
       -2   -1    0    0    0  501  0.00000000000E+00  0.00000000000E+00  0.84637578320E+03  0.84637578320E+03  0.25500000920E-02 0.  1.
        2   -1    0    0  501    0  0.00000000000E+00  0.00000000000E+00 -0.14179584141E+04  0.14179584141E+04  0.25500000920E-02 0. -1.
    10030    2    1    2    0    0  0.00000000000E+00  0.00000000000E+00 -0.57158263092E+03  0.22643341973E+04  0.21910049414E+04 0.  0.
        1    1    3    3  502    0 -0.10750000642E+03  0.15064638807E+03  0.83010328952E+03  0.85048342542E+03  0.50400001928E-02 0.  1.
       -1    1    3    3    0  502  0.10750000642E+03 -0.15064638807E+03 -0.14016859204E+04  0.14138507719E+04  0.50400001928E-02 0. -1.
</event>
<event>
 5   0  0.1815681E-05  0.2207531E+04  0.7818609E-02  0.8515300E-01
        1   -1    0    0  501    0  0.00000000000E+00  0.00000000000E+00  0.59297924824E+03  0.59297924826E+03  0.50400001928E-02 0. -1.
       -1   -1    0    0    0  501  0.00000000000E+00  0.00000000000E+00 -0.20545378996E+04  0.20545378996E+04  0.50400001928E-02 0.  1.
    10030    2    1    2    0    0  0.00000000000E+00  0.00000000000E+00 -0.14615586514E+04  0.26475171479E+04  0.22075310546E+04 0.  0.
        2    1    3    3  502    0 -0.75880798528E+02 -0.10475505215E+04 -0.32375779454E+03  0.10990628281E+04  0.25500000920E-02 0.  1.
       -2    1    3    3    0  502  0.75880798528E+02  0.10475505215E+04 -0.11378008569E+04  0.15484543198E+04  0.25500000920E-02 0. -1.
</event>
<event>
 5   0  0.4029532E-05  0.1943320E+04  0.7818609E-02  0.8633589E-01
       -2   -1    0    0    0  501  0.00000000000E+00  0.00000000000E+00  0.50857045274E+03  0.50857045275E+03  0.25500000920E-02 0.  1.
        2   -1    0    0  501    0  0.00000000000E+00  0.00000000000E+00 -0.18564246112E+04  0.18564246112E+04  0.25500000920E-02 0. -1.
    10030    2    1    2    0    0  0.00000000000E+00  0.00000000000E+00 -0.13478541585E+04  0.23649950640E+04  0.19433195363E+04 0.  0.
        3    1    3    3  502    0 -0.94675102558E+03  0.21827885017E+03 -0.68830267906E+03  0.11906904506E+04  0.10100000352E+00 0. -1.
       -3    1    3    3    0  502  0.94675102558E+03 -0.21827885017E+03 -0.65955147941E+03  0.11743046134E+04  0.10100000352E+00 0.  1.
</event>
<event>
 5   0  0.4132460E-05  0.2190196E+04  0.7818609E-02  0.8522520E-01
       -2   -1    0    0    0  501  0.00000000000E+00  0.00000000000E+00  0.49022724397E+03  0.49022724398E+03  0.25500000920E-02 0. -1.
        2   -1    0    0  501    0  0.00000000000E+00  0.00000000000E+00 -0.24462939855E+04  0.24462939855E+04  0.25500000920E-02 0.  1.
    10030    2    1    2    0    0  0.00000000000E+00  0.00000000000E+00 -0.19560667415E+04  0.29365212295E+04  0.21901963003E+04 0.  0.
        4    1    3    3  502    0 -0.45000946365E+03 -0.64392671765E+03 -0.20009600496E+04  0.21496494756E+04  0.12699999809E+01 0.  1.
       -4    1    3    3    0  502  0.45000946365E+03  0.64392671765E+03  0.44893308021E+02  0.78687175390E+03  0.12699999809E+01 0. -1.
</event>
<event>
 5   0  0.4027923E-05  0.2207159E+04  0.7818609E-02  0.8515454E-01
        2   -1    0    0  501    0  0.00000000000E+00  0.00000000000E+00  0.13550821017E+04  0.13550821017E+04  0.25500000920E-02 0.  1.
       -2   -1    0    0    0  501  0.00000000000E+00  0.00000000000E+00 -0.89875591467E+03  0.89875591467E+03  0.25500000920E-02 0. -1.
    10030    2    1    2    0    0  0.00000000000E+00  0.00000000000E+00  0.45632618706E+03  0.22538380164E+04  0.22071593090E+04 0.  0.
        5    1    3    3  502    0 -0.53773567799E+03  0.42281377289E+03 -0.65613925381E+03  0.94787760619E+03  0.46999998093E+01 0. -1.
       -5    1    3    3    0  502  0.53773567799E+03 -0.42281377289E+03  0.11124654409E+04  0.13059604102E+04  0.46999998093E+01 0.  1.
</event>
<event>
 5   0  0.1788413E-05  0.2200738E+04  0.7818609E-02  0.8518121E-01
       -1   -1    0    0    0  501  0.00000000000E+00  0.00000000000E+00  0.50150389846E+03  0.50150389848E+03  0.50400001928E-02 0. -1.
        1   -1    0    0  501    0  0.00000000000E+00  0.00000000000E+00 -0.24143619647E+04  0.24143619647E+04  0.50400001928E-02 0.  1.
    10030    2    1    2    0    0  0.00000000000E+00  0.00000000000E+00 -0.19128580662E+04  0.29158658632E+04  0.22007380013E+04 0.  0.
        1    1    3    3  502    0 -0.85201071228E+03  0.20434012775E+02 -0.34211020969E+02  0.85294208286E+03  0.50400001928E-02 0. -1.
       -1    1    3    3    0  502  0.85201071228E+03 -0.20434012775E+02 -0.18786470453E+04  0.20629237803E+04  0.50400001928E-02 0.  1.
</event>
<event>
 5   0  0.1884407E-05  0.2198704E+04  0.7818609E-02  0.8518968E-01
       -1   -1    0    0    0  501  0.00000000000E+00  0.00000000000E+00  0.78071605689E+03  0.78071605691E+03  0.50400001928E-02 0.  1.
        1   -1    0    0  501    0  0.00000000000E+00  0.00000000000E+00 -0.15480344002E+04  0.15480344002E+04  0.50400001928E-02 0. -1.
    10030    2    1    2    0    0  0.00000000000E+00  0.00000000000E+00 -0.76731834330E+03  0.23287504571E+04  0.21987044484E+04 0.  0.
        3    1    3    3  502    0  0.73233567828E+03  0.45061840358E+03  0.34183913129E+03  0.92532507434E+03  0.10100000352E+00 0.  1.
       -3    1    3    3    0  502 -0.73233567828E+03 -0.45061840358E+03 -0.11091574746E+04  0.14034253828E+04  0.10100000352E+00 0. -1.
</event>
<event>
 5   0  0.1866935E-05  0.2199364E+04  0.7818609E-02  0.8518693E-01
        1   -1    0    0  501    0  0.00000000000E+00  0.00000000000E+00  0.13917998518E+04  0.13917998518E+04  0.50400001928E-02 0. -1.
       -1   -1    0    0    0  501  0.00000000000E+00  0.00000000000E+00 -0.86887532724E+03  0.86887532726E+03  0.50400001928E-02 0.  1.
    10030    2    1    2    0    0  0.00000000000E+00  0.00000000000E+00  0.52292452459E+03  0.22606751791E+04  0.21993640460E+04 0.  0.
        4    1    3    3  502    0 -0.99114598915E+03  0.46501192259E+03  0.36774928591E+03  0.11549232053E+04  0.12699999809E+01 0. -1.
       -4    1    3    3    0  502  0.99114598915E+03 -0.46501192259E+03  0.15517523868E+03  0.11057519738E+04  0.12699999809E+01 0.  1.
</event>
<event>
 5   0  0.1786228E-05  0.2303068E+04  0.7818609E-02  0.8476712E-01
       -1   -1    0    0    0  501  0.00000000000E+00  0.00000000000E+00  0.74490499238E+03  0.74490499239E+03  0.50400001928E-02 0.  1.
        1   -1    0    0  501    0  0.00000000000E+00  0.00000000000E+00 -0.17801337009E+04  0.17801337009E+04  0.50400001928E-02 0. -1.
    10030    2    1    2    0    0  0.00000000000E+00  0.00000000000E+00 -0.10352287085E+04  0.25250386933E+04  0.23030679373E+04 0.  0.
        5    1    3    3  502    0 -0.10169117390E+04 -0.45196676978E+03 -0.84215953733E+03  0.13955780960E+04  0.46999998093E+01 0. -1.
       -5    1    3    3    0  502  0.10169117390E+04  0.45196676978E+03 -0.19306917117E+03  0.11294605972E+04  0.46999998093E+01 0.  1.
</event>
<event>
 5   0  0.4029532E-05  0.2203986E+04  0.7818609E-02  0.8516771E-01
       -2   -1    0    0    0  501  0.00000000000E+00  0.00000000000E+00  0.83175748331E+03  0.83175748331E+03  0.25500000920E-02 0.  1.
        2   -1    0    0  501    0  0.00000000000E+00  0.00000000000E+00 -0.14600269758E+04  0.14600269758E+04  0.25500000920E-02 0. -1.
    10030    2    1    2    0    0  0.00000000000E+00  0.00000000000E+00 -0.62826949253E+03  0.22917844592E+04  0.22039858103E+04 0.  0.
        3    1    3    3  502    0 -0.60681959880E+03  0.36940561231E+02  0.64160646916E+03  0.88388545752E+03  0.10100000352E+00 0.  1.
       -3    1    3    3    0  502  0.60681959880E+03 -0.36940561231E+02 -0.12698759617E+04  0.14078990016E+04  0.10100000352E+00 0. -1.
</event>
<event>
 5   0  0.1815681E-05  0.2193947E+04  0.7818609E-02  0.8520952E-01
        1   -1    0    0  501    0  0.00000000000E+00  0.00000000000E+00  0.14694932791E+04  0.14694932791E+04  0.50400001928E-02 0.  1.
       -1   -1    0    0    0  501  0.00000000000E+00  0.00000000000E+00 -0.81888851078E+03  0.81888851079E+03  0.50400001928E-02 0. -1.
    10030    2    1    2    0    0  0.00000000000E+00  0.00000000000E+00  0.65060476836E+03  0.22883817899E+04  0.21939472765E+04 0.  0.
        2    1    3    3  502    0  0.42342979452E+03 -0.38970514589E+03 -0.64880630563E+03  0.86724420658E+03  0.25500000920E-02 0. -1.
       -2    1    3    3    0  502 -0.42342979452E+03  0.38970514589E+03  0.12994110740E+04  0.14211375834E+04  0.25500000920E-02 0.  1.
</event>
<event>
 5   0  0.1866935E-05  0.2203635E+04  0.7818609E-02  0.8516917E-01
       -1   -1    0    0    0  501  0.00000000000E+00  0.00000000000E+00  0.43881849169E+03  0.43881849172E+03  0.50400001928E-02 0. -1.
        1   -1    0    0  501    0  0.00000000000E+00  0.00000000000E+00 -0.27665226941E+04  0.27665226941E+04  0.50400001928E-02 0.  1.
    10030    2    1    2    0    0  0.00000000000E+00  0.00000000000E+00 -0.23277042024E+04  0.32053411858E+04  0.22036345576E+04 0.  0.
        4    1    3    3  502    0  0.28008606486E+03  0.10323796738E+04 -0.15479900449E+04  0.18816298219E+04  0.12699999809E+01 0. -1.
       -4    1    3    3    0  502 -0.28008606486E+03 -0.10323796738E+04 -0.77971415749E+03  0.13237113639E+04  0.12699999809E+01 0.  1.
</event>
<event>
 5   0  0.1884407E-05  0.2313078E+04  0.7818609E-02  0.8472782E-01
       -1   -1    0    0    0  501  0.00000000000E+00  0.00000000000E+00  0.10084967821E+04  0.10084967821E+04  0.50400001928E-02 0. -1.
        1   -1    0    0  501    0  0.00000000000E+00  0.00000000000E+00 -0.13263129985E+04  0.13263129985E+04  0.50400001928E-02 0.  1.
    10030    2    1    2    0    0  0.00000000000E+00  0.00000000000E+00 -0.31781621640E+03  0.23348097805E+04  0.23130779416E+04 0.  0.
        3    1    3    3  502    0  0.40759950630E+03 -0.10755714164E+04 -0.28083682919E+03  0.11840019275E+04  0.10100000352E+00 0.  1.
       -3    1    3    3    0  502 -0.40759950630E+03  0.10755714164E+04 -0.36979387212E+02  0.11508078531E+04  0.10100000352E+00 0. -1.
</event>
<event>
 5   0  0.1866935E-05  0.2192204E+04  0.7818609E-02  0.8521680E-01
        1   -1    0    0  501    0  0.00000000000E+00  0.00000000000E+00  0.89320021459E+03  0.89320021460E+03  0.50400001928E-02 0.  1.
       -1   -1    0    0    0  501  0.00000000000E+00  0.00000000000E+00 -0.13450950993E+04  0.13450950993E+04  0.50400001928E-02 0. -1.
    10030    2    1    2    0    0  0.00000000000E+00  0.00000000000E+00 -0.45189488467E+03  0.22382953139E+04  0.21922036687E+04 0.  0.
        4    1    3    3  502    0 -0.81190318563E+03 -0.13121017263E+03  0.51388010763E+03  0.96978207354E+03  0.12699999809E+01 0.  1.
       -4    1    3    3    0  502  0.81190318563E+03  0.13121017263E+03 -0.96577499229E+03  0.12685132403E+04  0.12699999809E+01 0. -1.
</event>
<event>
 5   0  0.4143281E-05  0.2145959E+04  0.7818609E-02  0.8541264E-01
        2   -1    0    0  501    0  0.00000000000E+00  0.00000000000E+00  0.73142459650E+03  0.73142459651E+03  0.25500000920E-02 0. -1.
       -2   -1    0    0    0  501  0.00000000000E+00  0.00000000000E+00 -0.15740315013E+04  0.15740315013E+04  0.25500000920E-02 0.  1.
    10030    2    1    2    0    0  0.00000000000E+00  0.00000000000E+00 -0.84260690475E+03  0.23054560978E+04  0.21459593246E+04 0.  0.
        2    1    3    3  502    0  0.74868371993E+03 -0.11222536735E+03  0.39558114949E+03  0.85416994292E+03  0.25500000920E-02 0. -1.
       -2    1    3    3    0  502 -0.74868371993E+03  0.11222536735E+03 -0.12381880542E+04  0.14512861548E+04  0.25500000920E-02 0.  1.
</event>
<event>
 5   0  0.4027923E-05  0.2183188E+04  0.7818609E-02  0.8525458E-01
        2   -1    0    0  501    0  0.00000000000E+00  0.00000000000E+00  0.92196705234E+03  0.92196705235E+03  0.25500000920E-02 0.  1.
       -2   -1    0    0    0  501  0.00000000000E+00  0.00000000000E+00 -0.12924292162E+04  0.12924292162E+04  0.25500000920E-02 0. -1.
    10030    2    1    2    0    0  0.00000000000E+00  0.00000000000E+00 -0.37046216383E+03  0.22143962685E+04  0.21831877196E+04 0.  0.
        5    1    3    3  502    0 -0.73688845886E+03  0.63420395920E+03 -0.68864825815E+03  0.11914183884E+04  0.46999998093E+01 0. -1.
       -5    1    3    3    0  502  0.73688845886E+03 -0.63420395920E+03  0.31818609432E+03  0.10229778802E+04  0.46999998093E+01 0.  1.
</event>
<event>
 5   0  0.4029532E-05  0.2197459E+04  0.7818609E-02  0.8519486E-01
        2   -1    0    0  501    0  0.00000000000E+00  0.00000000000E+00  0.11643862143E+04  0.11643862144E+04  0.25500000920E-02 0. -1.
       -2   -1    0    0    0  501  0.00000000000E+00  0.00000000000E+00 -0.10367751602E+04  0.10367751602E+04  0.25500000920E-02 0.  1.
    10030    2    1    2    0    0  0.00000000000E+00  0.00000000000E+00  0.12761105413E+03  0.22011613746E+04  0.21974591727E+04 0.  0.
        3    1    3    3  502    0  0.29342976108E+02  0.68287741793E+03  0.92550138364E+03  0.11505370048E+04  0.10100000352E+00 0. -1.
       -3    1    3    3    0  502 -0.29342976108E+02 -0.68287741793E+03 -0.79789032951E+03  0.10506243697E+04  0.10100000352E+00 0.  1.
</event>
<event>
 5   0  0.4027923E-05  0.2048543E+04  0.7818609E-02  0.8584256E-01
        2   -1    0    0  501    0  0.00000000000E+00  0.00000000000E+00  0.17345681171E+04  0.17345681171E+04  0.25500000920E-02 0. -1.
       -2   -1    0    0    0  501  0.00000000000E+00  0.00000000000E+00 -0.60483743522E+03  0.60483743522E+03  0.25500000920E-02 0.  1.
    10030    2    1    2    0    0  0.00000000000E+00  0.00000000000E+00  0.11297306819E+04  0.23394055523E+04  0.20485426343E+04 0.  0.
        5    1    3    3  502    0 -0.18376112793E+03 -0.43332261301E+03  0.16037412289E+04  0.16713900377E+04  0.46999998093E+01 0. -1.
       -5    1    3    3    0  502  0.18376112793E+03  0.43332261301E+03 -0.47401054698E+03  0.66801551459E+03  0.46999998093E+01 0.  1.
</event>
<event>
 5   0  0.1866935E-05  0.2182114E+04  0.7818609E-02  0.8525910E-01
        1   -1    0    0  501    0  0.00000000000E+00  0.00000000000E+00  0.15476364771E+04  0.15476364771E+04  0.50400001928E-02 0. -1.
       -1   -1    0    0    0  501  0.00000000000E+00  0.00000000000E+00 -0.76917631062E+03  0.76917631063E+03  0.50400001928E-02 0.  1.
    10030    2    1    2    0    0  0.00000000000E+00  0.00000000000E+00  0.77846016644E+03  0.23168127877E+04  0.21821139435E+04 0.  0.
        4    1    3    3  502    0 -0.74888423812E+03 -0.35262103462E+03 -0.36544501405E+03  0.90483195531E+03  0.12699999809E+01 0.  1.
       -4    1    3    3    0  502  0.74888423812E+03  0.35262103462E+03  0.11439051805E+04  0.14119808324E+04  0.12699999809E+01 0. -1.
</event>
<event>
 5   0  0.1884407E-05  0.2206740E+04  0.7818609E-02  0.8515628E-01
        1   -1    0    0  501    0  0.00000000000E+00  0.00000000000E+00  0.10849496093E+04  0.10849496093E+04  0.50400001928E-02 0. -1.
       -1   -1    0    0    0  501  0.00000000000E+00  0.00000000000E+00 -0.11221032723E+04  0.11221032723E+04  0.50400001928E-02 0.  1.
    10030    2    1    2    0    0  0.00000000000E+00  0.00000000000E+00 -0.37153662989E+02  0.22070528816E+04  0.22067401359E+04 0.  0.
        3    1    3    3  502    0  0.28392651387E+03 -0.10662063730E+04 -0.14677351777E+02  0.11034607967E+04  0.10100000352E+00 0. -1.
       -3    1    3    3    0  502 -0.28392651387E+03  0.10662063730E+04 -0.22476311211E+02  0.11035920849E+04  0.10100000352E+00 0.  1.
</event>
<event>
 5   0  0.1884407E-05  0.2198471E+04  0.7818609E-02  0.8519065E-01
       -1   -1    0    0    0  501  0.00000000000E+00  0.00000000000E+00  0.10698819896E+04  0.10698819896E+04  0.50400001928E-02 0.  1.
        1   -1    0    0  501    0  0.00000000000E+00  0.00000000000E+00 -0.11293943406E+04  0.11293943406E+04  0.50400001928E-02 0. -1.
    10030    2    1    2    0    0  0.00000000000E+00  0.00000000000E+00 -0.59512351020E+02  0.21992763303E+04  0.21984709816E+04 0.  0.
        3    1    3    3  502    0 -0.28919289218E+03  0.73611933601E+03  0.73394633347E+03  0.10789723983E+04  0.10100000352E+00 0.  1.
       -3    1    3    3    0  502  0.28919289218E+03 -0.73611933601E+03 -0.79345868449E+03  0.11203039319E+04  0.10100000352E+00 0. -1.
</event>
<event>
 5   0  0.1786228E-05  0.2204966E+04  0.7818609E-02  0.8516364E-01
       -1   -1    0    0    0  501  0.00000000000E+00  0.00000000000E+00  0.86004113564E+03  0.86004113566E+03  0.50400001928E-02 0.  1.
        1   -1    0    0  501    0  0.00000000000E+00  0.00000000000E+00 -0.14132678913E+04  0.14132678914E+04  0.50400001928E-02 0. -1.
    10030    2    1    2    0    0  0.00000000000E+00  0.00000000000E+00 -0.55322675570E+03  0.22733090270E+04  0.22049657796E+04 0.  0.
        5    1    3    3  502    0  0.27091342463E+03 -0.77687870903E+03  0.47996555291E+03  0.95253537162E+03  0.46999998093E+01 0.  1.
       -5    1    3    3    0  502 -0.27091342463E+03  0.77687870903E+03 -0.10331923086E+04  0.13207736554E+04  0.46999998093E+01 0. -1.
</event>
<event>
 5   0  0.4143281E-05  0.2199214E+04  0.7818609E-02  0.8518755E-01
       -2   -1    0    0    0  501  0.00000000000E+00  0.00000000000E+00  0.77195967753E+03  0.77195967754E+03  0.25500000920E-02 0.  1.
        2   -1    0    0  501    0  0.00000000000E+00  0.00000000000E+00 -0.15663196765E+04  0.15663196766E+04  0.25500000920E-02 0. -1.
    10030    2    1    2    0    0  0.00000000000E+00  0.00000000000E+00 -0.79435999902E+03  0.23382793541E+04  0.21992140709E+04 0.  0.
        2    1    3    3  502    0 -0.72388173734E+02  0.33327033260E+02  0.76888530122E+03  0.77300410431E+03  0.25500000920E-02 0.  1.
       -2    1    3    3    0  502  0.72388173734E+02 -0.33327033260E+02 -0.15632453002E+04  0.15652752498E+04  0.25500000920E-02 0. -1.
</event>
<event>
 5   0  0.4029532E-05  0.2199891E+04  0.7818609E-02  0.8518473E-01
        2   -1    0    0  501    0  0.00000000000E+00  0.00000000000E+00  0.46462354184E+03  0.46462354185E+03  0.25500000920E-02 0. -1.
       -2   -1    0    0    0  501  0.00000000000E+00  0.00000000000E+00 -0.26040019752E+04  0.26040019752E+04  0.25500000920E-02 0.  1.
    10030    2    1    2    0    0  0.00000000000E+00  0.00000000000E+00 -0.21393784334E+04  0.30686255171E+04  0.21998914707E+04 0.  0.
        3    1    3    3  502    0  0.18090676330E+03 -0.55133630034E+03  0.23376245461E+03  0.62557483043E+03  0.10100000352E+00 0. -1.
       -3    1    3    3    0  502 -0.18090676330E+03  0.55133630034E+03 -0.23731408880E+04  0.24430506867E+04  0.10100000352E+00 0.  1.
</event>
<event>
 5   0  0.4029532E-05  0.2252343E+04  0.7818609E-02  0.8496952E-01
        2   -1    0    0  501    0  0.00000000000E+00  0.00000000000E+00  0.24334806913E+04  0.24334806913E+04  0.25500000920E-02 0.  1.
       -2   -1    0    0    0  501  0.00000000000E+00  0.00000000000E+00 -0.52117203757E+03  0.52117203758E+03  0.25500000920E-02 0. -1.
    10030    2    1    2    0    0  0.00000000000E+00  0.00000000000E+00  0.19123086537E+04  0.29546527289E+04  0.22523428605E+04 0.  0.
        3    1    3    3  502    0  0.13464383042E+03 -0.89581138184E+03  0.18338494897E+04  0.20453877271E+04  0.10100000352E+00 0.  1.
       -3    1    3    3    0  502 -0.13464383042E+03  0.89581138184E+03  0.78459164017E+02  0.90926500181E+03  0.10100000352E+00 0. -1.
</event>
<event>
 5   0  0.1815681E-05  0.2209253E+04  0.7818609E-02  0.8514587E-01
        1   -1    0    0  501    0  0.00000000000E+00  0.00000000000E+00  0.11073923951E+04  0.11073923951E+04  0.50400001928E-02 0.  1.
       -1   -1    0    0    0  501  0.00000000000E+00  0.00000000000E+00 -0.11018675682E+04  0.11018675682E+04  0.50400001928E-02 0. -1.
    10030    2    1    2    0    0  0.00000000000E+00  0.00000000000E+00  0.55248268971E+01  0.22092599633E+04  0.22092530551E+04 0.  0.
        2    1    3    3  502    0  0.10703150140E+03 -0.51658722387E+03 -0.96774650130E+03  0.11022029727E+04  0.25500000920E-02 0. -1.
       -2    1    3    3    0  502 -0.10703150140E+03  0.51658722387E+03  0.97327132819E+03  0.11070569906E+04  0.25500000920E-02 0.  1.
</event>
<event>
 5   0  0.4132460E-05  0.2184823E+04  0.7818609E-02  0.8524772E-01
        2   -1    0    0  501    0  0.00000000000E+00  0.00000000000E+00  0.13456647438E+04  0.13456647438E+04  0.25500000920E-02 0.  1.
       -2   -1    0    0    0  501  0.00000000000E+00  0.00000000000E+00 -0.88682001810E+03  0.88682001811E+03  0.25500000920E-02 0. -1.
    10030    2    1    2    0    0  0.00000000000E+00  0.00000000000E+00  0.45884472566E+03  0.22324847619E+04  0.21848225854E+04 0.  0.
        4    1    3    3  502    0 -0.10033780755E+04  0.42320787008E+03  0.14099929835E+03  0.10980687040E+04  0.12699999809E+01 0. -1.
       -4    1    3    3    0  502  0.10033780755E+04 -0.42320787008E+03  0.31784542730E+03  0.11344160578E+04  0.12699999809E+01 0.  1.
</event>
<event>
 5   0  0.4029532E-05  0.2208486E+04  0.7818609E-02  0.8514904E-01
        2   -1    0    0  501    0  0.00000000000E+00  0.00000000000E+00  0.80444670623E+03  0.80444670623E+03  0.25500000920E-02 0. -1.
       -2   -1    0    0    0  501  0.00000000000E+00  0.00000000000E+00 -0.15157650946E+04  0.15157650946E+04  0.25500000920E-02 0.  1.
    10030    2    1    2    0    0  0.00000000000E+00  0.00000000000E+00 -0.71131838833E+03  0.23202118008E+04  0.22084856692E+04 0.  0.
        3    1    3    3  502    0  0.35129217302E+03  0.95995922933E+03  0.83110434687E+02  0.10255902044E+04  0.10100000352E+00 0. -1.
       -3    1    3    3    0  502 -0.35129217302E+03 -0.95995922933E+03 -0.79442882301E+03  0.12946215964E+04  0.10100000352E+00 0.  1.
</event>
<event>
 5   0  0.4029532E-05  0.2204730E+04  0.7818609E-02  0.8516462E-01
        2   -1    0    0  501    0  0.00000000000E+00  0.00000000000E+00  0.25523226277E+04  0.25523226277E+04  0.25500000920E-02 0.  1.
       -2   -1    0    0    0  501  0.00000000000E+00  0.00000000000E+00 -0.47611874612E+03  0.47611874612E+03  0.25500000920E-02 0. -1.
    10030    2    1    2    0    0  0.00000000000E+00  0.00000000000E+00  0.20762038816E+04  0.30284413738E+04  0.22047300508E+04 0.  0.
        3    1    3    3  502    0 -0.53926742713E+03 -0.78013171884E+03  0.26619395034E+03  0.98502491649E+03  0.10100000352E+00 0. -1.
       -3    1    3    3    0  502  0.53926742713E+03  0.78013171884E+03  0.18100099312E+04  0.20434164573E+04  0.10100000352E+00 0.  1.
</event>
<event>
 5   0  0.4029532E-05  0.2129762E+04  0.7818609E-02  0.8548245E-01
        2   -1    0    0  501    0  0.00000000000E+00  0.00000000000E+00  0.13132597825E+04  0.13132597825E+04  0.25500000920E-02 0. -1.
       -2   -1    0    0    0  501  0.00000000000E+00  0.00000000000E+00 -0.86347873213E+03  0.86347873213E+03  0.25500000920E-02 0.  1.
    10030    2    1    2    0    0  0.00000000000E+00  0.00000000000E+00  0.44978105036E+03  0.21767385146E+04  0.21297623266E+04 0.  0.
        3    1    3    3  502    0  0.28441550781E+03 -0.65665664687E+03 -0.58109831152E+03  0.92182720225E+03  0.10100000352E+00 0.  1.
       -3    1    3    3    0  502 -0.28441550781E+03  0.65665664687E+03  0.10308793619E+04  0.12549113124E+04  0.10100000352E+00 0. -1.
</event>
<event>
 5   0  0.4027923E-05  0.2216163E+04  0.7818609E-02  0.8511731E-01
       -2   -1    0    0    0  501  0.00000000000E+00  0.00000000000E+00  0.12424590687E+04  0.12424590688E+04  0.25500000920E-02 0.  1.
        2   -1    0    0  501    0  0.00000000000E+00  0.00000000000E+00 -0.98823727463E+03  0.98823727464E+03  0.25500000920E-02 0. -1.
    10030    2    1    2    0    0  0.00000000000E+00  0.00000000000E+00  0.25422179411E+03  0.22306963434E+04  0.22161627774E+04 0.  0.
        5    1    3    3  502    0  0.42999762308E+03  0.90060362909E+03  0.61176352059E+03  0.11705817134E+04  0.46999998093E+01 0.  1.
       -5    1    3    3    0  502 -0.42999762308E+03 -0.90060362909E+03 -0.35754172647E+03  0.10601146300E+04  0.46999998093E+01 0. -1.
</event>
<event>
 5   0  0.1884407E-05  0.2201640E+04  0.7818609E-02  0.8517746E-01
       -1   -1    0    0    0  501  0.00000000000E+00  0.00000000000E+00  0.65491837344E+03  0.65491837346E+03  0.50400001928E-02 0.  1.
        1   -1    0    0  501    0  0.00000000000E+00  0.00000000000E+00 -0.18503146234E+04  0.18503146234E+04  0.50400001928E-02 0. -1.
    10030    2    1    2    0    0  0.00000000000E+00  0.00000000000E+00 -0.11953962499E+04  0.25052329969E+04  0.22016403372E+04 0.  0.
        3    1    3    3  502    0 -0.72374474779E+03  0.80796766835E+03 -0.81114596345E+03  0.13544652071E+04  0.10100000352E+00 0.  1.
       -3    1    3    3    0  502  0.72374474779E+03 -0.80796766835E+03 -0.38425028649E+03  0.11507677897E+04  0.10100000352E+00 0. -1.
</event>
<event>
 5   0  0.1815681E-05  0.2204010E+04  0.7818609E-02  0.8516761E-01
        1   -1    0    0  501    0  0.00000000000E+00  0.00000000000E+00  0.88053254461E+03  0.88053254463E+03  0.50400001928E-02 0. -1.
       -1   -1    0    0    0  501  0.00000000000E+00  0.00000000000E+00 -0.13791825702E+04  0.13791825702E+04  0.50400001928E-02 0.  1.
    10030    2    1    2    0    0  0.00000000000E+00  0.00000000000E+00 -0.49865002562E+03  0.22597151149E+04  0.22040101071E+04 0.  0.
        2    1    3    3  502    0 -0.58084592039E+03 -0.55902247838E+03 -0.10196650618E+04  0.12998480499E+04  0.25500000920E-02 0.  1.
       -2    1    3    3    0  502  0.58084592039E+03  0.55902247838E+03  0.52101503614E+03  0.95986706500E+03  0.25500000920E-02 0. -1.
</event>
<event>
 5   0  0.1866935E-05  0.2188053E+04  0.7818609E-02  0.8523417E-01
       -1   -1    0    0    0  501  0.00000000000E+00  0.00000000000E+00  0.60539513777E+03  0.60539513779E+03  0.50400001928E-02 0.  1.
        1   -1    0    0  501    0  0.00000000000E+00  0.00000000000E+00 -0.19770464682E+04  0.19770464682E+04  0.50400001928E-02 0. -1.
    10030    2    1    2    0    0  0.00000000000E+00  0.00000000000E+00 -0.13716513305E+04  0.25824416060E+04  0.21880533074E+04 0.  0.
        4    1    3    3  502    0 -0.81890688488E+02 -0.88460342488E+03  0.67744114617E+02  0.89096587035E+03  0.12699999809E+01 0.  1.
       -4    1    3    3    0  502  0.81890688488E+02  0.88460342488E+03 -0.14393954451E+04  0.16914757357E+04  0.12699999809E+01 0. -1.
</event>
<event>
 5   0  0.4029532E-05  0.2179511E+04  0.7818609E-02  0.8527005E-01
        2   -1    0    0  501    0  0.00000000000E+00  0.00000000000E+00  0.20350887726E+04  0.20350887726E+04  0.25500000920E-02 0. -1.
       -2   -1    0    0    0  501  0.00000000000E+00  0.00000000000E+00 -0.58354539237E+03  0.58354539238E+03  0.25500000920E-02 0.  1.
    10030    2    1    2    0    0  0.00000000000E+00  0.00000000000E+00  0.14515433802E+04  0.26186341650E+04  0.21795106573E+04 0.  0.
        3    1    3    3  502    0  0.59362917826E+03  0.65268440170E+03  0.14943177850E+04  0.17353322973E+04  0.10100000352E+00 0. -1.
       -3    1    3    3    0  502 -0.59362917826E+03 -0.65268440170E+03 -0.42774404733E+02  0.88330186765E+03  0.10100000352E+00 0.  1.
</event>
<event>
 5   0  0.4029532E-05  0.2223461E+04  0.7818609E-02  0.8508726E-01
       -2   -1    0    0    0  501  0.00000000000E+00  0.00000000000E+00  0.47249052890E+03  0.47249052890E+03  0.25500000920E-02 0.  1.
        2   -1    0    0  501    0  0.00000000000E+00  0.00000000000E+00 -0.26158094590E+04  0.26158094590E+04  0.25500000920E-02 0. -1.
    10030    2    1    2    0    0  0.00000000000E+00  0.00000000000E+00 -0.21433189301E+04  0.30882999879E+04  0.22234614409E+04 0.  0.
        3    1    3    3  502    0  0.18566993953E+03 -0.15480208586E+03  0.43554385593E+03  0.49813198338E+03  0.10100000352E+00 0.  1.
       -3    1    3    3    0  502 -0.18566993953E+03  0.15480208586E+03 -0.25788627860E+04  0.25901680045E+04  0.10100000352E+00 0. -1.
</event>
<event>
 5   0  0.3963414E-05  0.2197650E+04  0.7818609E-02  0.8519407E-01
        2   -1    0    0  501    0  0.00000000000E+00  0.00000000000E+00  0.12149446624E+04  0.12149446624E+04  0.25500000920E-02 0. -1.
       -2   -1    0    0    0  501  0.00000000000E+00  0.00000000000E+00 -0.99380386189E+03  0.99380386190E+03  0.25500000920E-02 0.  1.
    10030    2    1    2    0    0  0.00000000000E+00  0.00000000000E+00  0.22114080047E+03  0.22087485243E+04  0.21976502883E+04 0.  0.
        1    1    3    3  502    0 -0.37835952268E+03 -0.91189253359E+03 -0.37426888418E+03  0.10558319558E+04  0.50400001928E-02 0.  1.
       -1    1    3    3    0  502  0.37835952268E+03  0.91189253359E+03  0.59540968465E+03  0.11529165685E+04  0.50400001928E-02 0. -1.
</event>
<event>
 5   0  0.1788413E-05  0.2166957E+04  0.7818609E-02  0.8532309E-01
        1   -1    0    0  501    0  0.00000000000E+00  0.00000000000E+00  0.21396627145E+04  0.21396627145E+04  0.50400001928E-02 0.  1.
       -1   -1    0    0    0  501  0.00000000000E+00  0.00000000000E+00 -0.54864973278E+03  0.54864973280E+03  0.50400001928E-02 0. -1.
    10030    2    1    2    0    0  0.00000000000E+00  0.00000000000E+00  0.15910129817E+04  0.26883124473E+04  0.21669567385E+04 0.  0.
        1    1    3    3  502    0  0.31467891220E+03 -0.29492765582E+03 -0.43757120620E+03  0.61438888375E+03  0.50400001928E-02 0. -1.
       -1    1    3    3    0  502 -0.31467891220E+03  0.29492765582E+03  0.20285841879E+04  0.20739235636E+04  0.50400001928E-02 0.  1.
</event>
<event>
 5   0  0.4143281E-05  0.2243637E+04  0.7818609E-02  0.8500482E-01
       -2   -1    0    0    0  501  0.00000000000E+00  0.00000000000E+00  0.41864036918E+03  0.41864036919E+03  0.25500000920E-02 0.  1.
        2   -1    0    0  501    0  0.00000000000E+00  0.00000000000E+00 -0.30061047976E+04  0.30061047976E+04  0.25500000920E-02 0. -1.
    10030    2    1    2    0    0  0.00000000000E+00  0.00000000000E+00 -0.25874644284E+04  0.34247451668E+04  0.22436370671E+04 0.  0.
        2    1    3    3  502    0 -0.15133986750E+03 -0.81911049283E+03 -0.14674641689E+03  0.84580155228E+03  0.25500000920E-02 0.  1.
       -2    1    3    3    0  502  0.15133986750E+03  0.81911049283E+03 -0.24407180115E+04  0.25789436145E+04  0.25500000920E-02 0. -1.
</event>
<event>
 5   0  0.4029532E-05  0.2215320E+04  0.7818609E-02  0.8512078E-01
        2   -1    0    0  501    0  0.00000000000E+00  0.00000000000E+00  0.20436812480E+04  0.20436812480E+04  0.25500000920E-02 0.  1.
       -2   -1    0    0    0  501  0.00000000000E+00  0.00000000000E+00 -0.60034372429E+03  0.60034372430E+03  0.25500000920E-02 0. -1.
    10030    2    1    2    0    0  0.00000000000E+00  0.00000000000E+00  0.14433375237E+04  0.26440249723E+04  0.22153204840E+04 0.  0.
        3    1    3    3  502    0 -0.33210096240E+03  0.10483748746E+04  0.87969287045E+03  0.14082757128E+04  0.10100000352E+00 0. -1.
       -3    1    3    3    0  502  0.33210096240E+03 -0.10483748746E+04  0.56364465322E+03  0.12357492594E+04  0.10100000352E+00 0.  1.
</event>
<event>
 5   0  0.1788413E-05  0.2193812E+04  0.7818609E-02  0.8521008E-01
       -1   -1    0    0    0  501  0.00000000000E+00  0.00000000000E+00  0.61187076272E+03  0.61187076275E+03  0.50400001928E-02 0. -1.
        1   -1    0    0  501    0  0.00000000000E+00  0.00000000000E+00 -0.19664326884E+04  0.19664326884E+04  0.50400001928E-02 0.  1.
    10030    2    1    2    0    0  0.00000000000E+00  0.00000000000E+00 -0.13545619257E+04  0.25783034512E+04  0.21938119053E+04 0.  0.
        1    1    3    3  502    0  0.10883964966E+04 -0.13206556015E+03 -0.71721260129E+03  0.13101305894E+04  0.50400001928E-02 0.  1.
       -1    1    3    3    0  502 -0.10883964966E+04  0.13206556015E+03 -0.63734932442E+03  0.12681728617E+04  0.50400001928E-02 0. -1.
</event>
<event>
 5   0  0.4132460E-05  0.2200401E+04  0.7818609E-02  0.8518261E-01
       -2   -1    0    0    0  501  0.00000000000E+00  0.00000000000E+00  0.11079697305E+04  0.11079697305E+04  0.25500000920E-02 0.  1.
        2   -1    0    0  501    0  0.00000000000E+00  0.00000000000E+00 -0.10924855024E+04  0.10924855024E+04  0.25500000920E-02 0. -1.
    10030    2    1    2    0    0  0.00000000000E+00  0.00000000000E+00  0.15484228165E+02  0.22004552329E+04  0.22004007523E+04 0.  0.
        4    1    3    3  502    0  0.34173630986E+03  0.88332976915E+03 -0.55207891698E+03  0.10962882513E+04  0.12699999809E+01 0. -1.
       -4    1    3    3    0  502 -0.34173630986E+03 -0.88332976915E+03  0.56756314515E+03  0.11041669816E+04  0.12699999809E+01 0.  1.
</event>
<event>
 5   0  0.1786228E-05  0.2203768E+04  0.7818609E-02  0.8516861E-01
        1   -1    0    0  501    0  0.00000000000E+00  0.00000000000E+00  0.17877952408E+04  0.17877952408E+04  0.50400001928E-02 0.  1.
       -1   -1    0    0    0  501  0.00000000000E+00  0.00000000000E+00 -0.67913171993E+03  0.67913171994E+03  0.50400001928E-02 0. -1.
    10030    2    1    2    0    0  0.00000000000E+00  0.00000000000E+00  0.11086635208E+04  0.24669269607E+04  0.22037680974E+04 0.  0.
        5    1    3    3  502    0 -0.10937044429E+04  0.13384731634E+03  0.54909865731E+03  0.12311116675E+04  0.46999998093E+01 0. -1.
       -5    1    3    3    0  502  0.10937044429E+04 -0.13384731634E+03  0.55956486352E+03  0.12358152932E+04  0.46999998093E+01 0.  1.
</event>
<event>
 5   0  0.4027923E-05  0.2182918E+04  0.7818609E-02  0.8525572E-01
        2   -1    0    0  501    0  0.00000000000E+00  0.00000000000E+00  0.10594518453E+04  0.10594518453E+04  0.25500000920E-02 0.  1.
       -2   -1    0    0    0  501  0.00000000000E+00  0.00000000000E+00 -0.11244331285E+04  0.11244331285E+04  0.25500000920E-02 0. -1.
    10030    2    1    2    0    0  0.00000000000E+00  0.00000000000E+00 -0.64981283168E+02  0.21838849738E+04  0.21829180039E+04 0.  0.
        5    1    3    3  502    0  0.65582907032E+03  0.40451115303E+03  0.74084570557E+03  0.10689319398E+04  0.46999998093E+01 0.  1.
       -5    1    3    3    0  502 -0.65582907032E+03 -0.40451115303E+03 -0.80582698874E+03  0.11149530341E+04  0.46999998093E+01 0. -1.
</event>
<event>
 5   0  0.4132460E-05  0.2164383E+04  0.7818609E-02  0.8533401E-01
        2   -1    0    0  501    0  0.00000000000E+00  0.00000000000E+00  0.14603142133E+04  0.14603142133E+04  0.25500000920E-02 0.  1.
       -2   -1    0    0    0  501  0.00000000000E+00  0.00000000000E+00 -0.80197700720E+03  0.80197700720E+03  0.25500000920E-02 0. -1.
    10030    2    1    2    0    0  0.00000000000E+00  0.00000000000E+00  0.65833720614E+03  0.22622912205E+04  0.21643829813E+04 0.  0.
        4    1    3    3  502    0  0.70256838639E+03 -0.43194098675E+03 -0.40321413361E+03  0.91801884732E+03  0.12699999809E+01 0. -1.
       -4    1    3    3    0  502 -0.70256838639E+03  0.43194098675E+03  0.10615513398E+04  0.13442723732E+04  0.12699999809E+01 0.  1.
</event>
<event>
 5   0  0.4029532E-05  0.2123720E+04  0.7818609E-02  0.8550866E-01
        2   -1    0    0  501    0  0.00000000000E+00  0.00000000000E+00  0.47002020978E+03  0.47002020979E+03  0.25500000920E-02 0. -1.
       -2   -1    0    0    0  501  0.00000000000E+00  0.00000000000E+00 -0.23989317964E+04  0.23989317964E+04  0.25500000920E-02 0.  1.
    10030    2    1    2    0    0  0.00000000000E+00  0.00000000000E+00 -0.19289115866E+04  0.28689520061E+04  0.21237197802E+04 0.  0.
        3    1    3    3  502    0  0.14815845771E+03 -0.10355966187E+04 -0.71854906290E+03  0.12691430381E+04  0.10100000352E+00 0. -1.
       -3    1    3    3    0  502 -0.14815845771E+03  0.10355966187E+04 -0.12103625237E+04  0.15998089680E+04  0.10100000352E+00 0.  1.
</event>
<event>
 5   0  0.4029532E-05  0.2204652E+04  0.7818609E-02  0.8516494E-01
       -2   -1    0    0    0  501  0.00000000000E+00  0.00000000000E+00  0.10603291702E+04  0.10603291702E+04  0.25500000920E-02 0.  1.
        2   -1    0    0  501    0  0.00000000000E+00  0.00000000000E+00 -0.11459858606E+04  0.11459858606E+04  0.25500000920E-02 0. -1.
    10030    2    1    2    0    0  0.00000000000E+00  0.00000000000E+00 -0.85656690387E+02  0.22063150309E+04  0.22046516611E+04 0.  0.
        3    1    3    3  502    0  0.69133703120E+03 -0.23589635084E+03  0.78334175645E+03  0.10710827683E+04  0.10100000352E+00 0.  1.
       -3    1    3    3    0  502 -0.69133703120E+03  0.23589635084E+03 -0.86899844683E+03  0.11352322625E+04  0.10100000352E+00 0. -1.
</event>
<event>
 5   0  0.4132460E-05  0.2184718E+04  0.7818609E-02  0.8524816E-01
        2   -1    0    0  501    0  0.00000000000E+00  0.00000000000E+00  0.87859067275E+03  0.87859067276E+03  0.25500000920E-02 0. -1.
       -2   -1    0    0    0  501  0.00000000000E+00  0.00000000000E+00 -0.13581391939E+04  0.13581391939E+04  0.25500000920E-02 0.  1.
    10030    2    1    2    0    0  0.00000000000E+00  0.00000000000E+00 -0.47954852114E+03  0.22367298667E+04  0.21847182226E+04 0.  0.
        4    1    3    3  502    0 -0.61375919699E+02  0.31486498442E+03 -0.13088267986E+04  0.13475667566E+04  0.12699999809E+01 0.  1.
       -4    1    3    3    0  502  0.61375919699E+02 -0.31486498442E+03  0.82927827744E+03  0.88916311005E+03  0.12699999809E+01 0. -1.
</event>
<event>
 5   0  0.4029532E-05  0.2181837E+04  0.7818609E-02  0.8526026E-01
       -2   -1    0    0    0  501  0.00000000000E+00  0.00000000000E+00  0.55276920613E+03  0.55276920614E+03  0.25500000920E-02 0.  1.
        2   -1    0    0  501    0  0.00000000000E+00  0.00000000000E+00 -0.21529837409E+04  0.21529837409E+04  0.25500000920E-02 0. -1.
    10030    2    1    2    0    0  0.00000000000E+00  0.00000000000E+00 -0.16002145348E+04  0.27057529470E+04  0.21818369447E+04 0.  0.
        3    1    3    3  502    0  0.50941176567E+03 -0.43133328847E+02  0.39501807428E+03  0.64606510529E+03  0.10100000352E+00 0.  1.
       -3    1    3    3    0  502 -0.50941176567E+03  0.43133328847E+02 -0.19952326091E+04  0.20596878418E+04  0.10100000352E+00 0. -1.
</event>
<event>
 5   0  0.1786228E-05  0.2180205E+04  0.7818609E-02  0.8526713E-01
        1   -1    0    0  501    0  0.00000000000E+00  0.00000000000E+00  0.14014132325E+04  0.14014132325E+04  0.50400001928E-02 0.  1.
       -1   -1    0    0    0  501  0.00000000000E+00  0.00000000000E+00 -0.84794649829E+03  0.84794649831E+03  0.50400001928E-02 0. -1.
    10030    2    1    2    0    0  0.00000000000E+00  0.00000000000E+00  0.55346673419E+03  0.22493597308E+04  0.21802049841E+04 0.  0.
        5    1    3    3  502    0  0.77607878115E+03  0.16226734921E+03 -0.49510884689E+03  0.93476404908E+03  0.46999998093E+01 0.  1.
       -5    1    3    3    0  502 -0.77607878115E+03 -0.16226734921E+03  0.10485755811E+04  0.13145956817E+04  0.46999998093E+01 0. -1.
</event>
<event>
 5   0  0.3963414E-05  0.2199512E+04  0.7818609E-02  0.8518631E-01
        2   -1    0    0  501    0  0.00000000000E+00  0.00000000000E+00  0.91402442047E+03  0.91402442048E+03  0.25500000920E-02 0.  1.
       -2   -1    0    0    0  501  0.00000000000E+00  0.00000000000E+00 -0.13232291001E+04  0.13232291001E+04  0.25500000920E-02 0. -1.
    10030    2    1    2    0    0  0.00000000000E+00  0.00000000000E+00 -0.40920467963E+03  0.22372535206E+04  0.21995124109E+04 0.  0.
        1    1    3    3  502    0  0.56446240358E+03  0.63832538098E+03  0.50258763151E+03  0.98927823408E+03  0.50400001928E-02 0.  1.
       -1    1    3    3    0  502 -0.56446240358E+03 -0.63832538098E+03 -0.91179231114E+03  0.12479752865E+04  0.50400001928E-02 0. -1.
</event>
<event>
 5   0  0.1788413E-05  0.1999515E+04  0.7818609E-02  0.8606847E-01
       -1   -1    0    0    0  501  0.00000000000E+00  0.00000000000E+00  0.50478088123E+03  0.50478088125E+03  0.50400001928E-02 0.  1.
        1   -1    0    0  501    0  0.00000000000E+00  0.00000000000E+00 -0.19800969774E+04  0.19800969774E+04  0.50400001928E-02 0. -1.
    10030    2    1    2    0    0  0.00000000000E+00  0.00000000000E+00 -0.14753160961E+04  0.24848778586E+04  0.19995150384E+04 0.  0.
        1    1    3    3  502    0 -0.42844096581E+03 -0.90329439337E+03 -0.73323366757E+03  0.12398120961E+04  0.50400001928E-02 0.  1.
       -1    1    3    3    0  502  0.42844096581E+03  0.90329439337E+03 -0.74208242858E+03  0.12450657626E+04  0.50400001928E-02 0. -1.
</event>
<event>
 5   0  0.4132460E-05  0.2224565E+04  0.7818609E-02  0.8508273E-01
       -2   -1    0    0    0  501  0.00000000000E+00  0.00000000000E+00  0.10119101257E+04  0.10119101257E+04  0.25500000920E-02 0.  1.
        2   -1    0    0  501    0  0.00000000000E+00  0.00000000000E+00 -0.12226105213E+04  0.12226105213E+04  0.25500000920E-02 0. -1.
    10030    2    1    2    0    0  0.00000000000E+00  0.00000000000E+00 -0.21070039555E+03  0.22345206470E+04  0.22245646462E+04 0.  0.
        4    1    3    3  502    0  0.23733849474E+02  0.11091531009E+04 -0.18562316667E+03  0.11248295291E+04  0.12699999809E+01 0. -1.
       -4    1    3    3    0  502 -0.23733849474E+02 -0.11091531009E+04 -0.25077228884E+02  0.11096911179E+04  0.12699999809E+01 0.  1.
</event>
<event>
 5   0  0.4132460E-05  0.1984581E+04  0.7818609E-02  0.8613864E-01
       -2   -1    0    0    0  501  0.00000000000E+00  0.00000000000E+00  0.41409705340E+03  0.41409705340E+03  0.25500000920E-02 0.  1.
        2   -1    0    0  501    0  0.00000000000E+00  0.00000000000E+00 -0.23778009176E+04  0.23778009176E+04  0.25500000920E-02 0. -1.
    10030    2    1    2    0    0  0.00000000000E+00  0.00000000000E+00 -0.19637038642E+04  0.27918979710E+04  0.19845809165E+04 0.  0.
        4    1    3    3  502    0  0.16123208691E+03  0.75742692005E+03 -0.18546854921E+04  0.20098634810E+04  0.12699999809E+01 0. -1.
       -4    1    3    3    0  502 -0.16123208691E+03 -0.75742692005E+03 -0.10901837209E+03  0.78203448991E+03  0.12699999809E+01 0.  1.
</event>
<event>
 5   0  0.1433375E-05  0.2188442E+04  0.7818609E-02  0.8523254E-01
       -3   -1    0    0    0  501  0.00000000000E+00  0.00000000000E+00  0.63318716100E+03  0.63318716905E+03  0.10100000352E+00 0.  1.
        3   -1    0    0  501    0  0.00000000000E+00  0.00000000000E+00 -0.18909414053E+04  0.18909414080E+04  0.10100000352E+00 0. -1.
    10030    2    1    2    0    0  0.00000000000E+00  0.00000000000E+00 -0.12577542443E+04  0.25241285771E+04  0.21884422164E+04 0.  0.
        1    1    3    3  502    0  0.26775345285E+03  0.10329087686E+04 -0.90838674819E+03  0.14013418284E+04  0.50400001928E-02 0.  1.
       -1    1    3    3    0  502 -0.26775345285E+03 -0.10329087686E+04 -0.34936749614E+03  0.11227867487E+04  0.50400001928E-02 0. -1.
</event>
<event>
 5   0  0.4132460E-05  0.2169720E+04  0.7818609E-02  0.8531138E-01
       -2   -1    0    0    0  501  0.00000000000E+00  0.00000000000E+00  0.73929629335E+03  0.73929629336E+03  0.25500000920E-02 0.  1.
        2   -1    0    0  501    0  0.00000000000E+00  0.00000000000E+00 -0.15919482114E+04  0.15919482114E+04  0.25500000920E-02 0. -1.
    10030    2    1    2    0    0  0.00000000000E+00  0.00000000000E+00 -0.85265191803E+03  0.23312445047E+04  0.21697201773E+04 0.  0.
        4    1    3    3  502    0  0.84863379981E+03  0.63011401202E+03 -0.16380762436E+03  0.10696062570E+04  0.12699999809E+01 0. -1.
       -4    1    3    3    0  502 -0.84863379981E+03 -0.63011401202E+03 -0.68884429367E+03  0.12616382477E+04  0.12699999809E+01 0.  1.
</event>
<event>
 5   0  0.3963414E-05  0.2178293E+04  0.7818609E-02  0.8527518E-01
        2   -1    0    0  501    0  0.00000000000E+00  0.00000000000E+00  0.11342044693E+04  0.11342044693E+04  0.25500000920E-02 0.  1.
       -2   -1    0    0    0  501  0.00000000000E+00  0.00000000000E+00 -0.10458788737E+04  0.10458788737E+04  0.25500000920E-02 0. -1.
    10030    2    1    2    0    0  0.00000000000E+00  0.00000000000E+00  0.88325595572E+02  0.21800833430E+04  0.21782933622E+04 0.  0.
        1    1    3    3  502    0 -0.44042392954E+03 -0.59096747619E+03  0.84670994521E+03  0.11225566921E+04  0.50400001928E-02 0.  1.
       -1    1    3    3    0  502  0.44042392954E+03  0.59096747619E+03 -0.75838434964E+03  0.10575266509E+04  0.50400001928E-02 0. -1.
</event>
<event>
 5   0  0.1866935E-05  0.2223959E+04  0.7818609E-02  0.8508521E-01
       -1   -1    0    0    0  501  0.00000000000E+00  0.00000000000E+00  0.16688575884E+04  0.16688575884E+04  0.50400001928E-02 0. -1.
        1   -1    0    0  501    0  0.00000000000E+00  0.00000000000E+00 -0.74092528504E+03  0.74092528506E+03  0.50400001928E-02 0.  1.
    10030    2    1    2    0    0  0.00000000000E+00  0.00000000000E+00  0.92793230339E+03  0.24097828735E+04  0.22239593382E+04 0.  0.
        4    1    3    3  502    0 -0.10074288739E+04  0.26983386862E+03  0.88190666560E+03  0.13658273070E+04  0.12699999809E+01 0. -1.
       -4    1    3    3    0  502  0.10074288739E+04 -0.26983386862E+03  0.46025637796E+02  0.10439555666E+04  0.12699999809E+01 0.  1.
</event>
<event>
 5   0  0.1433375E-05  0.2193572E+04  0.7818609E-02  0.8521109E-01
       -3   -1    0    0    0  501  0.00000000000E+00  0.00000000000E+00  0.15392898344E+04  0.15392898377E+04  0.10100000352E+00 0. -1.
        3   -1    0    0  501    0  0.00000000000E+00  0.00000000000E+00 -0.78148959828E+03  0.78148960481E+03  0.10100000352E+00 0.  1.
    10030    2    1    2    0    0  0.00000000000E+00  0.00000000000E+00  0.75780023613E+03  0.23207794425E+04  0.21935715222E+04 0.  0.
        3    1    3    3  502    0  0.50858272117E+03  0.91948693466E+03  0.71149727418E+03  0.12689921153E+04  0.10100000352E+00 0.  1.
       -3    1    3    3    0  502 -0.50858272117E+03 -0.91948693466E+03  0.46302961949E+02  0.10517873273E+04  0.10100000352E+00 0. -1.
</event>
<event>
 5   0  0.1786228E-05  0.2179790E+04  0.7818609E-02  0.8526887E-01
        1   -1    0    0  501    0  0.00000000000E+00  0.00000000000E+00  0.10193966352E+04  0.10193966352E+04  0.50400001928E-02 0. -1.
       -1   -1    0    0    0  501  0.00000000000E+00  0.00000000000E+00 -0.11652685531E+04  0.11652685531E+04  0.50400001928E-02 0.  1.
    10030    2    1    2    0    0  0.00000000000E+00  0.00000000000E+00 -0.14587191782E+03  0.21846651883E+04  0.21797897533E+04 0.  0.
        5    1    3    3  502    0 -0.12955430429E+03  0.80887084875E+03  0.64755466633E+03  0.10442248338E+04  0.46999998093E+01 0. -1.
       -5    1    3    3    0  502  0.12955430429E+03 -0.80887084875E+03 -0.79342658415E+03  0.11404403545E+04  0.46999998093E+01 0.  1.
</event>
<event>
 5   0  0.4132460E-05  0.2197606E+04  0.7818609E-02  0.8519425E-01
        2   -1    0    0  501    0  0.00000000000E+00  0.00000000000E+00  0.15109562708E+04  0.15109562708E+04  0.25500000920E-02 0. -1.
       -2   -1    0    0    0  501  0.00000000000E+00  0.00000000000E+00 -0.79907546011E+03  0.79907546011E+03  0.25500000920E-02 0.  1.
    10030    2    1    2    0    0  0.00000000000E+00  0.00000000000E+00  0.71188081066E+03  0.23100317309E+04  0.21976060405E+04 0.  0.
        4    1    3    3  502    0  0.22287320564E+03  0.29863271097E+03  0.14425109040E+04  0.14898635115E+04  0.12699999809E+01 0. -1.
       -4    1    3    3    0  502 -0.22287320564E+03 -0.29863271097E+03 -0.73063009335E+03  0.82016821937E+03  0.12699999809E+01 0.  1.
</event>
<event>
 5   0  0.3963414E-05  0.2204812E+04  0.7818609E-02  0.8516428E-01
        2   -1    0    0  501    0  0.00000000000E+00  0.00000000000E+00  0.14786540575E+04  0.14786540575E+04  0.25500000920E-02 0. -1.
       -2   -1    0    0    0  501  0.00000000000E+00  0.00000000000E+00 -0.82189574703E+03  0.82189574703E+03  0.25500000920E-02 0.  1.
    10030    2    1    2    0    0  0.00000000000E+00  0.00000000000E+00  0.65675831048E+03  0.23005498045E+04  0.22048124466E+04 0.  0.
        1    1    3    3  502    0 -0.50885650814E+03  0.80385186525E+03 -0.25274855397E+03  0.98437523267E+03  0.50400001928E-02 0. -1.
       -1    1    3    3    0  502  0.50885650814E+03 -0.80385186525E+03  0.90950686445E+03  0.13161745719E+04  0.50400001928E-02 0.  1.
</event>
<event>
 5   0  0.4143281E-05  0.2197903E+04  0.7818609E-02  0.8519301E-01
       -2   -1    0    0    0  501  0.00000000000E+00  0.00000000000E+00  0.15845582064E+04  0.15845582064E+04  0.25500000920E-02 0.  1.
        2   -1    0    0  501    0  0.00000000000E+00  0.00000000000E+00 -0.76216505949E+03  0.76216505949E+03  0.25500000920E-02 0. -1.
    10030    2    1    2    0    0  0.00000000000E+00  0.00000000000E+00  0.82239314694E+03  0.23467232659E+04  0.21979034553E+04 0.  0.
        2    1    3    3  502    0  0.49560695278E+03  0.59693444582E+03  0.12421862846E+04  0.14645763039E+04  0.25500000920E-02 0.  1.
       -2    1    3    3    0  502 -0.49560695278E+03 -0.59693444582E+03 -0.41979313764E+03  0.88214696205E+03  0.25500000920E-02 0. -1.
</event>
<event>
 5   0  0.4027923E-05  0.2208276E+04  0.7818609E-02  0.8514991E-01
       -2   -1    0    0    0  501  0.00000000000E+00  0.00000000000E+00  0.40665589526E+03  0.40665589526E+03  0.25500000920E-02 0. -1.
        2   -1    0    0  501    0  0.00000000000E+00  0.00000000000E+00 -0.29979167646E+04  0.29979167646E+04  0.25500000920E-02 0.  1.
    10030    2    1    2    0    0  0.00000000000E+00  0.00000000000E+00 -0.25912608693E+04  0.34045726598E+04  0.22082758214E+04 0.  0.
        5    1    3    3  502    0  0.10855160208E+04 -0.19994988136E+03 -0.12527533547E+04  0.16696520728E+04  0.46999998093E+01 0.  1.
       -5    1    3    3    0  502 -0.10855160208E+04  0.19994988136E+03 -0.13385075146E+04  0.17349205870E+04  0.46999998093E+01 0. -1.
</event>
<event>
 5   0  0.4143281E-05  0.2197779E+04  0.7818609E-02  0.8519353E-01
        2   -1    0    0  501    0  0.00000000000E+00  0.00000000000E+00  0.21042559671E+04  0.21042559671E+04  0.25500000920E-02 0.  1.
       -2   -1    0    0    0  501  0.00000000000E+00  0.00000000000E+00 -0.57386448769E+03  0.57386448769E+03  0.25500000920E-02 0. -1.
    10030    2    1    2    0    0  0.00000000000E+00  0.00000000000E+00  0.15303914794E+04  0.26781204548E+04  0.21977786718E+04 0.  0.
        2    1    3    3  502    0 -0.71096394565E+03 -0.80952633756E+03  0.10286837610E+04  0.14896284447E+04  0.25500000920E-02 0. -1.
       -2    1    3    3    0  502  0.71096394565E+03  0.80952633756E+03  0.50170771838E+03  0.11884920100E+04  0.25500000920E-02 0.  1.
</event>
<event>
 5   0  0.1884407E-05  0.2204250E+04  0.7818609E-02  0.8516661E-01
        1   -1    0    0  501    0  0.00000000000E+00  0.00000000000E+00  0.11533025099E+04  0.11533025099E+04  0.50400001928E-02 0.  1.
       -1   -1    0    0    0  501  0.00000000000E+00  0.00000000000E+00 -0.10532184611E+04  0.10532184611E+04  0.50400001928E-02 0. -1.
    10030    2    1    2    0    0  0.00000000000E+00  0.00000000000E+00  0.10008404884E+03  0.22065209710E+04  0.22042499810E+04 0.  0.
        3    1    3    3  502    0  0.70655109195E+03 -0.83551414207E+03 -0.81931422444E+02  0.10972743938E+04  0.10100000352E+00 0.  1.
       -3    1    3    3    0  502 -0.70655109195E+03  0.83551414207E+03  0.18201547129E+03  0.11092465772E+04  0.10100000352E+00 0. -1.
</event>
<event>
 5   0  0.3963414E-05  0.2073497E+04  0.7818609E-02  0.8573009E-01
        2   -1    0    0  501    0  0.00000000000E+00  0.00000000000E+00  0.24042573617E+04  0.24042573617E+04  0.25500000920E-02 0.  1.
       -2   -1    0    0    0  501  0.00000000000E+00  0.00000000000E+00 -0.44705992801E+03  0.44705992802E+03  0.25500000920E-02 0. -1.
    10030    2    1    2    0    0  0.00000000000E+00  0.00000000000E+00  0.19571974337E+04  0.28513172897E+04  0.20734966825E+04 0.  0.
        1    1    3    3  502    0 -0.87338151206E+03 -0.42203376751E+03  0.47533420507E+03  0.10802084859E+04  0.50400001928E-02 0. -1.
       -1    1    3    3    0  502  0.87338151206E+03  0.42203376751E+03  0.14818632286E+04  0.17711088038E+04  0.50400001928E-02 0.  1.
</event>
<event>
 5   0  0.1815681E-05  0.2194272E+04  0.7818609E-02  0.8520816E-01
       -1   -1    0    0    0  501  0.00000000000E+00  0.00000000000E+00  0.75474080629E+03  0.75474080631E+03  0.50400001928E-02 0.  1.
        1   -1    0    0  501    0  0.00000000000E+00  0.00000000000E+00 -0.15948614553E+04  0.15948614553E+04  0.50400001928E-02 0. -1.
    10030    2    1    2    0    0  0.00000000000E+00  0.00000000000E+00 -0.84012064897E+03  0.23496022616E+04  0.21942716520E+04 0.  0.
        2    1    3    3  502    0  0.18414563503E+03  0.10213875980E+04 -0.39116976580E+02  0.10385915357E+04  0.25500000920E-02 0.  1.
       -2    1    3    3    0  502 -0.18414563503E+03 -0.10213875980E+04 -0.80100367239E+03  0.13110107259E+04  0.25500000920E-02 0. -1.
</event>
<event>
 5   0  0.1866935E-05  0.2214880E+04  0.7818609E-02  0.8512260E-01
       -1   -1    0    0    0  501  0.00000000000E+00  0.00000000000E+00  0.10428558059E+04  0.10428558059E+04  0.50400001928E-02 0. -1.
        1   -1    0    0  501    0  0.00000000000E+00  0.00000000000E+00 -0.11760235060E+04  0.11760235060E+04  0.50400001928E-02 0.  1.
    10030    2    1    2    0    0  0.00000000000E+00  0.00000000000E+00 -0.13316770006E+03  0.22188793119E+04  0.22148796275E+04 0.  0.
        4    1    3    3  502    0 -0.75714880409E+03  0.38274751656E+03  0.64649598734E+03  0.10666436366E+04  0.12699999809E+01 0. -1.
       -4    1    3    3    0  502  0.75714880409E+03 -0.38274751656E+03 -0.77966368741E+03  0.11522356753E+04  0.12699999809E+01 0.  1.
</event>
<event>
 5   0  0.4029532E-05  0.2198342E+04  0.7818609E-02  0.8519119E-01
        2   -1    0    0  501    0  0.00000000000E+00  0.00000000000E+00  0.13243892082E+04  0.13243892082E+04  0.25500000920E-02 0. -1.
       -2   -1    0    0    0  501  0.00000000000E+00  0.00000000000E+00 -0.91225209679E+03  0.91225209679E+03  0.25500000920E-02 0.  1.
    10030    2    1    2    0    0  0.00000000000E+00  0.00000000000E+00  0.41213711139E+03  0.22366413050E+04  0.21983419499E+04 0.  0.
        3    1    3    3  502    0 -0.16871669153E+02 -0.77719777974E+03 -0.58455128225E+03  0.97263623921E+03  0.10100000352E+00 0.  1.
       -3    1    3    3    0  502  0.16871669153E+02  0.77719777974E+03  0.99668839364E+03  0.12640050658E+04  0.10100000352E+00 0. -1.
</event>
<event>
 5   0  0.4027923E-05  0.2202268E+04  0.7818609E-02  0.8517485E-01
        2   -1    0    0  501    0  0.00000000000E+00  0.00000000000E+00  0.13107297082E+04  0.13107297082E+04  0.25500000920E-02 0. -1.
       -2   -1    0    0    0  501  0.00000000000E+00  0.00000000000E+00 -0.92505464107E+03  0.92505464108E+03  0.25500000920E-02 0.  1.
    10030    2    1    2    0    0  0.00000000000E+00  0.00000000000E+00  0.38567506716E+03  0.22357843493E+04  0.22022684666E+04 0.  0.
        5    1    3    3  502    0 -0.61765178615E+03 -0.88032440730E+03  0.43310299650E+03  0.11593382106E+04  0.46999998093E+01 0. -1.
       -5    1    3    3    0  502  0.61765178615E+03  0.88032440730E+03 -0.47427929344E+02  0.10764461387E+04  0.46999998093E+01 0.  1.
</event>
<event>
 5   0  0.1433375E-05  0.2207273E+04  0.7818609E-02  0.8515407E-01
       -3   -1    0    0    0  501  0.00000000000E+00  0.00000000000E+00  0.87149368450E+03  0.87149369035E+03  0.10100000352E+00 0. -1.
        3   -1    0    0  501    0  0.00000000000E+00  0.00000000000E+00 -0.13976162348E+04  0.13976162384E+04  0.10100000352E+00 0.  1.
    10030    2    1    2    0    0  0.00000000000E+00  0.00000000000E+00 -0.52612255027E+03  0.22691099288E+04  0.22072731890E+04 0.  0.
        3    1    3    3  502    0  0.65602793371E+03  0.22199537880E+03 -0.11464122062E+04  0.13393713282E+04  0.10100000352E+00 0.  1.
       -3    1    3    3    0  502 -0.65602793371E+03 -0.22199537880E+03  0.62028965592E+03  0.92973860061E+03  0.10100000352E+00 0. -1.
</event>
<event>
 5   0  0.4027923E-05  0.2237487E+04  0.7818609E-02  0.8502985E-01
       -2   -1    0    0    0  501  0.00000000000E+00  0.00000000000E+00  0.95956425981E+03  0.95956425982E+03  0.25500000920E-02 0. -1.
        2   -1    0    0  501    0  0.00000000000E+00  0.00000000000E+00 -0.13043289649E+04  0.13043289649E+04  0.25500000920E-02 0.  1.
    10030    2    1    2    0    0  0.00000000000E+00  0.00000000000E+00 -0.34476470505E+03  0.22638932247E+04  0.22374873923E+04 0.  0.
        5    1    3    3  502    0  0.26217411965E+03 -0.59291427136E+02  0.92639622899E+03  0.96461536657E+03  0.46999998093E+01 0. -1.
       -5    1    3    3    0  502 -0.26217411965E+03  0.59291427136E+02 -0.12711609340E+04  0.12992778581E+04  0.46999998093E+01 0.  1.
</event>
<event>
 5   0  0.3963414E-05  0.2195358E+04  0.7818609E-02  0.8520363E-01
        2   -1    0    0  501    0  0.00000000000E+00  0.00000000000E+00  0.12314292086E+04  0.12314292086E+04  0.25500000920E-02 0.  1.
       -2   -1    0    0    0  501  0.00000000000E+00  0.00000000000E+00 -0.97845605899E+03  0.97845605899E+03  0.25500000920E-02 0. -1.
    10030    2    1    2    0    0  0.00000000000E+00  0.00000000000E+00  0.25297314959E+03  0.22098852676E+04  0.21953581670E+04 0.  0.
        1    1    3    3  502    0 -0.10279085609E+04 -0.22791728284E+02 -0.26048396285E+03  0.10606447885E+04  0.50400001928E-02 0. -1.
       -1    1    3    3    0  502  0.10279085609E+04  0.22791728284E+02  0.51345711244E+03  0.11492404791E+04  0.50400001928E-02 0.  1.
</event>
<event>
 5   0  0.1866935E-05  0.2207885E+04  0.7818609E-02  0.8515153E-01
       -1   -1    0    0    0  501  0.00000000000E+00  0.00000000000E+00  0.10715185876E+04  0.10715185876E+04  0.50400001928E-02 0.  1.
        1   -1    0    0  501    0  0.00000000000E+00  0.00000000000E+00 -0.11373472921E+04  0.11373472921E+04  0.50400001928E-02 0. -1.
    10030    2    1    2    0    0  0.00000000000E+00  0.00000000000E+00 -0.65828704558E+02  0.22088658797E+04  0.22078847470E+04 0.  0.
        4    1    3    3  502    0  0.98705262299E+03 -0.33132773136E+03  0.33417676722E+03  0.10934928764E+04  0.12699999809E+01 0.  1.
       -4    1    3    3    0  502 -0.98705262299E+03  0.33132773136E+03 -0.40000547178E+03  0.11153730033E+04  0.12699999809E+01 0. -1.
</event>
<event>
 5   0  0.1786228E-05  0.1972297E+04  0.7818609E-02  0.8619684E-01
        1   -1    0    0  501    0  0.00000000000E+00  0.00000000000E+00  0.69231833850E+03  0.69231833852E+03  0.50400001928E-02 0.  1.
       -1   -1    0    0    0  501  0.00000000000E+00  0.00000000000E+00 -0.14046838550E+04  0.14046838550E+04  0.50400001928E-02 0. -1.
    10030    2    1    2    0    0  0.00000000000E+00  0.00000000000E+00 -0.71236551651E+03  0.20970021935E+04  0.19722965220E+04 0.  0.
        5    1    3    3  502    0  0.25679574981E+03  0.59834756834E+03 -0.11436200076E+04  0.13159987392E+04  0.46999998093E+01 0. -1.
       -5    1    3    3    0  502 -0.25679574981E+03 -0.59834756834E+03  0.43125449110E+03  0.78100345438E+03  0.46999998093E+01 0.  1.
</event>
<event>
 5   0  0.4027923E-05  0.2280213E+04  0.7818609E-02  0.8485764E-01
        2   -1    0    0  501    0  0.00000000000E+00  0.00000000000E+00  0.18603786042E+04  0.18603786042E+04  0.25500000920E-02 0. -1.
       -2   -1    0    0    0  501  0.00000000000E+00  0.00000000000E+00 -0.69869794968E+03  0.69869794969E+03  0.25500000920E-02 0.  1.
    10030    2    1    2    0    0  0.00000000000E+00  0.00000000000E+00  0.11616806545E+04  0.25590765539E+04  0.22802128992E+04 0.  0.
        5    1    3    3  502    0 -0.62144343493E+03 -0.73727776525E+03  0.12635533544E+04  0.15894526150E+04  0.46999998093E+01 0. -1.
       -5    1    3    3    0  502  0.62144343493E+03  0.73727776525E+03 -0.10187269984E+03  0.96962393892E+03  0.46999998093E+01 0.  1.
</event>
<event>
 5   0  0.4143281E-05  0.2215849E+04  0.7818609E-02  0.8511860E-01
       -2   -1    0    0    0  501  0.00000000000E+00  0.00000000000E+00  0.40090103476E+03  0.40090103477E+03  0.25500000920E-02 0. -1.
        2   -1    0    0  501    0  0.00000000000E+00  0.00000000000E+00 -0.30618440819E+04  0.30618440819E+04  0.25500000920E-02 0.  1.
    10030    2    1    2    0    0  0.00000000000E+00  0.00000000000E+00 -0.26609430471E+04  0.34627451166E+04  0.22158487861E+04 0.  0.
        2    1    3    3  502    0  0.38196580436E+03  0.12733092107E+03  0.28252629626E+03  0.49186598505E+03  0.25500000920E-02 0. -1.
       -2    1    3    3    0  502 -0.38196580436E+03 -0.12733092107E+03 -0.29434693434E+04  0.29708791316E+04  0.25500000920E-02 0.  1.
</event>
<event>
 5   0  0.4029532E-05  0.2182438E+04  0.7818609E-02  0.8525774E-01
       -2   -1    0    0    0  501  0.00000000000E+00  0.00000000000E+00  0.13218484390E+04  0.13218484390E+04  0.25500000920E-02 0.  1.
        2   -1    0    0  501    0  0.00000000000E+00  0.00000000000E+00 -0.90082866648E+03  0.90082866648E+03  0.25500000920E-02 0. -1.
    10030    2    1    2    0    0  0.00000000000E+00  0.00000000000E+00  0.42101977251E+03  0.22226771055E+04  0.21824380556E+04 0.  0.
        3    1    3    3  502    0 -0.31494977528E+03  0.63754200285E+02 -0.85155067546E+03  0.91016290964E+03  0.10100000352E+00 0. -1.
       -3    1    3    3    0  502  0.31494977528E+03 -0.63754200285E+02  0.12725704480E+04  0.13125141958E+04  0.10100000352E+00 0.  1.
</event>
<event>
 5   0  0.1788413E-05  0.2199765E+04  0.7818609E-02  0.8518526E-01
       -1   -1    0    0    0  501  0.00000000000E+00  0.00000000000E+00  0.10456363406E+04  0.10456363406E+04  0.50400001928E-02 0.  1.
        1   -1    0    0  501    0  0.00000000000E+00  0.00000000000E+00 -0.11569426648E+04  0.11569426648E+04  0.50400001928E-02 0. -1.
    10030    2    1    2    0    0  0.00000000000E+00  0.00000000000E+00 -0.11130632420E+03  0.22025790055E+04  0.21997648005E+04 0.  0.
        1    1    3    3  502    0  0.10442474041E+04 -0.31569953975E+03  0.84606215501E+02  0.10942015591E+04  0.50400001928E-02 0.  1.
       -1    1    3    3    0  502 -0.10442474041E+04  0.31569953975E+03 -0.19591253970E+03  0.11083774463E+04  0.50400001928E-02 0. -1.
</event>
<event>
 5   0  0.4029532E-05  0.2211307E+04  0.7818609E-02  0.8513736E-01
        2   -1    0    0  501    0  0.00000000000E+00  0.00000000000E+00  0.22815900452E+04  0.22815900452E+04  0.25500000920E-02 0.  1.
       -2   -1    0    0    0  501  0.00000000000E+00  0.00000000000E+00 -0.53579735899E+03  0.53579735900E+03  0.25500000920E-02 0. -1.
    10030    2    1    2    0    0  0.00000000000E+00  0.00000000000E+00  0.17457926862E+04  0.28173874042E+04  0.22113072338E+04 0.  0.
        3    1    3    3  502    0  0.11736424146E+03 -0.10157887228E+04  0.14087215199E+04  0.17407175031E+04  0.10100000352E+00 0.  1.
       -3    1    3    3    0  502 -0.11736424146E+03  0.10157887228E+04  0.33707116626E+03  0.10766699011E+04  0.10100000352E+00 0. -1.
</event>
<event>
 5   0  0.4027923E-05  0.2209695E+04  0.7818609E-02  0.8514404E-01
       -2   -1    0    0    0  501  0.00000000000E+00  0.00000000000E+00  0.22857202221E+04  0.22857202221E+04  0.25500000920E-02 0.  1.
        2   -1    0    0  501    0  0.00000000000E+00  0.00000000000E+00 -0.53404969857E+03  0.53404969857E+03  0.25500000920E-02 0. -1.
    10030    2    1    2    0    0  0.00000000000E+00  0.00000000000E+00  0.17516705235E+04  0.28197699207E+04  0.22096951786E+04 0.  0.
        5    1    3    3  502    0 -0.21219016809E+03  0.14460377671E+02 -0.50766779266E+03  0.55043841405E+03  0.46999998093E+01 0. -1.
       -5    1    3    3    0  502  0.21219016809E+03 -0.14460377671E+02  0.22593383162E+04  0.22693315066E+04  0.46999998093E+01 0.  1.
</event>
<event>
 5   0  0.1788413E-05  0.2225584E+04  0.7818609E-02  0.8507854E-01
       -1   -1    0    0    0  501  0.00000000000E+00  0.00000000000E+00  0.13140153773E+04  0.13140153773E+04  0.50400001928E-02 0. -1.
        1   -1    0    0  501    0  0.00000000000E+00  0.00000000000E+00 -0.94238344078E+03  0.94238344079E+03  0.50400001928E-02 0.  1.
    10030    2    1    2    0    0  0.00000000000E+00  0.00000000000E+00  0.37163193648E+03  0.22563988181E+04  0.22255842671E+04 0.  0.
        1    1    3    3  502    0 -0.48740748215E+03  0.99498234589E+03  0.29093572278E+03  0.11455127747E+04  0.50400001928E-02 0. -1.
       -1    1    3    3    0  502  0.48740748215E+03 -0.99498234589E+03  0.80696213702E+02  0.11108860433E+04  0.50400001928E-02 0.  1.
</event>
<event>
 5   0  0.1815681E-05  0.2209038E+04  0.7818609E-02  0.8514676E-01
       -1   -1    0    0    0  501  0.00000000000E+00  0.00000000000E+00  0.15356893946E+04  0.15356893946E+04  0.50400001928E-02 0.  1.
        1   -1    0    0  501    0  0.00000000000E+00  0.00000000000E+00 -0.79440652528E+03  0.79440652530E+03  0.50400001928E-02 0. -1.
    10030    2    1    2    0    0  0.00000000000E+00  0.00000000000E+00  0.74128286933E+03  0.23300959199E+04  0.22090375062E+04 0.  0.
        2    1    3    3  502    0 -0.82168329260E+03  0.41115412134E+03  0.10172188210E+04  0.13707462474E+04  0.25500000920E-02 0. -1.
       -2    1    3    3    0  502  0.82168329260E+03 -0.41115412134E+03 -0.27593595167E+03  0.95934967257E+03  0.25500000920E-02 0.  1.
</event>
<event>
 5   0  0.4132460E-05  0.2197159E+04  0.7818609E-02  0.8519612E-01
       -2   -1    0    0    0  501  0.00000000000E+00  0.00000000000E+00  0.14937601912E+04  0.14937601912E+04  0.25500000920E-02 0. -1.
        2   -1    0    0  501    0  0.00000000000E+00  0.00000000000E+00 -0.80794522116E+03  0.80794522117E+03  0.25500000920E-02 0.  1.
    10030    2    1    2    0    0  0.00000000000E+00  0.00000000000E+00  0.68581497002E+03  0.23017054124E+04  0.21971585360E+04 0.  0.
        4    1    3    3  502    0  0.65588630566E+03 -0.82131952944E+03  0.67767891113E+03  0.12506010295E+04  0.12699999809E+01 0. -1.
       -4    1    3    3    0  502 -0.65588630566E+03  0.82131952944E+03  0.81360588878E+01  0.10511043829E+04  0.12699999809E+01 0.  1.
</event>
<event>
 5   0  0.4132460E-05  0.2207203E+04  0.7818609E-02  0.8515436E-01
       -2   -1    0    0    0  501  0.00000000000E+00  0.00000000000E+00  0.10146991100E+04  0.10146991100E+04  0.25500000920E-02 0.  1.
        2   -1    0    0  501    0  0.00000000000E+00  0.00000000000E+00 -0.12002934802E+04  0.12002934802E+04  0.25500000920E-02 0. -1.
    10030    2    1    2    0    0  0.00000000000E+00  0.00000000000E+00 -0.18559437021E+03  0.22149925902E+04  0.22072034126E+04 0.  0.
        4    1    3    3  502    0 -0.28062647424E+03  0.34430474548E+02 -0.11633318918E+04  0.11971964664E+04  0.12699999809E+01 0. -1.
       -4    1    3    3    0  502  0.28062647424E+03 -0.34430474548E+02  0.97773752164E+03  0.10177961239E+04  0.12699999809E+01 0.  1.
</event>
<event>
 5   0  0.4143281E-05  0.2190859E+04  0.7818609E-02  0.8522242E-01
        2   -1    0    0  501    0  0.00000000000E+00  0.00000000000E+00  0.11998968265E+04  0.11998968265E+04  0.25500000920E-02 0.  1.
       -2   -1    0    0    0  501  0.00000000000E+00  0.00000000000E+00 -0.10000573664E+04  0.10000573664E+04  0.25500000920E-02 0. -1.
    10030    2    1    2    0    0  0.00000000000E+00  0.00000000000E+00  0.19983946013E+03  0.21999541929E+04  0.21908588821E+04 0.  0.
        2    1    3    3  502    0  0.84301442320E+03  0.26315096159E+03 -0.55087882763E+03  0.10408598508E+04  0.25500000920E-02 0. -1.
       -2    1    3    3    0  502 -0.84301442320E+03 -0.26315096159E+03  0.75071828775E+03  0.11590943421E+04  0.25500000920E-02 0.  1.
</event>
<event>
 5   0  0.3963414E-05  0.2203552E+04  0.7818609E-02  0.8516951E-01
       -2   -1    0    0    0  501  0.00000000000E+00  0.00000000000E+00  0.50009767869E+03  0.50009767869E+03  0.25500000920E-02 0.  1.
        2   -1    0    0  501    0  0.00000000000E+00  0.00000000000E+00 -0.24273469037E+04  0.24273469037E+04  0.25500000920E-02 0. -1.
    10030    2    1    2    0    0  0.00000000000E+00  0.00000000000E+00 -0.19272492250E+04  0.29274445824E+04  0.22035521795E+04 0.  0.
        1    1    3    3  502    0 -0.24458792554E+03  0.85416597234E+03 -0.18291861407E+04  0.20335546954E+04  0.50400001928E-02 0. -1.
       -1    1    3    3    0  502  0.24458792554E+03 -0.85416597234E+03 -0.98063084306E+02  0.89388988704E+03  0.50400001928E-02 0.  1.
</event>
<event>
 5   0  0.4132460E-05  0.2247283E+04  0.7818609E-02  0.8499002E-01
       -2   -1    0    0    0  501  0.00000000000E+00  0.00000000000E+00  0.13387467163E+04  0.13387467163E+04  0.25500000920E-02 0.  1.
        2   -1    0    0  501    0  0.00000000000E+00  0.00000000000E+00 -0.94309861457E+03  0.94309861457E+03  0.25500000920E-02 0. -1.
    10030    2    1    2    0    0  0.00000000000E+00  0.00000000000E+00  0.39564810172E+03  0.22818453309E+04  0.22472829580E+04 0.  0.
        4    1    3    3  502    0  0.11149448762E+03  0.74194233589E+03  0.10471447171E+04  0.12881859811E+04  0.12699999809E+01 0.  1.
       -4    1    3    3    0  502 -0.11149448762E+03 -0.74194233589E+03 -0.65149661537E+03  0.99365934972E+03  0.12699999809E+01 0. -1.
</event>
<event>
 5   0  0.4029532E-05  0.2200443E+04  0.7818609E-02  0.8518244E-01
       -2   -1    0    0    0  501  0.00000000000E+00  0.00000000000E+00  0.51844066810E+03  0.51844066811E+03  0.25500000920E-02 0. -1.
        2   -1    0    0  501    0  0.00000000000E+00  0.00000000000E+00 -0.23348623652E+04  0.23348623652E+04  0.25500000920E-02 0.  1.
    10030    2    1    2    0    0  0.00000000000E+00  0.00000000000E+00 -0.18164216971E+04  0.28533030333E+04  0.22004432322E+04 0.  0.
        3    1    3    3  502    0  0.48426971952E+03  0.97185509834E+03 -0.11382347665E+04  0.15730854673E+04  0.10100000352E+00 0. -1.
       -3    1    3    3    0  502 -0.48426971952E+03 -0.97185509834E+03 -0.67818693064E+03  0.12802175661E+04  0.10100000352E+00 0.  1.
</event>
<event>
 5   0  0.1788413E-05  0.2214798E+04  0.7818609E-02  0.8512294E-01
       -1   -1    0    0    0  501  0.00000000000E+00  0.00000000000E+00  0.13550259188E+04  0.13550259188E+04  0.50400001928E-02 0. -1.
        1   -1    0    0  501    0  0.00000000000E+00  0.00000000000E+00 -0.90502495515E+03  0.90502495516E+03  0.50400001928E-02 0.  1.
    10030    2    1    2    0    0  0.00000000000E+00  0.00000000000E+00  0.45000096364E+03  0.22600508740E+04  0.22147977528E+04 0.  0.
        1    1    3    3  502    0 -0.52246184377E+03  0.80017797643E+03  0.79596952996E+03  0.12437116486E+04  0.50400001928E-02 0. -1.
       -1    1    3    3    0  502  0.52246184377E+03 -0.80017797643E+03 -0.34596856631E+03  0.10163392254E+04  0.50400001928E-02 0.  1.
</event>
<event>
 5   0  0.1884407E-05  0.2207886E+04  0.7818609E-02  0.8515153E-01
       -1   -1    0    0    0  501  0.00000000000E+00  0.00000000000E+00  0.16401961139E+04  0.16401961140E+04  0.50400001928E-02 0. -1.
        1   -1    0    0  501    0  0.00000000000E+00  0.00000000000E+00 -0.74301504125E+03  0.74301504127E+03  0.50400001928E-02 0.  1.
    10030    2    1    2    0    0  0.00000000000E+00  0.00000000000E+00  0.89718107269E+03  0.23832111552E+04  0.22078862138E+04 0.  0.
        3    1    3    3  502    0 -0.40664177917E+03  0.25675971787E+03 -0.62400009336E+03  0.78781927877E+03  0.10100000352E+00 0.  1.
       -3    1    3    3    0  502  0.40664177917E+03 -0.25675971787E+03  0.15211811661E+04  0.15953918765E+04  0.10100000352E+00 0. -1.
</event>
<event>
 5   0  0.1866935E-05  0.2262989E+04  0.7818609E-02  0.8492659E-01
       -1   -1    0    0    0  501  0.00000000000E+00  0.00000000000E+00  0.10501799681E+04  0.10501799681E+04  0.50400001928E-02 0. -1.
        1   -1    0    0  501    0  0.00000000000E+00  0.00000000000E+00 -0.12191046437E+04  0.12191046437E+04  0.50400001928E-02 0.  1.
    10030    2    1    2    0    0  0.00000000000E+00  0.00000000000E+00 -0.16892467555E+03  0.22692846118E+04  0.22629885337E+04 0.  0.
        4    1    3    3  502    0  0.92368038874E+02  0.10884445867E+02  0.10463395962E+04  0.10504658439E+04  0.12699999809E+01 0. -1.
       -4    1    3    3    0  502 -0.92368038874E+02 -0.10884445867E+02 -0.12152642718E+04  0.12188187679E+04  0.12699999809E+01 0.  1.
</event>
<event>
 5   0  0.1788413E-05  0.2034626E+04  0.7818609E-02  0.8590601E-01
       -1   -1    0    0    0  501  0.00000000000E+00  0.00000000000E+00  0.10215547914E+04  0.10215547914E+04  0.50400001928E-02 0.  1.
        1   -1    0    0  501    0  0.00000000000E+00  0.00000000000E+00 -0.10130885784E+04  0.10130885784E+04  0.50400001928E-02 0. -1.
    10030    2    1    2    0    0  0.00000000000E+00  0.00000000000E+00  0.84662129569E+01  0.20346433698E+04  0.20346257557E+04 0.  0.
        1    1    3    3  502    0  0.13924179109E+03 -0.25529645065E+03 -0.97063990693E+03  0.10132652086E+04  0.50400001928E-02 0. -1.
       -1    1    3    3    0  502 -0.13924179109E+03  0.25529645065E+03  0.97910611989E+03  0.10213781612E+04  0.50400001928E-02 0.  1.
</event>
<event>
 5   0  0.3963414E-05  0.2180164E+04  0.7818609E-02  0.8526730E-01
       -2   -1    0    0    0  501  0.00000000000E+00  0.00000000000E+00  0.95352230185E+03  0.95352230185E+03  0.25500000920E-02 0. -1.
        2   -1    0    0  501    0  0.00000000000E+00  0.00000000000E+00 -0.12461988352E+04  0.12461988352E+04  0.25500000920E-02 0.  1.
    10030    2    1    2    0    0  0.00000000000E+00  0.00000000000E+00 -0.29267653335E+03  0.21997211371E+04  0.21801636470E+04 0.  0.
        1    1    3    3  502    0 -0.82595775835E+03  0.64734669141E+03  0.15128998972E+03  0.10602606370E+04  0.50400001928E-02 0. -1.
       -1    1    3    3    0  502  0.82595775835E+03 -0.64734669141E+03 -0.44396652306E+03  0.11394605000E+04  0.50400001928E-02 0.  1.
</event>
<event>
 5   0  0.4132460E-05  0.2211656E+04  0.7818609E-02  0.8513592E-01
        2   -1    0    0  501    0  0.00000000000E+00  0.00000000000E+00  0.10188877767E+04  0.10188877767E+04  0.25500000920E-02 0.  1.
       -2   -1    0    0    0  501  0.00000000000E+00  0.00000000000E+00 -0.12001866010E+04  0.12001866010E+04  0.25500000920E-02 0. -1.
    10030    2    1    2    0    0  0.00000000000E+00  0.00000000000E+00 -0.18129882428E+03  0.22190743778E+04  0.22116559023E+04 0.  0.
        4    1    3    3  502    0 -0.81933903169E+03 -0.35268556710E+03  0.56511017890E+03  0.10559614980E+04  0.12699999809E+01 0.  1.
       -4    1    3    3    0  502  0.81933903169E+03  0.35268556710E+03 -0.74640900318E+03  0.11631128797E+04  0.12699999809E+01 0. -1.
</event>
<event>
 5   0  0.4143281E-05  0.2202752E+04  0.7818609E-02  0.8517283E-01
       -2   -1    0    0    0  501  0.00000000000E+00  0.00000000000E+00  0.92444390754E+03  0.92444390754E+03  0.25500000920E-02 0. -1.
        2   -1    0    0  501    0  0.00000000000E+00  0.00000000000E+00 -0.13121719627E+04  0.13121719627E+04  0.25500000920E-02 0.  1.
    10030    2    1    2    0    0  0.00000000000E+00  0.00000000000E+00 -0.38772805514E+03  0.22366158702E+04  0.22027522571E+04 0.  0.
        2    1    3    3  502    0 -0.38526464194E+03  0.28883232885E+03 -0.11996354650E+04  0.12926632227E+04  0.25500000920E-02 0.  1.
       -2    1    3    3    0  502  0.38526464194E+03 -0.28883232885E+03  0.81190740986E+03  0.94395264749E+03  0.25500000920E-02 0. -1.
</event>
<event>
 5   0  0.1786228E-05  0.2211118E+04  0.7818609E-02  0.8513815E-01
        1   -1    0    0  501    0  0.00000000000E+00  0.00000000000E+00  0.95248930081E+03  0.95248930082E+03  0.50400001928E-02 0.  1.
       -1   -1    0    0    0  501  0.00000000000E+00  0.00000000000E+00 -0.12832274736E+04  0.12832274736E+04  0.50400001928E-02 0. -1.
    10030    2    1    2    0    0  0.00000000000E+00  0.00000000000E+00 -0.33073817276E+03  0.22357167744E+04  0.22111177618E+04 0.  0.
        5    1    3    3  502    0 -0.93953779488E+03  0.56978074239E+03 -0.42123811109E+02  0.10996262401E+04  0.46999998093E+01 0. -1.
       -5    1    3    3    0  502  0.93953779488E+03 -0.56978074239E+03 -0.28861436165E+03  0.11360905343E+04  0.46999998093E+01 0.  1.
</event>
<event>
 5   0  0.1884407E-05  0.2248152E+04  0.7818609E-02  0.8498649E-01
        1   -1    0    0  501    0  0.00000000000E+00  0.00000000000E+00  0.89648271075E+03  0.89648271076E+03  0.50400001928E-02 0. -1.
       -1   -1    0    0    0  501  0.00000000000E+00  0.00000000000E+00 -0.14094489431E+04  0.14094489431E+04  0.50400001928E-02 0.  1.
    10030    2    1    2    0    0  0.00000000000E+00  0.00000000000E+00 -0.51296623237E+03  0.23059316539E+04  0.22481517824E+04 0.  0.
        3    1    3    3  502    0  0.46198887090E+03 -0.70188994543E+02  0.79213576769E+03  0.91969521932E+03  0.10100000352E+00 0. -1.
       -3    1    3    3    0  502 -0.46198887090E+03  0.70188994543E+02 -0.13051020001E+04  0.13862364346E+04  0.10100000352E+00 0.  1.
</event>
<event>
 5   0  0.3963414E-05  0.2204363E+04  0.7818609E-02  0.8516614E-01
        2   -1    0    0  501    0  0.00000000000E+00  0.00000000000E+00  0.13731671968E+04  0.13731671968E+04  0.25500000920E-02 0. -1.
       -2   -1    0    0    0  501  0.00000000000E+00  0.00000000000E+00 -0.88467276705E+03  0.88467276706E+03  0.25500000920E-02 0.  1.
    10030    2    1    2    0    0  0.00000000000E+00  0.00000000000E+00  0.48849442977E+03  0.22578399639E+04  0.22043626051E+04 0.  0.
        1    1    3    3  502    0  0.25865342528E+03  0.72990665641E+03 -0.55908744607E+03  0.95511470194E+03  0.50400001928E-02 0.  1.
       -1    1    3    3    0  502 -0.25865342528E+03 -0.72990665641E+03  0.10475818758E+04  0.13027252619E+04  0.50400001928E-02 0. -1.
</event>
<event>
 5   0  0.1866935E-05  0.2206904E+04  0.7818609E-02  0.8515560E-01
        1   -1    0    0  501    0  0.00000000000E+00  0.00000000000E+00  0.88286158665E+03  0.88286158666E+03  0.50400001928E-02 0.  1.
       -1   -1    0    0    0  501  0.00000000000E+00  0.00000000000E+00 -0.13791586147E+04  0.13791586147E+04  0.50400001928E-02 0. -1.
    10030    2    1    2    0    0  0.00000000000E+00  0.00000000000E+00 -0.49629702808E+03  0.22620202014E+04  0.22069038609E+04 0.  0.
        4    1    3    3  502    0 -0.16295462508E+03 -0.65393625699E+03 -0.11437074683E+04  0.13274996136E+04  0.12699999809E+01 0. -1.
       -4    1    3    3    0  502  0.16295462508E+03  0.65393625699E+03  0.64741044024E+03  0.93452058783E+03  0.12699999809E+01 0.  1.
</event>
<event>
 5   0  0.1884407E-05  0.2146523E+04  0.7818609E-02  0.8541022E-01
       -1   -1    0    0    0  501  0.00000000000E+00  0.00000000000E+00  0.79006170462E+03  0.79006170464E+03  0.50400001928E-02 0. -1.
        1   -1    0    0  501    0  0.00000000000E+00  0.00000000000E+00 -0.14579746173E+04  0.14579746174E+04  0.50400001928E-02 0.  1.
    10030    2    1    2    0    0  0.00000000000E+00  0.00000000000E+00 -0.66791291273E+03  0.22480363220E+04  0.21465226870E+04 0.  0.
        3    1    3    3  502    0 -0.15720330819E+03 -0.55435488956E+03 -0.12822432962E+04  0.14057631751E+04  0.10100000352E+00 0.  1.
       -3    1    3    3    0  502  0.15720330819E+03  0.55435488956E+03  0.61433038347E+03  0.84227314687E+03  0.10100000352E+00 0. -1.
</event>
<event>
 5   0  0.1788413E-05  0.2447890E+04  0.7818609E-02  0.8421789E-01
       -1   -1    0    0    0  501  0.00000000000E+00  0.00000000000E+00  0.10170323593E+04  0.10170323593E+04  0.50400001928E-02 0.  1.
        1   -1    0    0  501    0  0.00000000000E+00  0.00000000000E+00 -0.14729536219E+04  0.14729536219E+04  0.50400001928E-02 0. -1.
    10030    2    1    2    0    0  0.00000000000E+00  0.00000000000E+00 -0.45592126266E+03  0.24899859812E+04  0.24478901096E+04 0.  0.
        1    1    3    3  502    0  0.28464455885E+03  0.95083255331E+03  0.50055144592E+03  0.11116010163E+04  0.50400001928E-02 0.  1.
       -1    1    3    3    0  502 -0.28464455885E+03 -0.95083255331E+03 -0.95647270859E+03  0.13783849650E+04  0.50400001928E-02 0. -1.
</event>
<event>
 5   0  0.1786228E-05  0.2187325E+04  0.7818609E-02  0.8523722E-01
        1   -1    0    0  501    0  0.00000000000E+00  0.00000000000E+00  0.58965479357E+03  0.58965479359E+03  0.50400001928E-02 0.  1.
       -1   -1    0    0    0  501  0.00000000000E+00  0.00000000000E+00 -0.20284701249E+04  0.20284701249E+04  0.50400001928E-02 0. -1.
    10030    2    1    2    0    0  0.00000000000E+00  0.00000000000E+00 -0.14388153314E+04  0.26181249185E+04  0.21873245144E+04 0.  0.
        5    1    3    3  502    0  0.61856776619E+03 -0.48339164439E+03  0.19199294024E+03  0.80819362923E+03  0.46999998093E+01 0.  1.
       -5    1    3    3    0  502 -0.61856776619E+03  0.48339164439E+03 -0.16308082716E+04  0.18099312893E+04  0.46999998093E+01 0. -1.
</event>
<event>
 5   0  0.1884407E-05  0.2194670E+04  0.7818609E-02  0.8520650E-01
       -1   -1    0    0    0  501  0.00000000000E+00  0.00000000000E+00  0.10331807589E+04  0.10331807589E+04  0.50400001928E-02 0.  1.
        1   -1    0    0  501    0  0.00000000000E+00  0.00000000000E+00 -0.11654731670E+04  0.11654731670E+04  0.50400001928E-02 0. -1.
    10030    2    1    2    0    0  0.00000000000E+00  0.00000000000E+00 -0.13229240812E+03  0.21986539259E+04  0.21946703180E+04 0.  0.
        3    1    3    3  502    0 -0.96135767160E+03 -0.40208956438E+03 -0.41065970686E+03  0.11200562466E+04  0.10100000352E+00 0. -1.
       -3    1    3    3    0  502  0.96135767160E+03  0.40208956438E+03  0.27836729874E+03  0.10785976793E+04  0.10100000352E+00 0.  1.
</event>
<event>
 5   0  0.4132460E-05  0.2192300E+04  0.7818609E-02  0.8521640E-01
       -2   -1    0    0    0  501  0.00000000000E+00  0.00000000000E+00  0.76072894873E+03  0.76072894874E+03  0.25500000920E-02 0.  1.
        2   -1    0    0  501    0  0.00000000000E+00  0.00000000000E+00 -0.15794653481E+04  0.15794653481E+04  0.25500000920E-02 0. -1.
    10030    2    1    2    0    0  0.00000000000E+00  0.00000000000E+00 -0.81873639935E+03  0.23401942968E+04  0.21923001745E+04 0.  0.
        4    1    3    3  502    0 -0.70604985260E+03  0.47118720873E+03  0.33097534510E+03  0.91108181411E+03  0.12699999809E+01 0.  1.
       -4    1    3    3    0  502  0.70604985260E+03 -0.47118720873E+03 -0.11497117445E+04  0.14291124827E+04  0.12699999809E+01 0. -1.
</event>
<event>
 5   0  0.3963414E-05  0.2211559E+04  0.7818609E-02  0.8513633E-01
        2   -1    0    0  501    0  0.00000000000E+00  0.00000000000E+00  0.21138511475E+04  0.21138511475E+04  0.25500000920E-02 0. -1.
       -2   -1    0    0    0  501  0.00000000000E+00  0.00000000000E+00 -0.57844562469E+03  0.57844562470E+03  0.25500000920E-02 0.  1.
    10030    2    1    2    0    0  0.00000000000E+00  0.00000000000E+00  0.15354055229E+04  0.26922967722E+04  0.22115586789E+04 0.  0.
        1    1    3    3  502    0  0.56630310636E+03 -0.75376480920E+03  0.14711385294E+04  0.17473148453E+04  0.50400001928E-02 0. -1.
       -1    1    3    3    0  502 -0.56630310636E+03  0.75376480920E+03  0.64266993489E+02  0.94498192699E+03  0.50400001928E-02 0.  1.
</event>
<event>
 5   0  0.1866935E-05  0.2202374E+04  0.7818609E-02  0.8517441E-01
        1   -1    0    0  501    0  0.00000000000E+00  0.00000000000E+00  0.27639552214E+04  0.27639552214E+04  0.50400001928E-02 0. -1.
       -1   -1    0    0    0  501  0.00000000000E+00  0.00000000000E+00 -0.43872363452E+03  0.43872363455E+03  0.50400001928E-02 0.  1.
    10030    2    1    2    0    0  0.00000000000E+00  0.00000000000E+00  0.23252315869E+04  0.32026788559E+04  0.22023737017E+04 0.  0.
        4    1    3    3  502    0 -0.25663841405E+03  0.35013185260E+03  0.26342683314E+04  0.26697990270E+04  0.12699999809E+01 0. -1.
       -4    1    3    3    0  502  0.25663841405E+03 -0.35013185260E+03 -0.30903674451E+03  0.53287982898E+03  0.12699999809E+01 0.  1.
</event>
<event>
 5   0  0.4027923E-05  0.2201052E+04  0.7818609E-02  0.8517990E-01
       -2   -1    0    0    0  501  0.00000000000E+00  0.00000000000E+00  0.10584762248E+04  0.10584762248E+04  0.25500000920E-02 0. -1.
        2   -1    0    0  501    0  0.00000000000E+00  0.00000000000E+00 -0.11442463184E+04  0.11442463184E+04  0.25500000920E-02 0.  1.
    10030    2    1    2    0    0  0.00000000000E+00  0.00000000000E+00 -0.85770093599E+02  0.22027225433E+04  0.22010520425E+04 0.  0.
        5    1    3    3  502    0  0.89755422724E+02  0.14906955339E+03  0.10446124397E+04  0.10590160559E+04  0.46999998093E+01 0. -1.
       -5    1    3    3    0  502 -0.89755422724E+02 -0.14906955339E+03 -0.11303825333E+04  0.11437064873E+04  0.46999998093E+01 0.  1.
</event>
<event>
 5   0  0.1866935E-05  0.1935937E+04  0.7818609E-02  0.8637172E-01
       -1   -1    0    0    0  501  0.00000000000E+00  0.00000000000E+00  0.10999166517E+04  0.10999166517E+04  0.50400001928E-02 0.  1.
        1   -1    0    0  501    0  0.00000000000E+00  0.00000000000E+00 -0.85184890799E+03  0.85184890800E+03  0.50400001928E-02 0. -1.
    10030    2    1    2    0    0  0.00000000000E+00  0.00000000000E+00  0.24806774373E+03  0.19517655597E+04  0.19359367745E+04 0.  0.
        4    1    3    3  502    0 -0.31908534947E+03  0.63402149178E+03  0.78756590373E+03  0.10602171371E+04  0.12699999809E+01 0.  1.
       -4    1    3    3    0  502  0.31908534947E+03 -0.63402149178E+03 -0.53949815999E+03  0.89154842259E+03  0.12699999809E+01 0. -1.
</event>
<event>
 5   0  0.1788413E-05  0.2217317E+04  0.7818609E-02  0.8511255E-01
       -1   -1    0    0    0  501  0.00000000000E+00  0.00000000000E+00  0.73208887259E+03  0.73208887261E+03  0.50400001928E-02 0. -1.
        1   -1    0    0  501    0  0.00000000000E+00  0.00000000000E+00 -0.16789266279E+04  0.16789266279E+04  0.50400001928E-02 0.  1.
    10030    2    1    2    0    0  0.00000000000E+00  0.00000000000E+00 -0.94683775530E+03  0.24110155005E+04  0.22173168490E+04 0.  0.
        1    1    3    3  502    0  0.44347516029E+03  0.91536248621E+03  0.62089636085E+01  0.10171515375E+04  0.50400001928E-02 0. -1.
       -1    1    3    3    0  502 -0.44347516029E+03 -0.91536248621E+03 -0.95304671890E+03  0.13938639630E+04  0.50400001928E-02 0.  1.
</event>
<event>
 5   0  0.1788413E-05  0.2216110E+04  0.7818609E-02  0.8511753E-01
        1   -1    0    0  501    0  0.00000000000E+00  0.00000000000E+00  0.10901300691E+04  0.10901300692E+04  0.50400001928E-02 0. -1.
       -1   -1    0    0    0  501  0.00000000000E+00  0.00000000000E+00 -0.11262743797E+04  0.11262743798E+04  0.50400001928E-02 0.  1.
    10030    2    1    2    0    0  0.00000000000E+00  0.00000000000E+00 -0.36144310593E+02  0.22164044489E+04  0.22161097152E+04 0.  0.
        1    1    3    3  502    0  0.11745535790E+03  0.74045701988E+03  0.79794885804E+03  0.10948948532E+04  0.50400001928E-02 0. -1.
       -1    1    3    3    0  502 -0.11745535790E+03 -0.74045701988E+03 -0.83409316863E+03  0.11215095958E+04  0.50400001928E-02 0.  1.
</event>
<event>
 5   0  0.1884407E-05  0.2207198E+04  0.7818609E-02  0.8515438E-01
        1   -1    0    0  501    0  0.00000000000E+00  0.00000000000E+00  0.83962479759E+03  0.83962479761E+03  0.50400001928E-02 0. -1.
       -1   -1    0    0    0  501  0.00000000000E+00  0.00000000000E+00 -0.14505660316E+04  0.14505660316E+04  0.50400001928E-02 0.  1.
    10030    2    1    2    0    0  0.00000000000E+00  0.00000000000E+00 -0.61094123396E+03  0.22901908292E+04  0.22071984149E+04 0.  0.
        3    1    3    3  502    0  0.82204016804E+03 -0.60186639952E+03 -0.74561152983E+03  0.12625093126E+04  0.10100000352E+00 0.  1.
       -3    1    3    3    0  502 -0.82204016804E+03  0.60186639952E+03  0.13467029587E+03  0.10276815166E+04  0.10100000352E+00 0. -1.
</event>
<event>
 5   0  0.4027923E-05  0.2199660E+04  0.7818609E-02  0.8518570E-01
        2   -1    0    0  501    0  0.00000000000E+00  0.00000000000E+00  0.16644818269E+04  0.16644818269E+04  0.25500000920E-02 0.  1.
       -2   -1    0    0    0  501  0.00000000000E+00  0.00000000000E+00 -0.72672805368E+03  0.72672805368E+03  0.25500000920E-02 0. -1.
    10030    2    1    2    0    0  0.00000000000E+00  0.00000000000E+00  0.93775377318E+03  0.23912098805E+04  0.21996596450E+04 0.  0.
        5    1    3    3  502    0 -0.80071111711E+03  0.74005265031E+03  0.62561029058E+03  0.12570706201E+04  0.46999998093E+01 0.  1.
       -5    1    3    3    0  502  0.80071111711E+03 -0.74005265031E+03  0.31214348260E+03  0.11341392604E+04  0.46999998093E+01 0. -1.
</event>
<event>
 5   0  0.3963414E-05  0.2180689E+04  0.7818609E-02  0.8526509E-01
       -2   -1    0    0    0  501  0.00000000000E+00  0.00000000000E+00  0.96750161669E+03  0.96750161669E+03  0.25500000920E-02 0.  1.
        2   -1    0    0  501    0  0.00000000000E+00  0.00000000000E+00 -0.12287843065E+04  0.12287843065E+04  0.25500000920E-02 0. -1.
    10030    2    1    2    0    0  0.00000000000E+00  0.00000000000E+00 -0.26128268982E+03  0.21962859232E+04  0.21806887014E+04 0.  0.
        1    1    3    3  502    0  0.87367761135E+03 -0.40905691546E+03  0.38113746568E+03  0.10372588377E+04  0.50400001928E-02 0.  1.
       -1    1    3    3    0  502 -0.87367761135E+03  0.40905691546E+03 -0.64242015550E+03  0.11590270855E+04  0.50400001928E-02 0. -1.
</event>
<event>
 5   0  0.1866935E-05  0.2195499E+04  0.7818609E-02  0.8520304E-01
       -1   -1    0    0    0  501  0.00000000000E+00  0.00000000000E+00  0.80299982424E+03  0.80299982425E+03  0.50400001928E-02 0.  1.
        1   -1    0    0  501    0  0.00000000000E+00  0.00000000000E+00 -0.15006900054E+04  0.15006900054E+04  0.50400001928E-02 0. -1.
    10030    2    1    2    0    0  0.00000000000E+00  0.00000000000E+00 -0.69769018114E+03  0.23036898296E+04  0.21954988596E+04 0.  0.
        4    1    3    3  502    0  0.10659101097E+04 -0.48634540501E+02 -0.78215596065E+02  0.10698826912E+04  0.12699999809E+01 0.  1.
       -4    1    3    3    0  502 -0.10659101097E+04  0.48634540501E+02 -0.61947458507E+03  0.12338071385E+04  0.12699999809E+01 0. -1.
</event>
<event>
 5   0  0.1884407E-05  0.2192349E+04  0.7818609E-02  0.8521619E-01
        1   -1    0    0  501    0  0.00000000000E+00  0.00000000000E+00  0.14075230181E+04  0.14075230181E+04  0.50400001928E-02 0.  1.
       -1   -1    0    0    0  501  0.00000000000E+00  0.00000000000E+00 -0.85369763477E+03  0.85369763479E+03  0.50400001928E-02 0. -1.
    10030    2    1    2    0    0  0.00000000000E+00  0.00000000000E+00  0.55382538331E+03  0.22612206529E+04  0.21923494899E+04 0.  0.
        3    1    3    3  502    0 -0.26360719724E+03  0.35896551583E+03  0.13100037909E+04  0.13836382976E+04  0.10100000352E+00 0.  1.
       -3    1    3    3    0  502  0.26360719724E+03 -0.35896551583E+03 -0.75617840763E+03  0.87758235532E+03  0.10100000352E+00 0. -1.
</event>
<event>
 5   0  0.4027923E-05  0.2192299E+04  0.7818609E-02  0.8521640E-01
        2   -1    0    0  501    0  0.00000000000E+00  0.00000000000E+00  0.14395016419E+04  0.14395016419E+04  0.25500000920E-02 0. -1.
       -2   -1    0    0    0  501  0.00000000000E+00  0.00000000000E+00 -0.83469410452E+03  0.83469410453E+03  0.25500000920E-02 0.  1.
    10030    2    1    2    0    0  0.00000000000E+00  0.00000000000E+00  0.60480753739E+03  0.22741957464E+04  0.21922988245E+04 0.  0.
        5    1    3    3  502    0 -0.30341244993E+03 -0.95937685998E+03  0.75345518020E+03  0.12570520565E+04  0.46999998093E+01 0. -1.
       -5    1    3    3    0  502  0.30341244993E+03  0.95937685998E+03 -0.14864764281E+03  0.10171436899E+04  0.46999998093E+01 0.  1.
</event>
<event>
 5   0  0.1884407E-05  0.2203555E+04  0.7818609E-02  0.8516950E-01
        1   -1    0    0  501    0  0.00000000000E+00  0.00000000000E+00  0.31112009522E+04  0.31112009522E+04  0.50400001928E-02 0.  1.
       -1   -1    0    0    0  501  0.00000000000E+00  0.00000000000E+00 -0.39017541772E+03  0.39017541776E+03  0.50400001928E-02 0. -1.
    10030    2    1    2    0    0  0.00000000000E+00  0.00000000000E+00  0.27210255345E+04  0.35013763700E+04  0.22035554281E+04 0.  0.
        3    1    3    3  502    0 -0.13067095594E+03 -0.95186803665E+02 -0.37122681128E+03  0.40490095324E+03  0.10100000352E+00 0. -1.
       -3    1    3    3    0  502  0.13067095594E+03  0.95186803665E+02  0.30922523458E+04  0.30964754168E+04  0.10100000352E+00 0.  1.
</event>
<event>
 5   0  0.1884407E-05  0.2194877E+04  0.7818609E-02  0.8520563E-01
       -1   -1    0    0    0  501  0.00000000000E+00  0.00000000000E+00  0.48306320048E+03  0.48306320051E+03  0.50400001928E-02 0. -1.
        1   -1    0    0  501    0  0.00000000000E+00  0.00000000000E+00 -0.24931966223E+04  0.24931966223E+04  0.50400001928E-02 0.  1.
    10030    2    1    2    0    0  0.00000000000E+00  0.00000000000E+00 -0.20101334218E+04  0.29762598228E+04  0.21948772538E+04 0.  0.
        3    1    3    3  502    0  0.17826672584E+03  0.42158808568E+03 -0.23575774233E+04  0.24016008945E+04  0.10100000352E+00 0.  1.
       -3    1    3    3    0  502 -0.17826672584E+03 -0.42158808568E+03  0.34744400146E+03  0.57465892831E+03  0.10100000352E+00 0. -1.
</event>
<event>
 5   0  0.4132460E-05  0.2198685E+04  0.7818609E-02  0.8518976E-01
       -2   -1    0    0    0  501  0.00000000000E+00  0.00000000000E+00  0.67060583923E+03  0.67060583924E+03  0.25500000920E-02 0.  1.
        2   -1    0    0  501    0  0.00000000000E+00  0.00000000000E+00 -0.18021819270E+04  0.18021819270E+04  0.25500000920E-02 0. -1.
    10030    2    1    2    0    0  0.00000000000E+00  0.00000000000E+00 -0.11315760878E+04  0.24727877662E+04  0.21986848102E+04 0.  0.
        4    1    3    3  502    0  0.67244519625E+03 -0.10960247992E+03 -0.15361068898E+04  0.16804229334E+04  0.12699999809E+01 0. -1.
       -4    1    3    3    0  502 -0.67244519625E+03  0.10960247992E+03  0.40453080200E+03  0.79236483279E+03  0.12699999809E+01 0.  1.
</event>
<event>
 5   0  0.4143281E-05  0.2188421E+04  0.7818609E-02  0.8523263E-01
        2   -1    0    0  501    0  0.00000000000E+00  0.00000000000E+00  0.20190274389E+04  0.20190274389E+04  0.25500000920E-02 0. -1.
       -2   -1    0    0    0  501  0.00000000000E+00  0.00000000000E+00 -0.59300668716E+03  0.59300668717E+03  0.25500000920E-02 0.  1.
    10030    2    1    2    0    0  0.00000000000E+00  0.00000000000E+00  0.14260207517E+04  0.26120341261E+04  0.21884211412E+04 0.  0.
        2    1    3    3  502    0  0.44009460863E+03  0.53062090555E+03  0.17272324854E+04  0.18597241378E+04  0.25500000920E-02 0. -1.
       -2    1    3    3    0  502 -0.44009460863E+03 -0.53062090555E+03 -0.30121173369E+03  0.75230998828E+03  0.25500000920E-02 0.  1.
</event>
<event>
 5   0  0.1815681E-05  0.2196012E+04  0.7818609E-02  0.8520090E-01
       -1   -1    0    0    0  501  0.00000000000E+00  0.00000000000E+00  0.78707359858E+03  0.78707359860E+03  0.50400001928E-02 0. -1.
        1   -1    0    0  501    0  0.00000000000E+00  0.00000000000E+00 -0.15317713302E+04  0.15317713303E+04  0.50400001928E-02 0.  1.
    10030    2    1    2    0    0  0.00000000000E+00  0.00000000000E+00 -0.74469773166E+03  0.23188449288E+04  0.21960116331E+04 0.  0.
        2    1    3    3  502    0  0.20149597701E+02  0.53110122338E+02  0.78552103020E+03  0.78757220639E+03  0.25500000920E-02 0. -1.
       -2    1    3    3    0  502 -0.20149597701E+02 -0.53110122338E+02 -0.15302187619E+04  0.15312727225E+04  0.25500000920E-02 0.  1.
</event>
<event>
 5   0  0.4143281E-05  0.2203995E+04  0.7818609E-02  0.8516767E-01
       -2   -1    0    0    0  501  0.00000000000E+00  0.00000000000E+00  0.64619204699E+03  0.64619204699E+03  0.25500000920E-02 0.  1.
        2   -1    0    0  501    0  0.00000000000E+00  0.00000000000E+00 -0.18793145738E+04  0.18793145738E+04  0.25500000920E-02 0. -1.
    10030    2    1    2    0    0  0.00000000000E+00  0.00000000000E+00 -0.12331225268E+04  0.25255066208E+04  0.22039946746E+04 0.  0.
        2    1    3    3  502    0  0.96755960658E+03 -0.11147475126E+03 -0.12073271273E+04  0.15512050170E+04  0.25500000920E-02 0. -1.
       -2    1    3    3    0  502 -0.96755960658E+03  0.11147475126E+03 -0.25795399481E+02  0.97430160377E+03  0.25500000920E-02 0.  1.
</event>
<event>
 5   0  0.1815681E-05  0.2209616E+04  0.7818609E-02  0.8514436E-01
       -1   -1    0    0    0  501  0.00000000000E+00  0.00000000000E+00  0.66141522797E+03  0.66141522799E+03  0.50400001928E-02 0. -1.
        1   -1    0    0  501    0  0.00000000000E+00  0.00000000000E+00 -0.18454378559E+04  0.18454378559E+04  0.50400001928E-02 0.  1.
    10030    2    1    2    0    0  0.00000000000E+00  0.00000000000E+00 -0.11840226279E+04  0.25068530839E+04  0.22096159849E+04 0.  0.
        2    1    3    3  502    0  0.68366208465E+03 -0.86606764029E+03 -0.65552108605E+03  0.12834231172E+04  0.25500000920E-02 0.  1.
       -2    1    3    3    0  502 -0.68366208465E+03  0.86606764029E+03 -0.52850154185E+03  0.12234299667E+04  0.25500000920E-02 0. -1.
</event>
<event>
 5   0  0.1433375E-05  0.2204782E+04  0.7818609E-02  0.8516440E-01
        3   -1    0    0  501    0  0.00000000000E+00  0.00000000000E+00  0.18583865979E+04  0.18583866007E+04  0.10100000352E+00 0. -1.
       -3   -1    0    0    0  501  0.00000000000E+00  0.00000000000E+00 -0.65393620657E+03  0.65393621437E+03  0.10100000352E+00 0.  1.
    10030    2    1    2    0    0  0.00000000000E+00  0.00000000000E+00  0.12044503914E+04  0.25123228150E+04  0.22047823434E+04 0.  0.
        1    1    3    3  502    0  0.20737874930E+03  0.26679866502E+03 -0.59346570663E+03  0.68292680303E+03  0.50400001928E-02 0.  1.
       -1    1    3    3    0  502 -0.20737874930E+03 -0.26679866502E+03  0.17979160980E+04  0.18293960120E+04  0.50400001928E-02 0. -1.
</event>
<event>
 5   0  0.1788413E-05  0.2182657E+04  0.7818609E-02  0.8525682E-01
       -1   -1    0    0    0  501  0.00000000000E+00  0.00000000000E+00  0.65033741980E+03  0.65033741982E+03  0.50400001928E-02 0.  1.
        1   -1    0    0  501    0  0.00000000000E+00  0.00000000000E+00 -0.18313533396E+04  0.18313533396E+04  0.50400001928E-02 0. -1.
    10030    2    1    2    0    0  0.00000000000E+00  0.00000000000E+00 -0.11810159198E+04  0.24816907594E+04  0.21826567349E+04 0.  0.
        1    1    3    3  502    0  0.85561054719E+03  0.52421357065E+03 -0.10261727061E+03  0.10086622727E+04  0.50400001928E-02 0.  1.
       -1    1    3    3    0  502 -0.85561054719E+03 -0.52421357065E+03 -0.10783986492E+04  0.14730284867E+04  0.50400001928E-02 0. -1.
</event>
<event>
 5   0  0.4143281E-05  0.2210835E+04  0.7818609E-02  0.8513932E-01
       -2   -1    0    0    0  501  0.00000000000E+00  0.00000000000E+00  0.69357947961E+03  0.69357947962E+03  0.25500000920E-02 0. -1.
        2   -1    0    0  501    0  0.00000000000E+00  0.00000000000E+00 -0.17617989877E+04  0.17617989877E+04  0.25500000920E-02 0.  1.
    10030    2    1    2    0    0  0.00000000000E+00  0.00000000000E+00 -0.10682195081E+04  0.24553784673E+04  0.22108347972E+04 0.  0.
        2    1    3    3  502    0 -0.64968062734E+03  0.26778246587E+03  0.41359737274E+03  0.81538650548E+03  0.25500000920E-02 0. -1.
       -2    1    3    3    0  502  0.64968062734E+03 -0.26778246587E+03 -0.14818168808E+04  0.16399919619E+04  0.25500000920E-02 0.  1.
</event>
<event>
 5   0  0.4132460E-05  0.2131771E+04  0.7818609E-02  0.8547376E-01
        2   -1    0    0  501    0  0.00000000000E+00  0.00000000000E+00  0.17455126642E+04  0.17455126642E+04  0.25500000920E-02 0.  1.
       -2   -1    0    0    0  501  0.00000000000E+00  0.00000000000E+00 -0.65087550297E+03  0.65087550298E+03  0.25500000920E-02 0. -1.
    10030    2    1    2    0    0  0.00000000000E+00  0.00000000000E+00  0.10946371612E+04  0.23963881672E+04  0.21317705629E+04 0.  0.
        4    1    3    3  502    0 -0.88076615564E+03 -0.52639669548E+03  0.87169852495E+03  0.13463663815E+04  0.12699999809E+01 0.  1.
       -4    1    3    3    0  502  0.88076615564E+03  0.52639669548E+03  0.22293863627E+03  0.10500217857E+04  0.12699999809E+01 0. -1.
</event>
<event>
 5   0  0.3963414E-05  0.2199811E+04  0.7818609E-02  0.8518507E-01
        2   -1    0    0  501    0  0.00000000000E+00  0.00000000000E+00  0.11531927115E+04  0.11531927115E+04  0.25500000920E-02 0.  1.
       -2   -1    0    0    0  501  0.00000000000E+00  0.00000000000E+00 -0.10490803703E+04  0.10490803703E+04  0.25500000920E-02 0. -1.
    10030    2    1    2    0    0  0.00000000000E+00  0.00000000000E+00  0.10411234120E+03  0.22022730818E+04  0.21998107525E+04 0.  0.
        1    1    3    3  502    0  0.30420187327E+03 -0.74977866898E+03  0.79793039205E+03  0.11363977045E+04  0.50400001928E-02 0.  1.
       -1    1    3    3    0  502 -0.30420187327E+03  0.74977866898E+03 -0.69381805085E+03  0.10658753773E+04  0.50400001928E-02 0. -1.
</event>
<event>
 5   0  0.3963414E-05  0.2204317E+04  0.7818609E-02  0.8516633E-01
        2   -1    0    0  501    0  0.00000000000E+00  0.00000000000E+00  0.17824101066E+04  0.17824101066E+04  0.25500000920E-02 0. -1.
       -2   -1    0    0    0  501  0.00000000000E+00  0.00000000000E+00 -0.68152290904E+03  0.68152290904E+03  0.25500000920E-02 0.  1.
    10030    2    1    2    0    0  0.00000000000E+00  0.00000000000E+00  0.11008871975E+04  0.24639330156E+04  0.22043169654E+04 0.  0.
        1    1    3    3  502    0  0.10569409492E+03  0.83015223902E+03 -0.25126717254E+03  0.87376150846E+03  0.50400001928E-02 0.  1.
       -1    1    3    3    0  502 -0.10569409492E+03 -0.83015223902E+03  0.13521543701E+04  0.15901715072E+04  0.50400001928E-02 0. -1.
</event>
<event>
 5   0  0.1815681E-05  0.2195848E+04  0.7818609E-02  0.8520158E-01
        1   -1    0    0  501    0  0.00000000000E+00  0.00000000000E+00  0.90354043751E+03  0.90354043752E+03  0.50400001928E-02 0.  1.
       -1   -1    0    0    0  501  0.00000000000E+00  0.00000000000E+00 -0.13341267568E+04  0.13341267568E+04  0.50400001928E-02 0. -1.
    10030    2    1    2    0    0  0.00000000000E+00  0.00000000000E+00 -0.43058631931E+03  0.22376671944E+04  0.21958483314E+04 0.  0.
        2    1    3    3  502    0 -0.30633195349E+03  0.85708579127E+03 -0.84099159791E+03  0.12392345166E+04  0.25500000920E-02 0. -1.
       -2    1    3    3    0  502  0.30633195349E+03 -0.85708579127E+03  0.41040527860E+03  0.99843267777E+03  0.25500000920E-02 0.  1.
</event>
<event>
 5   0  0.1433375E-05  0.2228879E+04  0.7818609E-02  0.8506503E-01
       -4   -1    0    0    0  501  0.00000000000E+00  0.00000000000E+00  0.88967697628E+03  0.88967788273E+03  0.12699999809E+01 0.  1.
        4   -1    0    0  501    0  0.00000000000E+00  0.00000000000E+00 -0.13959826775E+04  0.13959832552E+04  0.12699999809E+01 0. -1.
    10030    2    1    2    0    0  0.00000000000E+00  0.00000000000E+00 -0.50630570120E+03  0.22856611379E+04  0.22288789501E+04 0.  0.
        4    1    3    3  502    0  0.18746405753E+03  0.10963110150E+04 -0.18112739132E+03  0.11268759289E+04  0.12699999809E+01 0. -1.
       -4    1    3    3    0  502 -0.18746405753E+03 -0.10963110150E+04 -0.32517830988E+03  0.11587852090E+04  0.12699999809E+01 0.  1.
</event>
<event>
 5   0  0.3963414E-05  0.2206782E+04  0.7818609E-02  0.8515611E-01
        2   -1    0    0  501    0  0.00000000000E+00  0.00000000000E+00  0.96112380096E+03  0.96112380097E+03  0.25500000920E-02 0.  1.
       -2   -1    0    0    0  501  0.00000000000E+00  0.00000000000E+00 -0.12667170454E+04  0.12667170454E+04  0.25500000920E-02 0. -1.
    10030    2    1    2    0    0  0.00000000000E+00  0.00000000000E+00 -0.30559324442E+03  0.22278408464E+04  0.22067821836E+04 0.  0.
        1    1    3    3  502    0  0.10557303716E+04 -0.60698691699E+02 -0.47079608730E+03  0.11575404548E+04  0.50400001928E-02 0.  1.
       -1    1    3    3    0  502 -0.10557303716E+04  0.60698691699E+02  0.16520284288E+03  0.10703003915E+04  0.50400001928E-02 0. -1.
</event>
<event>
 5   0  0.4027923E-05  0.2138029E+04  0.7818609E-02  0.8544674E-01
        2   -1    0    0  501    0  0.00000000000E+00  0.00000000000E+00  0.87546331256E+03  0.87546331256E+03  0.25500000920E-02 0. -1.
       -2   -1    0    0    0  501  0.00000000000E+00  0.00000000000E+00 -0.13053571008E+04  0.13053571008E+04  0.25500000920E-02 0.  1.
    10030    2    1    2    0    0  0.00000000000E+00  0.00000000000E+00 -0.42989378826E+03  0.21808204134E+04  0.21380292342E+04 0.  0.
        5    1    3    3  502    0  0.10432505121E+04  0.17991579828E+03 -0.63555202702E+02  0.10605671498E+04  0.46999998093E+01 0. -1.
       -5    1    3    3    0  502 -0.10432505121E+04 -0.17991579828E+03 -0.36633858556E+03  0.11202532636E+04  0.46999998093E+01 0.  1.
</event>
<event>
 5   0  0.4132460E-05  0.2140007E+04  0.7818609E-02  0.8543822E-01
       -2   -1    0    0    0  501  0.00000000000E+00  0.00000000000E+00  0.10117539582E+04  0.10117539582E+04  0.25500000920E-02 0.  1.
        2   -1    0    0  501    0  0.00000000000E+00  0.00000000000E+00 -0.11316067466E+04  0.11316067466E+04  0.25500000920E-02 0. -1.
    10030    2    1    2    0    0  0.00000000000E+00  0.00000000000E+00 -0.11985278838E+03  0.21433607048E+04  0.21400071075E+04 0.  0.
        4    1    3    3  502    0  0.74015671926E+03 -0.59123338004E+03  0.43836417121E+03  0.10438168605E+04  0.12699999809E+01 0.  1.
       -4    1    3    3    0  502 -0.74015671926E+03  0.59123338004E+03 -0.55821695959E+03  0.10995438443E+04  0.12699999809E+01 0. -1.
</event>
<event>
 5   0  0.1788413E-05  0.2209581E+04  0.7818609E-02  0.8514451E-01
        1   -1    0    0  501    0  0.00000000000E+00  0.00000000000E+00  0.27097260486E+04  0.27097260486E+04  0.50400001928E-02 0.  1.
       -1   -1    0    0    0  501  0.00000000000E+00  0.00000000000E+00 -0.45043743836E+03  0.45043743839E+03  0.50400001928E-02 0. -1.
    10030    2    1    2    0    0  0.00000000000E+00  0.00000000000E+00  0.22592886102E+04  0.31601634870E+04  0.22095810101E+04 0.  0.
        1    1    3    3  502    0 -0.95530919251E+03  0.47172737523E+03  0.71164205647E+03  0.12812403312E+04  0.50400001928E-02 0. -1.
       -1    1    3    3    0  502  0.95530919251E+03 -0.47172737523E+03  0.15476465538E+04  0.18789231558E+04  0.50400001928E-02 0.  1.
</event>
<event>
 5   0  0.4029532E-05  0.2196695E+04  0.7818609E-02  0.8519805E-01
        2   -1    0    0  501    0  0.00000000000E+00  0.00000000000E+00  0.27348833018E+04  0.27348833018E+04  0.25500000920E-02 0.  1.
       -2   -1    0    0    0  501  0.00000000000E+00  0.00000000000E+00 -0.44110392041E+03  0.44110392042E+03  0.25500000920E-02 0. -1.
    10030    2    1    2    0    0  0.00000000000E+00  0.00000000000E+00  0.22937793814E+04  0.31759872222E+04  0.21966954694E+04 0.  0.
        3    1    3    3  502    0  0.66648516472E+03 -0.87126283422E+03  0.12269502639E+04  0.16458154093E+04  0.10100000352E+00 0.  1.
       -3    1    3    3    0  502 -0.66648516472E+03  0.87126283422E+03  0.10668291175E+04  0.15301718130E+04  0.10100000352E+00 0. -1.
</event>
<event>
 5   0  0.3963414E-05  0.2191893E+04  0.7818609E-02  0.8521810E-01
       -2   -1    0    0    0  501  0.00000000000E+00  0.00000000000E+00  0.68608932076E+03  0.68608932076E+03  0.25500000920E-02 0. -1.
        2   -1    0    0  501    0  0.00000000000E+00  0.00000000000E+00 -0.17506440497E+04  0.17506440497E+04  0.25500000920E-02 0.  1.
    10030    2    1    2    0    0  0.00000000000E+00  0.00000000000E+00 -0.10645547290E+04  0.24367333705E+04  0.21918925037E+04 0.  0.
        1    1    3    3  502    0  0.74005693538E+03 -0.10809392156E+02  0.36627650108E+03  0.82580844379E+03  0.50400001928E-02 0. -1.
       -1    1    3    3    0  502 -0.74005693538E+03  0.10809392156E+02 -0.14308312301E+04  0.16109249267E+04  0.50400001928E-02 0.  1.
</event>
<event>
 5   0  0.1866935E-05  0.2208106E+04  0.7818609E-02  0.8515062E-01
        1   -1    0    0  501    0  0.00000000000E+00  0.00000000000E+00  0.54323695003E+03  0.54323695005E+03  0.50400001928E-02 0.  1.
       -1   -1    0    0    0  501  0.00000000000E+00  0.00000000000E+00 -0.22438325855E+04  0.22438325855E+04  0.50400001928E-02 0. -1.
    10030    2    1    2    0    0  0.00000000000E+00  0.00000000000E+00 -0.17005956354E+04  0.27870695355E+04  0.22081057675E+04 0.  0.
        4    1    3    3  502    0  0.12445725566E+03 -0.17502707103E+03  0.51661627278E+03  0.55948017863E+03  0.12699999809E+01 0.  1.
       -4    1    3    3    0  502 -0.12445725566E+03  0.17502707103E+03 -0.22172119082E+04  0.22275893569E+04  0.12699999809E+01 0. -1.
</event>
<event>
 5   0  0.4029532E-05  0.2218948E+04  0.7818609E-02  0.8510583E-01
        2   -1    0    0  501    0  0.00000000000E+00  0.00000000000E+00  0.11600108869E+04  0.11600108869E+04  0.25500000920E-02 0. -1.
       -2   -1    0    0    0  501  0.00000000000E+00  0.00000000000E+00 -0.10611392540E+04  0.10611392540E+04  0.25500000920E-02 0.  1.
    10030    2    1    2    0    0  0.00000000000E+00  0.00000000000E+00  0.98871632887E+02  0.22211501409E+04  0.22189484781E+04 0.  0.
        3    1    3    3  502    0 -0.86999406470E+03 -0.56177261369E+03  0.44789476284E+03  0.11283119564E+04  0.10100000352E+00 0.  1.
       -3    1    3    3    0  502  0.86999406470E+03  0.56177261369E+03 -0.34902312995E+03  0.10928381845E+04  0.10100000352E+00 0. -1.
</event>
<event>
 5   0  0.3963414E-05  0.2138790E+04  0.7818609E-02  0.8544346E-01
       -2   -1    0    0    0  501  0.00000000000E+00  0.00000000000E+00  0.77425561758E+03  0.77425561758E+03  0.25500000920E-02 0.  1.
        2   -1    0    0  501    0  0.00000000000E+00  0.00000000000E+00 -0.14770389930E+04  0.14770389930E+04  0.25500000920E-02 0. -1.
    10030    2    1    2    0    0  0.00000000000E+00  0.00000000000E+00 -0.70278337544E+03  0.22512946106E+04  0.21387900671E+04 0.  0.
        1    1    3    3  502    0  0.37146009951E+03  0.50397256960E+03  0.56118129580E+03  0.84077071977E+03  0.50400001928E-02 0.  1.
       -1    1    3    3    0  502 -0.37146009951E+03 -0.50397256960E+03 -0.12639646712E+04  0.14105238908E+04  0.50400001928E-02 0. -1.
</event>
<event>
 5   0  0.1815681E-05  0.2190895E+04  0.7818609E-02  0.8522228E-01
        1   -1    0    0  501    0  0.00000000000E+00  0.00000000000E+00  0.23213929936E+04  0.23213929936E+04  0.50400001928E-02 0.  1.
       -1   -1    0    0    0  501  0.00000000000E+00  0.00000000000E+00 -0.51693308858E+03  0.51693308861E+03  0.50400001928E-02 0. -1.
    10030    2    1    2    0    0  0.00000000000E+00  0.00000000000E+00  0.18044599050E+04  0.28383260822E+04  0.21908946575E+04 0.  0.
        2    1    3    3  502    0 -0.37230579199E+03 -0.99824689439E+03  0.12322581481E+04  0.16289777803E+04  0.25500000920E-02 0.  1.
       -2    1    3    3    0  502  0.37230579199E+03  0.99824689439E+03  0.57220175691E+03  0.12093483020E+04  0.25500000920E-02 0. -1.
</event>
<event>
 5   0  0.4027923E-05  0.2184977E+04  0.7818609E-02  0.8524707E-01
       -2   -1    0    0    0  501  0.00000000000E+00  0.00000000000E+00  0.10222206626E+04  0.10222206626E+04  0.25500000920E-02 0.  1.
        2   -1    0    0  501    0  0.00000000000E+00  0.00000000000E+00 -0.11675868224E+04  0.11675868224E+04  0.25500000920E-02 0. -1.
    10030    2    1    2    0    0  0.00000000000E+00  0.00000000000E+00 -0.14536615976E+03  0.21898074850E+04  0.21849772313E+04 0.  0.
        5    1    3    3  502    0 -0.11447328798E+03 -0.21712237852E+03  0.99421855271E+03  0.10240795289E+04  0.46999998093E+01 0.  1.
       -5    1    3    3    0  502  0.11447328798E+03  0.21712237852E+03 -0.11395847125E+04  0.11657279562E+04  0.46999998093E+01 0. -1.
</event>
<event>
 5   0  0.1788413E-05  0.2215866E+04  0.7818609E-02  0.8511853E-01
        1   -1    0    0  501    0  0.00000000000E+00  0.00000000000E+00  0.25105508005E+04  0.25105508005E+04  0.50400001928E-02 0. -1.
       -1   -1    0    0    0  501  0.00000000000E+00  0.00000000000E+00 -0.48894274269E+03  0.48894274271E+03  0.50400001928E-02 0.  1.
    10030    2    1    2    0    0  0.00000000000E+00  0.00000000000E+00  0.20216080578E+04  0.29994935432E+04  0.22158660556E+04 0.  0.
        1    1    3    3  502    0  0.41243953473E+03  0.10126905839E+04  0.76916056377E+03  0.13368831517E+04  0.50400001928E-02 0.  1.
       -1    1    3    3    0  502 -0.41243953473E+03 -0.10126905839E+04  0.12524474940E+04  0.16626103915E+04  0.50400001928E-02 0. -1.
</event>
<event>
 5   0  0.3963414E-05  0.2213806E+04  0.7818609E-02  0.8512704E-01
        2   -1    0    0  501    0  0.00000000000E+00  0.00000000000E+00  0.25117577357E+04  0.25117577357E+04  0.25500000920E-02 0.  1.
       -2   -1    0    0    0  501  0.00000000000E+00  0.00000000000E+00 -0.48779961296E+03  0.48779961297E+03  0.25500000920E-02 0. -1.
    10030    2    1    2    0    0  0.00000000000E+00  0.00000000000E+00  0.20239581227E+04  0.29995573487E+04  0.22138061806E+04 0.  0.
        1    1    3    3  502    0  0.14029369852E+03  0.51147872975E+03 -0.30442782636E+03  0.61153014179E+03  0.50400001928E-02 0. -1.
       -1    1    3    3    0  502 -0.14029369852E+03 -0.51147872975E+03  0.23283859491E+04  0.23880272069E+04  0.50400001928E-02 0.  1.
</event>
<event>
 5   0  0.4143281E-05  0.2187033E+04  0.7818609E-02  0.8523845E-01
       -2   -1    0    0    0  501  0.00000000000E+00  0.00000000000E+00  0.82430921004E+03  0.82430921005E+03  0.25500000920E-02 0.  1.
        2   -1    0    0  501    0  0.00000000000E+00  0.00000000000E+00 -0.14506428377E+04  0.14506428377E+04  0.25500000920E-02 0. -1.
    10030    2    1    2    0    0  0.00000000000E+00  0.00000000000E+00 -0.62633362765E+03  0.22749520477E+04  0.21870329230E+04 0.  0.
        2    1    3    3  502    0  0.46667314551E+03 -0.74048376411E+03 -0.99501642493E+03  0.13252010095E+04  0.25500000920E-02 0. -1.
       -2    1    3    3    0  502 -0.46667314551E+03  0.74048376411E+03  0.36868279728E+03  0.94975103826E+03  0.25500000920E-02 0.  1.
</event>
<event>
 5   0  0.1786228E-05  0.2195711E+04  0.7818609E-02  0.8520216E-01
        1   -1    0    0  501    0  0.00000000000E+00  0.00000000000E+00  0.69373193159E+03  0.69373193160E+03  0.50400001928E-02 0. -1.
       -1   -1    0    0    0  501  0.00000000000E+00  0.00000000000E+00 -0.17373949019E+04  0.17373949019E+04  0.50400001928E-02 0.  1.
    10030    2    1    2    0    0  0.00000000000E+00  0.00000000000E+00 -0.10436629703E+04  0.24311268335E+04  0.21957106560E+04 0.  0.
        5    1    3    3  502    0  0.88924813589E+03  0.10381615365E+03  0.18168599609E+03  0.91354908578E+03  0.46999998093E+01 0. -1.
       -5    1    3    3    0  502 -0.88924813589E+03 -0.10381615365E+03 -0.12253489664E+04  0.15175777477E+04  0.46999998093E+01 0.  1.
</event>
<event>
 5   0  0.1884407E-05  0.2202854E+04  0.7818609E-02  0.8517241E-01
       -1   -1    0    0    0  501  0.00000000000E+00  0.00000000000E+00  0.14740217251E+04  0.14740217251E+04  0.50400001928E-02 0. -1.
        1   -1    0    0  501    0  0.00000000000E+00  0.00000000000E+00 -0.82301472181E+03  0.82301472182E+03  0.50400001928E-02 0.  1.
    10030    2    1    2    0    0  0.00000000000E+00  0.00000000000E+00  0.65100700333E+03  0.22970364470E+04  0.22028541305E+04 0.  0.
        3    1    3    3  502    0 -0.94605688280E+03  0.24324061966E+03  0.85613342282E+03  0.12989049513E+04  0.10100000352E+00 0.  1.
       -3    1    3    3    0  502  0.94605688280E+03 -0.24324061966E+03 -0.20512641949E+03  0.99813149571E+03  0.10100000352E+00 0. -1.
</event>
<event>
 5   0  0.4029532E-05  0.2262418E+04  0.7818609E-02  0.8492888E-01
        2   -1    0    0  501    0  0.00000000000E+00  0.00000000000E+00  0.19955166716E+04  0.19955166716E+04  0.25500000920E-02 0. -1.
       -2   -1    0    0    0  501  0.00000000000E+00  0.00000000000E+00 -0.64125455527E+03  0.64125455528E+03  0.25500000920E-02 0.  1.
    10030    2    1    2    0    0  0.00000000000E+00  0.00000000000E+00  0.13542621164E+04  0.26367712269E+04  0.22624183131E+04 0.  0.
        3    1    3    3  502    0 -0.65959786884E+03 -0.25621444966E+03  0.17057290665E+04  0.18466799537E+04  0.10100000352E+00 0. -1.
       -3    1    3    3    0  502  0.65959786884E+03  0.25621444966E+03 -0.35146695014E+03  0.79009127323E+03  0.10100000352E+00 0.  1.
</event>
<event>
 5   0  0.4027923E-05  0.2178571E+04  0.7818609E-02  0.8527401E-01
        2   -1    0    0  501    0  0.00000000000E+00  0.00000000000E+00  0.91759127982E+03  0.91759127982E+03  0.25500000920E-02 0. -1.
       -2   -1    0    0    0  501  0.00000000000E+00  0.00000000000E+00 -0.12931056999E+04  0.12931056999E+04  0.25500000920E-02 0.  1.
    10030    2    1    2    0    0  0.00000000000E+00  0.00000000000E+00 -0.37551442009E+03  0.22106969797E+04  0.21785706453E+04 0.  0.
        5    1    3    3  502    0  0.23780026021E+03  0.71380729774E+03  0.61154529773E+03  0.96957700222E+03  0.46999998093E+01 0. -1.
       -5    1    3    3    0  502 -0.23780026021E+03 -0.71380729774E+03 -0.98705971782E+03  0.12411199775E+04  0.46999998093E+01 0.  1.
</event>
<event>
 5   0  0.1786228E-05  0.2204969E+04  0.7818609E-02  0.8516363E-01
        1   -1    0    0  501    0  0.00000000000E+00  0.00000000000E+00  0.71617908924E+03  0.71617908925E+03  0.50400001928E-02 0.  1.
       -1   -1    0    0    0  501  0.00000000000E+00  0.00000000000E+00 -0.16971616159E+04  0.16971616159E+04  0.50400001928E-02 0. -1.
    10030    2    1    2    0    0  0.00000000000E+00  0.00000000000E+00 -0.98098252664E+03  0.24133407051E+04  0.22049686260E+04 0.  0.
        5    1    3    3  502    0 -0.19628884455E+03  0.97652154556E+03 -0.10077237568E+04  0.14169166876E+04  0.46999998093E+01 0. -1.
       -5    1    3    3    0  502  0.19628884455E+03 -0.97652154556E+03  0.26741230161E+02  0.99642401759E+03  0.46999998093E+01 0.  1.
</event>
<event>
 5   0  0.3963414E-05  0.2189551E+04  0.7818609E-02  0.8522790E-01
        2   -1    0    0  501    0  0.00000000000E+00  0.00000000000E+00  0.14780521805E+04  0.14780521805E+04  0.25500000920E-02 0.  1.
       -2   -1    0    0    0  501  0.00000000000E+00  0.00000000000E+00 -0.81088705359E+03  0.81088705359E+03  0.25500000920E-02 0. -1.
    10030    2    1    2    0    0  0.00000000000E+00  0.00000000000E+00  0.66716512695E+03  0.22889392341E+04  0.21895509839E+04 0.  0.
        1    1    3    3  502    0  0.11469232362E+03  0.85875165166E+03 -0.36606879598E+03  0.94053978743E+03  0.50400001928E-02 0. -1.
       -1    1    3    3    0  502 -0.11469232362E+03 -0.85875165166E+03  0.10332339229E+04  0.13483994467E+04  0.50400001928E-02 0.  1.
</event>
<event>
 5   0  0.1788413E-05  0.2200792E+04  0.7818609E-02  0.8518099E-01
        1   -1    0    0  501    0  0.00000000000E+00  0.00000000000E+00  0.13376403270E+04  0.13376403270E+04  0.50400001928E-02 0.  1.
       -1   -1    0    0    0  501  0.00000000000E+00  0.00000000000E+00 -0.90522926407E+03  0.90522926408E+03  0.50400001928E-02 0. -1.
    10030    2    1    2    0    0  0.00000000000E+00  0.00000000000E+00  0.43241106290E+03  0.22428695911E+04  0.22007918291E+04 0.  0.
        1    1    3    3  502    0  0.57173119271E+03  0.38669096545E+03 -0.65718911248E+03  0.95304983556E+03  0.50400001928E-02 0. -1.
       -1    1    3    3    0  502 -0.57173119271E+03 -0.38669096545E+03  0.10896001754E+04  0.12898197555E+04  0.50400001928E-02 0.  1.
</event>
<event>
 5   0  0.4029532E-05  0.2198730E+04  0.7818609E-02  0.8518957E-01
       -2   -1    0    0    0  501  0.00000000000E+00  0.00000000000E+00  0.98087135563E+03  0.98087135564E+03  0.25500000920E-02 0.  1.
        2   -1    0    0  501    0  0.00000000000E+00  0.00000000000E+00 -0.12321736260E+04  0.12321736260E+04  0.25500000920E-02 0. -1.
    10030    2    1    2    0    0  0.00000000000E+00  0.00000000000E+00 -0.25130227033E+03  0.22130449816E+04  0.21987303744E+04 0.  0.
        3    1    3    3  502    0 -0.10321444126E+04  0.17417218071E+03  0.21261089113E+03  0.10681111544E+04  0.10100000352E+00 0.  1.
       -3    1    3    3    0  502  0.10321444126E+04 -0.17417218071E+03 -0.46391316146E+03  0.11449338272E+04  0.10100000352E+00 0. -1.
</event>
<event>
 5   0  0.4132460E-05  0.2199809E+04  0.7818609E-02  0.8518508E-01
       -2   -1    0    0    0  501  0.00000000000E+00  0.00000000000E+00  0.75417006185E+03  0.75417006185E+03  0.25500000920E-02 0.  1.
        2   -1    0    0  501    0  0.00000000000E+00  0.00000000000E+00 -0.16041335859E+04  0.16041335859E+04  0.25500000920E-02 0. -1.
    10030    2    1    2    0    0  0.00000000000E+00  0.00000000000E+00 -0.84996352400E+03  0.23583036477E+04  0.21998086514E+04 0.  0.
        4    1    3    3  502    0 -0.38226063071E+03  0.49050275874E+03 -0.13975804275E+04  0.15296891221E+04  0.12699999809E+01 0. -1.
       -4    1    3    3    0  502  0.38226063071E+03 -0.49050275874E+03  0.54761690349E+03  0.82861452559E+03  0.12699999809E+01 0.  1.
</event>
<event>
 5   0  0.4143281E-05  0.2200390E+04  0.7818609E-02  0.8518266E-01
        2   -1    0    0  501    0  0.00000000000E+00  0.00000000000E+00  0.21071953272E+04  0.21071953272E+04  0.25500000920E-02 0.  1.
       -2   -1    0    0    0  501  0.00000000000E+00  0.00000000000E+00 -0.57442654154E+03  0.57442654154E+03  0.25500000920E-02 0. -1.
    10030    2    1    2    0    0  0.00000000000E+00  0.00000000000E+00  0.15327687856E+04  0.26816218687E+04  0.22003898965E+04 0.  0.
        2    1    3    3  502    0  0.69087196548E+03 -0.25927675928E+03  0.17608792436E+04  0.19092470299E+04  0.25500000920E-02 0.  1.
       -2    1    3    3    0  502 -0.69087196548E+03  0.25927675928E+03 -0.22811045798E+03  0.77237483881E+03  0.25500000920E-02 0. -1.
</event>
<event>
 5   0  0.4143281E-05  0.2191909E+04  0.7818609E-02  0.8521803E-01
       -2   -1    0    0    0  501  0.00000000000E+00  0.00000000000E+00  0.92114144099E+03  0.92114144099E+03  0.25500000920E-02 0.  1.
        2   -1    0    0  501    0  0.00000000000E+00  0.00000000000E+00 -0.13039430411E+04  0.13039430411E+04  0.25500000920E-02 0. -1.
    10030    2    1    2    0    0  0.00000000000E+00  0.00000000000E+00 -0.38280160010E+03  0.22250844821E+04  0.21919087315E+04 0.  0.
        2    1    3    3  502    0  0.19562606635E+02  0.83755852297E+03  0.52585478653E+03  0.98914621341E+03  0.25500000920E-02 0.  1.
       -2    1    3    3    0  502 -0.19562606635E+02 -0.83755852297E+03 -0.90865638663E+03  0.12359382687E+04  0.25500000920E-02 0. -1.
</event>
<event>
 5   0  0.3963414E-05  0.2281254E+04  0.7818609E-02  0.8485349E-01
        2   -1    0    0  501    0  0.00000000000E+00  0.00000000000E+00  0.11825762219E+04  0.11825762219E+04  0.25500000920E-02 0. -1.
       -2   -1    0    0    0  501  0.00000000000E+00  0.00000000000E+00 -0.11001662518E+04  0.11001662518E+04  0.25500000920E-02 0.  1.
    10030    2    1    2    0    0  0.00000000000E+00  0.00000000000E+00  0.82409970096E+02  0.22827424738E+04  0.22812544353E+04 0.  0.
        1    1    3    3  502    0 -0.10323458244E+03  0.50852848407E+03 -0.97521929571E+03  0.11046769993E+04  0.50400001928E-02 0.  1.
       -1    1    3    3    0  502  0.10323458244E+03 -0.50852848407E+03  0.10576292658E+04  0.11780654744E+04  0.50400001928E-02 0. -1.
</event>
<event>
 5   0  0.1786228E-05  0.2202687E+04  0.7818609E-02  0.8517310E-01
        1   -1    0    0  501    0  0.00000000000E+00  0.00000000000E+00  0.10535722096E+04  0.10535722096E+04  0.50400001928E-02 0. -1.
       -1   -1    0    0    0  501  0.00000000000E+00  0.00000000000E+00 -0.11512812084E+04  0.11512812084E+04  0.50400001928E-02 0.  1.
    10030    2    1    2    0    0  0.00000000000E+00  0.00000000000E+00 -0.97708998788E+02  0.22048534181E+04  0.22026873466E+04 0.  0.
        5    1    3    3  502    0  0.43473008056E+03 -0.69929016282E+03  0.68325985781E+03  0.10699827560E+04  0.46999998093E+01 0. -1.
       -5    1    3    3    0  502 -0.43473008056E+03  0.69929016282E+03 -0.78096885659E+03  0.11348706621E+04  0.46999998093E+01 0.  1.
</event>
<event>
 5   0  0.1788413E-05  0.2193968E+04  0.7818609E-02  0.8520943E-01
        1   -1    0    0  501    0  0.00000000000E+00  0.00000000000E+00  0.21585588078E+04  0.21585588078E+04  0.50400001928E-02 0.  1.
       -1   -1    0    0    0  501  0.00000000000E+00  0.00000000000E+00 -0.55748957401E+03  0.55748957404E+03  0.50400001928E-02 0. -1.
    10030    2    1    2    0    0  0.00000000000E+00  0.00000000000E+00  0.16010692338E+04  0.27160483818E+04  0.21939681222E+04 0.  0.
        1    1    3    3  502    0  0.64603550411E+03  0.88600386654E+03  0.83986413708E+03  0.13812083452E+04  0.50400001928E-02 0. -1.
       -1    1    3    3    0  502 -0.64603550411E+03 -0.88600386654E+03  0.76120509669E+03  0.13348400366E+04  0.50400001928E-02 0.  1.
</event>
<event>
 5   0  0.3963414E-05  0.2200614E+04  0.7818609E-02  0.8518173E-01
       -2   -1    0    0    0  501  0.00000000000E+00  0.00000000000E+00  0.66361182520E+03  0.66361182520E+03  0.25500000920E-02 0. -1.
        2   -1    0    0  501    0  0.00000000000E+00  0.00000000000E+00 -0.18243730048E+04  0.18243730048E+04  0.25500000920E-02 0.  1.
    10030    2    1    2    0    0  0.00000000000E+00  0.00000000000E+00 -0.11607611796E+04  0.24879848300E+04  0.22006140048E+04 0.  0.
        1    1    3    3  502    0  0.75093744286E+03 -0.79242854923E+03 -0.42525746369E+03  0.11716202282E+04  0.50400001928E-02 0. -1.
       -1    1    3    3    0  502 -0.75093744286E+03  0.79242854923E+03 -0.73550371595E+03  0.13163646018E+04  0.50400001928E-02 0.  1.
</event>
<event>
 5   0  0.1815681E-05  0.2207199E+04  0.7818609E-02  0.8515438E-01
       -1   -1    0    0    0  501  0.00000000000E+00  0.00000000000E+00  0.14143654024E+04  0.14143654024E+04  0.50400001928E-02 0.  1.
        1   -1    0    0  501    0  0.00000000000E+00  0.00000000000E+00 -0.86111565774E+03  0.86111565775E+03  0.50400001928E-02 0. -1.
    10030    2    1    2    0    0  0.00000000000E+00  0.00000000000E+00  0.55324974467E+03  0.22754810602E+04  0.22071993057E+04 0.  0.
        2    1    3    3  502    0 -0.10721912799E+04 -0.18822416295E+03  0.46364732636E+03  0.11832122885E+04  0.25500000920E-02 0.  1.
       -2    1    3    3    0  502  0.10721912799E+04  0.18822416295E+03  0.89602418311E+02  0.10922687717E+04  0.25500000920E-02 0. -1.
</event>
<event>
 5   0  0.1884407E-05  0.2206209E+04  0.7818609E-02  0.8515848E-01
       -1   -1    0    0    0  501  0.00000000000E+00  0.00000000000E+00  0.10273669318E+04  0.10273669319E+04  0.50400001928E-02 0.  1.
        1   -1    0    0  501    0  0.00000000000E+00  0.00000000000E+00 -0.11844256215E+04  0.11844256215E+04  0.50400001928E-02 0. -1.
    10030    2    1    2    0    0  0.00000000000E+00  0.00000000000E+00 -0.15705868969E+03  0.22117925534E+04  0.22062091622E+04 0.  0.
        3    1    3    3  502    0 -0.62230572692E+03 -0.33419662605E+03 -0.92795627481E+03  0.11662138143E+04  0.10100000352E+00 0. -1.
       -3    1    3    3    0  502  0.62230572692E+03  0.33419662605E+03  0.77089758512E+03  0.10455787391E+04  0.10100000352E+00 0.  1.
</event>
<event>
 5   0  0.1866935E-05  0.2207003E+04  0.7818609E-02  0.8515519E-01
       -1   -1    0    0    0  501  0.00000000000E+00  0.00000000000E+00  0.10945319531E+04  0.10945319531E+04  0.50400001928E-02 0.  1.
        1   -1    0    0  501    0  0.00000000000E+00  0.00000000000E+00 -0.11125447826E+04  0.11125447826E+04  0.50400001928E-02 0. -1.
    10030    2    1    2    0    0  0.00000000000E+00  0.00000000000E+00 -0.18012829553E+02  0.22070767357E+04  0.22070032295E+04 0.  0.
        4    1    3    3  502    0 -0.16829130393E+02 -0.69789705605E+03 -0.86365214985E+03  0.11105134710E+04  0.12699999809E+01 0. -1.
       -4    1    3    3    0  502  0.16829130393E+02  0.69789705605E+03  0.84563932029E+03  0.10965632647E+04  0.12699999809E+01 0.  1.
</event>
<event>
 5   0  0.3963414E-05  0.2312890E+04  0.7818609E-02  0.8472856E-01
       -2   -1    0    0    0  501  0.00000000000E+00  0.00000000000E+00  0.12219178838E+04  0.12219178838E+04  0.25500000920E-02 0. -1.
        2   -1    0    0  501    0  0.00000000000E+00  0.00000000000E+00 -0.10944806134E+04  0.10944806134E+04  0.25500000920E-02 0.  1.
    10030    2    1    2    0    0  0.00000000000E+00  0.00000000000E+00  0.12743727037E+03  0.23163984972E+04  0.23128903433E+04 0.  0.
        1    1    3    3  502    0 -0.53574887250E+03  0.39731902853E+03  0.10098611243E+04  0.12102515256E+04  0.50400001928E-02 0. -1.
       -1    1    3    3    0  502  0.53574887250E+03 -0.39731902853E+03 -0.88242385391E+03  0.11061469716E+04  0.50400001928E-02 0.  1.
</event>
<event>
 5   0  0.1815681E-05  0.2197653E+04  0.7818609E-02  0.8519405E-01
       -1   -1    0    0    0  501  0.00000000000E+00  0.00000000000E+00  0.11094211332E+04  0.11094211332E+04  0.50400001928E-02 0.  1.
        1   -1    0    0  501    0  0.00000000000E+00  0.00000000000E+00 -0.10883335095E+04  0.10883335095E+04  0.50400001928E-02 0. -1.
    10030    2    1    2    0    0  0.00000000000E+00  0.00000000000E+00  0.21087623666E+02  0.21977546427E+04  0.21976534717E+04 0.  0.
        2    1    3    3  502    0 -0.48938997306E+03  0.96997050622E+03  0.17509580840E+03  0.11004562103E+04  0.25500000920E-02 0.  1.
       -2    1    3    3    0  502  0.48938997306E+03 -0.96997050622E+03 -0.15400818473E+03  0.10972984324E+04  0.25500000920E-02 0. -1.
</event>
<event>
 5   0  0.1884407E-05  0.2193092E+04  0.7818609E-02  0.8521309E-01
       -1   -1    0    0    0  501  0.00000000000E+00  0.00000000000E+00  0.70780502630E+03  0.70780502632E+03  0.50400001928E-02 0. -1.
        1   -1    0    0  501    0  0.00000000000E+00  0.00000000000E+00 -0.16987919719E+04  0.16987919719E+04  0.50400001928E-02 0.  1.
    10030    2    1    2    0    0  0.00000000000E+00  0.00000000000E+00 -0.99098694562E+03  0.24065969983E+04  0.21930923340E+04 0.  0.
        3    1    3    3  502    0 -0.47968073048E+03 -0.22685656956E+03  0.55754032453E+03  0.76968092742E+03  0.10100000352E+00 0. -1.
       -3    1    3    3    0  502  0.47968073048E+03  0.22685656956E+03 -0.15485272702E+04  0.16369160708E+04  0.10100000352E+00 0.  1.
</event>
<event>
 5   0  0.1786228E-05  0.2213026E+04  0.7818609E-02  0.8513026E-01
        1   -1    0    0  501    0  0.00000000000E+00  0.00000000000E+00  0.21907545701E+04  0.21907545701E+04  0.50400001928E-02 0. -1.
       -1   -1    0    0    0  501  0.00000000000E+00  0.00000000000E+00 -0.55888099796E+03  0.55888099798E+03  0.50400001928E-02 0.  1.
    10030    2    1    2    0    0  0.00000000000E+00  0.00000000000E+00  0.16318735721E+04  0.27496355681E+04  0.22130260735E+04 0.  0.
        5    1    3    3  502    0 -0.15187696227E+03 -0.90271275399E+03  0.15882664500E+04  0.18331855700E+04  0.46999998093E+01 0. -1.
       -5    1    3    3    0  502  0.15187696227E+03  0.90271275399E+03  0.43607122148E+02  0.91644999808E+03  0.46999998093E+01 0.  1.
</event>
<event>
 5   0  0.3963414E-05  0.2095963E+04  0.7818609E-02  0.8563024E-01
       -2   -1    0    0    0  501  0.00000000000E+00  0.00000000000E+00  0.10640080759E+04  0.10640080759E+04  0.25500000920E-02 0.  1.
        2   -1    0    0  501    0  0.00000000000E+00  0.00000000000E+00 -0.10321961843E+04  0.10321961843E+04  0.25500000920E-02 0. -1.
    10030    2    1    2    0    0  0.00000000000E+00  0.00000000000E+00  0.31811891599E+02  0.20962042603E+04  0.20959628585E+04 0.  0.
        1    1    3    3  502    0  0.45462311654E+03 -0.91521737454E+03  0.24822573761E+03  0.10516278037E+04  0.50400001928E-02 0.  1.
       -1    1    3    3    0  502 -0.45462311654E+03  0.91521737454E+03 -0.21641384601E+03  0.10445764565E+04  0.50400001928E-02 0. -1.
</event>
<event>
 5   0  0.1786228E-05  0.2191681E+04  0.7818609E-02  0.8521899E-01
       -1   -1    0    0    0  501  0.00000000000E+00  0.00000000000E+00  0.62171176329E+03  0.62171176331E+03  0.50400001928E-02 0.  1.
        1   -1    0    0  501    0  0.00000000000E+00  0.00000000000E+00 -0.19315487222E+04  0.19315487222E+04  0.50400001928E-02 0. -1.
    10030    2    1    2    0    0  0.00000000000E+00  0.00000000000E+00 -0.13098369589E+04  0.25532604855E+04  0.21916811465E+04 0.  0.
        5    1    3    3  502    0  0.85773912626E+02  0.22672490457E+03 -0.18999106200E+04  0.19153181982E+04  0.46999998093E+01 0. -1.
       -5    1    3    3    0  502 -0.85773912626E+02 -0.22672490457E+03  0.59007366108E+03  0.63794228731E+03  0.46999998093E+01 0.  1.
</event>
<event>
 5   0  0.4143281E-05  0.2205531E+04  0.7818609E-02  0.8516130E-01
       -2   -1    0    0    0  501  0.00000000000E+00  0.00000000000E+00  0.10768782330E+04  0.10768782330E+04  0.25500000920E-02 0. -1.
        2   -1    0    0  501    0  0.00000000000E+00  0.00000000000E+00 -0.11292746526E+04  0.11292746526E+04  0.25500000920E-02 0.  1.
    10030    2    1    2    0    0  0.00000000000E+00  0.00000000000E+00 -0.52396419599E+02  0.22061528857E+04  0.22055305870E+04 0.  0.
        2    1    3    3  502    0 -0.82332044990E+03 -0.73362637721E+03 -0.20994049943E+02  0.11029528434E+04  0.25500000920E-02 0.  1.
       -2    1    3    3    0  502  0.82332044990E+03  0.73362637721E+03 -0.31402369656E+02  0.11032000423E+04  0.25500000920E-02 0. -1.
</event>
<event>
 5   0  0.1815681E-05  0.2189299E+04  0.7818609E-02  0.8522895E-01
       -1   -1    0    0    0  501  0.00000000000E+00  0.00000000000E+00  0.85289545501E+03  0.85289545502E+03  0.50400001928E-02 0.  1.
        1   -1    0    0  501    0  0.00000000000E+00  0.00000000000E+00 -0.14049291247E+04  0.14049291247E+04  0.50400001928E-02 0. -1.
    10030    2    1    2    0    0  0.00000000000E+00  0.00000000000E+00 -0.55203366969E+03  0.22578245797E+04  0.21892991254E+04 0.  0.
        2    1    3    3  502    0 -0.33726884039E+03 -0.82220509556E+03  0.38311725650E+03  0.96775530073E+03  0.25500000920E-02 0.  1.
       -2    1    3    3    0  502  0.33726884039E+03  0.82220509556E+03 -0.93515092620E+03  0.12900692790E+04  0.25500000920E-02 0. -1.
</event>
<event>
 5   0  0.4027923E-05  0.2159022E+04  0.7818609E-02  0.8535680E-01
       -2   -1    0    0    0  501  0.00000000000E+00  0.00000000000E+00  0.64460357474E+03  0.64460357474E+03  0.25500000920E-02 0. -1.
        2   -1    0    0  501    0  0.00000000000E+00  0.00000000000E+00 -0.18078458383E+04  0.18078458383E+04  0.25500000920E-02 0.  1.
    10030    2    1    2    0    0  0.00000000000E+00  0.00000000000E+00 -0.11632422635E+04  0.24524494130E+04  0.21590218988E+04 0.  0.
        5    1    3    3  502    0 -0.62145407879E+03 -0.85762797901E+03 -0.34446147325E+03  0.11137354798E+04  0.46999998093E+01 0. -1.
       -5    1    3    3    0  502  0.62145407879E+03  0.85762797901E+03 -0.81878079027E+03  0.13387139332E+04  0.46999998093E+01 0.  1.
</event>
<event>
 5   0  0.4132460E-05  0.2186566E+04  0.7818609E-02  0.8524040E-01
        2   -1    0    0  501    0  0.00000000000E+00  0.00000000000E+00  0.13687173021E+04  0.13687173021E+04  0.25500000920E-02 0.  1.
       -2   -1    0    0    0  501  0.00000000000E+00  0.00000000000E+00 -0.87327591247E+03  0.87327591247E+03  0.25500000920E-02 0. -1.
    10030    2    1    2    0    0  0.00000000000E+00  0.00000000000E+00  0.49544138961E+03  0.22419932145E+04  0.21865661215E+04 0.  0.
        4    1    3    3  502    0 -0.10899858130E+04 -0.68055022105E+02  0.29965721695E+03  0.11324736727E+04  0.12699999809E+01 0.  1.
       -4    1    3    3    0  502  0.10899858130E+04  0.68055022105E+02  0.19578417265E+03  0.11095195419E+04  0.12699999809E+01 0. -1.
</event>
<event>
 5   0  0.4132460E-05  0.2203825E+04  0.7818609E-02  0.8516838E-01
       -2   -1    0    0    0  501  0.00000000000E+00  0.00000000000E+00  0.84351952434E+03  0.84351952434E+03  0.25500000920E-02 0.  1.
        2   -1    0    0  501    0  0.00000000000E+00  0.00000000000E+00 -0.14394588843E+04  0.14394588843E+04  0.25500000920E-02 0. -1.
    10030    2    1    2    0    0  0.00000000000E+00  0.00000000000E+00 -0.59593935994E+03  0.22829784086E+04  0.22038254680E+04 0.  0.
        4    1    3    3  502    0  0.31922994454E+03  0.60745487812E+03 -0.11910837439E+04  0.13746240520E+04  0.12699999809E+01 0. -1.
       -4    1    3    3    0  502 -0.31922994454E+03 -0.60745487812E+03  0.59514438399E+03  0.90835435659E+03  0.12699999809E+01 0.  1.
</event>
<event>
 5   0  0.1786228E-05  0.2186209E+04  0.7818609E-02  0.8524190E-01
       -1   -1    0    0    0  501  0.00000000000E+00  0.00000000000E+00  0.10450421991E+04  0.10450421992E+04  0.50400001928E-02 0.  1.
        1   -1    0    0  501    0  0.00000000000E+00  0.00000000000E+00 -0.11433769061E+04  0.11433769062E+04  0.50400001928E-02 0. -1.
    10030    2    1    2    0    0  0.00000000000E+00  0.00000000000E+00 -0.98334707007E+02  0.21884191053E+04  0.21862086968E+04 0.  0.
        5    1    3    3  502    0  0.45918507720E+03 -0.82090517221E+02  0.94039942198E+03  0.10497442312E+04  0.46999998093E+01 0.  1.
       -5    1    3    3    0  502 -0.45918507720E+03  0.82090517221E+02 -0.10387341290E+04  0.11386748741E+04  0.46999998093E+01 0. -1.
</event>
<event>
 5   0  0.1786228E-05  0.2196793E+04  0.7818609E-02  0.8519764E-01
        1   -1    0    0  501    0  0.00000000000E+00  0.00000000000E+00  0.82550710543E+03  0.82550710544E+03  0.50400001928E-02 0.  1.
       -1   -1    0    0    0  501  0.00000000000E+00  0.00000000000E+00 -0.14614956710E+04  0.14614956710E+04  0.50400001928E-02 0. -1.
    10030    2    1    2    0    0  0.00000000000E+00  0.00000000000E+00 -0.63598856555E+03  0.22870027764E+04  0.21967931728E+04 0.  0.
        5    1    3    3  502    0  0.96743514827E+03  0.49338859196E+03 -0.48934315096E+03  0.11911514925E+04  0.46999998093E+01 0.  1.
       -5    1    3    3    0  502 -0.96743514827E+03 -0.49338859196E+03 -0.14664541459E+03  0.10958512839E+04  0.46999998093E+01 0. -1.
</event>
<event>
 5   0  0.1786228E-05  0.2131505E+04  0.7818609E-02  0.8547491E-01
        1   -1    0    0  501    0  0.00000000000E+00  0.00000000000E+00  0.68857731905E+03  0.68857731907E+03  0.50400001928E-02 0. -1.
       -1   -1    0    0    0  501  0.00000000000E+00  0.00000000000E+00 -0.16495298621E+04  0.16495298621E+04  0.50400001928E-02 0.  1.
    10030    2    1    2    0    0  0.00000000000E+00  0.00000000000E+00 -0.96095254301E+03  0.23381071811E+04  0.21315054306E+04 0.  0.
        5    1    3    3  502    0 -0.78662341719E+03 -0.48012686201E+03 -0.10676231688E+04  0.14103685776E+04  0.46999998093E+01 0.  1.
       -5    1    3    3    0  502  0.78662341719E+03  0.48012686201E+03  0.10667062580E+03  0.92773860354E+03  0.46999998093E+01 0. -1.
</event>
<event>
 5   0  0.3963414E-05  0.2162753E+04  0.7818609E-02  0.8534093E-01
       -2   -1    0    0    0  501  0.00000000000E+00  0.00000000000E+00  0.63484925167E+03  0.63484925167E+03  0.25500000920E-02 0.  1.
        2   -1    0    0  501    0  0.00000000000E+00  0.00000000000E+00 -0.18419723506E+04  0.18419723506E+04  0.25500000920E-02 0. -1.
    10030    2    1    2    0    0  0.00000000000E+00  0.00000000000E+00 -0.12071230990E+04  0.24768216023E+04  0.21627526612E+04 0.  0.
        1    1    3    3  502    0 -0.15111217978E+03 -0.73913961139E+01 -0.18297920284E+04  0.18360360538E+04  0.50400001928E-02 0. -1.
       -1    1    3    3    0  502  0.15111217978E+03  0.73913961139E+01  0.62266892938E+03  0.64078554857E+03  0.50400001928E-02 0.  1.
</event>
<event>
 5   0  0.4027923E-05  0.2122947E+04  0.7818609E-02  0.8551202E-01
       -2   -1    0    0    0  501  0.00000000000E+00  0.00000000000E+00  0.12229702810E+04  0.12229702810E+04  0.25500000920E-02 0. -1.
        2   -1    0    0  501    0  0.00000000000E+00  0.00000000000E+00 -0.92130277847E+03  0.92130277847E+03  0.25500000920E-02 0.  1.
    10030    2    1    2    0    0  0.00000000000E+00  0.00000000000E+00  0.30166750253E+03  0.21442730595E+04  0.21229469309E+04 0.  0.
        5    1    3    3  502    0 -0.73262027149E+03 -0.30370851069E+03 -0.56175498572E+03  0.97188583467E+03  0.46999998093E+01 0.  1.
       -5    1    3    3    0  502  0.73262027149E+03  0.30370851069E+03  0.86342248825E+03  0.11723872248E+04  0.46999998093E+01 0. -1.
</event>
<event>
 5   0  0.1884407E-05  0.2213422E+04  0.7818609E-02  0.8512862E-01
       -1   -1    0    0    0  501  0.00000000000E+00  0.00000000000E+00  0.13701904248E+04  0.13701904248E+04  0.50400001928E-02 0.  1.
        1   -1    0    0  501    0  0.00000000000E+00  0.00000000000E+00 -0.89389710929E+03  0.89389710931E+03  0.50400001928E-02 0. -1.
    10030    2    1    2    0    0  0.00000000000E+00  0.00000000000E+00  0.47629331553E+03  0.22640875341E+04  0.22134220203E+04 0.  0.
        3    1    3    3  502    0  0.12622836261E+03 -0.58257422023E+02  0.13612230609E+04  0.13683039715E+04  0.10100000352E+00 0.  1.
       -3    1    3    3    0  502 -0.12622836261E+03  0.58257422023E+02 -0.88492974533E+03  0.89578356266E+03  0.10100000352E+00 0. -1.
</event>
<event>
 5   0  0.4132460E-05  0.2201398E+04  0.7818609E-02  0.8517847E-01
        2   -1    0    0  501    0  0.00000000000E+00  0.00000000000E+00  0.14990455664E+04  0.14990455664E+04  0.25500000920E-02 0. -1.
       -2   -1    0    0    0  501  0.00000000000E+00  0.00000000000E+00 -0.80820621137E+03  0.80820621137E+03  0.25500000920E-02 0.  1.
    10030    2    1    2    0    0  0.00000000000E+00  0.00000000000E+00  0.69083935499E+03  0.23072517777E+04  0.22013976813E+04 0.  0.
        4    1    3    3  502    0 -0.92200439484E+03 -0.35840226299E+03 -0.16048305526E+03  0.10021480480E+04  0.12699999809E+01 0.  1.
       -4    1    3    3    0  502  0.92200439484E+03  0.35840226299E+03  0.85132241025E+03  0.13051037297E+04  0.12699999809E+01 0. -1.
</event>
<event>
 5   0  0.3963414E-05  0.2192904E+04  0.7818609E-02  0.8521387E-01
        2   -1    0    0  501    0  0.00000000000E+00  0.00000000000E+00  0.12129890767E+04  0.12129890767E+04  0.25500000920E-02 0. -1.
       -2   -1    0    0    0  501  0.00000000000E+00  0.00000000000E+00 -0.99111132593E+03  0.99111132594E+03  0.25500000920E-02 0.  1.
    10030    2    1    2    0    0  0.00000000000E+00  0.00000000000E+00  0.22187775075E+03  0.22041004026E+04  0.21929042041E+04 0.  0.
        1    1    3    3  502    0  0.74557156399E+03  0.71640303369E+03  0.47762608601E+03  0.11389630994E+04  0.50400001928E-02 0.  1.
       -1    1    3    3    0  502 -0.74557156399E+03 -0.71640303369E+03 -0.25574833527E+03  0.10651373032E+04  0.50400001928E-02 0. -1.
</event>
<event>
 5   0  0.1788413E-05  0.2201014E+04  0.7818609E-02  0.8518006E-01
        1   -1    0    0  501    0  0.00000000000E+00  0.00000000000E+00  0.18760147276E+04  0.18760147276E+04  0.50400001928E-02 0. -1.
       -1   -1    0    0    0  501  0.00000000000E+00  0.00000000000E+00 -0.64557876531E+03  0.64557876533E+03  0.50400001928E-02 0.  1.
    10030    2    1    2    0    0  0.00000000000E+00  0.00000000000E+00  0.12304359623E+04  0.25215934929E+04  0.22010136497E+04 0.  0.
        1    1    3    3  502    0 -0.11554164955E+03 -0.84262990102E+03  0.14153223410E+04  0.16512154165E+04  0.50400001928E-02 0.  1.
       -1    1    3    3    0  502  0.11554164955E+03  0.84262990102E+03 -0.18488637867E+03  0.87037807642E+03  0.50400001928E-02 0. -1.
</event>
<event>
 5   0  0.4029532E-05  0.2186433E+04  0.7818609E-02  0.8524096E-01
       -2   -1    0    0    0  501  0.00000000000E+00  0.00000000000E+00  0.11370366639E+04  0.11370366639E+04  0.25500000920E-02 0. -1.
        2   -1    0    0  501    0  0.00000000000E+00  0.00000000000E+00 -0.10510850197E+04  0.10510850197E+04  0.25500000920E-02 0.  1.
    10030    2    1    2    0    0  0.00000000000E+00  0.00000000000E+00  0.85951644145E+02  0.21881216836E+04  0.21864328979E+04 0.  0.
        3    1    3    3  502    0 -0.78802700376E+03 -0.64590139916E+02  0.79851838300E+03  0.11237393216E+04  0.10100000352E+00 0. -1.
       -3    1    3    3    0  502  0.78802700376E+03  0.64590139916E+02 -0.71256673885E+03  0.10643823619E+04  0.10100000352E+00 0.  1.
</event>
<event>
 5   0  0.1884407E-05  0.2224879E+04  0.7818609E-02  0.8508144E-01
       -1   -1    0    0    0  501  0.00000000000E+00  0.00000000000E+00  0.69995917904E+03  0.69995917905E+03  0.50400001928E-02 0.  1.
        1   -1    0    0  501    0  0.00000000000E+00  0.00000000000E+00 -0.17679907996E+04  0.17679907996E+04  0.50400001928E-02 0. -1.
    10030    2    1    2    0    0  0.00000000000E+00  0.00000000000E+00 -0.10680316206E+04  0.24679499787E+04  0.22248787730E+04 0.  0.
        3    1    3    3  502    0 -0.11019060456E+04 -0.13162613110E+03 -0.61993094596E+03  0.12711556787E+04  0.10100000352E+00 0.  1.
       -3    1    3    3    0  502  0.11019060456E+04  0.13162613110E+03 -0.44810067464E+03  0.11967943000E+04  0.10100000352E+00 0. -1.
</event>
<event>
 5   0  0.1786228E-05  0.2202637E+04  0.7818609E-02  0.8517331E-01
       -1   -1    0    0    0  501  0.00000000000E+00  0.00000000000E+00  0.60712783342E+03  0.60712783344E+03  0.50400001928E-02 0.  1.
        1   -1    0    0  501    0  0.00000000000E+00  0.00000000000E+00 -0.19977719468E+04  0.19977719468E+04  0.50400001928E-02 0. -1.
    10030    2    1    2    0    0  0.00000000000E+00  0.00000000000E+00 -0.13906441134E+04  0.26048997802E+04  0.22026374679E+04 0.  0.
        5    1    3    3  502    0 -0.99742592728E+03  0.45892526323E+03 -0.79712414655E+03  0.13567976535E+04  0.46999998093E+01 0. -1.
       -5    1    3    3    0  502  0.99742592728E+03 -0.45892526323E+03 -0.59351996683E+03  0.12481021267E+04  0.46999998093E+01 0.  1.
</event>
<event>
 5   0  0.1788413E-05  0.2203779E+04  0.7818609E-02  0.8516857E-01
        1   -1    0    0  501    0  0.00000000000E+00  0.00000000000E+00  0.14918389792E+04  0.14918389792E+04  0.50400001928E-02 0. -1.
       -1   -1    0    0    0  501  0.00000000000E+00  0.00000000000E+00 -0.81386804078E+03  0.81386804079E+03  0.50400001928E-02 0.  1.
    10030    2    1    2    0    0  0.00000000000E+00  0.00000000000E+00  0.67797093843E+03  0.23057070200E+04  0.22037786342E+04 0.  0.
        1    1    3    3  502    0  0.10995876316E+04  0.59787903426E+02  0.29856555420E+03  0.11409684234E+04  0.50400001928E-02 0.  1.
       -1    1    3    3    0  502 -0.10995876316E+04 -0.59787903426E+02  0.37940538423E+03  0.11647385966E+04  0.50400001928E-02 0. -1.
</event>
<event>
 5   0  0.1788413E-05  0.1975586E+04  0.7818609E-02  0.8618121E-01
        1   -1    0    0  501    0  0.00000000000E+00  0.00000000000E+00  0.20463075995E+04  0.20463075995E+04  0.50400001928E-02 0. -1.
       -1   -1    0    0    0  501  0.00000000000E+00  0.00000000000E+00 -0.47682728357E+03  0.47682728360E+03  0.50400001928E-02 0.  1.
    10030    2    1    2    0    0  0.00000000000E+00  0.00000000000E+00  0.15694803160E+04  0.25231348831E+04  0.19755862867E+04 0.  0.
        1    1    3    3  502    0  0.18955588963E+03 -0.38865360960E+03 -0.34952545294E+03  0.55601358421E+03  0.50400001928E-02 0.  1.
       -1    1    3    3    0  502 -0.18955588963E+03  0.38865360960E+03  0.19190057689E+04  0.19671212989E+04  0.50400001928E-02 0. -1.
</event>
<event>
 5   0  0.4029532E-05  0.2204093E+04  0.7818609E-02  0.8516727E-01
        2   -1    0    0  501    0  0.00000000000E+00  0.00000000000E+00  0.15695230902E+04  0.15695230902E+04  0.25500000920E-02 0.  1.
       -2   -1    0    0    0  501  0.00000000000E+00  0.00000000000E+00 -0.77380582886E+03  0.77380582887E+03  0.25500000920E-02 0. -1.
    10030    2    1    2    0    0  0.00000000000E+00  0.00000000000E+00  0.79571726132E+03  0.23433289191E+04  0.22040926620E+04 0.  0.
        3    1    3    3  502    0  0.78178489587E+03 -0.44899043003E+03  0.10717166711E+04  0.14004844387E+04  0.10100000352E+00 0.  1.
       -3    1    3    3    0  502 -0.78178489587E+03  0.44899043003E+03 -0.27599940982E+03  0.94284448034E+03  0.10100000352E+00 0. -1.
</event>
<event>
 5   0  0.1788413E-05  0.2202203E+04  0.7818609E-02  0.8517512E-01
       -1   -1    0    0    0  501  0.00000000000E+00  0.00000000000E+00  0.68885451993E+03  0.68885451995E+03  0.50400001928E-02 0.  1.
        1   -1    0    0  501    0  0.00000000000E+00  0.00000000000E+00 -0.17600587196E+04  0.17600587196E+04  0.50400001928E-02 0. -1.
    10030    2    1    2    0    0  0.00000000000E+00  0.00000000000E+00 -0.10712041997E+04  0.24489132396E+04  0.22022029011E+04 0.  0.
        1    1    3    3  502    0 -0.35966634209E+03 -0.55670443479E+03 -0.15133940556E+04  0.16521626048E+04  0.50400001928E-02 0. -1.
       -1    1    3    3    0  502  0.35966634209E+03  0.55670443479E+03  0.44218985586E+03  0.79675063476E+03  0.50400001928E-02 0.  1.
</event>
<event>
 5   0  0.1815681E-05  0.2202482E+04  0.7818609E-02  0.8517396E-01
       -1   -1    0    0    0  501  0.00000000000E+00  0.00000000000E+00  0.64315876216E+03  0.64315876218E+03  0.50400001928E-02 0. -1.
        1   -1    0    0  501    0  0.00000000000E+00  0.00000000000E+00 -0.18855877231E+04  0.18855877231E+04  0.50400001928E-02 0.  1.
    10030    2    1    2    0    0  0.00000000000E+00  0.00000000000E+00 -0.12424289610E+04  0.25287464853E+04  0.22024824775E+04 0.  0.
        2    1    3    3  502    0 -0.80042511475E+03 -0.49140814861E+03  0.38907973033E+02  0.94004051148E+03  0.25500000920E-02 0. -1.
       -2    1    3    3    0  502  0.80042511475E+03  0.49140814861E+03 -0.12813369340E+04  0.15887059738E+04  0.25500000920E-02 0.  1.
</event>
<event>
 5   0  0.1786228E-05  0.2207345E+04  0.7818609E-02  0.8515377E-01
       -1   -1    0    0    0  501  0.00000000000E+00  0.00000000000E+00  0.18271284974E+04  0.18271284974E+04  0.50400001928E-02 0.  1.
        1   -1    0    0  501    0  0.00000000000E+00  0.00000000000E+00 -0.66667093851E+03  0.66667093853E+03  0.50400001928E-02 0. -1.
    10030    2    1    2    0    0  0.00000000000E+00  0.00000000000E+00  0.11604575589E+04  0.24937994360E+04  0.22073454376E+04 0.  0.
        5    1    3    3  502    0 -0.38852446363E+03  0.68287791942E+03 -0.29547134370E+03  0.83940390553E+03  0.46999998093E+01 0. -1.
       -5    1    3    3    0  502  0.38852446363E+03 -0.68287791942E+03  0.14559289026E+04  0.16543955304E+04  0.46999998093E+01 0.  1.
</event>
<event>
 5   0  0.3963414E-05  0.2197547E+04  0.7818609E-02  0.8519450E-01
        2   -1    0    0  501    0  0.00000000000E+00  0.00000000000E+00  0.16948022539E+04  0.16948022539E+04  0.25500000920E-02 0.  1.
       -2   -1    0    0    0  501  0.00000000000E+00  0.00000000000E+00 -0.71235613543E+03  0.71235613544E+03  0.25500000920E-02 0. -1.
    10030    2    1    2    0    0  0.00000000000E+00  0.00000000000E+00  0.98244611848E+03  0.24071583893E+04  0.21975466174E+04 0.  0.
        1    1    3    3  502    0  0.39180108540E+03 -0.20875344156E+03  0.15921888919E+04  0.16529221268E+04  0.50400001928E-02 0.  1.
       -1    1    3    3    0  502 -0.39180108540E+03  0.20875344156E+03 -0.60974277343E+03  0.75423626250E+03  0.50400001928E-02 0. -1.
</event>
<event>
 5   0  0.4029532E-05  0.2312487E+04  0.7818609E-02  0.8473014E-01
        2   -1    0    0  501    0  0.00000000000E+00  0.00000000000E+00  0.22467563373E+04  0.22467563373E+04  0.25500000920E-02 0. -1.
       -2   -1    0    0    0  501  0.00000000000E+00  0.00000000000E+00 -0.59503536087E+03  0.59503536087E+03  0.25500000920E-02 0.  1.
    10030    2    1    2    0    0  0.00000000000E+00  0.00000000000E+00  0.16517209764E+04  0.28417916981E+04  0.23124873776E+04 0.  0.
        3    1    3    3  502    0  0.77624808917E+03  0.66185249769E+03  0.15694523628E+03  0.10321054413E+04  0.10100000352E+00 0.  1.
       -3    1    3    3    0  502 -0.77624808917E+03 -0.66185249769E+03  0.14947757401E+04  0.18096862568E+04  0.10100000352E+00 0. -1.
</event>
<event>
 5   0  0.1866935E-05  0.2201187E+04  0.7818609E-02  0.8517934E-01
        1   -1    0    0  501    0  0.00000000000E+00  0.00000000000E+00  0.77047065475E+03  0.77047065476E+03  0.50400001928E-02 0.  1.
       -1   -1    0    0    0  501  0.00000000000E+00  0.00000000000E+00 -0.15721642359E+04  0.15721642359E+04  0.50400001928E-02 0. -1.
    10030    2    1    2    0    0  0.00000000000E+00  0.00000000000E+00 -0.80169358119E+03  0.23426348907E+04  0.22011873235E+04 0.  0.
        4    1    3    3  502    0 -0.62581096013E+03  0.26609981737E+03  0.52012611830E+03  0.85614324879E+03  0.12699999809E+01 0.  1.
       -4    1    3    3    0  502  0.62581096013E+03 -0.26609981737E+03 -0.13218196995E+04  0.14864916419E+04  0.12699999809E+01 0. -1.
</event>
<event>
 5   0  0.1815681E-05  0.2205723E+04  0.7818609E-02  0.8516050E-01
       -1   -1    0    0    0  501  0.00000000000E+00  0.00000000000E+00  0.46153188525E+03  0.46153188527E+03  0.50400001928E-02 0.  1.
        1   -1    0    0  501    0  0.00000000000E+00  0.00000000000E+00 -0.26353620467E+04  0.26353620467E+04  0.50400001928E-02 0. -1.
    10030    2    1    2    0    0  0.00000000000E+00  0.00000000000E+00 -0.21738301615E+04  0.30968939320E+04  0.22057231139E+04 0.  0.
        2    1    3    3  502    0 -0.21724003154E+03 -0.44375742501E+03 -0.24712808479E+04  0.25201870789E+04  0.25500000920E-02 0. -1.
       -2    1    3    3    0  502  0.21724003154E+03  0.44375742501E+03  0.29745068641E+03  0.57670685309E+03  0.25500000920E-02 0.  1.
</event>
<event>
 5   0  0.1866935E-05  0.2199492E+04  0.7818609E-02  0.8518640E-01
       -1   -1    0    0    0  501  0.00000000000E+00  0.00000000000E+00  0.89948049467E+03  0.89948049468E+03  0.50400001928E-02 0. -1.
        1   -1    0    0  501    0  0.00000000000E+00  0.00000000000E+00 -0.13445996750E+04  0.13445996750E+04  0.50400001928E-02 0.  1.
    10030    2    1    2    0    0  0.00000000000E+00  0.00000000000E+00 -0.44511918033E+03  0.22440801697E+04  0.21994919239E+04 0.  0.
        4    1    3    3  502    0  0.24319572160E+03 -0.12999286485E+03  0.86363360158E+03  0.90659081983E+03  0.12699999809E+01 0. -1.
       -4    1    3    3    0  502 -0.24319572160E+03  0.12999286485E+03 -0.13087527819E+04  0.13374893499E+04  0.12699999809E+01 0.  1.
</event>
<event>
 5   0  0.1788413E-05  0.2204647E+04  0.7818609E-02  0.8516497E-01
       -1   -1    0    0    0  501  0.00000000000E+00  0.00000000000E+00  0.22194957344E+04  0.22194957344E+04  0.50400001928E-02 0.  1.
        1   -1    0    0  501    0  0.00000000000E+00  0.00000000000E+00 -0.54747429528E+03  0.54747429531E+03  0.50400001928E-02 0. -1.
    10030    2    1    2    0    0  0.00000000000E+00  0.00000000000E+00  0.16720214391E+04  0.27669700297E+04  0.22046467863E+04 0.  0.
        1    1    3    3  502    0 -0.51311694577E+03 -0.15327030697E+03  0.20452661585E+04  0.21142124884E+04  0.50400001928E-02 0.  1.
       -1    1    3    3    0  502  0.51311694577E+03  0.15327030697E+03 -0.37324471944E+03  0.65275754125E+03  0.50400001928E-02 0. -1.
</event>
<event>
 5   0  0.1433375E-05  0.2204007E+04  0.7818609E-02  0.8516762E-01
        3   -1    0    0  501    0  0.00000000000E+00  0.00000000000E+00  0.10765966629E+04  0.10765966677E+04  0.10100000352E+00 0.  1.
       -3   -1    0    0    0  501  0.00000000000E+00  0.00000000000E+00 -0.11280096130E+04  0.11280096175E+04  0.10100000352E+00 0. -1.
    10030    2    1    2    0    0  0.00000000000E+00  0.00000000000E+00 -0.51412950057E+02  0.22046062851E+04  0.22040067108E+04 0.  0.
        1    1    3    3  502    0 -0.57761426616E+02  0.87041412000E+03  0.64786684690E+03  0.10865949448E+04  0.50400001928E-02 0. -1.
       -1    1    3    3    0  502  0.57761426616E+02 -0.87041412000E+03 -0.69927979696E+03  0.11180113404E+04  0.50400001928E-02 0.  1.
</event>
<event>
 5   0  0.1866935E-05  0.2211764E+04  0.7818609E-02  0.8513547E-01
       -1   -1    0    0    0  501  0.00000000000E+00  0.00000000000E+00  0.39494135371E+03  0.39494135374E+03  0.50400001928E-02 0.  1.
        1   -1    0    0  501    0  0.00000000000E+00  0.00000000000E+00 -0.30966001553E+04  0.30966001553E+04  0.50400001928E-02 0. -1.
    10030    2    1    2    0    0  0.00000000000E+00  0.00000000000E+00 -0.27016588016E+04  0.34915415091E+04  0.22117644154E+04 0.  0.
        4    1    3    3  502    0 -0.89601023169E+03  0.63626833176E+03 -0.11555510350E+04  0.15946697253E+04  0.12699999809E+01 0.  1.
       -4    1    3    3    0  502  0.89601023169E+03 -0.63626833176E+03 -0.15461077666E+04  0.18968717838E+04  0.12699999809E+01 0. -1.
</event>
<event>
 5   0  0.4132460E-05  0.2206816E+04  0.7818609E-02  0.8515596E-01
       -2   -1    0    0    0  501  0.00000000000E+00  0.00000000000E+00  0.61352902316E+03  0.61352902316E+03  0.25500000920E-02 0.  1.
        2   -1    0    0  501    0  0.00000000000E+00  0.00000000000E+00 -0.19844368852E+04  0.19844368852E+04  0.25500000920E-02 0. -1.
    10030    2    1    2    0    0  0.00000000000E+00  0.00000000000E+00 -0.13709078621E+04  0.25979659084E+04  0.22068163709E+04 0.  0.
        4    1    3    3  502    0 -0.21065417797E+03 -0.10617894334E+02 -0.19604826751E+04  0.19717966058E+04  0.12699999809E+01 0. -1.
       -4    1    3    3    0  502  0.21065417797E+03  0.10617894334E+02  0.58957481306E+03  0.62616930256E+03  0.12699999809E+01 0.  1.
</event>
<event>
 5   0  0.4132460E-05  0.2218879E+04  0.7818609E-02  0.8510611E-01
       -2   -1    0    0    0  501  0.00000000000E+00  0.00000000000E+00  0.13755219582E+04  0.13755219582E+04  0.25500000920E-02 0.  1.
        2   -1    0    0  501    0  0.00000000000E+00  0.00000000000E+00 -0.89482857873E+03  0.89482857873E+03  0.25500000920E-02 0. -1.
    10030    2    1    2    0    0  0.00000000000E+00  0.00000000000E+00  0.48069337948E+03  0.22703505369E+04  0.22188793197E+04 0.  0.
        4    1    3    3  502    0  0.15567657130E+03 -0.10932400356E+04  0.34981334535E+03  0.11583522606E+04  0.12699999809E+01 0.  1.
       -4    1    3    3    0  502 -0.15567657130E+03  0.10932400356E+04  0.13088003413E+03  0.11119982763E+04  0.12699999809E+01 0. -1.
</event>
<event>
 5   0  0.1788413E-05  0.2227920E+04  0.7818609E-02  0.8506896E-01
       -1   -1    0    0    0  501  0.00000000000E+00  0.00000000000E+00  0.67112968020E+03  0.67112968022E+03  0.50400001928E-02 0. -1.
        1   -1    0    0  501    0  0.00000000000E+00  0.00000000000E+00 -0.18489820827E+04  0.18489820827E+04  0.50400001928E-02 0.  1.
    10030    2    1    2    0    0  0.00000000000E+00  0.00000000000E+00 -0.11778524025E+04  0.25201117630E+04  0.22279198854E+04 0.  0.
        1    1    3    3  502    0 -0.92583184549E+03 -0.41777686288E+02 -0.12880435487E+04  0.15868100594E+04  0.50400001928E-02 0.  1.
       -1    1    3    3    0  502  0.92583184549E+03  0.41777686288E+02  0.11019114616E+03  0.93330170358E+03  0.50400001928E-02 0. -1.
</event>
<event>
 5   0  0.1866935E-05  0.2202648E+04  0.7818609E-02  0.8517327E-01
        1   -1    0    0  501    0  0.00000000000E+00  0.00000000000E+00  0.57261250445E+03  0.57261250447E+03  0.50400001928E-02 0.  1.
       -1   -1    0    0    0  501  0.00000000000E+00  0.00000000000E+00 -0.21182113183E+04  0.21182113183E+04  0.50400001928E-02 0. -1.
    10030    2    1    2    0    0  0.00000000000E+00  0.00000000000E+00 -0.15455988139E+04  0.26908238228E+04  0.22026477594E+04 0.  0.
        4    1    3    3  502    0  0.38396818770E+03  0.55827615358E+03 -0.18334463047E+04  0.19546433941E+04  0.12699999809E+01 0. -1.
       -4    1    3    3    0  502 -0.38396818770E+03 -0.55827615358E+03  0.28784749081E+03  0.73618042876E+03  0.12699999809E+01 0.  1.
</event>
<event>
 5   0  0.4132460E-05  0.2229678E+04  0.7818609E-02  0.8506176E-01
        2   -1    0    0  501    0  0.00000000000E+00  0.00000000000E+00  0.11025507384E+04  0.11025507384E+04  0.25500000920E-02 0.  1.
       -2   -1    0    0    0  501  0.00000000000E+00  0.00000000000E+00 -0.11272647014E+04  0.11272647014E+04  0.25500000920E-02 0. -1.
    10030    2    1    2    0    0  0.00000000000E+00  0.00000000000E+00 -0.24713963014E+02  0.22298154398E+04  0.22296784781E+04 0.  0.
        4    1    3    3  502    0 -0.90589435551E+03  0.36717946188E+03  0.52377255933E+03  0.11089655754E+04  0.12699999809E+01 0.  1.
       -4    1    3    3    0  502  0.90589435551E+03 -0.36717946188E+03 -0.54848652235E+03  0.11208498645E+04  0.12699999809E+01 0. -1.
</event>
<event>
 5   0  0.4132460E-05  0.2188596E+04  0.7818609E-02  0.8523190E-01
        2   -1    0    0  501    0  0.00000000000E+00  0.00000000000E+00  0.73945213174E+03  0.73945213174E+03  0.25500000920E-02 0. -1.
       -2   -1    0    0    0  501  0.00000000000E+00  0.00000000000E+00 -0.16194256830E+04  0.16194256830E+04  0.25500000920E-02 0.  1.
    10030    2    1    2    0    0  0.00000000000E+00  0.00000000000E+00 -0.87997355122E+03  0.23588778147E+04  0.21885956899E+04 0.  0.
        4    1    3    3  502    0 -0.44065946545E+02 -0.82411577539E+02  0.73514254278E+03  0.74105981328E+03  0.12699999809E+01 0. -1.
       -4    1    3    3    0  502  0.44065946545E+02  0.82411577539E+02 -0.16151160940E+04  0.16178180014E+04  0.12699999809E+01 0.  1.
</event>
<event>
 5   0  0.4027923E-05  0.2216566E+04  0.7818609E-02  0.8511565E-01
        2   -1    0    0  501    0  0.00000000000E+00  0.00000000000E+00  0.92224709529E+03  0.92224709530E+03  0.25500000920E-02 0. -1.
       -2   -1    0    0    0  501  0.00000000000E+00  0.00000000000E+00 -0.13318458483E+04  0.13318458483E+04  0.25500000920E-02 0.  1.
    10030    2    1    2    0    0  0.00000000000E+00  0.00000000000E+00 -0.40959875304E+03  0.22540929436E+04  0.22165657807E+04 0.  0.
        5    1    3    3  502    0 -0.28759509079E+03 -0.51313020606E+03  0.75038748603E+03  0.95347627857E+03  0.46999998093E+01 0. -1.
       -5    1    3    3    0  502  0.28759509079E+03  0.51313020606E+03 -0.11599862391E+04  0.13006166651E+04  0.46999998093E+01 0.  1.
</event>
<event>
 5   0  0.3963414E-05  0.2196226E+04  0.7818609E-02  0.8520001E-01
        2   -1    0    0  501    0  0.00000000000E+00  0.00000000000E+00  0.84880274830E+03  0.84880274831E+03  0.25500000920E-02 0. -1.
       -2   -1    0    0    0  501  0.00000000000E+00  0.00000000000E+00 -0.14206503819E+04  0.14206503819E+04  0.25500000920E-02 0.  1.
    10030    2    1    2    0    0  0.00000000000E+00  0.00000000000E+00 -0.57184763359E+03  0.22694531302E+04  0.21962258067E+04 0.  0.
        1    1    3    3  502    0  0.13519959571E+03  0.16989122145E+03  0.82640093991E+03  0.85444746551E+03  0.50400001928E-02 0. -1.
       -1    1    3    3    0  502 -0.13519959571E+03 -0.16989122145E+03 -0.13982485735E+04  0.14150056647E+04  0.50400001928E-02 0.  1.
</event>
<event>
 5   0  0.1786228E-05  0.2213048E+04  0.7818609E-02  0.8513017E-01
        1   -1    0    0  501    0  0.00000000000E+00  0.00000000000E+00  0.11553966671E+04  0.11553966671E+04  0.50400001928E-02 0. -1.
       -1   -1    0    0    0  501  0.00000000000E+00  0.00000000000E+00 -0.10597184795E+04  0.10597184795E+04  0.50400001928E-02 0.  1.
    10030    2    1    2    0    0  0.00000000000E+00  0.00000000000E+00  0.95678187591E+02  0.22151151465E+04  0.22130478524E+04 0.  0.
        5    1    3    3  502    0 -0.64721919736E+03  0.15258201041E+03 -0.83740731135E+03  0.10693208379E+04  0.46999998093E+01 0.  1.
       -5    1    3    3    0  502  0.64721919736E+03 -0.15258201041E+03  0.93308549894E+03  0.11457943086E+04  0.46999998093E+01 0. -1.
</event>
<event>
 5   0  0.4027923E-05  0.2194338E+04  0.7818609E-02  0.8520788E-01
        2   -1    0    0  501    0  0.00000000000E+00  0.00000000000E+00  0.11590639879E+04  0.11590639879E+04  0.25500000920E-02 0.  1.
       -2   -1    0    0    0  501  0.00000000000E+00  0.00000000000E+00 -0.10385794584E+04  0.10385794585E+04  0.25500000920E-02 0. -1.
    10030    2    1    2    0    0  0.00000000000E+00  0.00000000000E+00  0.12048452941E+03  0.21976434463E+04  0.21943382135E+04 0.  0.
        5    1    3    3  502    0  0.32083702311E+03 -0.81393458975E+03  0.72330600309E+03  0.11351738087E+04  0.46999998093E+01 0.  1.
       -5    1    3    3    0  502 -0.32083702311E+03  0.81393458975E+03 -0.60282147368E+03  0.10624696376E+04  0.46999998093E+01 0. -1.
</event>
<event>
 5   0  0.1815681E-05  0.2222837E+04  0.7818609E-02  0.8508983E-01
        1   -1    0    0  501    0  0.00000000000E+00  0.00000000000E+00  0.75448556041E+03  0.75448556043E+03  0.50400001928E-02 0. -1.
       -1   -1    0    0    0  501  0.00000000000E+00  0.00000000000E+00 -0.16372094241E+04  0.16372094241E+04  0.50400001928E-02 0.  1.
    10030    2    1    2    0    0  0.00000000000E+00  0.00000000000E+00 -0.88272386367E+03  0.23916949845E+04  0.22228368090E+04 0.  0.
        2    1    3    3  502    0  0.27262851318E+03  0.77279708216E+03  0.36647887520E+03  0.89769059389E+03  0.25500000920E-02 0. -1.
       -2    1    3    3    0  502 -0.27262851318E+03 -0.77279708216E+03 -0.12492027389E+04  0.14940043906E+04  0.25500000920E-02 0.  1.
</event>
<event>
 5   0  0.4027923E-05  0.2194467E+04  0.7818609E-02  0.8520735E-01
       -2   -1    0    0    0  501  0.00000000000E+00  0.00000000000E+00  0.71808175629E+03  0.71808175629E+03  0.25500000920E-02 0. -1.
        2   -1    0    0  501    0  0.00000000000E+00  0.00000000000E+00 -0.16765798134E+04  0.16765798134E+04  0.25500000920E-02 0.  1.
    10030    2    1    2    0    0  0.00000000000E+00  0.00000000000E+00 -0.95849805709E+03  0.23946615697E+04  0.21944670214E+04 0.  0.
        5    1    3    3  502    0 -0.22048395920E+03  0.17430475288E+03  0.67812254002E+03  0.73407601270E+03  0.46999998093E+01 0. -1.
       -5    1    3    3    0  502  0.22048395920E+03 -0.17430475288E+03 -0.16366205971E+04  0.16605855570E+04  0.46999998093E+01 0.  1.
</event>
<event>
 5   0  0.1884407E-05  0.2255805E+04  0.7818609E-02  0.8495553E-01
       -1   -1    0    0    0  501  0.00000000000E+00  0.00000000000E+00  0.60107761778E+03  0.60107761780E+03  0.50400001928E-02 0. -1.
        1   -1    0    0  501    0  0.00000000000E+00  0.00000000000E+00 -0.21164729324E+04  0.21164729324E+04  0.50400001928E-02 0.  1.
    10030    2    1    2    0    0  0.00000000000E+00  0.00000000000E+00 -0.15153953146E+04  0.27175505502E+04  0.22558054068E+04 0.  0.
        3    1    3    3  502    0  0.73019470046E+03 -0.85644942002E+03 -0.66856194536E+03  0.13090702787E+04  0.10100000352E+00 0.  1.
       -3    1    3    3    0  502 -0.73019470046E+03  0.85644942002E+03 -0.84683336922E+03  0.14084802714E+04  0.10100000352E+00 0. -1.
</event>
<event>
 5   0  0.1866935E-05  0.2204188E+04  0.7818609E-02  0.8516687E-01
        1   -1    0    0  501    0  0.00000000000E+00  0.00000000000E+00  0.11955240743E+04  0.11955240743E+04  0.50400001928E-02 0.  1.
       -1   -1    0    0    0  501  0.00000000000E+00  0.00000000000E+00 -0.10159658644E+04  0.10159658644E+04  0.50400001928E-02 0. -1.
    10030    2    1    2    0    0  0.00000000000E+00  0.00000000000E+00  0.17955820995E+03  0.22114899387E+04  0.22041884216E+04 0.  0.
        4    1    3    3  502    0 -0.18830533022E+03 -0.57214132676E+03  0.10157694450E+04  0.11809291992E+04  0.12699999809E+01 0.  1.
       -4    1    3    3    0  502  0.18830533022E+03  0.57214132676E+03 -0.83621123508E+03  0.10305607395E+04  0.12699999809E+01 0. -1.
</event>
<event>
 5   0  0.1884407E-05  0.2203681E+04  0.7818609E-02  0.8516898E-01
        1   -1    0    0  501    0  0.00000000000E+00  0.00000000000E+00  0.13823107802E+04  0.13823107802E+04  0.50400001928E-02 0. -1.
       -1   -1    0    0    0  501  0.00000000000E+00  0.00000000000E+00 -0.87827726652E+03  0.87827726654E+03  0.50400001928E-02 0.  1.
    10030    2    1    2    0    0  0.00000000000E+00  0.00000000000E+00  0.50403351370E+03  0.22605880468E+04  0.22036806788E+04 0.  0.
        3    1    3    3  502    0 -0.66226814676E+03 -0.43045325507E+03  0.10400758045E+04  0.13060041318E+04  0.10100000352E+00 0. -1.
       -3    1    3    3    0  502  0.66226814676E+03  0.43045325507E+03 -0.53604229079E+03  0.95458391497E+03  0.10100000352E+00 0.  1.
</event>
<event>
 5   0  0.1884407E-05  0.2200695E+04  0.7818609E-02  0.8518139E-01
        1   -1    0    0  501    0  0.00000000000E+00  0.00000000000E+00  0.11179089289E+04  0.11179089289E+04  0.50400001928E-02 0.  1.
       -1   -1    0    0    0  501  0.00000000000E+00  0.00000000000E+00 -0.10830617074E+04  0.10830617074E+04  0.50400001928E-02 0. -1.
    10030    2    1    2    0    0  0.00000000000E+00  0.00000000000E+00  0.34847221513E+02  0.22009706363E+04  0.22006947569E+04 0.  0.
        3    1    3    3  502    0 -0.33806699904E+03  0.10471258487E+04  0.19006287264E+02  0.11005103761E+04  0.10100000352E+00 0. -1.
       -3    1    3    3    0  502  0.33806699904E+03 -0.10471258487E+04  0.15840934249E+02  0.11004602602E+04  0.10100000352E+00 0.  1.
</event>
<event>
 5   0  0.4143281E-05  0.2210995E+04  0.7818609E-02  0.8513866E-01
       -2   -1    0    0    0  501  0.00000000000E+00  0.00000000000E+00  0.51645210822E+03  0.51645210822E+03  0.25500000920E-02 0.  1.
        2   -1    0    0  501    0  0.00000000000E+00  0.00000000000E+00 -0.23663848902E+04  0.23663848902E+04  0.25500000920E-02 0. -1.
    10030    2    1    2    0    0  0.00000000000E+00  0.00000000000E+00 -0.18499327820E+04  0.28828369984E+04  0.22109947674E+04 0.  0.
        2    1    3    3  502    0 -0.11702613673E+03  0.10986153335E+04 -0.87491264652E+03  0.14092987287E+04  0.25500000920E-02 0. -1.
       -2    1    3    3    0  502  0.11702613673E+03 -0.10986153335E+04 -0.97502013544E+03  0.14735382697E+04  0.25500000920E-02 0.  1.
</event>
<event>
 5   0  0.1786228E-05  0.2211472E+04  0.7818609E-02  0.8513668E-01
        1   -1    0    0  501    0  0.00000000000E+00  0.00000000000E+00  0.11272057038E+04  0.11272057038E+04  0.50400001928E-02 0. -1.
       -1   -1    0    0    0  501  0.00000000000E+00  0.00000000000E+00 -0.10846756997E+04  0.10846756997E+04  0.50400001928E-02 0.  1.
    10030    2    1    2    0    0  0.00000000000E+00  0.00000000000E+00  0.42530004111E+02  0.22118814035E+04  0.22114724827E+04 0.  0.
        5    1    3    3  502    0 -0.44817808456E+03  0.77309300257E+03  0.67261054118E+03  0.11184647586E+04  0.46999998093E+01 0. -1.
       -5    1    3    3    0  502  0.44817808456E+03 -0.77309300257E+03 -0.63008053707E+03  0.10934166449E+04  0.46999998093E+01 0.  1.
</event>
<event>
 5   0  0.1815681E-05  0.2213906E+04  0.7818609E-02  0.8512662E-01
       -1   -1    0    0    0  501  0.00000000000E+00  0.00000000000E+00  0.13135466737E+04  0.13135466737E+04  0.50400001928E-02 0. -1.
        1   -1    0    0  501    0  0.00000000000E+00  0.00000000000E+00 -0.93285251293E+03  0.93285251294E+03  0.50400001928E-02 0.  1.
    10030    2    1    2    0    0  0.00000000000E+00  0.00000000000E+00  0.38069416078E+03  0.22463991867E+04  0.22139063354E+04 0.  0.
        2    1    3    3  502    0 -0.34723840139E+03 -0.16434021956E+03 -0.86304329351E+03  0.94468298473E+03  0.25500000920E-02 0.  1.
       -2    1    3    3    0  502  0.34723840139E+03  0.16434021956E+03  0.12437374543E+04  0.13017162019E+04  0.25500000920E-02 0. -1.
</event>
<event>
 5   0  0.1884407E-05  0.2203149E+04  0.7818609E-02  0.8517119E-01
        1   -1    0    0  501    0  0.00000000000E+00  0.00000000000E+00  0.13417023377E+04  0.13417023377E+04  0.50400001928E-02 0. -1.
       -1   -1    0    0    0  501  0.00000000000E+00  0.00000000000E+00 -0.90442282590E+03  0.90442282592E+03  0.50400001928E-02 0.  1.
    10030    2    1    2    0    0  0.00000000000E+00  0.00000000000E+00  0.43727951180E+03  0.22461251636E+04  0.22031488554E+04 0.  0.
        3    1    3    3  502    0 -0.38094935987E+03  0.74976493919E+03 -0.50671357305E+03  0.98184954761E+03  0.10100000352E+00 0.  1.
       -3    1    3    3    0  502  0.38094935987E+03 -0.74976493919E+03  0.94399308485E+03  0.12642756160E+04  0.10100000352E+00 0. -1.
</event>
<event>
 5   0  0.3963414E-05  0.2198355E+04  0.7818609E-02  0.8519113E-01
        2   -1    0    0  501    0  0.00000000000E+00  0.00000000000E+00  0.12628994502E+04  0.12628994502E+04  0.25500000920E-02 0. -1.
       -2   -1    0    0    0  501  0.00000000000E+00  0.00000000000E+00 -0.95668026473E+03  0.95668026473E+03  0.25500000920E-02 0.  1.
    10030    2    1    2    0    0  0.00000000000E+00  0.00000000000E+00  0.30621918552E+03  0.22195797150E+04  0.21983548216E+04 0.  0.
        1    1    3    3  502    0 -0.36255572323E+03 -0.73043026744E+03 -0.59103822821E+03  0.10071252232E+04  0.50400001928E-02 0.  1.
       -1    1    3    3    0  502  0.36255572323E+03  0.73043026744E+03  0.89725741373E+03  0.12124544917E+04  0.50400001928E-02 0. -1.
</event>
<event>
 5   0  0.4143281E-05  0.2192300E+04  0.7818609E-02  0.8521640E-01
        2   -1    0    0  501    0  0.00000000000E+00  0.00000000000E+00  0.17667552116E+04  0.17667552116E+04  0.25500000920E-02 0.  1.
       -2   -1    0    0    0  501  0.00000000000E+00  0.00000000000E+00 -0.68008583831E+03  0.68008583832E+03  0.25500000920E-02 0. -1.
    10030    2    1    2    0    0  0.00000000000E+00  0.00000000000E+00  0.10866693733E+04  0.24468410499E+04  0.21923003436E+04 0.  0.
        2    1    3    3  502    0  0.72700470731E+03  0.13079635003E+03 -0.36057507009E+03  0.82198413051E+03  0.25500000920E-02 0. -1.
       -2    1    3    3    0  502 -0.72700470731E+03 -0.13079635003E+03  0.14472444434E+04  0.16248569194E+04  0.25500000920E-02 0.  1.
</event>
<event>
 5   0  0.1884407E-05  0.2196410E+04  0.7818609E-02  0.8519924E-01
       -1   -1    0    0    0  501  0.00000000000E+00  0.00000000000E+00  0.62128593387E+03  0.62128593389E+03  0.50400001928E-02 0.  1.
        1   -1    0    0  501    0  0.00000000000E+00  0.00000000000E+00 -0.19412231858E+04  0.19412231859E+04  0.50400001928E-02 0. -1.
    10030    2    1    2    0    0  0.00000000000E+00  0.00000000000E+00 -0.13199372520E+04  0.25625091197E+04  0.21964103987E+04 0.  0.
        3    1    3    3  502    0  0.17246722590E+03 -0.39881969947E+02  0.60453171231E+03  0.62991596021E+03  0.10100000352E+00 0.  1.
       -3    1    3    3    0  502 -0.17246722590E+03  0.39881969947E+02 -0.19244689643E+04  0.19325931595E+04  0.10100000352E+00 0. -1.
</event>
<event>
 5   0  0.3963414E-05  0.2182346E+04  0.7818609E-02  0.8525812E-01
       -2   -1    0    0    0  501  0.00000000000E+00  0.00000000000E+00  0.44079173737E+03  0.44079173738E+03  0.25500000920E-02 0.  1.
        2   -1    0    0  501    0  0.00000000000E+00  0.00000000000E+00 -0.27011803397E+04  0.27011803397E+04  0.25500000920E-02 0. -1.
    10030    2    1    2    0    0  0.00000000000E+00  0.00000000000E+00 -0.22603886024E+04  0.31419720771E+04  0.21823455042E+04 0.  0.
        1    1    3    3  502    0  0.75384460545E+02  0.79414727737E+03 -0.22020919362E+04  0.23421275820E+04  0.50400001928E-02 0. -1.
       -1    1    3    3    0  502 -0.75384460545E+02 -0.79414727737E+03 -0.58296666202E+02  0.79984449512E+03  0.50400001928E-02 0.  1.
</event>
<event>
 5   0  0.1788413E-05  0.2197266E+04  0.7818609E-02  0.8519567E-01
       -1   -1    0    0    0  501  0.00000000000E+00  0.00000000000E+00  0.23596255660E+04  0.23596255660E+04  0.50400001928E-02 0.  1.
        1   -1    0    0  501    0  0.00000000000E+00  0.00000000000E+00 -0.51151929641E+03  0.51151929643E+03  0.50400001928E-02 0. -1.
    10030    2    1    2    0    0  0.00000000000E+00  0.00000000000E+00  0.18481062696E+04  0.28711448624E+04  0.21972655819E+04 0.  0.
        1    1    3    3  502    0 -0.15782210874E+03  0.85382462297E+03  0.18035920586E+04  0.20017164181E+04  0.50400001928E-02 0.  1.
       -1    1    3    3    0  502  0.15782210874E+03 -0.85382462297E+03  0.44514211039E+02  0.86942844433E+03  0.50400001928E-02 0. -1.
</event>
<event>
 5   0  0.1884407E-05  0.2198586E+04  0.7818609E-02  0.8519017E-01
        1   -1    0    0  501    0  0.00000000000E+00  0.00000000000E+00  0.17910163849E+04  0.17910163849E+04  0.50400001928E-02 0.  1.
       -1   -1    0    0    0  501  0.00000000000E+00  0.00000000000E+00 -0.67472613383E+03  0.67472613385E+03  0.50400001928E-02 0. -1.
    10030    2    1    2    0    0  0.00000000000E+00  0.00000000000E+00  0.11162902511E+04  0.24657425188E+04  0.21985864195E+04 0.  0.
        3    1    3    3  502    0 -0.45475007009E+03  0.77073033249E+03  0.12741786440E+04  0.15570337500E+04  0.10100000352E+00 0.  1.
       -3    1    3    3    0  502  0.45475007009E+03 -0.77073033249E+03 -0.15788839287E+03  0.90870876879E+03  0.10100000352E+00 0. -1.
</event>
<event>
 5   0  0.4132460E-05  0.2202255E+04  0.7818609E-02  0.8517490E-01
       -2   -1    0    0    0  501  0.00000000000E+00  0.00000000000E+00  0.79447419275E+03  0.79447419275E+03  0.25500000920E-02 0. -1.
        2   -1    0    0  501    0  0.00000000000E+00  0.00000000000E+00 -0.15261432020E+04  0.15261432020E+04  0.25500000920E-02 0.  1.
    10030    2    1    2    0    0  0.00000000000E+00  0.00000000000E+00 -0.73166900923E+03  0.23206173947E+04  0.22022546523E+04 0.  0.
        4    1    3    3  502    0  0.11736234921E+03 -0.50959050985E+03  0.65527943953E+03  0.83836099951E+03  0.12699999809E+01 0. -1.
       -4    1    3    3    0  502 -0.11736234921E+03  0.50959050985E+03 -0.13869484488E+04  0.14822563952E+04  0.12699999809E+01 0.  1.
</event>
<event>
 5   0  0.4027923E-05  0.2166652E+04  0.7818609E-02  0.8532438E-01
       -2   -1    0    0    0  501  0.00000000000E+00  0.00000000000E+00  0.10135706805E+04  0.10135706805E+04  0.25500000920E-02 0.  1.
        2   -1    0    0  501    0  0.00000000000E+00  0.00000000000E+00 -0.11578820352E+04  0.11578820352E+04  0.25500000920E-02 0. -1.
    10030    2    1    2    0    0  0.00000000000E+00  0.00000000000E+00 -0.14431135463E+03  0.21714527157E+04  0.21666520555E+04 0.  0.
        5    1    3    3  502    0 -0.64350825723E+03 -0.69434722232E+03 -0.59996499216E+03  0.11208037402E+04  0.46999998093E+01 0. -1.
       -5    1    3    3    0  502  0.64350825723E+03  0.69434722232E+03  0.45565363754E+03  0.10506489755E+04  0.46999998093E+01 0.  1.
</event>
<event>
 5   0  0.1433375E-05  0.2201977E+04  0.7818609E-02  0.8517606E-01
        3   -1    0    0  501    0  0.00000000000E+00  0.00000000000E+00  0.88748114137E+03  0.88748114712E+03  0.10100000352E+00 0. -1.
       -3   -1    0    0    0  501  0.00000000000E+00  0.00000000000E+00 -0.13658602980E+04  0.13658603017E+04  0.10100000352E+00 0.  1.
    10030    2    1    2    0    0  0.00000000000E+00  0.00000000000E+00 -0.47837915663E+03  0.22533414488E+04  0.22019766274E+04 0.  0.
        5    1    3    3  502    0 -0.10838319425E+04  0.11183197625E+03 -0.77532765065E+02  0.10923513584E+04  0.46999998093E+01 0. -1.
       -5    1    3    3    0  502  0.10838319425E+04 -0.11183197625E+03 -0.40084639156E+03  0.11609900905E+04  0.46999998093E+01 0.  1.
</event>
<event>
 5   0  0.3963414E-05  0.2190136E+04  0.7818609E-02  0.8522545E-01
        2   -1    0    0  501    0  0.00000000000E+00  0.00000000000E+00  0.24595629967E+04  0.24595629967E+04  0.25500000920E-02 0. -1.
       -2   -1    0    0    0  501  0.00000000000E+00  0.00000000000E+00 -0.48755567949E+03  0.48755567949E+03  0.25500000920E-02 0.  1.
    10030    2    1    2    0    0  0.00000000000E+00  0.00000000000E+00  0.19720073173E+04  0.29471186762E+04  0.21901359849E+04 0.  0.
        1    1    3    3  502    0 -0.52073599551E+03 -0.83204477531E+03  0.33270011173E+03  0.10364139373E+04  0.50400001928E-02 0.  1.
       -1    1    3    3    0  502  0.52073599551E+03  0.83204477531E+03  0.16393072055E+04  0.19107047389E+04  0.50400001928E-02 0. -1.
</event>
<event>
 5   0  0.4027923E-05  0.1922655E+04  0.7818609E-02  0.8643661E-01
       -2   -1    0    0    0  501  0.00000000000E+00  0.00000000000E+00  0.58997957997E+03  0.58997957998E+03  0.25500000920E-02 0.  1.
        2   -1    0    0  501    0  0.00000000000E+00  0.00000000000E+00 -0.15664116877E+04  0.15664116877E+04  0.25500000920E-02 0. -1.
    10030    2    1    2    0    0  0.00000000000E+00  0.00000000000E+00 -0.97643210769E+03  0.21563912676E+04  0.19226553613E+04 0.  0.
        5    1    3    3  502    0 -0.69761274342E+03  0.18684734103E+03 -0.11998191749E+04  0.14004155138E+04  0.46999998093E+01 0. -1.
       -5    1    3    3    0  502  0.69761274342E+03 -0.18684734103E+03  0.22338706725E+03  0.75597575388E+03  0.46999998093E+01 0.  1.
</event>
<event>
 5   0  0.4132460E-05  0.2203425E+04  0.7818609E-02  0.8517004E-01
        2   -1    0    0  501    0  0.00000000000E+00  0.00000000000E+00  0.14617235712E+04  0.14617235712E+04  0.25500000920E-02 0.  1.
       -2   -1    0    0    0  501  0.00000000000E+00  0.00000000000E+00 -0.83036958181E+03  0.83036958181E+03  0.25500000920E-02 0. -1.
    10030    2    1    2    0    0  0.00000000000E+00  0.00000000000E+00  0.63135398938E+03  0.22920931530E+04  0.22034253248E+04 0.  0.
        4    1    3    3  502    0 -0.40611248956E+02  0.97226336352E+03  0.85301338717E+03  0.12940551662E+04  0.12699999809E+01 0.  1.
       -4    1    3    3    0  502  0.40611248956E+02 -0.97226336352E+03 -0.22165939779E+03  0.99803798681E+03  0.12699999809E+01 0. -1.
</event>
<event>
 5   0  0.1884407E-05  0.2370813E+04  0.7818609E-02  0.8450512E-01
        1   -1    0    0  501    0  0.00000000000E+00  0.00000000000E+00  0.12965722792E+04  0.12965722792E+04  0.50400001928E-02 0. -1.
       -1   -1    0    0    0  501  0.00000000000E+00  0.00000000000E+00 -0.10837722628E+04  0.10837722628E+04  0.50400001928E-02 0.  1.
    10030    2    1    2    0    0  0.00000000000E+00  0.00000000000E+00  0.21280001640E+03  0.23803445420E+04  0.23708134240E+04 0.  0.
        3    1    3    3  502    0 -0.11485966668E+04  0.33660789831E+02  0.39874356998E+03  0.12163074433E+04  0.10100000352E+00 0. -1.
       -3    1    3    3    0  502  0.11485966668E+04 -0.33660789831E+02 -0.18594355358E+03  0.11640370987E+04  0.10100000352E+00 0.  1.
</event>
<event>
 5   0  0.1884407E-05  0.2192669E+04  0.7818609E-02  0.8521486E-01
        1   -1    0    0  501    0  0.00000000000E+00  0.00000000000E+00  0.18787236910E+04  0.18787236910E+04  0.50400001928E-02 0.  1.
       -1   -1    0    0    0  501  0.00000000000E+00  0.00000000000E+00 -0.63976884302E+03  0.63976884304E+03  0.50400001928E-02 0. -1.
    10030    2    1    2    0    0  0.00000000000E+00  0.00000000000E+00  0.12389548480E+04  0.25184925341E+04  0.21926685862E+04 0.  0.
        3    1    3    3  502    0  0.65110785327E+03  0.37097990563E+03  0.15386287311E+04  0.17114163460E+04  0.10100000352E+00 0.  1.
       -3    1    3    3    0  502 -0.65110785327E+03 -0.37097990563E+03 -0.29967388308E+03  0.80707618808E+03  0.10100000352E+00 0. -1.
</event>
<event>
 5   0  0.4029532E-05  0.2197796E+04  0.7818609E-02  0.8519346E-01
       -2   -1    0    0    0  501  0.00000000000E+00  0.00000000000E+00  0.48445232594E+03  0.48445232595E+03  0.25500000920E-02 0. -1.
        2   -1    0    0  501    0  0.00000000000E+00  0.00000000000E+00 -0.24926638224E+04  0.24926638224E+04  0.25500000920E-02 0.  1.
    10030    2    1    2    0    0  0.00000000000E+00  0.00000000000E+00 -0.20082114964E+04  0.29771161483E+04  0.21977959747E+04 0.  0.
        3    1    3    3  502    0  0.20911345181E+03 -0.99447444450E+03 -0.15705598404E+04  0.18706592632E+04  0.10100000352E+00 0. -1.
       -3    1    3    3    0  502 -0.20911345181E+03  0.99447444450E+03 -0.43765165607E+03  0.11064568852E+04  0.10100000352E+00 0.  1.
</event>
<event>
 5   0  0.4132460E-05  0.2201154E+04  0.7818609E-02  0.8517948E-01
       -2   -1    0    0    0  501  0.00000000000E+00  0.00000000000E+00  0.12671871961E+04  0.12671871961E+04  0.25500000920E-02 0. -1.
        2   -1    0    0  501    0  0.00000000000E+00  0.00000000000E+00 -0.95587297152E+03  0.95587297152E+03  0.25500000920E-02 0.  1.
    10030    2    1    2    0    0  0.00000000000E+00  0.00000000000E+00  0.31131422459E+03  0.22230601676E+04  0.22011542341E+04 0.  0.
        4    1    3    3  502    0 -0.86663932468E+03 -0.53746018530E+03  0.57371041106E+03  0.11700736808E+04  0.12699999809E+01 0. -1.
       -4    1    3    3    0  502  0.86663932468E+03  0.53746018530E+03 -0.26239618647E+03  0.10529864868E+04  0.12699999809E+01 0.  1.
</event>
<event>
 5   0  0.1815681E-05  0.2196955E+04  0.7818609E-02  0.8519697E-01
       -1   -1    0    0    0  501  0.00000000000E+00  0.00000000000E+00  0.10106690274E+04  0.10106690274E+04  0.50400001928E-02 0. -1.
        1   -1    0    0  501    0  0.00000000000E+00  0.00000000000E+00 -0.11939148224E+04  0.11939148224E+04  0.50400001928E-02 0.  1.
    10030    2    1    2    0    0  0.00000000000E+00  0.00000000000E+00 -0.18324579498E+03  0.22045838499E+04  0.21969549221E+04 0.  0.
        2    1    3    3  502    0 -0.36037995933E+02  0.10167626205E+04  0.32399860930E+03  0.10677453172E+04  0.25500000920E-02 0. -1.
       -2    1    3    3    0  502  0.36037995933E+02 -0.10167626205E+04 -0.50724440428E+03  0.11368385326E+04  0.25500000920E-02 0.  1.
</event>
<event>
 5   0  0.1788413E-05  0.2199708E+04  0.7818609E-02  0.8518550E-01
       -1   -1    0    0    0  501  0.00000000000E+00  0.00000000000E+00  0.46840011463E+03  0.46840011466E+03  0.50400001928E-02 0.  1.
        1   -1    0    0  501    0  0.00000000000E+00  0.00000000000E+00 -0.25825749126E+04  0.25825749126E+04  0.50400001928E-02 0. -1.
    10030    2    1    2    0    0  0.00000000000E+00  0.00000000000E+00 -0.21141747980E+04  0.30509750273E+04  0.21997076034E+04 0.  0.
        1    1    3    3  502    0 -0.26046045184E+03  0.84904954826E+03 -0.19569802720E+04  0.21490687675E+04  0.50400001928E-02 0. -1.
       -1    1    3    3    0  502  0.26046045184E+03 -0.84904954826E+03 -0.15719452595E+03  0.90190625976E+03  0.50400001928E-02 0.  1.
</event>
<event>
 5   0  0.1815681E-05  0.2194764E+04  0.7818609E-02  0.8520611E-01
       -1   -1    0    0    0  501  0.00000000000E+00  0.00000000000E+00  0.52962312219E+03  0.52962312221E+03  0.50400001928E-02 0. -1.
        1   -1    0    0  501    0  0.00000000000E+00  0.00000000000E+00 -0.22737817421E+04  0.22737817421E+04  0.50400001928E-02 0.  1.
    10030    2    1    2    0    0  0.00000000000E+00  0.00000000000E+00 -0.17441586199E+04  0.28034048643E+04  0.21947641199E+04 0.  0.
        2    1    3    3  502    0 -0.48179072615E+03 -0.20891536080E+03 -0.21028697653E+04  0.21674476192E+04  0.25500000920E-02 0.  1.
       -2    1    3    3    0  502  0.48179072615E+03  0.20891536080E+03  0.35871114544E+03  0.63595724515E+03  0.25500000920E-02 0. -1.
</event>
<event>
 5   0  0.4132460E-05  0.2203506E+04  0.7818609E-02  0.8516970E-01
        2   -1    0    0  501    0  0.00000000000E+00  0.00000000000E+00  0.24926256371E+04  0.24926256371E+04  0.25500000920E-02 0.  1.
       -2   -1    0    0    0  501  0.00000000000E+00  0.00000000000E+00 -0.48698046736E+03  0.48698046736E+03  0.25500000920E-02 0. -1.
    10030    2    1    2    0    0  0.00000000000E+00  0.00000000000E+00  0.20056451698E+04  0.29796061045E+04  0.22035062947E+04 0.  0.
        4    1    3    3  502    0  0.10643653704E+04 -0.13860860870E+03  0.66674326802E+03  0.12635799090E+04  0.12699999809E+01 0. -1.
       -4    1    3    3    0  502 -0.10643653704E+04  0.13860860870E+03  0.13389019017E+04  0.17160261955E+04  0.12699999809E+01 0.  1.
</event>
<event>
 5   0  0.4132460E-05  0.2195395E+04  0.7818609E-02  0.8520347E-01
       -2   -1    0    0    0  501  0.00000000000E+00  0.00000000000E+00  0.95282391975E+03  0.95282391976E+03  0.25500000920E-02 0.  1.
        2   -1    0    0  501    0  0.00000000000E+00  0.00000000000E+00 -0.12645991216E+04  0.12645991216E+04  0.25500000920E-02 0. -1.
    10030    2    1    2    0    0  0.00000000000E+00  0.00000000000E+00 -0.31177520186E+03  0.22174230414E+04  0.21953954468E+04 0.  0.
        4    1    3    3  502    0 -0.21332272945E+03  0.38021145605E+03 -0.11734037042E+04  0.12517768188E+04  0.12699999809E+01 0. -1.
       -4    1    3    3    0  502  0.21332272945E+03 -0.38021145605E+03  0.86162850233E+03  0.96564622256E+03  0.12699999809E+01 0.  1.
</event>
<event>
 5   0  0.4027923E-05  0.2203084E+04  0.7818609E-02  0.8517145E-01
       -2   -1    0    0    0  501  0.00000000000E+00  0.00000000000E+00  0.96104183779E+03  0.96104183779E+03  0.25500000920E-02 0. -1.
        2   -1    0    0  501    0  0.00000000000E+00  0.00000000000E+00 -0.12625831622E+04  0.12625831622E+04  0.25500000920E-02 0.  1.
    10030    2    1    2    0    0  0.00000000000E+00  0.00000000000E+00 -0.30154132445E+03  0.22236250000E+04  0.22030844220E+04 0.  0.
        5    1    3    3  502    0  0.91955723723E+03 -0.28951096270E+03 -0.68862841930E+03  0.11847503112E+04  0.46999998093E+01 0.  1.
       -5    1    3    3    0  502 -0.91955723723E+03  0.28951096270E+03  0.38708709485E+03  0.10388746888E+04  0.46999998093E+01 0. -1.
</event>
<event>
 5   0  0.1884407E-05  0.2203364E+04  0.7818609E-02  0.8517029E-01
        1   -1    0    0  501    0  0.00000000000E+00  0.00000000000E+00  0.13240801939E+04  0.13240801939E+04  0.50400001928E-02 0. -1.
       -1   -1    0    0    0  501  0.00000000000E+00  0.00000000000E+00 -0.91663864718E+03  0.91663864719E+03  0.50400001928E-02 0.  1.
    10030    2    1    2    0    0  0.00000000000E+00  0.00000000000E+00  0.40744154668E+03  0.22407188411E+04  0.22033638625E+04 0.  0.
        3    1    3    3  502    0  0.87482002830E+03 -0.33623685446E+03 -0.38518033986E+03  0.10132764720E+04  0.10100000352E+00 0.  1.
       -3    1    3    3    0  502 -0.87482002830E+03  0.33623685446E+03  0.79262188655E+03  0.12274423691E+04  0.10100000352E+00 0. -1.
</event>
<event>
 5   0  0.1815681E-05  0.2193094E+04  0.7818609E-02  0.8521308E-01
        1   -1    0    0  501    0  0.00000000000E+00  0.00000000000E+00  0.84746493134E+03  0.84746493136E+03  0.50400001928E-02 0. -1.
       -1   -1    0    0    0  501  0.00000000000E+00  0.00000000000E+00 -0.14188379214E+04  0.14188379214E+04  0.50400001928E-02 0.  1.
    10030    2    1    2    0    0  0.00000000000E+00  0.00000000000E+00 -0.57137299008E+03  0.22663028528E+04  0.21930940533E+04 0.  0.
        2    1    3    3  502    0 -0.21626050310E+03  0.87713059140E+03  0.35658210667E+03  0.97122473114E+03  0.25500000920E-02 0. -1.
       -2    1    3    3    0  502  0.21626050310E+03 -0.87713059140E+03 -0.92795509674E+03  0.12950781216E+04  0.25500000920E-02 0.  1.
</event>
<event>
 5   0  0.3963414E-05  0.2162523E+04  0.7818609E-02  0.8534191E-01
        2   -1    0    0  501    0  0.00000000000E+00  0.00000000000E+00  0.12380122479E+04  0.12380122479E+04  0.25500000920E-02 0. -1.
       -2   -1    0    0    0  501  0.00000000000E+00  0.00000000000E+00 -0.94435745307E+03  0.94435745308E+03  0.25500000920E-02 0.  1.
    10030    2    1    2    0    0  0.00000000000E+00  0.00000000000E+00  0.29365479480E+03  0.21823697009E+04  0.21625226873E+04 0.  0.
        1    1    3    3  502    0  0.65160255406E+03  0.83131443221E+03 -0.86501211003E+02  0.10597886738E+04  0.50400001928E-02 0.  1.
       -1    1    3    3    0  502 -0.65160255406E+03 -0.83131443221E+03  0.38015600580E+03  0.11225810271E+04  0.50400001928E-02 0. -1.
</event>
<event>
 5   0  0.1866935E-05  0.2200548E+04  0.7818609E-02  0.8518200E-01
        1   -1    0    0  501    0  0.00000000000E+00  0.00000000000E+00  0.92683485523E+03  0.92683485524E+03  0.50400001928E-02 0.  1.
       -1   -1    0    0    0  501  0.00000000000E+00  0.00000000000E+00 -0.13061687683E+04  0.13061687683E+04  0.50400001928E-02 0. -1.
    10030    2    1    2    0    0  0.00000000000E+00  0.00000000000E+00 -0.37933391310E+03  0.22330036236E+04  0.22005478784E+04 0.  0.
        4    1    3    3  502    0 -0.74771411201E+02  0.88605521378E+03  0.46790016049E+03  0.10047968844E+04  0.12699999809E+01 0.  1.
       -4    1    3    3    0  502  0.74771411201E+02 -0.88605521378E+03 -0.84723407359E+03  0.12282067392E+04  0.12699999809E+01 0. -1.
</event>
<event>
 5   0  0.3963414E-05  0.2310068E+04  0.7818609E-02  0.8473962E-01
        2   -1    0    0  501    0  0.00000000000E+00  0.00000000000E+00  0.17167133967E+04  0.17167133967E+04  0.25500000920E-02 0. -1.
       -2   -1    0    0    0  501  0.00000000000E+00  0.00000000000E+00 -0.77712664260E+03  0.77712664261E+03  0.25500000920E-02 0.  1.
    10030    2    1    2    0    0  0.00000000000E+00  0.00000000000E+00  0.93958675409E+03  0.24938400393E+04  0.23100681534E+04 0.  0.
        1    1    3    3  502    0 -0.28701279727E+03  0.17880481199E+03  0.16620790345E+04  0.16961291883E+04  0.50400001928E-02 0. -1.
       -1    1    3    3    0  502  0.28701279727E+03 -0.17880481199E+03 -0.72249228037E+03  0.79771085100E+03  0.50400001928E-02 0.  1.
</event>
<event>
 5   0  0.1433375E-05  0.2200516E+04  0.7818609E-02  0.8518214E-01
        3   -1    0    0  501    0  0.00000000000E+00  0.00000000000E+00  0.84086411961E+03  0.84086412568E+03  0.10100000352E+00 0. -1.
       -3   -1    0    0    0  501  0.00000000000E+00  0.00000000000E+00 -0.14396703188E+04  0.14396703223E+04  0.10100000352E+00 0.  1.
    10030    2    1    2    0    0  0.00000000000E+00  0.00000000000E+00 -0.59880619914E+03  0.22805344480E+04  0.22005155088E+04 0.  0.
        3    1    3    3  502    0 -0.10566824621E+04 -0.27841073506E+03 -0.43243261700E+03  0.11751971501E+04  0.10100000352E+00 0. -1.
       -3    1    3    3    0  502  0.10566824621E+04  0.27841073506E+03 -0.16637358214E+03  0.11053372979E+04  0.10100000352E+00 0.  1.
</event>
<event>
 5   0  0.4143281E-05  0.2197725E+04  0.7818609E-02  0.8519376E-01
       -2   -1    0    0    0  501  0.00000000000E+00  0.00000000000E+00  0.63110018224E+03  0.63110018225E+03  0.25500000920E-02 0. -1.
        2   -1    0    0  501    0  0.00000000000E+00  0.00000000000E+00 -0.19133234107E+04  0.19133234107E+04  0.25500000920E-02 0.  1.
    10030    2    1    2    0    0  0.00000000000E+00  0.00000000000E+00 -0.12822232285E+04  0.25444235930E+04  0.21977249630E+04 0.  0.
        2    1    3    3  502    0 -0.34755052277E+03 -0.87389503122E+03  0.16890554374E+02  0.94062169989E+03  0.25500000920E-02 0. -1.
       -2    1    3    3    0  502  0.34755052277E+03  0.87389503122E+03 -0.12991137829E+04  0.16038018931E+04  0.25500000920E-02 0.  1.
</event>
<event>
 5   0  0.1866935E-05  0.2217785E+04  0.7818609E-02  0.8511062E-01
        1   -1    0    0  501    0  0.00000000000E+00  0.00000000000E+00  0.80928289302E+03  0.80928289304E+03  0.50400001928E-02 0. -1.
       -1   -1    0    0    0  501  0.00000000000E+00  0.00000000000E+00 -0.15194220100E+04  0.15194220100E+04  0.50400001928E-02 0.  1.
    10030    2    1    2    0    0  0.00000000000E+00  0.00000000000E+00 -0.71013911699E+03  0.23287049031E+04  0.22177846965E+04 0.  0.
        4    1    3    3  502    0  0.31091667605E+03  0.64958080963E+03 -0.12404600000E+04  0.14343524784E+04  0.12699999809E+01 0.  1.
       -4    1    3    3    0  502 -0.31091667605E+03 -0.64958080963E+03  0.53032088302E+03  0.89435242469E+03  0.12699999809E+01 0. -1.
</event>
<event>
 5   0  0.4132460E-05  0.2198852E+04  0.7818609E-02  0.8518906E-01
        2   -1    0    0  501    0  0.00000000000E+00  0.00000000000E+00  0.13249750590E+04  0.13249750590E+04  0.25500000920E-02 0.  1.
       -2   -1    0    0    0  501  0.00000000000E+00  0.00000000000E+00 -0.91227164305E+03  0.91227164306E+03  0.25500000920E-02 0. -1.
    10030    2    1    2    0    0  0.00000000000E+00  0.00000000000E+00  0.41270341595E+03  0.22372467021E+04  0.21988516768E+04 0.  0.
        4    1    3    3  502    0  0.75737483394E+03 -0.49538910567E+03  0.84151868695E+03  0.12357921826E+04  0.12699999809E+01 0.  1.
       -4    1    3    3    0  502 -0.75737483394E+03  0.49538910567E+03 -0.42881527100E+03  0.10014545195E+04  0.12699999809E+01 0. -1.
</event>
<event>
 5   0  0.1884407E-05  0.2188583E+04  0.7818609E-02  0.8523195E-01
       -1   -1    0    0    0  501  0.00000000000E+00  0.00000000000E+00  0.68696985303E+03  0.68696985305E+03  0.50400001928E-02 0.  1.
        1   -1    0    0  501    0  0.00000000000E+00  0.00000000000E+00 -0.17431247294E+04  0.17431247294E+04  0.50400001928E-02 0. -1.
    10030    2    1    2    0    0  0.00000000000E+00  0.00000000000E+00 -0.10561548764E+04  0.24300945825E+04  0.21885832305E+04 0.  0.
        3    1    3    3  502    0 -0.54279721961E+03  0.91263574234E+03 -0.23442947777E+03  0.10874235652E+04  0.10100000352E+00 0. -1.
       -3    1    3    3    0  502  0.54279721961E+03 -0.91263574234E+03 -0.82172539863E+03  0.13426710173E+04  0.10100000352E+00 0.  1.
</event>
<event>
 5   0  0.4027923E-05  0.2159133E+04  0.7818609E-02  0.8535633E-01
        2   -1    0    0  501    0  0.00000000000E+00  0.00000000000E+00  0.12768548720E+04  0.12768548720E+04  0.25500000920E-02 0. -1.
       -2   -1    0    0    0  501  0.00000000000E+00  0.00000000000E+00 -0.91276170825E+03  0.91276170825E+03  0.25500000920E-02 0.  1.
    10030    2    1    2    0    0  0.00000000000E+00  0.00000000000E+00  0.36409316377E+03  0.21896165803E+04  0.21591333763E+04 0.  0.
        5    1    3    3  502    0  0.29063536640E+03  0.80080608390E+03 -0.49040088543E+03  0.98299258320E+03  0.46999998093E+01 0.  1.
       -5    1    3    3    0  502 -0.29063536640E+03 -0.80080608390E+03  0.85449404920E+03  0.12066239971E+04  0.46999998093E+01 0. -1.
</event>
<event>
 5   0  0.4027923E-05  0.2139344E+04  0.7818609E-02  0.8544107E-01
       -2   -1    0    0    0  501  0.00000000000E+00  0.00000000000E+00  0.22303773706E+04  0.22303773706E+04  0.25500000920E-02 0. -1.
        2   -1    0    0  501    0  0.00000000000E+00  0.00000000000E+00 -0.51300658701E+03  0.51300658702E+03  0.25500000920E-02 0.  1.
    10030    2    1    2    0    0  0.00000000000E+00  0.00000000000E+00  0.17173707836E+04  0.27433839576E+04  0.21393440889E+04 0.  0.
        5    1    3    3  502    0 -0.69660542899E+03  0.12247516693E+03  0.18876984023E+04  0.20158587843E+04  0.46999998093E+01 0. -1.
       -5    1    3    3    0  502  0.69660542899E+03 -0.12247516693E+03 -0.17032761865E+03  0.72752517337E+03  0.46999998093E+01 0.  1.
</event>
<event>
 5   0  0.3963414E-05  0.2193172E+04  0.7818609E-02  0.8521275E-01
        2   -1    0    0  501    0  0.00000000000E+00  0.00000000000E+00  0.14708980889E+04  0.14708980889E+04  0.25500000920E-02 0. -1.
       -2   -1    0    0    0  501  0.00000000000E+00  0.00000000000E+00 -0.81752852978E+03  0.81752852979E+03  0.25500000920E-02 0.  1.
    10030    2    1    2    0    0  0.00000000000E+00  0.00000000000E+00  0.65336955909E+03  0.22884266187E+04  0.21931722705E+04 0.  0.
        1    1    3    3  502    0  0.93167668707E+03  0.28484469615E+03  0.85187771075E+03  0.12941613440E+04  0.50400001928E-02 0. -1.
       -1    1    3    3    0  502 -0.93167668707E+03 -0.28484469615E+03 -0.19850815165E+03  0.99426527469E+03  0.50400001928E-02 0.  1.
</event>
<event>
 5   0  0.1815681E-05  0.2186048E+04  0.7818609E-02  0.8524258E-01
        1   -1    0    0  501    0  0.00000000000E+00  0.00000000000E+00  0.83993804826E+03  0.83993804828E+03  0.50400001928E-02 0. -1.
       -1   -1    0    0    0  501  0.00000000000E+00  0.00000000000E+00 -0.14223680780E+04  0.14223680780E+04  0.50400001928E-02 0.  1.
    10030    2    1    2    0    0  0.00000000000E+00  0.00000000000E+00 -0.58243002973E+03  0.22623061263E+04  0.21860476366E+04 0.  0.
        2    1    3    3  502    0 -0.63708389298E+03 -0.29170076692E+03  0.57693861569E+03  0.90764717286E+03  0.25500000920E-02 0. -1.
       -2    1    3    3    0  502  0.63708389298E+03  0.29170076692E+03 -0.11593686454E+04  0.13546589534E+04  0.25500000920E-02 0.  1.
</event>
<event>
 5   0  0.1884407E-05  0.2169894E+04  0.7818609E-02  0.8531064E-01
       -1   -1    0    0    0  501  0.00000000000E+00  0.00000000000E+00  0.12195061946E+04  0.12195061946E+04  0.50400001928E-02 0.  1.
        1   -1    0    0  501    0  0.00000000000E+00  0.00000000000E+00 -0.96523503253E+03  0.96523503255E+03  0.50400001928E-02 0. -1.
    10030    2    1    2    0    0  0.00000000000E+00  0.00000000000E+00  0.25427116209E+03  0.21847412272E+04  0.21698941001E+04 0.  0.
        3    1    3    3  502    0  0.55975743026E+02  0.98279659179E+03 -0.33215192899E+03  0.10389164253E+04  0.10100000352E+00 0. -1.
       -3    1    3    3    0  502 -0.55975743026E+02 -0.98279659179E+03  0.58642309107E+03  0.11458248019E+04  0.10100000352E+00 0.  1.
</event>
<event>
 5   0  0.1884407E-05  0.2160077E+04  0.7818609E-02  0.8535231E-01
       -1   -1    0    0    0  501  0.00000000000E+00  0.00000000000E+00  0.72410278462E+03  0.72410278464E+03  0.50400001928E-02 0. -1.
        1   -1    0    0  501    0  0.00000000000E+00  0.00000000000E+00 -0.16109356222E+04  0.16109356223E+04  0.50400001928E-02 0.  1.
    10030    2    1    2    0    0  0.00000000000E+00  0.00000000000E+00 -0.88683283763E+03  0.23350384069E+04  0.21600768227E+04 0.  0.
        3    1    3    3  502    0  0.53496676528E+03  0.64503387152E+03 -0.11799439946E+04  0.14472477244E+04  0.10100000352E+00 0.  1.
       -3    1    3    3    0  502 -0.53496676528E+03 -0.64503387152E+03  0.29311115693E+03  0.88779068247E+03  0.10100000352E+00 0. -1.
</event>
<event>
 5   0  0.4132460E-05  0.2091512E+04  0.7818609E-02  0.8564992E-01
        2   -1    0    0  501    0  0.00000000000E+00  0.00000000000E+00  0.11642488183E+04  0.11642488183E+04  0.25500000920E-02 0. -1.
       -2   -1    0    0    0  501  0.00000000000E+00  0.00000000000E+00 -0.93932320396E+03  0.93932320396E+03  0.25500000920E-02 0.  1.
    10030    2    1    2    0    0  0.00000000000E+00  0.00000000000E+00  0.22492561433E+03  0.21035720222E+04  0.20915123047E+04 0.  0.
        4    1    3    3  502    0  0.52926693610E+03 -0.74479189216E+02 -0.79157130453E+03  0.95512165840E+03  0.12699999809E+01 0.  1.
       -4    1    3    3    0  502 -0.52926693610E+03  0.74479189216E+02  0.10164969189E+04  0.11484503639E+04  0.12699999809E+01 0. -1.
</event>
<event>
 5   0  0.1786228E-05  0.2288870E+04  0.7818609E-02  0.8482322E-01
        1   -1    0    0  501    0  0.00000000000E+00  0.00000000000E+00  0.17088845775E+04  0.17088845775E+04  0.50400001928E-02 0. -1.
       -1   -1    0    0    0  501  0.00000000000E+00  0.00000000000E+00 -0.76642491766E+03  0.76642491768E+03  0.50400001928E-02 0.  1.
    10030    2    1    2    0    0  0.00000000000E+00  0.00000000000E+00  0.94245965983E+03  0.24753094952E+04  0.22888702206E+04 0.  0.
        5    1    3    3  502    0 -0.87010374845E+03  0.57861039827E+03 -0.33520093338E+02  0.10454741569E+04  0.46999998093E+01 0.  1.
       -5    1    3    3    0  502  0.87010374845E+03 -0.57861039827E+03  0.97597975317E+03  0.14298353383E+04  0.46999998093E+01 0. -1.
</event>
<event>
 5   0  0.1866935E-05  0.2204358E+04  0.7818609E-02  0.8516616E-01
       -1   -1    0    0    0  501  0.00000000000E+00  0.00000000000E+00  0.89662934513E+03  0.89662934514E+03  0.50400001928E-02 0. -1.
        1   -1    0    0  501    0  0.00000000000E+00  0.00000000000E+00 -0.13548501423E+04  0.13548501423E+04  0.50400001928E-02 0.  1.
    10030    2    1    2    0    0  0.00000000000E+00  0.00000000000E+00 -0.45822079718E+03  0.22514794875E+04  0.22043578619E+04 0.  0.
        4    1    3    3  502    0 -0.51646019264E+02  0.37966046852E+02 -0.13529440238E+04  0.13544622093E+04  0.12699999809E+01 0.  1.
       -4    1    3    3    0  502  0.51646019264E+02 -0.37966046852E+02  0.89472322665E+03  0.89701727811E+03  0.12699999809E+01 0. -1.
</event>
<event>
 5   0  0.1815681E-05  0.2195899E+04  0.7818609E-02  0.8520137E-01
        1   -1    0    0  501    0  0.00000000000E+00  0.00000000000E+00  0.16639203576E+04  0.16639203576E+04  0.50400001928E-02 0.  1.
       -1   -1    0    0    0  501  0.00000000000E+00  0.00000000000E+00 -0.72448993536E+03  0.72448993538E+03  0.50400001928E-02 0. -1.
    10030    2    1    2    0    0  0.00000000000E+00  0.00000000000E+00  0.93943042220E+03  0.23884102929E+04  0.21958994078E+04 0.  0.
        2    1    3    3  502    0  0.51899256221E+03 -0.71976685839E+03 -0.23355801045E+03  0.91758757311E+03  0.25500000920E-02 0. -1.
       -2    1    3    3    0  502 -0.51899256221E+03  0.71976685839E+03  0.11729884327E+04  0.14708227198E+04  0.25500000920E-02 0.  1.
</event>
<event>
 5   0  0.4029532E-05  0.2230531E+04  0.7818609E-02  0.8505827E-01
       -2   -1    0    0    0  501  0.00000000000E+00  0.00000000000E+00  0.66183336413E+03  0.66183336414E+03  0.25500000920E-02 0. -1.
        2   -1    0    0  501    0  0.00000000000E+00  0.00000000000E+00 -0.18793513324E+04  0.18793513324E+04  0.25500000920E-02 0.  1.
    10030    2    1    2    0    0  0.00000000000E+00  0.00000000000E+00 -0.12175179683E+04  0.25411846965E+04  0.22305312504E+04 0.  0.
        3    1    3    3  502    0  0.57923075992E+03  0.72945851095E+03  0.90015398717E+02  0.93579953763E+03  0.10100000352E+00 0. -1.
       -3    1    3    3    0  502 -0.57923075992E+03 -0.72945851095E+03 -0.13075333670E+04  0.16053851589E+04  0.10100000352E+00 0.  1.
</event>
<event>
 5   0  0.4132460E-05  0.2210241E+04  0.7818609E-02  0.8514178E-01
       -2   -1    0    0    0  501  0.00000000000E+00  0.00000000000E+00  0.16172135203E+04  0.16172135203E+04  0.25500000920E-02 0.  1.
        2   -1    0    0  501    0  0.00000000000E+00  0.00000000000E+00 -0.75518259090E+03  0.75518259090E+03  0.25500000920E-02 0. -1.
    10030    2    1    2    0    0  0.00000000000E+00  0.00000000000E+00  0.86203092938E+03  0.23723961112E+04  0.22102411600E+04 0.  0.
        4    1    3    3  502    0 -0.46894698933E+03 -0.56213489458E+02  0.15034242933E+04  0.15758672069E+04  0.12699999809E+01 0.  1.
       -4    1    3    3    0  502  0.46894698933E+03  0.56213489458E+02 -0.64139336391E+03  0.79652890429E+03  0.12699999809E+01 0. -1.
</event>
<event>
 5   0  0.3963414E-05  0.2190496E+04  0.7818609E-02  0.8522394E-01
        2   -1    0    0  501    0  0.00000000000E+00  0.00000000000E+00  0.19812618006E+04  0.19812618006E+04  0.25500000920E-02 0. -1.
       -2   -1    0    0    0  501  0.00000000000E+00  0.00000000000E+00 -0.60545651601E+03  0.60545651601E+03  0.25500000920E-02 0.  1.
    10030    2    1    2    0    0  0.00000000000E+00  0.00000000000E+00  0.13758052846E+04  0.25867183166E+04  0.21904957129E+04 0.  0.
        1    1    3    3  502    0 -0.75283032891E+03  0.28877134300E+03  0.15632111037E+04  0.17589119783E+04  0.50400001928E-02 0. -1.
       -1    1    3    3    0  502  0.75283032891E+03 -0.28877134300E+03 -0.18740581912E+03  0.82780633830E+03  0.50400001928E-02 0.  1.
</event>
<event>
 5   0  0.4029532E-05  0.2208978E+04  0.7818609E-02  0.8514700E-01
        2   -1    0    0  501    0  0.00000000000E+00  0.00000000000E+00  0.13827157967E+04  0.13827157967E+04  0.25500000920E-02 0. -1.
       -2   -1    0    0    0  501  0.00000000000E+00  0.00000000000E+00 -0.88224671033E+03  0.88224671033E+03  0.25500000920E-02 0.  1.
    10030    2    1    2    0    0  0.00000000000E+00  0.00000000000E+00  0.50046908635E+03  0.22649625070E+04  0.22089784634E+04 0.  0.
        3    1    3    3  502    0 -0.96138846467E+03 -0.16798944950E+02  0.80746574509E+03  0.12556077908E+04  0.10100000352E+00 0. -1.
       -3    1    3    3    0  502  0.96138846467E+03  0.16798944950E+02 -0.30699665874E+03  0.10093547163E+04  0.10100000352E+00 0.  1.
</event>
<event>
 5   0  0.1786228E-05  0.2204003E+04  0.7818609E-02  0.8516764E-01
       -1   -1    0    0    0  501  0.00000000000E+00  0.00000000000E+00  0.88381690120E+03  0.88381690121E+03  0.50400001928E-02 0. -1.
        1   -1    0    0  501    0  0.00000000000E+00  0.00000000000E+00 -0.13740488656E+04  0.13740488656E+04  0.50400001928E-02 0.  1.
    10030    2    1    2    0    0  0.00000000000E+00  0.00000000000E+00 -0.49023196443E+03  0.22578657669E+04  0.22040032764E+04 0.  0.
        5    1    3    3  502    0  0.24711311861E+03  0.67746623821E+03  0.60853092060E+03  0.94358749919E+03  0.46999998093E+01 0. -1.
       -5    1    3    3    0  502 -0.24711311861E+03 -0.67746623821E+03 -0.10987628850E+04  0.13142782677E+04  0.46999998093E+01 0.  1.
</event>
<event>
 5   0  0.1866935E-05  0.2224478E+04  0.7818609E-02  0.8508308E-01
        1   -1    0    0  501    0  0.00000000000E+00  0.00000000000E+00  0.80719161084E+03  0.80719161086E+03  0.50400001928E-02 0. -1.
       -1   -1    0    0    0  501  0.00000000000E+00  0.00000000000E+00 -0.15325678354E+04  0.15325678355E+04  0.50400001928E-02 0.  1.
    10030    2    1    2    0    0  0.00000000000E+00  0.00000000000E+00 -0.72537622461E+03  0.23397594463E+04  0.22244782758E+04 0.  0.
        4    1    3    3  502    0  0.31751031516E+03 -0.10627785165E+04 -0.44918943336E+03  0.11966970106E+04  0.12699999809E+01 0. -1.
       -4    1    3    3    0  502 -0.31751031516E+03  0.10627785165E+04 -0.27618679125E+03  0.11430624357E+04  0.12699999809E+01 0.  1.
</event>
<event>
 5   0  0.1786228E-05  0.2194563E+04  0.7818609E-02  0.8520694E-01
        1   -1    0    0  501    0  0.00000000000E+00  0.00000000000E+00  0.10542841681E+04  0.10542841681E+04  0.50400001928E-02 0. -1.
       -1   -1    0    0    0  501  0.00000000000E+00  0.00000000000E+00 -0.11420326080E+04  0.11420326080E+04  0.50400001928E-02 0.  1.
    10030    2    1    2    0    0  0.00000000000E+00  0.00000000000E+00 -0.87748439926E+02  0.21963167761E+04  0.21945631894E+04 0.  0.
        5    1    3    3  502    0  0.69662618253E+03 -0.83387901893E+03  0.10909604751E+03  0.10920468369E+04  0.46999998093E+01 0. -1.
       -5    1    3    3    0  502 -0.69662618253E+03  0.83387901893E+03 -0.19684448744E+03  0.11042699392E+04  0.46999998093E+01 0.  1.
</event>
<event>
 5   0  0.1788413E-05  0.2204028E+04  0.7818609E-02  0.8516753E-01
       -1   -1    0    0    0  501  0.00000000000E+00  0.00000000000E+00  0.56362323634E+03  0.56362323636E+03  0.50400001928E-02 0. -1.
        1   -1    0    0  501    0  0.00000000000E+00  0.00000000000E+00 -0.21546924645E+04  0.21546924645E+04  0.50400001928E-02 0.  1.
    10030    2    1    2    0    0  0.00000000000E+00  0.00000000000E+00 -0.15910692282E+04  0.27183157009E+04  0.22040278948E+04 0.  0.
        1    1    3    3  502    0 -0.90218594044E+02 -0.10982303577E+04 -0.81232919998E+03  0.13689879628E+04  0.50400001928E-02 0. -1.
       -1    1    3    3    0  502  0.90218594044E+02  0.10982303577E+04 -0.77874002821E+03  0.13493277381E+04  0.50400001928E-02 0.  1.
</event>
<event>
 5   0  0.4132460E-05  0.2209059E+04  0.7818609E-02  0.8514667E-01
        2   -1    0    0  501    0  0.00000000000E+00  0.00000000000E+00  0.11748240127E+04  0.11748240127E+04  0.25500000920E-02 0. -1.
       -2   -1    0    0    0  501  0.00000000000E+00  0.00000000000E+00 -0.10384413013E+04  0.10384413013E+04  0.25500000920E-02 0.  1.
    10030    2    1    2    0    0  0.00000000000E+00  0.00000000000E+00  0.13638271141E+03  0.22132653140E+04  0.22090593261E+04 0.  0.
        4    1    3    3  502    0  0.58297231390E+03 -0.68145376629E+03  0.71420440712E+03  0.11464403615E+04  0.12699999809E+01 0. -1.
       -4    1    3    3    0  502 -0.58297231390E+03  0.68145376629E+03 -0.57782169570E+03  0.10668249525E+04  0.12699999809E+01 0.  1.
</event>
<event>
 5   0  0.3963414E-05  0.2223140E+04  0.7818609E-02  0.8508858E-01
       -2   -1    0    0    0  501  0.00000000000E+00  0.00000000000E+00  0.46603621575E+03  0.46603621576E+03  0.25500000920E-02 0.  1.
        2   -1    0    0  501    0  0.00000000000E+00  0.00000000000E+00 -0.26512690231E+04  0.26512690231E+04  0.25500000920E-02 0. -1.
    10030    2    1    2    0    0  0.00000000000E+00  0.00000000000E+00 -0.21852328074E+04  0.31173052389E+04  0.22231395660E+04 0.  0.
        1    1    3    3  502    0 -0.77391115774E+03  0.24873966840E+03 -0.21556878988E+04  0.23038663633E+04  0.50400001928E-02 0. -1.
       -1    1    3    3    0  502  0.77391115774E+03 -0.24873966840E+03 -0.29544908557E+02  0.81343887561E+03  0.50400001928E-02 0.  1.
</event>
<event>
 5   0  0.4143281E-05  0.2185945E+04  0.7818609E-02  0.8524301E-01
        2   -1    0    0  501    0  0.00000000000E+00  0.00000000000E+00  0.11599770892E+04  0.11599770892E+04  0.25500000920E-02 0.  1.
       -2   -1    0    0    0  501  0.00000000000E+00  0.00000000000E+00 -0.10298382794E+04  0.10298382794E+04  0.25500000920E-02 0. -1.
    10030    2    1    2    0    0  0.00000000000E+00  0.00000000000E+00  0.13013880987E+03  0.21898153686E+04  0.21859449304E+04 0.  0.
        2    1    3    3  502    0 -0.33955719436E+03  0.40115701757E+02  0.11050213829E+04  0.11567111197E+04  0.25500000920E-02 0.  1.
       -2    1    3    3    0  502  0.33955719436E+03 -0.40115701757E+02 -0.97488257307E+03  0.10331042489E+04  0.25500000920E-02 0. -1.
</event>
<event>
 5   0  0.1884407E-05  0.2205552E+04  0.7818609E-02  0.8516121E-01
        1   -1    0    0  501    0  0.00000000000E+00  0.00000000000E+00  0.11621980232E+04  0.11621980232E+04  0.50400001928E-02 0. -1.
       -1   -1    0    0    0  501  0.00000000000E+00  0.00000000000E+00 -0.10463919286E+04  0.10463919286E+04  0.50400001928E-02 0.  1.
    10030    2    1    2    0    0  0.00000000000E+00  0.00000000000E+00  0.11580609462E+03  0.22085899519E+04  0.22055517505E+04 0.  0.
        3    1    3    3  502    0 -0.60615872264E+03 -0.86314288492E+03 -0.26451965384E+03  0.10873889342E+04  0.10100000352E+00 0.  1.
       -3    1    3    3    0  502  0.60615872264E+03  0.86314288492E+03  0.38032574845E+03  0.11212010176E+04  0.10100000352E+00 0. -1.
</event>
<event>
 5   0  0.4029532E-05  0.2206997E+04  0.7818609E-02  0.8515522E-01
        2   -1    0    0  501    0  0.00000000000E+00  0.00000000000E+00  0.17543092347E+04  0.17543092347E+04  0.25500000920E-02 0.  1.
       -2   -1    0    0    0  501  0.00000000000E+00  0.00000000000E+00 -0.69412427839E+03  0.69412427840E+03  0.25500000920E-02 0. -1.
    10030    2    1    2    0    0  0.00000000000E+00  0.00000000000E+00  0.10601849563E+04  0.24484335131E+04  0.22069967210E+04 0.  0.
        3    1    3    3  502    0  0.27854063216E+03  0.53038617229E+03 -0.49800962438E+03  0.77904298450E+03  0.10100000352E+00 0. -1.
       -3    1    3    3    0  502 -0.27854063216E+03 -0.53038617229E+03  0.15581945807E+04  0.16693905286E+04  0.10100000352E+00 0.  1.
</event>
<event>
 5   0  0.4027923E-05  0.2214388E+04  0.7818609E-02  0.8512463E-01
        2   -1    0    0  501    0  0.00000000000E+00  0.00000000000E+00  0.11579969122E+04  0.11579969122E+04  0.25500000920E-02 0.  1.
       -2   -1    0    0    0  501  0.00000000000E+00  0.00000000000E+00 -0.10586199127E+04  0.10586199127E+04  0.25500000920E-02 0. -1.
    10030    2    1    2    0    0  0.00000000000E+00  0.00000000000E+00  0.99376999495E+02  0.22166168249E+04  0.22143880329E+04 0.  0.
        5    1    3    3  502    0 -0.17848341889E+03  0.66584992744E+02  0.11414588153E+04  0.11572554640E+04  0.46999998093E+01 0.  1.
       -5    1    3    3    0  502  0.17848341889E+03 -0.66584992744E+02 -0.10420818158E+04  0.10593613608E+04  0.46999998093E+01 0. -1.
</event>
<event>
 5   0  0.3963414E-05  0.2194544E+04  0.7818609E-02  0.8520703E-01
        2   -1    0    0  501    0  0.00000000000E+00  0.00000000000E+00  0.10276335523E+04  0.10276335523E+04  0.25500000920E-02 0. -1.
       -2   -1    0    0    0  501  0.00000000000E+00  0.00000000000E+00 -0.11716291087E+04  0.11716291087E+04  0.25500000920E-02 0.  1.
    10030    2    1    2    0    0  0.00000000000E+00  0.00000000000E+00 -0.14399555645E+03  0.21992626610E+04  0.21945435816E+04 0.  0.
        1    1    3    3  502    0 -0.10002373254E+02 -0.46845864027E+03  0.92233127203E+03  0.10345281632E+04  0.50400001928E-02 0. -1.
       -1    1    3    3    0  502  0.10002373254E+02  0.46845864027E+03 -0.10663268285E+04  0.11647344978E+04  0.50400001928E-02 0.  1.
</event>
<event>
 5   0  0.1884407E-05  0.2173306E+04  0.7818609E-02  0.8529621E-01
       -1   -1    0    0    0  501  0.00000000000E+00  0.00000000000E+00  0.10243588412E+04  0.10243588412E+04  0.50400001928E-02 0. -1.
        1   -1    0    0  501    0  0.00000000000E+00  0.00000000000E+00 -0.11527357549E+04  0.11527357549E+04  0.50400001928E-02 0.  1.
    10030    2    1    2    0    0  0.00000000000E+00  0.00000000000E+00 -0.12837691369E+03  0.21770945961E+04  0.21733062942E+04 0.  0.
        3    1    3    3  502    0  0.60086970900E+03  0.13466562749E+03  0.83271338870E+03  0.10356596141E+04  0.10100000352E+00 0. -1.
       -3    1    3    3    0  502 -0.60086970900E+03 -0.13466562749E+03 -0.96109030239E+03  0.11414349819E+04  0.10100000352E+00 0.  1.
</event>
<event>
 5   0  0.1866935E-05  0.2206568E+04  0.7818609E-02  0.8515699E-01
       -1   -1    0    0    0  501  0.00000000000E+00  0.00000000000E+00  0.18168903483E+04  0.18168903483E+04  0.50400001928E-02 0.  1.
        1   -1    0    0  501    0  0.00000000000E+00  0.00000000000E+00 -0.66995544371E+03  0.66995544373E+03  0.50400001928E-02 0. -1.
    10030    2    1    2    0    0  0.00000000000E+00  0.00000000000E+00  0.11469349046E+04  0.24868457920E+04  0.22065679953E+04 0.  0.
        4    1    3    3  502    0 -0.81859001257E+03 -0.26870490617E+03 -0.20322993395E+03  0.88520955386E+03  0.12699999809E+01 0. -1.
       -4    1    3    3    0  502  0.81859001257E+03  0.26870490617E+03  0.13501648385E+04  0.16016362381E+04  0.12699999809E+01 0.  1.
</event>
<event>
 5   0  0.1884407E-05  0.2188298E+04  0.7818609E-02  0.8523315E-01
        1   -1    0    0  501    0  0.00000000000E+00  0.00000000000E+00  0.19536220810E+04  0.19536220810E+04  0.50400001928E-02 0. -1.
       -1   -1    0    0    0  501  0.00000000000E+00  0.00000000000E+00 -0.61279080481E+03  0.61279080483E+03  0.50400001928E-02 0.  1.
    10030    2    1    2    0    0  0.00000000000E+00  0.00000000000E+00  0.13408312762E+04  0.25664128859E+04  0.21882976465E+04 0.  0.
        3    1    3    3  502    0  0.94878796981E+02 -0.85655612113E+03  0.14610457435E+04  0.16962738722E+04  0.10100000352E+00 0. -1.
       -3    1    3    3    0  502 -0.94878796981E+02  0.85655612113E+03 -0.12021446727E+03  0.87013901366E+03  0.10100000352E+00 0.  1.
</event>
<event>
 5   0  0.4132460E-05  0.2202537E+04  0.7818609E-02  0.8517373E-01
       -2   -1    0    0    0  501  0.00000000000E+00  0.00000000000E+00  0.18172896845E+04  0.18172896845E+04  0.25500000920E-02 0. -1.
        2   -1    0    0  501    0  0.00000000000E+00  0.00000000000E+00 -0.66736304151E+03  0.66736304152E+03  0.25500000920E-02 0.  1.
    10030    2    1    2    0    0  0.00000000000E+00  0.00000000000E+00  0.11499266430E+04  0.24846527260E+04  0.22025366931E+04 0.  0.
        4    1    3    3  502    0 -0.12912963888E+03 -0.10916714010E+04  0.50039475791E+03  0.12078151506E+04  0.12699999809E+01 0.  1.
       -4    1    3    3    0  502  0.12912963888E+03  0.10916714010E+04  0.64953188508E+03  0.12768375754E+04  0.12699999809E+01 0. -1.
</event>
<event>
 5   0  0.4027923E-05  0.2202902E+04  0.7818609E-02  0.8517221E-01
       -2   -1    0    0    0  501  0.00000000000E+00  0.00000000000E+00  0.54276706174E+03  0.54276706175E+03  0.25500000920E-02 0.  1.
        2   -1    0    0  501    0  0.00000000000E+00  0.00000000000E+00 -0.22352021628E+04  0.22352021628E+04  0.25500000920E-02 0. -1.
    10030    2    1    2    0    0  0.00000000000E+00  0.00000000000E+00 -0.16924351010E+04  0.27779692245E+04  0.22029018229E+04 0.  0.
        5    1    3    3  502    0  0.70102928839E+03 -0.43458899190E+03 -0.17667515040E+04  0.19498057909E+04  0.46999998093E+01 0. -1.
       -5    1    3    3    0  502 -0.70102928839E+03  0.43458899190E+03  0.74316403033E+02  0.82816343364E+03  0.46999998093E+01 0.  1.
</event>
<event>
 5   0  0.4143281E-05  0.2128350E+04  0.7818609E-02  0.8548857E-01
       -2   -1    0    0    0  501  0.00000000000E+00  0.00000000000E+00  0.10438755001E+04  0.10438755001E+04  0.25500000920E-02 0.  1.
        2   -1    0    0  501    0  0.00000000000E+00  0.00000000000E+00 -0.10848689606E+04  0.10848689606E+04  0.25500000920E-02 0. -1.
    10030    2    1    2    0    0  0.00000000000E+00  0.00000000000E+00 -0.40993460494E+02  0.21287444607E+04  0.21283497164E+04 0.  0.
        2    1    3    3  502    0  0.76085702712E+03  0.46750378493E+03 -0.59940017833E+03  0.10755202362E+04  0.25500000920E-02 0.  1.
       -2    1    3    3    0  502 -0.76085702712E+03 -0.46750378493E+03  0.55840671784E+03  0.10532242245E+04  0.25500000920E-02 0. -1.
</event>
<event>
 5   0  0.4029532E-05  0.2198628E+04  0.7818609E-02  0.8518999E-01
       -2   -1    0    0    0  501  0.00000000000E+00  0.00000000000E+00  0.65770344954E+03  0.65770344954E+03  0.25500000920E-02 0.  1.
        2   -1    0    0  501    0  0.00000000000E+00  0.00000000000E+00 -0.18374414892E+04  0.18374414892E+04  0.25500000920E-02 0. -1.
    10030    2    1    2    0    0  0.00000000000E+00  0.00000000000E+00 -0.11797380397E+04  0.24951449388E+04  0.21986283049E+04 0.  0.
        3    1    3    3  502    0  0.35474468213E+03  0.65264705164E+03 -0.15095291307E+04  0.16824001219E+04  0.10100000352E+00 0. -1.
       -3    1    3    3    0  502 -0.35474468213E+03 -0.65264705164E+03  0.32979109098E+03  0.81274481691E+03  0.10100000352E+00 0.  1.
</event>
<event>
 5   0  0.4143281E-05  0.2199568E+04  0.7818609E-02  0.8518608E-01
       -2   -1    0    0    0  501  0.00000000000E+00  0.00000000000E+00  0.16739749730E+04  0.16739749730E+04  0.25500000920E-02 0.  1.
        2   -1    0    0  501    0  0.00000000000E+00  0.00000000000E+00 -0.72254636038E+03  0.72254636038E+03  0.25500000920E-02 0. -1.
    10030    2    1    2    0    0  0.00000000000E+00  0.00000000000E+00  0.95142861260E+03  0.23965213334E+04  0.21995677067E+04 0.  0.
        2    1    3    3  502    0  0.33969532025E+03  0.28051708941E+02 -0.66354482838E+03  0.74597020600E+03  0.25500000920E-02 0. -1.
       -2    1    3    3    0  502 -0.33969532025E+03 -0.28051708941E+02  0.16149734410E+04  0.16505511274E+04  0.25500000920E-02 0.  1.
</event>
<event>
 5   0  0.4029532E-05  0.2200198E+04  0.7818609E-02  0.8518346E-01
       -2   -1    0    0    0  501  0.00000000000E+00  0.00000000000E+00  0.14834586391E+04  0.14834586391E+04  0.25500000920E-02 0.  1.
        2   -1    0    0  501    0  0.00000000000E+00  0.00000000000E+00 -0.81580857397E+03  0.81580857397E+03  0.25500000920E-02 0. -1.
    10030    2    1    2    0    0  0.00000000000E+00  0.00000000000E+00  0.66765006516E+03  0.22992672131E+04  0.22001984246E+04 0.  0.
        3    1    3    3  502    0 -0.15447424479E+03 -0.53138616700E+03 -0.65976709290E+03  0.86111914267E+03  0.10100000352E+00 0. -1.
       -3    1    3    3    0  502  0.15447424479E+03  0.53138616700E+03  0.13274171581E+04  0.14381480704E+04  0.10100000352E+00 0.  1.
</event>
<event>
 5   0  0.4029532E-05  0.2200171E+04  0.7818609E-02  0.8518357E-01
        2   -1    0    0  501    0  0.00000000000E+00  0.00000000000E+00  0.17439712741E+04  0.17439712741E+04  0.25500000920E-02 0.  1.
       -2   -1    0    0    0  501  0.00000000000E+00  0.00000000000E+00 -0.69392632016E+03  0.69392632016E+03  0.25500000920E-02 0. -1.
    10030    2    1    2    0    0  0.00000000000E+00  0.00000000000E+00  0.10500449540E+04  0.24378975943E+04  0.22001705104E+04 0.  0.
        3    1    3    3  502    0 -0.32428978785E+03  0.77965042624E+03  0.13063103772E+04  0.15554631032E+04  0.10100000352E+00 0.  1.
       -3    1    3    3    0  502  0.32428978785E+03 -0.77965042624E+03 -0.25626542327E+03  0.88243449106E+03  0.10100000352E+00 0. -1.
</event>
<event>
 5   0  0.4132460E-05  0.2183038E+04  0.7818609E-02  0.8525521E-01
        2   -1    0    0  501    0  0.00000000000E+00  0.00000000000E+00  0.18953684469E+04  0.18953684469E+04  0.25500000920E-02 0.  1.
       -2   -1    0    0    0  501  0.00000000000E+00  0.00000000000E+00 -0.62859233332E+03  0.62859233332E+03  0.25500000920E-02 0. -1.
    10030    2    1    2    0    0  0.00000000000E+00  0.00000000000E+00  0.12667761135E+04  0.25239607802E+04  0.21830383180E+04 0.  0.
        4    1    3    3  502    0  0.50564676169E+03 -0.49065272693E+03 -0.33046689328E+03  0.77822151506E+03  0.12699999809E+01 0. -1.
       -4    1    3    3    0  502 -0.50564676169E+03  0.49065272693E+03  0.15972430068E+04  0.17457392651E+04  0.12699999809E+01 0.  1.
</event>
<event>
 5   0  0.1884407E-05  0.2117887E+04  0.7818609E-02  0.8553405E-01
        1   -1    0    0  501    0  0.00000000000E+00  0.00000000000E+00  0.94363954023E+03  0.94363954025E+03  0.50400001928E-02 0.  1.
       -1   -1    0    0    0  501  0.00000000000E+00  0.00000000000E+00 -0.11883367292E+04  0.11883367292E+04  0.50400001928E-02 0. -1.
    10030    2    1    2    0    0  0.00000000000E+00  0.00000000000E+00 -0.24469718899E+03  0.21319762695E+04  0.21178871781E+04 0.  0.
        3    1    3    3  502    0  0.90082687439E+03  0.32350347845E+03  0.33367490661E+03  0.10136481203E+04  0.10100000352E+00 0. -1.
       -3    1    3    3    0  502 -0.90082687439E+03 -0.32350347845E+03 -0.57837209560E+03  0.11183281492E+04  0.10100000352E+00 0.  1.
</event>
<event>
 5   0  0.1815681E-05  0.2137095E+04  0.7818609E-02  0.8545077E-01
        1   -1    0    0  501    0  0.00000000000E+00  0.00000000000E+00  0.91420050071E+03  0.91420050072E+03  0.50400001928E-02 0. -1.
       -1   -1    0    0    0  501  0.00000000000E+00  0.00000000000E+00 -0.12489533153E+04  0.12489533154E+04  0.50400001928E-02 0.  1.
    10030    2    1    2    0    0  0.00000000000E+00  0.00000000000E+00 -0.33475281464E+03  0.21631538161E+04  0.21370949874E+04 0.  0.
        2    1    3    3  502    0  0.94587212177E+03 -0.38203264207E+03  0.15457552122E+03  0.10317541384E+04  0.25500000920E-02 0.  1.
       -2    1    3    3    0  502 -0.94587212177E+03  0.38203264207E+03 -0.48932833585E+03  0.11313996777E+04  0.25500000920E-02 0. -1.
</event>
<event>
 5   0  0.1815681E-05  0.2225588E+04  0.7818609E-02  0.8507853E-01
       -1   -1    0    0    0  501  0.00000000000E+00  0.00000000000E+00  0.94276645676E+03  0.94276645677E+03  0.50400001928E-02 0.  1.
        1   -1    0    0  501    0  0.00000000000E+00  0.00000000000E+00 -0.13134860435E+04  0.13134860435E+04  0.50400001928E-02 0. -1.
    10030    2    1    2    0    0  0.00000000000E+00  0.00000000000E+00 -0.37071958675E+03  0.22562525003E+04  0.22255880870E+04 0.  0.
        2    1    3    3  502    0 -0.27732297986E+03 -0.93168405638E+03 -0.73445646875E+03  0.12183470444E+04  0.25500000920E-02 0.  1.
       -2    1    3    3    0  502  0.27732297986E+03  0.93168405638E+03  0.36373688200E+03  0.10379054559E+04  0.25500000920E-02 0. -1.
</event>
<event>
 5   0  0.1884407E-05  0.2191825E+04  0.7818609E-02  0.8521839E-01
        1   -1    0    0  501    0  0.00000000000E+00  0.00000000000E+00  0.10139049775E+04  0.10139049775E+04  0.50400001928E-02 0.  1.
       -1   -1    0    0    0  501  0.00000000000E+00  0.00000000000E+00 -0.11845524916E+04  0.11845524916E+04  0.50400001928E-02 0. -1.
    10030    2    1    2    0    0  0.00000000000E+00  0.00000000000E+00 -0.17064751407E+03  0.21984574691E+04  0.21918245070E+04 0.  0.
        3    1    3    3  502    0 -0.82844168576E+03  0.31057441304E+03 -0.73400460655E+03  0.11495802997E+04  0.10100000352E+00 0. -1.
       -3    1    3    3    0  502  0.82844168576E+03 -0.31057441304E+03  0.56335709248E+03  0.10488771694E+04  0.10100000352E+00 0.  1.
</event>
<event>
 5   0  0.3963414E-05  0.2133142E+04  0.7818609E-02  0.8546783E-01
       -2   -1    0    0    0  501  0.00000000000E+00  0.00000000000E+00  0.12191552298E+04  0.12191552298E+04  0.25500000920E-02 0.  1.
        2   -1    0    0  501    0  0.00000000000E+00  0.00000000000E+00 -0.93308347689E+03  0.93308347689E+03  0.25500000920E-02 0. -1.
    10030    2    1    2    0    0  0.00000000000E+00  0.00000000000E+00  0.28607175291E+03  0.21522387067E+04  0.21331419087E+04 0.  0.
        1    1    3    3  502    0 -0.50946176077E+03  0.63202852694E+03  0.84101094664E+03  0.11688929621E+04  0.50400001928E-02 0.  1.
       -1    1    3    3    0  502  0.50946176077E+03 -0.63202852694E+03 -0.55493919373E+03  0.98334574455E+03  0.50400001928E-02 0. -1.
</event>
<event>
 5   0  0.1884407E-05  0.2245105E+04  0.7818609E-02  0.8499885E-01
       -1   -1    0    0    0  501  0.00000000000E+00  0.00000000000E+00  0.84535683885E+03  0.84535683887E+03  0.50400001928E-02 0. -1.
        1   -1    0    0  501    0  0.00000000000E+00  0.00000000000E+00 -0.14906419581E+04  0.14906419581E+04  0.50400001928E-02 0.  1.
    10030    2    1    2    0    0  0.00000000000E+00  0.00000000000E+00 -0.64528511921E+03  0.23359987969E+04  0.22451052301E+04 0.  0.
        3    1    3    3  502    0 -0.10695989780E+04  0.17123204786E+03 -0.16163625267E+02  0.10833391256E+04  0.10100000352E+00 0. -1.
       -3    1    3    3    0  502  0.10695989780E+04 -0.17123204786E+03 -0.62912149394E+03  0.12526596714E+04  0.10100000352E+00 0.  1.
</event>
<event>
 5   0  0.4029532E-05  0.2197952E+04  0.7818609E-02  0.8519281E-01
       -2   -1    0    0    0  501  0.00000000000E+00  0.00000000000E+00  0.98432110696E+03  0.98432110697E+03  0.25500000920E-02 0.  1.
        2   -1    0    0  501    0  0.00000000000E+00  0.00000000000E+00 -0.12269864706E+04  0.12269864706E+04  0.25500000920E-02 0. -1.
    10030    2    1    2    0    0  0.00000000000E+00  0.00000000000E+00 -0.24266536360E+03  0.22113075775E+04  0.21979523934E+04 0.  0.
        3    1    3    3  502    0  0.65580630897E+03 -0.49191776836E+03  0.61501864588E+03  0.10248477695E+04  0.10100000352E+00 0.  1.
       -3    1    3    3    0  502 -0.65580630897E+03  0.49191776836E+03 -0.85768400948E+03  0.11864598080E+04  0.10100000352E+00 0. -1.
</event>
<event>
 5   0  0.1788413E-05  0.2198881E+04  0.7818609E-02  0.8518894E-01
       -1   -1    0    0    0  501  0.00000000000E+00  0.00000000000E+00  0.10257076587E+04  0.10257076587E+04  0.50400001928E-02 0.  1.
        1   -1    0    0  501    0  0.00000000000E+00  0.00000000000E+00 -0.11784735552E+04  0.11784735552E+04  0.50400001928E-02 0. -1.
    10030    2    1    2    0    0  0.00000000000E+00  0.00000000000E+00 -0.15276589647E+03  0.22041812139E+04  0.21988809437E+04 0.  0.
        1    1    3    3  502    0 -0.49121678581E+03 -0.88498586122E+03  0.35392494888E+03  0.10722671191E+04  0.50400001928E-02 0.  1.
       -1    1    3    3    0  502  0.49121678581E+03  0.88498586122E+03 -0.50669084535E+03  0.11319140948E+04  0.50400001928E-02 0. -1.
</event>
<event>
 5   0  0.4132460E-05  0.2190004E+04  0.7818609E-02  0.8522600E-01
       -2   -1    0    0    0  501  0.00000000000E+00  0.00000000000E+00  0.12104759356E+04  0.12104759356E+04  0.25500000920E-02 0.  1.
        2   -1    0    0  501    0  0.00000000000E+00  0.00000000000E+00 -0.99054360185E+03  0.99054360186E+03  0.25500000920E-02 0. -1.
    10030    2    1    2    0    0  0.00000000000E+00  0.00000000000E+00  0.21993233371E+03  0.22010195374E+04  0.21900038294E+04 0.  0.
        4    1    3    3  502    0 -0.18428094624E+03  0.98509895754E+03 -0.33344249365E+03  0.10562030736E+04  0.12699999809E+01 0. -1.
       -4    1    3    3    0  502  0.18428094624E+03 -0.98509895754E+03  0.55337482736E+03  0.11448164638E+04  0.12699999809E+01 0.  1.
</event>
<event>
 5   0  0.4132460E-05  0.2198382E+04  0.7818609E-02  0.8519102E-01
       -2   -1    0    0    0  501  0.00000000000E+00  0.00000000000E+00  0.48919349330E+03  0.48919349331E+03  0.25500000920E-02 0. -1.
        2   -1    0    0  501    0  0.00000000000E+00  0.00000000000E+00 -0.24698227994E+04  0.24698227994E+04  0.25500000920E-02 0.  1.
    10030    2    1    2    0    0  0.00000000000E+00  0.00000000000E+00 -0.19806293061E+04  0.29590162927E+04  0.21983823535E+04 0.  0.
        4    1    3    3  502    0  0.10890595632E+04  0.10285324529E+03 -0.11352211535E+04  0.15765018879E+04  0.12699999809E+01 0. -1.
       -4    1    3    3    0  502 -0.10890595632E+04 -0.10285324529E+03 -0.84540815259E+03  0.13825144048E+04  0.12699999809E+01 0.  1.
</event>
<event>
 5   0  0.1786228E-05  0.2200462E+04  0.7818609E-02  0.8518236E-01
       -1   -1    0    0    0  501  0.00000000000E+00  0.00000000000E+00  0.20126164514E+04  0.20126164514E+04  0.50400001928E-02 0. -1.
        1   -1    0    0  501    0  0.00000000000E+00  0.00000000000E+00 -0.60145987767E+03  0.60145987769E+03  0.50400001928E-02 0.  1.
    10030    2    1    2    0    0  0.00000000000E+00  0.00000000000E+00  0.14111565737E+04  0.26140763291E+04  0.22004618104E+04 0.  0.
        5    1    3    3  502    0  0.48378835711E+03  0.85511663575E+03  0.12938443577E+04  0.16246017811E+04  0.46999998093E+01 0. -1.
       -5    1    3    3    0  502 -0.48378835711E+03 -0.85511663575E+03  0.11731221610E+03  0.98947454806E+03  0.46999998093E+01 0.  1.
</event>
<event>
 5   0  0.1884407E-05  0.2185572E+04  0.7818609E-02  0.8524457E-01
        1   -1    0    0  501    0  0.00000000000E+00  0.00000000000E+00  0.24149001620E+04  0.24149001620E+04  0.50400001928E-02 0. -1.
       -1   -1    0    0    0  501  0.00000000000E+00  0.00000000000E+00 -0.49450537041E+03  0.49450537043E+03  0.50400001928E-02 0.  1.
    10030    2    1    2    0    0  0.00000000000E+00  0.00000000000E+00  0.19203947916E+04  0.29094055324E+04  0.21855718695E+04 0.  0.
        3    1    3    3  502    0 -0.64632173086E+03  0.49390066706E+03  0.19316097877E+04  0.20958974286E+04  0.10100000352E+00 0. -1.
       -3    1    3    3    0  502  0.64632173086E+03 -0.49390066706E+03 -0.11214996185E+02  0.81350810386E+03  0.10100000352E+00 0.  1.
</event>
<event>
 5   0  0.1815681E-05  0.2344608E+04  0.7818609E-02  0.8460537E-01
        1   -1    0    0  501    0  0.00000000000E+00  0.00000000000E+00  0.19346160416E+04  0.19346160416E+04  0.50400001928E-02 0.  1.
       -1   -1    0    0    0  501  0.00000000000E+00  0.00000000000E+00 -0.71037208071E+03  0.71037208073E+03  0.50400001928E-02 0. -1.
    10030    2    1    2    0    0  0.00000000000E+00  0.00000000000E+00  0.12242439609E+04  0.26449881224E+04  0.23446084730E+04 0.  0.
        2    1    3    3  502    0 -0.39404330075E+03  0.35850276054E+03  0.17901803324E+04  0.18677633616E+04  0.25500000920E-02 0.  1.
       -2    1    3    3    0  502  0.39404330075E+03 -0.35850276054E+03 -0.56593637152E+03  0.77722476079E+03  0.25500000920E-02 0. -1.
</event>
<event>
 5   0  0.4132460E-05  0.2194068E+04  0.7818609E-02  0.8520901E-01
        2   -1    0    0  501    0  0.00000000000E+00  0.00000000000E+00  0.13277500219E+04  0.13277500219E+04  0.25500000920E-02 0. -1.
       -2   -1    0    0    0  501  0.00000000000E+00  0.00000000000E+00 -0.90640841235E+03  0.90640841235E+03  0.25500000920E-02 0.  1.
    10030    2    1    2    0    0  0.00000000000E+00  0.00000000000E+00  0.42134160955E+03  0.22341584343E+04  0.21940681752E+04 0.  0.
        4    1    3    3  502    0  0.30991489571E+03  0.54724700496E+03  0.11259584719E+04  0.12896940026E+04  0.12699999809E+01 0. -1.
       -4    1    3    3    0  502 -0.30991489571E+03 -0.54724700496E+03 -0.70461686236E+03  0.94446443164E+03  0.12699999809E+01 0.  1.
</event>
<event>
 5   0  0.1884407E-05  0.2212345E+04  0.7818609E-02  0.8513308E-01
        1   -1    0    0  501    0  0.00000000000E+00  0.00000000000E+00  0.24151972962E+04  0.24151972962E+04  0.50400001928E-02 0.  1.
       -1   -1    0    0    0  501  0.00000000000E+00  0.00000000000E+00 -0.50663236066E+03  0.50663236068E+03  0.50400001928E-02 0. -1.
    10030    2    1    2    0    0  0.00000000000E+00  0.00000000000E+00  0.19085649356E+04  0.29218296569E+04  0.22123445552E+04 0.  0.
        3    1    3    3  502    0  0.66519938817E+03 -0.79396386953E+03  0.44150579508E+03  0.11259645773E+04  0.10100000352E+00 0. -1.
       -3    1    3    3    0  502 -0.66519938817E+03  0.79396386953E+03  0.14670591405E+04  0.17958650796E+04  0.10100000352E+00 0.  1.
</event>
<event>
 5   0  0.4143281E-05  0.2207225E+04  0.7818609E-02  0.8515427E-01
       -2   -1    0    0    0  501  0.00000000000E+00  0.00000000000E+00  0.11948202070E+04  0.11948202070E+04  0.25500000920E-02 0. -1.
        2   -1    0    0  501    0  0.00000000000E+00  0.00000000000E+00 -0.10193669211E+04  0.10193669211E+04  0.25500000920E-02 0.  1.
    10030    2    1    2    0    0  0.00000000000E+00  0.00000000000E+00  0.17545328592E+03  0.22141871282E+04  0.22072246789E+04 0.  0.
        2    1    3    3  502    0 -0.12988305979E+03 -0.10951153514E+04  0.13043974758E+03  0.11104781717E+04  0.25500000920E-02 0. -1.
       -2    1    3    3    0  502  0.12988305979E+03  0.10951153514E+04  0.45013538330E+02  0.11037089565E+04  0.25500000920E-02 0.  1.
</event>
<event>
 5   0  0.4132460E-05  0.2188525E+04  0.7818609E-02  0.8523219E-01
       -2   -1    0    0    0  501  0.00000000000E+00  0.00000000000E+00  0.10977832696E+04  0.10977832696E+04  0.25500000920E-02 0. -1.
        2   -1    0    0  501    0  0.00000000000E+00  0.00000000000E+00 -0.10907533016E+04  0.10907533016E+04  0.25500000920E-02 0.  1.
    10030    2    1    2    0    0  0.00000000000E+00  0.00000000000E+00  0.70299680638E+01  0.21885365712E+04  0.21885252805E+04 0.  0.
        4    1    3    3  502    0  0.65516457610E+03  0.54337753818E+02  0.87828569415E+03  0.10970782045E+04  0.12699999809E+01 0. -1.
       -4    1    3    3    0  502 -0.65516457610E+03 -0.54337753818E+02 -0.87125572608E+03  0.10914583668E+04  0.12699999809E+01 0.  1.
</event>
<event>
 5   0  0.1786228E-05  0.2212867E+04  0.7818609E-02  0.8513091E-01
       -1   -1    0    0    0  501  0.00000000000E+00  0.00000000000E+00  0.88177453179E+03  0.88177453180E+03  0.50400001928E-02 0.  1.
        1   -1    0    0  501    0  0.00000000000E+00  0.00000000000E+00 -0.13883317222E+04  0.13883317222E+04  0.50400001928E-02 0. -1.
    10030    2    1    2    0    0  0.00000000000E+00  0.00000000000E+00 -0.50655719041E+03  0.22701062540E+04  0.22128674197E+04 0.  0.
        5    1    3    3  502    0 -0.23981058130E+03 -0.13863011956E+02  0.85469135198E+03  0.88781794032E+03  0.46999998093E+01 0.  1.
       -5    1    3    3    0  502  0.23981058130E+03  0.13863011956E+02 -0.13612485424E+04  0.13822883137E+04  0.46999998093E+01 0. -1.
</event>
<event>
 5   0  0.1815681E-05  0.2188062E+04  0.7818609E-02  0.8523414E-01
       -1   -1    0    0    0  501  0.00000000000E+00  0.00000000000E+00  0.88674433334E+03  0.88674433335E+03  0.50400001928E-02 0.  1.
        1   -1    0    0  501    0  0.00000000000E+00  0.00000000000E+00 -0.13497731001E+04  0.13497731001E+04  0.50400001928E-02 0. -1.
    10030    2    1    2    0    0  0.00000000000E+00  0.00000000000E+00 -0.46302876672E+03  0.22365174334E+04  0.21880618344E+04 0.  0.
        2    1    3    3  502    0 -0.89162769036E+03 -0.63314950343E+03 -0.19878312380E+03  0.11114823265E+04  0.25500000920E-02 0. -1.
       -2    1    3    3    0  502  0.89162769036E+03  0.63314950343E+03 -0.26424564293E+03  0.11250351069E+04  0.25500000920E-02 0.  1.
</event>
<event>
 5   0  0.4143281E-05  0.2175450E+04  0.7818609E-02  0.8528716E-01
       -2   -1    0    0    0  501  0.00000000000E+00  0.00000000000E+00  0.66861245257E+03  0.66861245258E+03  0.25500000920E-02 0.  1.
        2   -1    0    0  501    0  0.00000000000E+00  0.00000000000E+00 -0.17695541393E+04  0.17695541393E+04  0.25500000920E-02 0. -1.
    10030    2    1    2    0    0  0.00000000000E+00  0.00000000000E+00 -0.11009416867E+04  0.24381665918E+04  0.21754502366E+04 0.  0.
        2    1    3    3  502    0 -0.14511013246E+03  0.41610021321E+03  0.56408363547E+03  0.71581190671E+03  0.25500000920E-02 0.  1.
       -2    1    3    3    0  502  0.14511013246E+03 -0.41610021321E+03 -0.16650253222E+04  0.17223546851E+04  0.25500000920E-02 0. -1.
</event>
<event>
 5   0  0.4029532E-05  0.2199930E+04  0.7818609E-02  0.8518457E-01
        2   -1    0    0  501    0  0.00000000000E+00  0.00000000000E+00  0.22091439562E+04  0.22091439562E+04  0.25500000920E-02 0.  1.
       -2   -1    0    0    0  501  0.00000000000E+00  0.00000000000E+00 -0.54768861311E+03  0.54768861311E+03  0.25500000920E-02 0. -1.
    10030    2    1    2    0    0  0.00000000000E+00  0.00000000000E+00  0.16614553431E+04  0.27568325694E+04  0.21999299894E+04 0.  0.
        3    1    3    3  502    0 -0.79737635151E+03  0.41552815061E+03  0.36733309635E+02  0.89990112575E+03  0.10100000352E+00 0. -1.
       -3    1    3    3    0  502  0.79737635151E+03 -0.41552815061E+03  0.16247220335E+04  0.18569314436E+04  0.10100000352E+00 0.  1.
</event>
<event>
 5   0  0.4027923E-05  0.2209366E+04  0.7818609E-02  0.8514540E-01
        2   -1    0    0  501    0  0.00000000000E+00  0.00000000000E+00  0.73170071332E+03  0.73170071332E+03  0.25500000920E-02 0. -1.
       -2   -1    0    0    0  501  0.00000000000E+00  0.00000000000E+00 -0.16677925199E+04  0.16677925199E+04  0.25500000920E-02 0.  1.
    10030    2    1    2    0    0  0.00000000000E+00  0.00000000000E+00 -0.93609180655E+03  0.23994932332E+04  0.22093664037E+04 0.  0.
        5    1    3    3  502    0 -0.10146228540E+04 -0.34420845602E+03 -0.17589129924E+03  0.10857710791E+04  0.46999998093E+01 0. -1.
       -5    1    3    3    0  502  0.10146228540E+04  0.34420845602E+03 -0.76020050731E+03  0.13137221541E+04  0.46999998093E+01 0.  1.
</event>
<event>
 5   0  0.1815681E-05  0.2203921E+04  0.7818609E-02  0.8516798E-01
       -1   -1    0    0    0  501  0.00000000000E+00  0.00000000000E+00  0.11088633634E+04  0.11088633635E+04  0.50400001928E-02 0.  1.
        1   -1    0    0  501    0  0.00000000000E+00  0.00000000000E+00 -0.10951002686E+04  0.10951002686E+04  0.50400001928E-02 0. -1.
    10030    2    1    2    0    0  0.00000000000E+00  0.00000000000E+00  0.13763094887E+02  0.22039636320E+04  0.22039206584E+04 0.  0.
        2    1    3    3  502    0 -0.61153927461E+03  0.51413284941E+03 -0.75208232440E+03  0.10972423132E+04  0.25500000920E-02 0. -1.
       -2    1    3    3    0  502  0.61153927461E+03 -0.51413284941E+03  0.76584541929E+03  0.11067213188E+04  0.25500000920E-02 0.  1.
</event>
<event>
 5   0  0.4143281E-05  0.2205326E+04  0.7818609E-02  0.8516215E-01
        2   -1    0    0  501    0  0.00000000000E+00  0.00000000000E+00  0.14369242169E+04  0.14369242169E+04  0.25500000920E-02 0.  1.
       -2   -1    0    0    0  501  0.00000000000E+00  0.00000000000E+00 -0.84615846016E+03  0.84615846016E+03  0.25500000920E-02 0. -1.
    10030    2    1    2    0    0  0.00000000000E+00  0.00000000000E+00  0.59076575671E+03  0.22830826770E+04  0.22053259013E+04 0.  0.
        2    1    3    3  502    0 -0.86738476218E+03 -0.67645919518E+03  0.37498487196E+03  0.11621389859E+04  0.25500000920E-02 0. -1.
       -2    1    3    3    0  502  0.86738476218E+03  0.67645919518E+03  0.21578088475E+03  0.11209436911E+04  0.25500000920E-02 0.  1.
</event>
<event>
 5   0  0.1815681E-05  0.2199666E+04  0.7818609E-02  0.8518567E-01
        1   -1    0    0  501    0  0.00000000000E+00  0.00000000000E+00  0.12515694002E+04  0.12515694002E+04  0.50400001928E-02 0.  1.
       -1   -1    0    0    0  501  0.00000000000E+00  0.00000000000E+00 -0.96649282793E+03  0.96649282794E+03  0.50400001928E-02 0. -1.
    10030    2    1    2    0    0  0.00000000000E+00  0.00000000000E+00  0.28507657228E+03  0.22180622282E+04  0.21996662010E+04 0.  0.
        2    1    3    3  502    0  0.28580431679E+03 -0.23969661879E+03  0.11858380726E+04  0.12431212777E+04  0.25500000920E-02 0.  1.
       -2    1    3    3    0  502 -0.28580431679E+03  0.23969661879E+03 -0.90076150030E+03  0.97494095051E+03  0.25500000920E-02 0. -1.
</event>
<event>
 5   0  0.4027923E-05  0.2198604E+04  0.7818609E-02  0.8519009E-01
        2   -1    0    0  501    0  0.00000000000E+00  0.00000000000E+00  0.22039253811E+04  0.22039253811E+04  0.25500000920E-02 0. -1.
       -2   -1    0    0    0  501  0.00000000000E+00  0.00000000000E+00 -0.54832377974E+03  0.54832377975E+03  0.25500000920E-02 0.  1.
    10030    2    1    2    0    0  0.00000000000E+00  0.00000000000E+00  0.16556016014E+04  0.27522491609E+04  0.21986038254E+04 0.  0.
        5    1    3    3  502    0  0.42211344793E+03 -0.20711431194E+03 -0.41608343452E+03  0.62787229244E+03  0.46999998093E+01 0.  1.
       -5    1    3    3    0  502 -0.42211344793E+03  0.20711431194E+03  0.20716850359E+04  0.21243768684E+04  0.46999998093E+01 0. -1.
</event>
<event>
 5   0  0.1788413E-05  0.2470592E+04  0.7818609E-02  0.8413538E-01
       -1   -1    0    0    0  501  0.00000000000E+00  0.00000000000E+00  0.10825038998E+04  0.10825038998E+04  0.50400001928E-02 0.  1.
        1   -1    0    0  501    0  0.00000000000E+00  0.00000000000E+00 -0.14096541677E+04  0.14096541677E+04  0.50400001928E-02 0. -1.
    10030    2    1    2    0    0  0.00000000000E+00  0.00000000000E+00 -0.32715026794E+03  0.24921580675E+04  0.24705919404E+04 0.  0.
        1    1    3    3  502    0  0.86593463930E+03  0.39349971387E+03  0.63151289236E+03  0.11417063360E+04  0.50400001928E-02 0.  1.
       -1    1    3    3    0  502 -0.86593463930E+03 -0.39349971387E+03 -0.95866316031E+03  0.13504517316E+04  0.50400001928E-02 0. -1.
</event>
<event>
 5   0  0.1815681E-05  0.2209124E+04  0.7818609E-02  0.8514640E-01
        1   -1    0    0  501    0  0.00000000000E+00  0.00000000000E+00  0.85867786878E+03  0.85867786880E+03  0.50400001928E-02 0.  1.
       -1   -1    0    0    0  501  0.00000000000E+00  0.00000000000E+00 -0.14208553984E+04  0.14208553984E+04  0.50400001928E-02 0. -1.
    10030    2    1    2    0    0  0.00000000000E+00  0.00000000000E+00 -0.56217752964E+03  0.22795332672E+04  0.22091238855E+04 0.  0.
        2    1    3    3  502    0  0.31251732668E+03  0.44489613790E+03 -0.12732204563E+04  0.13844457315E+04  0.25500000920E-02 0. -1.
       -2    1    3    3    0  502 -0.31251732668E+03 -0.44489613790E+03  0.71104292671E+03  0.89508753573E+03  0.25500000920E-02 0.  1.
</event>
<event>
 5   0  0.1788413E-05  0.2208370E+04  0.7818609E-02  0.8514952E-01
        1   -1    0    0  501    0  0.00000000000E+00  0.00000000000E+00  0.15263709452E+04  0.15263709452E+04  0.50400001928E-02 0. -1.
       -1   -1    0    0    0  501  0.00000000000E+00  0.00000000000E+00 -0.79877344832E+03  0.79877344833E+03  0.50400001928E-02 0.  1.
    10030    2    1    2    0    0  0.00000000000E+00  0.00000000000E+00  0.72759749688E+03  0.23251443935E+04  0.22083700626E+04 0.  0.
        1    1    3    3  502    0  0.35599584935E+03 -0.96993076796E+03  0.77391582975E+03  0.12909083821E+04  0.50400001928E-02 0.  1.
       -1    1    3    3    0  502 -0.35599584935E+03  0.96993076796E+03 -0.46318332866E+02  0.10342360114E+04  0.50400001928E-02 0. -1.
</event>
<event>
 5   0  0.4027923E-05  0.2205569E+04  0.7818609E-02  0.8516114E-01
        2   -1    0    0  501    0  0.00000000000E+00  0.00000000000E+00  0.16735420451E+04  0.16735420451E+04  0.25500000920E-02 0. -1.
       -2   -1    0    0    0  501  0.00000000000E+00  0.00000000000E+00 -0.72668272722E+03  0.72668272723E+03  0.25500000920E-02 0.  1.
    10030    2    1    2    0    0  0.00000000000E+00  0.00000000000E+00  0.94685931790E+03  0.24002247723E+04  0.22055694027E+04 0.  0.
        5    1    3    3  502    0  0.10360751611E+03  0.10901364527E+04  0.61523744875E+03  0.12560538249E+04  0.46999998093E+01 0. -1.
       -5    1    3    3    0  502 -0.10360751611E+03 -0.10901364527E+04  0.33162186915E+03  0.11441709474E+04  0.46999998093E+01 0.  1.
</event>
<event>
 5   0  0.1786228E-05  0.2195527E+04  0.7818609E-02  0.8520292E-01
       -1   -1    0    0    0  501  0.00000000000E+00  0.00000000000E+00  0.70297519671E+03  0.70297519672E+03  0.50400001928E-02 0. -1.
        1   -1    0    0  501    0  0.00000000000E+00  0.00000000000E+00 -0.17142629696E+04  0.17142629696E+04  0.50400001928E-02 0.  1.
    10030    2    1    2    0    0  0.00000000000E+00  0.00000000000E+00 -0.10112877729E+04  0.24172381663E+04  0.21955266778E+04 0.  0.
        5    1    3    3  502    0 -0.82190799451E+03 -0.23874823428E+03 -0.12624678244E+04  0.15252477072E+04  0.46999998093E+01 0.  1.
       -5    1    3    3    0  502  0.82190799451E+03  0.23874823428E+03  0.25118005151E+03  0.89199045908E+03  0.46999998093E+01 0. -1.
</event>
<event>
 5   0  0.1884407E-05  0.2224960E+04  0.7818609E-02  0.8508111E-01
       -1   -1    0    0    0  501  0.00000000000E+00  0.00000000000E+00  0.69295668444E+03  0.69295668446E+03  0.50400001928E-02 0. -1.
        1   -1    0    0  501    0  0.00000000000E+00  0.00000000000E+00 -0.17859869141E+04  0.17859869141E+04  0.50400001928E-02 0.  1.
    10030    2    1    2    0    0  0.00000000000E+00  0.00000000000E+00 -0.10930302297E+04  0.24789435986E+04  0.22249598383E+04 0.  0.
        3    1    3    3  502    0  0.36909137378E+03  0.95503341652E+03 -0.10312599921E+04  0.14532083300E+04  0.10100000352E+00 0. -1.
       -3    1    3    3    0  502 -0.36909137378E+03 -0.95503341652E+03 -0.61770237628E+02  0.10257352686E+04  0.10100000352E+00 0.  1.
</event>
<event>
 5   0  0.3963414E-05  0.2201250E+04  0.7818609E-02  0.8517908E-01
        2   -1    0    0  501    0  0.00000000000E+00  0.00000000000E+00  0.25922960889E+04  0.25922960889E+04  0.25500000920E-02 0. -1.
       -2   -1    0    0    0  501  0.00000000000E+00  0.00000000000E+00 -0.46729820905E+03  0.46729820906E+03  0.25500000920E-02 0.  1.
    10030    2    1    2    0    0  0.00000000000E+00  0.00000000000E+00  0.21249978798E+04  0.30595942979E+04  0.22012499355E+04 0.  0.
        1    1    3    3  502    0 -0.52880228699E+03  0.37493088429E+03 -0.17381701107E+03  0.67113141789E+03  0.50400001928E-02 0.  1.
       -1    1    3    3    0  502  0.52880228699E+03 -0.37493088429E+03  0.22988148909E+04  0.23884628801E+04  0.50400001928E-02 0. -1.
</event>
<event>
 5   0  0.1788413E-05  0.2239595E+04  0.7818609E-02  0.8502126E-01
        1   -1    0    0  501    0  0.00000000000E+00  0.00000000000E+00  0.13046530425E+04  0.13046530425E+04  0.50400001928E-02 0. -1.
       -1   -1    0    0    0  501  0.00000000000E+00  0.00000000000E+00 -0.96113395727E+03  0.96113395729E+03  0.50400001928E-02 0.  1.
    10030    2    1    2    0    0  0.00000000000E+00  0.00000000000E+00  0.34351908523E+03  0.22657869998E+04  0.22395949113E+04 0.  0.
        1    1    3    3  502    0 -0.11254991397E+03  0.50465124264E+03  0.11766563831E+04  0.12852472928E+04  0.50400001928E-02 0. -1.
       -1    1    3    3    0  502  0.11254991397E+03 -0.50465124264E+03 -0.83313729786E+03  0.98053970697E+03  0.50400001928E-02 0.  1.
</event>
<event>
 5   0  0.4029532E-05  0.2263646E+04  0.7818609E-02  0.8492394E-01
        2   -1    0    0  501    0  0.00000000000E+00  0.00000000000E+00  0.12131453515E+04  0.12131453515E+04  0.25500000920E-02 0.  1.
       -2   -1    0    0    0  501  0.00000000000E+00  0.00000000000E+00 -0.10559522030E+04  0.10559522030E+04  0.25500000920E-02 0. -1.
    10030    2    1    2    0    0  0.00000000000E+00  0.00000000000E+00  0.15719314846E+03  0.22690975546E+04  0.22636461795E+04 0.  0.
        3    1    3    3  502    0  0.76723216117E+03 -0.78093068433E+03  0.36656103870E+03  0.11544976952E+04  0.10100000352E+00 0.  1.
       -3    1    3    3    0  502 -0.76723216117E+03  0.78093068433E+03 -0.20936789025E+03  0.11145998594E+04  0.10100000352E+00 0. -1.
</event>
<event>
 5   0  0.1788413E-05  0.2176595E+04  0.7818609E-02  0.8528233E-01
       -1   -1    0    0    0  501  0.00000000000E+00  0.00000000000E+00  0.83231518360E+03  0.83231518362E+03  0.50400001928E-02 0. -1.
        1   -1    0    0  501    0  0.00000000000E+00  0.00000000000E+00 -0.14230086728E+04  0.14230086728E+04  0.50400001928E-02 0.  1.
    10030    2    1    2    0    0  0.00000000000E+00  0.00000000000E+00 -0.59069348919E+03  0.22553238564E+04  0.21765952539E+04 0.  0.
        1    1    3    3  502    0  0.12566662324E+03 -0.90364607108E+03  0.31942939613E+03  0.96664546815E+03  0.50400001928E-02 0. -1.
       -1    1    3    3    0  502 -0.12566662324E+03  0.90364607108E+03 -0.91012288532E+03  0.12886783883E+04  0.50400001928E-02 0.  1.
</event>
<event>
 5   0  0.1788413E-05  0.2205812E+04  0.7818609E-02  0.8516013E-01
        1   -1    0    0  501    0  0.00000000000E+00  0.00000000000E+00  0.22164083631E+04  0.22164083631E+04  0.50400001928E-02 0.  1.
       -1   -1    0    0    0  501  0.00000000000E+00  0.00000000000E+00 -0.54881666973E+03  0.54881666976E+03  0.50400001928E-02 0. -1.
    10030    2    1    2    0    0  0.00000000000E+00  0.00000000000E+00  0.16675916934E+04  0.27652250329E+04  0.22058121920E+04 0.  0.
        1    1    3    3  502    0  0.16031997233E+03  0.94041849688E+03  0.13997995060E+03  0.96420113534E+03  0.50400001928E-02 0. -1.
       -1    1    3    3    0  502 -0.16031997233E+03 -0.94041849688E+03  0.15276117428E+04  0.18010238975E+04  0.50400001928E-02 0.  1.
</event>
<event>
 5   0  0.3963414E-05  0.2181806E+04  0.7818609E-02  0.8526039E-01
        2   -1    0    0  501    0  0.00000000000E+00  0.00000000000E+00  0.16171658003E+04  0.16171658003E+04  0.25500000920E-02 0. -1.
       -2   -1    0    0    0  501  0.00000000000E+00  0.00000000000E+00 -0.73589794792E+03  0.73589794792E+03  0.25500000920E-02 0.  1.
    10030    2    1    2    0    0  0.00000000000E+00  0.00000000000E+00  0.88126785235E+03  0.23530637482E+04  0.21818056686E+04 0.  0.
        1    1    3    3  502    0 -0.21575615965E+03 -0.85731863699E+03  0.11299618927E+04  0.14346985205E+04  0.50400001928E-02 0. -1.
       -1    1    3    3    0  502  0.21575615965E+03  0.85731863699E+03 -0.24869404031E+03  0.91836522771E+03  0.50400001928E-02 0.  1.
</event>
<event>
 5   0  0.1788413E-05  0.2191467E+04  0.7818609E-02  0.8521988E-01
        1   -1    0    0  501    0  0.00000000000E+00  0.00000000000E+00  0.23061014336E+04  0.23061014336E+04  0.50400001928E-02 0.  1.
       -1   -1    0    0    0  501  0.00000000000E+00  0.00000000000E+00 -0.52063250116E+03  0.52063250118E+03  0.50400001928E-02 0. -1.
    10030    2    1    2    0    0  0.00000000000E+00  0.00000000000E+00  0.17854689324E+04  0.28267339347E+04  0.21914665020E+04 0.  0.
        1    1    3    3  502    0  0.13132962888E+03 -0.50022362729E+03  0.21387636143E+04  0.22004047234E+04  0.50400001928E-02 0.  1.
       -1    1    3    3    0  502 -0.13132962888E+03  0.50022362729E+03 -0.35329468191E+03  0.62632921137E+03  0.50400001928E-02 0. -1.
</event>
<event>
 5   0  0.1788413E-05  0.2191746E+04  0.7818609E-02  0.8521872E-01
       -1   -1    0    0    0  501  0.00000000000E+00  0.00000000000E+00  0.10273510618E+04  0.10273510618E+04  0.50400001928E-02 0. -1.
        1   -1    0    0  501    0  0.00000000000E+00  0.00000000000E+00 -0.11689650259E+04  0.11689650259E+04  0.50400001928E-02 0.  1.
    10030    2    1    2    0    0  0.00000000000E+00  0.00000000000E+00 -0.14161396406E+03  0.21963160878E+04  0.21917458435E+04 0.  0.
        1    1    3    3  502    0 -0.88041703072E+03 -0.23277806110E+03 -0.68168266699E+03  0.11375460572E+04  0.50400001928E-02 0. -1.
       -1    1    3    3    0  502  0.88041703072E+03  0.23277806110E+03  0.54006870294E+03  0.10587700306E+04  0.50400001928E-02 0.  1.
</event>
<event>
 5   0  0.4029532E-05  0.2197213E+04  0.7818609E-02  0.8519589E-01
        2   -1    0    0  501    0  0.00000000000E+00  0.00000000000E+00  0.12728235286E+04  0.12728235286E+04  0.25500000920E-02 0.  1.
       -2   -1    0    0    0  501  0.00000000000E+00  0.00000000000E+00 -0.94823536378E+03  0.94823536378E+03  0.25500000920E-02 0. -1.
    10030    2    1    2    0    0  0.00000000000E+00  0.00000000000E+00  0.32458816477E+03  0.22210588923E+04  0.21972130362E+04 0.  0.
        3    1    3    3  502    0  0.11704670583E+03 -0.99163357796E+03 -0.30082564992E+03  0.10428485826E+04  0.10100000352E+00 0. -1.
       -3    1    3    3    0  502 -0.11704670583E+03  0.99163357796E+03  0.62541381469E+03  0.11782103098E+04  0.10100000352E+00 0.  1.
</event>
<event>
 5   0  0.4027923E-05  0.2187738E+04  0.7818609E-02  0.8523549E-01
        2   -1    0    0  501    0  0.00000000000E+00  0.00000000000E+00  0.78160325311E+03  0.78160325311E+03  0.25500000920E-02 0.  1.
       -2   -1    0    0    0  501  0.00000000000E+00  0.00000000000E+00 -0.15308910566E+04  0.15308910566E+04  0.25500000920E-02 0. -1.
    10030    2    1    2    0    0  0.00000000000E+00  0.00000000000E+00 -0.74928780346E+03  0.23124943097E+04  0.21877380373E+04 0.  0.
        5    1    3    3  502    0  0.48293639958E+03  0.88890256320E+03  0.65200551917E+02  0.10137300108E+04  0.46999998093E+01 0.  1.
       -5    1    3    3    0  502 -0.48293639958E+03 -0.88890256320E+03 -0.81448835537E+03  0.12987642988E+04  0.46999998093E+01 0. -1.
</event>
<event>
 5   0  0.4143281E-05  0.2186473E+04  0.7818609E-02  0.8524079E-01
       -2   -1    0    0    0  501  0.00000000000E+00  0.00000000000E+00  0.77549336749E+03  0.77549336749E+03  0.25500000920E-02 0. -1.
        2   -1    0    0  501    0  0.00000000000E+00  0.00000000000E+00 -0.15411692232E+04  0.15411692232E+04  0.25500000920E-02 0.  1.
    10030    2    1    2    0    0  0.00000000000E+00  0.00000000000E+00 -0.76567585570E+03  0.23166625907E+04  0.21864734261E+04 0.  0.
        2    1    3    3  502    0 -0.74444115226E+03  0.68745912757E+03  0.51928376043E+02  0.10146374907E+04  0.25500000920E-02 0. -1.
       -2    1    3    3    0  502  0.74444115226E+03 -0.68745912757E+03 -0.81760423174E+03  0.13020251000E+04  0.25500000920E-02 0.  1.
</event>
<event>
 5   0  0.4143281E-05  0.2192604E+04  0.7818609E-02  0.8521513E-01
       -2   -1    0    0    0  501  0.00000000000E+00  0.00000000000E+00  0.11979371387E+04  0.11979371387E+04  0.25500000920E-02 0.  1.
        2   -1    0    0  501    0  0.00000000000E+00  0.00000000000E+00 -0.10032899291E+04  0.10032899291E+04  0.25500000920E-02 0. -1.
    10030    2    1    2    0    0  0.00000000000E+00  0.00000000000E+00  0.19464720958E+03  0.22012270679E+04  0.21926041750E+04 0.  0.
        2    1    3    3  502    0  0.97388199016E+03 -0.45580954246E+03 -0.11722176675E+03  0.10816419982E+04  0.25500000920E-02 0.  1.
       -2    1    3    3    0  502 -0.97388199016E+03  0.45580954246E+03  0.31186897633E+03  0.11195850696E+04  0.25500000920E-02 0. -1.
</event>
<event>
 5   0  0.4029532E-05  0.2229878E+04  0.7818609E-02  0.8506094E-01
       -2   -1    0    0    0  501  0.00000000000E+00  0.00000000000E+00  0.10091309635E+04  0.10091309635E+04  0.25500000920E-02 0. -1.
        2   -1    0    0  501    0  0.00000000000E+00  0.00000000000E+00 -0.12318407977E+04  0.12318407977E+04  0.25500000920E-02 0.  1.
    10030    2    1    2    0    0  0.00000000000E+00  0.00000000000E+00 -0.22270983421E+03  0.22409717612E+04  0.22298777465E+04 0.  0.
        3    1    3    3  502    0  0.83656869764E+03 -0.72431713888E+03 -0.24843801450E+03  0.11341093249E+04  0.10100000352E+00 0. -1.
       -3    1    3    3    0  502 -0.83656869764E+03  0.72431713888E+03  0.25728180297E+02  0.11068624363E+04  0.10100000352E+00 0.  1.
</event>
<event>
 5   0  0.1815681E-05  0.2185127E+04  0.7818609E-02  0.8524644E-01
        1   -1    0    0  501    0  0.00000000000E+00  0.00000000000E+00  0.12297750662E+04  0.12297750662E+04  0.50400001928E-02 0.  1.
       -1   -1    0    0    0  501  0.00000000000E+00  0.00000000000E+00 -0.97066085245E+03  0.97066085246E+03  0.50400001928E-02 0. -1.
    10030    2    1    2    0    0  0.00000000000E+00  0.00000000000E+00  0.25911421375E+03  0.22004359187E+04  0.21851265539E+04 0.  0.
        2    1    3    3  502    0 -0.26423924050E+03 -0.63284205552E+03  0.98603528305E+03  0.12010732796E+04  0.25500000920E-02 0.  1.
       -2    1    3    3    0  502  0.26423924050E+03  0.63284205552E+03 -0.72692106930E+03  0.99936263911E+03  0.25500000920E-02 0. -1.
</event>
<event>
 5   0  0.3963414E-05  0.2231634E+04  0.7818609E-02  0.8505375E-01
        2   -1    0    0  501    0  0.00000000000E+00  0.00000000000E+00  0.21605839954E+04  0.21605839954E+04  0.25500000920E-02 0.  1.
       -2   -1    0    0    0  501  0.00000000000E+00  0.00000000000E+00 -0.57625534688E+03  0.57625534689E+03  0.25500000920E-02 0. -1.
    10030    2    1    2    0    0  0.00000000000E+00  0.00000000000E+00  0.15843286485E+04  0.27368393423E+04  0.22316344501E+04 0.  0.
        1    1    3    3  502    0 -0.33849846380E+03 -0.58135957189E+03  0.18839127442E+04  0.20004218029E+04  0.50400001928E-02 0.  1.
       -1    1    3    3    0  502  0.33849846380E+03  0.58135957189E+03 -0.29958409571E+03  0.73641753934E+03  0.50400001928E-02 0. -1.
</event>
<event>
 5   0  0.1884407E-05  0.2191974E+04  0.7818609E-02  0.8521776E-01
        1   -1    0    0  501    0  0.00000000000E+00  0.00000000000E+00  0.18750291947E+04  0.18750291947E+04  0.50400001928E-02 0.  1.
       -1   -1    0    0    0  501  0.00000000000E+00  0.00000000000E+00 -0.64062332311E+03  0.64062332313E+03  0.50400001928E-02 0. -1.
    10030    2    1    2    0    0  0.00000000000E+00  0.00000000000E+00  0.12344058716E+04  0.25156525179E+04  0.21919739357E+04 0.  0.
        3    1    3    3  502    0 -0.41878112138E+03  0.24998179650E+03 -0.50921694473E+03  0.70510313658E+03  0.10100000352E+00 0. -1.
       -3    1    3    3    0  502  0.41878112138E+03 -0.24998179650E+03  0.17436228163E+04  0.18105493813E+04  0.10100000352E+00 0.  1.
</event>
<event>
 5   0  0.1884407E-05  0.2206387E+04  0.7818609E-02  0.8515774E-01
       -1   -1    0    0    0  501  0.00000000000E+00  0.00000000000E+00  0.50262118522E+03  0.50262118525E+03  0.50400001928E-02 0.  1.
        1   -1    0    0  501    0  0.00000000000E+00  0.00000000000E+00 -0.24213783219E+04  0.24213783219E+04  0.50400001928E-02 0. -1.
    10030    2    1    2    0    0  0.00000000000E+00  0.00000000000E+00 -0.19187571366E+04  0.29239995071E+04  0.22063871302E+04 0.  0.
        3    1    3    3  502    0 -0.19874588685E+03 -0.59587601115E+02 -0.23952876144E+04  0.24042573439E+04  0.10100000352E+00 0. -1.
       -3    1    3    3    0  502  0.19874588685E+03  0.59587601115E+02  0.47653047779E+03  0.51974216320E+03  0.10100000352E+00 0.  1.
</event>
<event>
 5   0  0.1866935E-05  0.2168036E+04  0.7818609E-02  0.8531851E-01
       -1   -1    0    0    0  501  0.00000000000E+00  0.00000000000E+00  0.57580771049E+03  0.57580771051E+03  0.50400001928E-02 0.  1.
        1   -1    0    0  501    0  0.00000000000E+00  0.00000000000E+00 -0.20407771449E+04  0.20407771449E+04  0.50400001928E-02 0. -1.
    10030    2    1    2    0    0  0.00000000000E+00  0.00000000000E+00 -0.14649694344E+04  0.26165848554E+04  0.21680361763E+04 0.  0.
        4    1    3    3  502    0  0.49876579183E+03  0.16814068872E+03 -0.18762048484E+04  0.19486366651E+04  0.12699999809E+01 0. -1.
       -4    1    3    3    0  502 -0.49876579183E+03 -0.16814068872E+03  0.41123541403E+03  0.66794819033E+03  0.12699999809E+01 0.  1.
</event>
<event>
 5   0  0.4132460E-05  0.2216925E+04  0.7818609E-02  0.8511417E-01
        2   -1    0    0  501    0  0.00000000000E+00  0.00000000000E+00  0.22726413891E+04  0.22726413891E+04  0.25500000920E-02 0.  1.
       -2   -1    0    0    0  501  0.00000000000E+00  0.00000000000E+00 -0.54064340098E+03  0.54064340098E+03  0.25500000920E-02 0. -1.
    10030    2    1    2    0    0  0.00000000000E+00  0.00000000000E+00  0.17319979881E+04  0.28132847901E+04  0.22169245091E+04 0.  0.
        4    1    3    3  502    0 -0.69150779293E+02 -0.18514146735E+03  0.22501017682E+04  0.22587648778E+04  0.12699999809E+01 0.  1.
       -4    1    3    3    0  502  0.69150779293E+02  0.18514146735E+03 -0.51810378009E+03  0.55451991223E+03  0.12699999809E+01 0. -1.
</event>
<event>
 5   0  0.1884407E-05  0.2196670E+04  0.7818609E-02  0.8519815E-01
        1   -1    0    0  501    0  0.00000000000E+00  0.00000000000E+00  0.10724075084E+04  0.10724075085E+04  0.50400001928E-02 0. -1.
       -1   -1    0    0    0  501  0.00000000000E+00  0.00000000000E+00 -0.11248898303E+04  0.11248898303E+04  0.50400001928E-02 0.  1.
    10030    2    1    2    0    0  0.00000000000E+00  0.00000000000E+00 -0.52482321891E+02  0.21972973388E+04  0.21966704807E+04 0.  0.
        3    1    3    3  502    0  0.60196512132E+03 -0.52785767994E+03  0.72586738195E+03  0.10806845997E+04  0.10100000352E+00 0. -1.
       -3    1    3    3    0  502 -0.60196512132E+03  0.52785767994E+03 -0.77834970384E+03  0.11166127391E+04  0.10100000352E+00 0.  1.
</event>
<event>
 5   0  0.4027923E-05  0.2169146E+04  0.7818609E-02  0.8531381E-01
        2   -1    0    0  501    0  0.00000000000E+00  0.00000000000E+00  0.10918276205E+04  0.10918276205E+04  0.25500000920E-02 0. -1.
       -2   -1    0    0    0  501  0.00000000000E+00  0.00000000000E+00 -0.10773668853E+04  0.10773668853E+04  0.25500000920E-02 0.  1.
    10030    2    1    2    0    0  0.00000000000E+00  0.00000000000E+00  0.14460735136E+02  0.21691945058E+04  0.21691463047E+04 0.  0.
        5    1    3    3  502    0 -0.69097700197E+03  0.37781969922E+03  0.75295458218E+03  0.10895685546E+04  0.46999998093E+01 0. -1.
       -5    1    3    3    0  502  0.69097700197E+03 -0.37781969922E+03 -0.73849384705E+03  0.10796259512E+04  0.46999998093E+01 0.  1.
</event>
<event>
 5   0  0.1884407E-05  0.2181211E+04  0.7818609E-02  0.8526290E-01
        1   -1    0    0  501    0  0.00000000000E+00  0.00000000000E+00  0.87162773461E+03  0.87162773463E+03  0.50400001928E-02 0.  1.
       -1   -1    0    0    0  501  0.00000000000E+00  0.00000000000E+00 -0.13645962688E+04  0.13645962688E+04  0.50400001928E-02 0. -1.
    10030    2    1    2    0    0  0.00000000000E+00  0.00000000000E+00 -0.49296853417E+03  0.22362240034E+04  0.21812106312E+04 0.  0.
        3    1    3    3  502    0 -0.73911215502E+03 -0.92833077331E+02 -0.10631394252E+04  0.12981410577E+04  0.10100000352E+00 0. -1.
       -3    1    3    3    0  502  0.73911215502E+03  0.92833077331E+02  0.57017089103E+03  0.93808294576E+03  0.10100000352E+00 0.  1.
</event>
<event>
 5   0  0.3963414E-05  0.2194434E+04  0.7818609E-02  0.8520749E-01
       -2   -1    0    0    0  501  0.00000000000E+00  0.00000000000E+00  0.67034362470E+03  0.67034362471E+03  0.25500000920E-02 0.  1.
        2   -1    0    0  501    0  0.00000000000E+00  0.00000000000E+00 -0.17959217093E+04  0.17959217093E+04  0.25500000920E-02 0. -1.
    10030    2    1    2    0    0  0.00000000000E+00  0.00000000000E+00 -0.11255780846E+04  0.24662653340E+04  0.21944335655E+04 0.  0.
        1    1    3    3  502    0  0.68534852006E+03  0.76867717899E+03 -0.13732101889E+03  0.10389534454E+04  0.50400001928E-02 0.  1.
       -1    1    3    3    0  502 -0.68534852006E+03 -0.76867717899E+03 -0.98825706574E+03  0.14273118886E+04  0.50400001928E-02 0. -1.
</event>
<event>
 5   0  0.1884407E-05  0.2195391E+04  0.7818609E-02  0.8520349E-01
        1   -1    0    0  501    0  0.00000000000E+00  0.00000000000E+00  0.21394887084E+04  0.21394887084E+04  0.50400001928E-02 0. -1.
       -1   -1    0    0    0  501  0.00000000000E+00  0.00000000000E+00 -0.56318866820E+03  0.56318866823E+03  0.50400001928E-02 0.  1.
    10030    2    1    2    0    0  0.00000000000E+00  0.00000000000E+00  0.15763000402E+04  0.27026773767E+04  0.21953913513E+04 0.  0.
        3    1    3    3  502    0  0.11463127532E+03  0.22050299250E+03  0.21044000835E+04  0.21190237423E+04  0.10100000352E+00 0. -1.
       -3    1    3    3    0  502 -0.11463127532E+03 -0.22050299250E+03 -0.52810004326E+03  0.58365363433E+03  0.10100000352E+00 0.  1.
</event>
<event>
 5   0  0.4027923E-05  0.2208623E+04  0.7818609E-02  0.8514847E-01
       -2   -1    0    0    0  501  0.00000000000E+00  0.00000000000E+00  0.78327885063E+03  0.78327885063E+03  0.25500000920E-02 0. -1.
        2   -1    0    0  501    0  0.00000000000E+00  0.00000000000E+00 -0.15569223326E+04  0.15569223326E+04  0.25500000920E-02 0.  1.
    10030    2    1    2    0    0  0.00000000000E+00  0.00000000000E+00 -0.77364348199E+03  0.23402011832E+04  0.22086234040E+04 0.  0.
        5    1    3    3  502    0 -0.77773394011E+03 -0.70425929607E+03 -0.75176944361E+03  0.12907480870E+04  0.46999998093E+01 0.  1.
       -5    1    3    3    0  502  0.77773394011E+03  0.70425929607E+03 -0.21874038372E+02  0.10494530963E+04  0.46999998093E+01 0. -1.
</event>
<event>
 5   0  0.4029532E-05  0.2159120E+04  0.7818609E-02  0.8535638E-01
       -2   -1    0    0    0  501  0.00000000000E+00  0.00000000000E+00  0.57135728716E+03  0.57135728717E+03  0.25500000920E-02 0. -1.
        2   -1    0    0  501    0  0.00000000000E+00  0.00000000000E+00 -0.20397918838E+04  0.20397918838E+04  0.25500000920E-02 0.  1.
    10030    2    1    2    0    0  0.00000000000E+00  0.00000000000E+00 -0.14684345966E+04  0.26111491709E+04  0.21591201514E+04 0.  0.
        3    1    3    3  502    0  0.23831806374E+03  0.10208214890E+04 -0.10462643132E+04  0.14810607804E+04  0.10100000352E+00 0. -1.
       -3    1    3    3    0  502 -0.23831806374E+03 -0.10208214890E+04 -0.42217028337E+03  0.11300883905E+04  0.10100000352E+00 0.  1.
</event>
<event>
 5   0  0.4029532E-05  0.2217713E+04  0.7818609E-02  0.8511091E-01
       -2   -1    0    0    0  501  0.00000000000E+00  0.00000000000E+00  0.88768154781E+03  0.88768154782E+03  0.25500000920E-02 0. -1.
        2   -1    0    0  501    0  0.00000000000E+00  0.00000000000E+00 -0.13851400357E+04  0.13851400357E+04  0.25500000920E-02 0.  1.
    10030    2    1    2    0    0  0.00000000000E+00  0.00000000000E+00 -0.49745848785E+03  0.22728215835E+04  0.22177134628E+04 0.  0.
        3    1    3    3  502    0 -0.52919057290E+03 -0.98435447204E+02  0.74480949313E+03  0.91895233335E+03  0.10100000352E+00 0. -1.
       -3    1    3    3    0  502  0.52919057290E+03  0.98435447204E+02 -0.12422679810E+04  0.13538692501E+04  0.10100000352E+00 0.  1.
</event>
<event>
 5   0  0.1788413E-05  0.2181448E+04  0.7818609E-02  0.8526190E-01
       -1   -1    0    0    0  501  0.00000000000E+00  0.00000000000E+00  0.93567498374E+03  0.93567498376E+03  0.50400001928E-02 0.  1.
        1   -1    0    0  501    0  0.00000000000E+00  0.00000000000E+00 -0.12714657116E+04  0.12714657116E+04  0.50400001928E-02 0. -1.
    10030    2    1    2    0    0  0.00000000000E+00  0.00000000000E+00 -0.33579072786E+03  0.22071406954E+04  0.21814478303E+04 0.  0.
        1    1    3    3  502    0 -0.48796163027E+03 -0.61253105504E+03  0.60024186538E+03  0.98670722253E+03  0.50400001928E-02 0.  1.
       -1    1    3    3    0  502  0.48796163027E+03  0.61253105504E+03 -0.93603259324E+03  0.12204334728E+04  0.50400001928E-02 0. -1.
</event>
<event>
 5   0  0.1866935E-05  0.2196870E+04  0.7818609E-02  0.8519732E-01
       -1   -1    0    0    0  501  0.00000000000E+00  0.00000000000E+00  0.11644197120E+04  0.11644197120E+04  0.50400001928E-02 0.  1.
        1   -1    0    0  501    0  0.00000000000E+00  0.00000000000E+00 -0.10361897748E+04  0.10361897748E+04  0.50400001928E-02 0. -1.
    10030    2    1    2    0    0  0.00000000000E+00  0.00000000000E+00  0.12822993715E+03  0.22006094868E+04  0.21968703186E+04 0.  0.
        4    1    3    3  502    0 -0.67543123726E+03 -0.80555228892E+03 -0.25491783805E+03  0.10817146405E+04  0.12699999809E+01 0. -1.
       -4    1    3    3    0  502  0.67543123726E+03  0.80555228892E+03  0.38314777520E+03  0.11188948463E+04  0.12699999809E+01 0.  1.
</event>
<event>
 5   0  0.1788413E-05  0.2202154E+04  0.7818609E-02  0.8517532E-01
        1   -1    0    0  501    0  0.00000000000E+00  0.00000000000E+00  0.16025692289E+04  0.16025692289E+04  0.50400001928E-02 0.  1.
       -1   -1    0    0    0  501  0.00000000000E+00  0.00000000000E+00 -0.75651687923E+03  0.75651687925E+03  0.50400001928E-02 0. -1.
    10030    2    1    2    0    0  0.00000000000E+00  0.00000000000E+00  0.84605234963E+03  0.23590861081E+04  0.22021541016E+04 0.  0.
        1    1    3    3  502    0  0.41120720308E+03 -0.15771277634E+03  0.15041030028E+04  0.15672557312E+04  0.50400001928E-02 0.  1.
       -1    1    3    3    0  502 -0.41120720308E+03  0.15771277634E+03 -0.65805065320E+03  0.79183037697E+03  0.50400001928E-02 0. -1.
</event>
<event>
 5   0  0.1786228E-05  0.2200008E+04  0.7818609E-02  0.8518425E-01
       -1   -1    0    0    0  501  0.00000000000E+00  0.00000000000E+00  0.16140699968E+04  0.16140699968E+04  0.50400001928E-02 0.  1.
        1   -1    0    0  501    0  0.00000000000E+00  0.00000000000E+00 -0.74966312570E+03  0.74966312572E+03  0.50400001928E-02 0. -1.
    10030    2    1    2    0    0  0.00000000000E+00  0.00000000000E+00  0.86440687110E+03  0.23637331225E+04  0.22000079627E+04 0.  0.
        5    1    3    3  502    0 -0.86796885290E+02  0.85675343658E+03 -0.30314796668E+03  0.91295176767E+03  0.46999998093E+01 0. -1.
       -5    1    3    3    0  502  0.86796885290E+02 -0.85675343658E+03  0.11675548378E+04  0.14507813549E+04  0.46999998093E+01 0.  1.
</event>
<event>
 5   0  0.1884407E-05  0.2158243E+04  0.7818609E-02  0.8536012E-01
        1   -1    0    0  501    0  0.00000000000E+00  0.00000000000E+00  0.84281464076E+03  0.84281464078E+03  0.50400001928E-02 0.  1.
       -1   -1    0    0    0  501  0.00000000000E+00  0.00000000000E+00 -0.13816841535E+04  0.13816841535E+04  0.50400001928E-02 0. -1.
    10030    2    1    2    0    0  0.00000000000E+00  0.00000000000E+00 -0.53886951270E+03  0.22244987942E+04  0.21582433908E+04 0.  0.
        3    1    3    3  502    0 -0.38218085006E+03 -0.88560458534E+03 -0.76817575489E+03  0.12330659692E+04  0.10100000352E+00 0. -1.
       -3    1    3    3    0  502  0.38218085006E+03  0.88560458534E+03  0.22930624219E+03  0.99143282508E+03  0.10100000352E+00 0.  1.
</event>
<event>
 5   0  0.1866935E-05  0.2152918E+04  0.7818609E-02  0.8538284E-01
        1   -1    0    0  501    0  0.00000000000E+00  0.00000000000E+00  0.17625174369E+04  0.17625174369E+04  0.50400001928E-02 0.  1.
       -1   -1    0    0    0  501  0.00000000000E+00  0.00000000000E+00 -0.65744801941E+03  0.65744801943E+03  0.50400001928E-02 0. -1.
    10030    2    1    2    0    0  0.00000000000E+00  0.00000000000E+00  0.11050694175E+04  0.24199654564E+04  0.21529176465E+04 0.  0.
        4    1    3    3  502    0 -0.18011288075E+03  0.10269846085E+04  0.25171181720E+03  0.10726129254E+04  0.12699999809E+01 0. -1.
       -4    1    3    3    0  502  0.18011288075E+03 -0.10269846085E+04  0.85335760030E+03  0.13473525310E+04  0.12699999809E+01 0.  1.
</event>
<event>
 5   0  0.1815681E-05  0.2184289E+04  0.7818609E-02  0.8524996E-01
        1   -1    0    0  501    0  0.00000000000E+00  0.00000000000E+00  0.88450843915E+03  0.88450843916E+03  0.50400001928E-02 0.  1.
       -1   -1    0    0    0  501  0.00000000000E+00  0.00000000000E+00 -0.13485223515E+04  0.13485223515E+04  0.50400001928E-02 0. -1.
    10030    2    1    2    0    0  0.00000000000E+00  0.00000000000E+00 -0.46401391232E+03  0.22330307906E+04  0.21842888090E+04 0.  0.
        2    1    3    3  502    0  0.51562972952E+03 -0.91440277527E+03 -0.54001557418E+03  0.11805182225E+04  0.25500000920E-02 0. -1.
       -2    1    3    3    0  502 -0.51562972952E+03  0.91440277527E+03  0.76001661860E+02  0.10525125681E+04  0.25500000920E-02 0.  1.
</event>
<event>
 5   0  0.4143281E-05  0.2164532E+04  0.7818609E-02  0.8533337E-01
        2   -1    0    0  501    0  0.00000000000E+00  0.00000000000E+00  0.77876879859E+03  0.77876879859E+03  0.25500000920E-02 0.  1.
       -2   -1    0    0    0  501  0.00000000000E+00  0.00000000000E+00 -0.15040410189E+04  0.15040410189E+04  0.25500000920E-02 0. -1.
    10030    2    1    2    0    0  0.00000000000E+00  0.00000000000E+00 -0.72527222031E+03  0.22828098175E+04  0.21645324828E+04 0.  0.
        2    1    3    3  502    0  0.63679670046E+02 -0.23930989453E+03  0.74848755386E+03  0.78838946231E+03  0.25500000920E-02 0.  1.
       -2    1    3    3    0  502 -0.63679670046E+02  0.23930989453E+03 -0.14737597742E+04  0.14944203552E+04  0.25500000920E-02 0. -1.
</event>
<event>
 5   0  0.1786228E-05  0.2189188E+04  0.7818609E-02  0.8522942E-01
       -1   -1    0    0    0  501  0.00000000000E+00  0.00000000000E+00  0.46117569577E+03  0.46117569580E+03  0.50400001928E-02 0. -1.
        1   -1    0    0  501    0  0.00000000000E+00  0.00000000000E+00 -0.25980030842E+04  0.25980030842E+04  0.50400001928E-02 0.  1.
    10030    2    1    2    0    0  0.00000000000E+00  0.00000000000E+00 -0.21368273885E+04  0.30591787800E+04  0.21891878677E+04 0.  0.
        5    1    3    3  502    0 -0.99312794444E+03  0.43199836818E+03 -0.84663521126E+03  0.13746777714E+04  0.46999998093E+01 0.  1.
       -5    1    3    3    0  502  0.99312794444E+03 -0.43199836818E+03 -0.12901921772E+04  0.16845010087E+04  0.46999998093E+01 0. -1.
</event>
<event>
 5   0  0.1884407E-05  0.2169786E+04  0.7818609E-02  0.8531110E-01
       -1   -1    0    0    0  501  0.00000000000E+00  0.00000000000E+00  0.91219535844E+03  0.91219535845E+03  0.50400001928E-02 0. -1.
        1   -1    0    0  501    0  0.00000000000E+00  0.00000000000E+00 -0.12902854206E+04  0.12902854206E+04  0.50400001928E-02 0.  1.
    10030    2    1    2    0    0  0.00000000000E+00  0.00000000000E+00 -0.37809006215E+03  0.22024807791E+04  0.21697855855E+04 0.  0.
        3    1    3    3  502    0  0.76212260038E+03 -0.36822013569E+03  0.49983832639E+03  0.98298285288E+03  0.10100000352E+00 0. -1.
       -3    1    3    3    0  502 -0.76212260038E+03  0.36822013569E+03 -0.87792838854E+03  0.12194979262E+04  0.10100000352E+00 0.  1.
</event>
<event>
 5   0  0.4143281E-05  0.2201436E+04  0.7818609E-02  0.8517831E-01
        2   -1    0    0  501    0  0.00000000000E+00  0.00000000000E+00  0.12451629661E+04  0.12451629661E+04  0.25500000920E-02 0. -1.
       -2   -1    0    0    0  501  0.00000000000E+00  0.00000000000E+00 -0.97302915379E+03  0.97302915379E+03  0.25500000920E-02 0.  1.
    10030    2    1    2    0    0  0.00000000000E+00  0.00000000000E+00  0.27213381227E+03  0.22181921199E+04  0.22014357744E+04 0.  0.
        2    1    3    3  502    0 -0.47635686389E+03  0.50262248018E+03  0.99816951030E+03  0.12148611405E+04  0.25500000920E-02 0. -1.
       -2    1    3    3    0  502  0.47635686389E+03 -0.50262248018E+03 -0.72603569803E+03  0.10033309794E+04  0.25500000920E-02 0.  1.
</event>
<event>
 5   0  0.1815681E-05  0.2238727E+04  0.7818609E-02  0.8502480E-01
        1   -1    0    0  501    0  0.00000000000E+00  0.00000000000E+00  0.15811790094E+04  0.15811790094E+04  0.50400001928E-02 0.  1.
       -1   -1    0    0    0  501  0.00000000000E+00  0.00000000000E+00 -0.79243054965E+03  0.79243054966E+03  0.50400001928E-02 0. -1.
    10030    2    1    2    0    0  0.00000000000E+00  0.00000000000E+00  0.78874845979E+03  0.23736095591E+04  0.22387269164E+04 0.  0.
        2    1    3    3  502    0 -0.52872483217E+03 -0.14204098198E+03 -0.64079494742E+03  0.84281893273E+03  0.25500000920E-02 0. -1.
       -2    1    3    3    0  502  0.52872483217E+03  0.14204098198E+03  0.14295434072E+04  0.15307906264E+04  0.25500000920E-02 0.  1.
</event>
<event>
 5   0  0.1786228E-05  0.2214209E+04  0.7818609E-02  0.8512537E-01
        1   -1    0    0  501    0  0.00000000000E+00  0.00000000000E+00  0.97966318954E+03  0.97966318955E+03  0.50400001928E-02 0.  1.
       -1   -1    0    0    0  501  0.00000000000E+00  0.00000000000E+00 -0.12511241090E+04  0.12511241091E+04  0.50400001928E-02 0. -1.
    10030    2    1    2    0    0  0.00000000000E+00  0.00000000000E+00 -0.27146091950E+03  0.22307872986E+04  0.22142088747E+04 0.  0.
        5    1    3    3  502    0 -0.53499056059E+03  0.54437463501E+03  0.67220870800E+03  0.10170768311E+04  0.46999998093E+01 0.  1.
       -5    1    3    3    0  502  0.53499056059E+03 -0.54437463501E+03 -0.94366962750E+03  0.12137104675E+04  0.46999998093E+01 0. -1.
</event>
<event>
 5   0  0.3963414E-05  0.2176329E+04  0.7818609E-02  0.8528345E-01
       -2   -1    0    0    0  501  0.00000000000E+00  0.00000000000E+00  0.10503146000E+04  0.10503146000E+04  0.25500000920E-02 0.  1.
        2   -1    0    0  501    0  0.00000000000E+00  0.00000000000E+00 -0.11273788413E+04  0.11273788413E+04  0.25500000920E-02 0. -1.
    10030    2    1    2    0    0  0.00000000000E+00  0.00000000000E+00 -0.77064241242E+02  0.21776934413E+04  0.21763294390E+04 0.  0.
        1    1    3    3  502    0  0.31760470685E+03 -0.95859576105E+03 -0.44415499531E+03  0.11032009077E+04  0.50400001928E-02 0. -1.
       -1    1    3    3    0  502 -0.31760470685E+03  0.95859576105E+03  0.36709075407E+03  0.10744925336E+04  0.50400001928E-02 0.  1.
</event>
<event>
 5   0  0.4143281E-05  0.2204039E+04  0.7818609E-02  0.8516749E-01
       -2   -1    0    0    0  501  0.00000000000E+00  0.00000000000E+00  0.13441964915E+04  0.13441964915E+04  0.25500000920E-02 0.  1.
        2   -1    0    0  501    0  0.00000000000E+00  0.00000000000E+00 -0.90347404543E+03  0.90347404544E+03  0.25500000920E-02 0. -1.
    10030    2    1    2    0    0  0.00000000000E+00  0.00000000000E+00  0.44072244610E+03  0.22476705370E+04  0.22040386948E+04 0.  0.
        2    1    3    3  502    0 -0.86324548797E+03  0.59955288146E+03 -0.11754426826E+03  0.10575788789E+04  0.25500000920E-02 0.  1.
       -2    1    3    3    0  502  0.86324548797E+03 -0.59955288146E+03  0.55826671436E+03  0.11900916580E+04  0.25500000920E-02 0. -1.
</event>
<event>
 5   0  0.4132460E-05  0.2210133E+04  0.7818609E-02  0.8514222E-01
        2   -1    0    0  501    0  0.00000000000E+00  0.00000000000E+00  0.12721600537E+04  0.12721600537E+04  0.25500000920E-02 0.  1.
       -2   -1    0    0    0  501  0.00000000000E+00  0.00000000000E+00 -0.95991998446E+03  0.95991998446E+03  0.25500000920E-02 0. -1.
    10030    2    1    2    0    0  0.00000000000E+00  0.00000000000E+00  0.31224006928E+03  0.22320800382E+04  0.22101329001E+04 0.  0.
        4    1    3    3  502    0 -0.27463309090E+03  0.84285112456E+03  0.82248184037E+03  0.12092556981E+04  0.12699999809E+01 0.  1.
       -4    1    3    3    0  502  0.27463309090E+03 -0.84285112456E+03 -0.51024177110E+03  0.10228243401E+04  0.12699999809E+01 0. -1.
</event>
<event>
 5   0  0.4027923E-05  0.2248773E+04  0.7818609E-02  0.8498398E-01
       -2   -1    0    0    0  501  0.00000000000E+00  0.00000000000E+00  0.11187042572E+04  0.11187042572E+04  0.25500000920E-02 0. -1.
        2   -1    0    0  501    0  0.00000000000E+00  0.00000000000E+00 -0.11300971855E+04  0.11300971855E+04  0.25500000920E-02 0.  1.
    10030    2    1    2    0    0  0.00000000000E+00  0.00000000000E+00 -0.11392928336E+02  0.22488014427E+04  0.22487725830E+04 0.  0.
        5    1    3    3  502    0 -0.61283707043E+03  0.79927958573E+03  0.49411522364E+03  0.11218685642E+04  0.46999998093E+01 0. -1.
       -5    1    3    3    0  502  0.61283707043E+03 -0.79927958573E+03 -0.50550815197E+03  0.11269328786E+04  0.46999998093E+01 0.  1.
</event>
<event>
 5   0  0.4132460E-05  0.2110128E+04  0.7818609E-02  0.8556795E-01
       -2   -1    0    0    0  501  0.00000000000E+00  0.00000000000E+00  0.21142638028E+04  0.21142638028E+04  0.25500000920E-02 0. -1.
        2   -1    0    0  501    0  0.00000000000E+00  0.00000000000E+00 -0.52650006430E+03  0.52650006430E+03  0.25500000920E-02 0.  1.
    10030    2    1    2    0    0  0.00000000000E+00  0.00000000000E+00  0.15877637385E+04  0.26407638671E+04  0.21101279849E+04 0.  0.
        4    1    3    3  502    0  0.95890439568E+03 -0.30472245041E+03  0.39654230052E+03  0.10814808463E+04  0.12699999809E+01 0.  1.
       -4    1    3    3    0  502 -0.95890439568E+03  0.30472245041E+03  0.11912214380E+04  0.15592830208E+04  0.12699999809E+01 0. -1.
</event>
<event>
 5   0  0.3963414E-05  0.2255341E+04  0.7818609E-02  0.8495741E-01
        2   -1    0    0  501    0  0.00000000000E+00  0.00000000000E+00  0.19209420539E+04  0.19209420539E+04  0.25500000920E-02 0.  1.
       -2   -1    0    0    0  501  0.00000000000E+00  0.00000000000E+00 -0.66198816007E+03  0.66198816007E+03  0.25500000920E-02 0. -1.
    10030    2    1    2    0    0  0.00000000000E+00  0.00000000000E+00  0.12589538938E+04  0.25829302139E+04  0.22553411235E+04 0.  0.
        1    1    3    3  502    0  0.62502498715E+03 -0.81129581145E+03  0.11700348307E+04  0.15549400739E+04  0.50400001928E-02 0.  1.
       -1    1    3    3    0  502 -0.62502498715E+03  0.81129581145E+03  0.88919063078E+02  0.10279901401E+04  0.50400001928E-02 0. -1.
</event>
<event>
 5   0  0.1815681E-05  0.2190796E+04  0.7818609E-02  0.8522269E-01
       -1   -1    0    0    0  501  0.00000000000E+00  0.00000000000E+00  0.11974982870E+04  0.11974982870E+04  0.50400001928E-02 0.  1.
        1   -1    0    0  501    0  0.00000000000E+00  0.00000000000E+00 -0.10020027123E+04  0.10020027123E+04  0.50400001928E-02 0. -1.
    10030    2    1    2    0    0  0.00000000000E+00  0.00000000000E+00  0.19549557470E+03  0.21995009994E+04  0.21907957747E+04 0.  0.
        2    1    3    3  502    0  0.82427613768E+03  0.54760110767E+03 -0.37379755044E+03  0.10578387084E+04  0.25500000920E-02 0. -1.
       -2    1    3    3    0  502 -0.82427613768E+03 -0.54760110767E+03  0.56929312513E+03  0.11416622910E+04  0.25500000920E-02 0.  1.
</event>
<event>
 5   0  0.4143281E-05  0.2199424E+04  0.7818609E-02  0.8518668E-01
       -2   -1    0    0    0  501  0.00000000000E+00  0.00000000000E+00  0.14724134083E+04  0.14724134083E+04  0.25500000920E-02 0.  1.
        2   -1    0    0  501    0  0.00000000000E+00  0.00000000000E+00 -0.82135017068E+03  0.82135017068E+03  0.25500000920E-02 0. -1.
    10030    2    1    2    0    0  0.00000000000E+00  0.00000000000E+00  0.65106323758E+03  0.22937635789E+04  0.21994244740E+04 0.  0.
        2    1    3    3  502    0 -0.51048306025E+03 -0.53300056014E+03  0.11757830260E+04  0.13882176617E+04  0.25500000920E-02 0.  1.
       -2    1    3    3    0  502  0.51048306025E+03  0.53300056014E+03 -0.52471978843E+03  0.90554591727E+03  0.25500000920E-02 0. -1.
</event>
<event>
 5   0  0.4029532E-05  0.2187523E+04  0.7818609E-02  0.8523640E-01
        2   -1    0    0  501    0  0.00000000000E+00  0.00000000000E+00  0.17878937826E+04  0.17878937826E+04  0.25500000920E-02 0. -1.
       -2   -1    0    0    0  501  0.00000000000E+00  0.00000000000E+00 -0.66911899808E+03  0.66911899808E+03  0.25500000920E-02 0.  1.
    10030    2    1    2    0    0  0.00000000000E+00  0.00000000000E+00  0.11187747845E+04  0.24570127807E+04  0.21875225224E+04 0.  0.
        3    1    3    3  502    0  0.80546114954E+03 -0.58209202835E+03  0.10725223503E+04  0.14621569666E+04  0.10100000352E+00 0. -1.
       -3    1    3    3    0  502 -0.80546114954E+03  0.58209202835E+03  0.46252434170E+02  0.99485581405E+03  0.10100000352E+00 0.  1.
</event>
<event>
 5   0  0.4027923E-05  0.2177438E+04  0.7818609E-02  0.8527878E-01
       -2   -1    0    0    0  501  0.00000000000E+00  0.00000000000E+00  0.79550043171E+03  0.79550043171E+03  0.25500000920E-02 0. -1.
        2   -1    0    0  501    0  0.00000000000E+00  0.00000000000E+00 -0.14900166880E+04  0.14900166880E+04  0.25500000920E-02 0.  1.
    10030    2    1    2    0    0  0.00000000000E+00  0.00000000000E+00 -0.69451625630E+03  0.22855171197E+04  0.21774378692E+04 0.  0.
        5    1    3    3  502    0  0.34006425643E+03  0.44104207535E+03  0.63465656044E+03  0.84437719678E+03  0.46999998093E+01 0. -1.
       -5    1    3    3    0  502 -0.34006425643E+03 -0.44104207535E+03 -0.13291728167E+04  0.14411399229E+04  0.46999998093E+01 0.  1.
</event>
<event>
 5   0  0.3963414E-05  0.2184927E+04  0.7818609E-02  0.8524728E-01
        2   -1    0    0  501    0  0.00000000000E+00  0.00000000000E+00  0.12881767122E+04  0.12881767122E+04  0.25500000920E-02 0. -1.
       -2   -1    0    0    0  501  0.00000000000E+00  0.00000000000E+00 -0.92648521155E+03  0.92648521155E+03  0.25500000920E-02 0.  1.
    10030    2    1    2    0    0  0.00000000000E+00  0.00000000000E+00  0.36169150061E+03  0.22146619237E+04  0.21849271601E+04 0.  0.
        1    1    3    3  502    0  0.18923526478E+03  0.59593975635E+03 -0.72718192017E+03  0.95903478752E+03  0.50400001928E-02 0.  1.
       -1    1    3    3    0  502 -0.18923526478E+03 -0.59593975635E+03  0.10888734208E+04  0.12556271362E+04  0.50400001928E-02 0. -1.
</event>
<event>
 5   0  0.1788413E-05  0.2206505E+04  0.7818609E-02  0.8515725E-01
        1   -1    0    0  501    0  0.00000000000E+00  0.00000000000E+00  0.18493907001E+04  0.18493907001E+04  0.50400001928E-02 0. -1.
       -1   -1    0    0    0  501  0.00000000000E+00  0.00000000000E+00 -0.65814437371E+03  0.65814437373E+03  0.50400001928E-02 0.  1.
    10030    2    1    2    0    0  0.00000000000E+00  0.00000000000E+00  0.11912463264E+04  0.25075350738E+04  0.22065050048E+04 0.  0.
        1    1    3    3  502    0 -0.10202844457E+04  0.35662662583E+03  0.34405582878E+03  0.11342562822E+04  0.50400001928E-02 0. -1.
       -1    1    3    3    0  502  0.10202844457E+04 -0.35662662583E+03  0.84719049757E+03  0.13732787916E+04  0.50400001928E-02 0.  1.
</event>
<event>
 5   0  0.4143281E-05  0.2200592E+04  0.7818609E-02  0.8518182E-01
       -2   -1    0    0    0  501  0.00000000000E+00  0.00000000000E+00  0.15863116055E+04  0.15863116055E+04  0.25500000920E-02 0. -1.
        2   -1    0    0  501    0  0.00000000000E+00  0.00000000000E+00 -0.76318627808E+03  0.76318627808E+03  0.25500000920E-02 0.  1.
    10030    2    1    2    0    0  0.00000000000E+00  0.00000000000E+00  0.82312532738E+03  0.23494978835E+04  0.22005919659E+04 0.  0.
        2    1    3    3  502    0  0.49997200672E+03 -0.26147664948E+02  0.14576552958E+04  0.15412380313E+04  0.25500000920E-02 0. -1.
       -2    1    3    3    0  502 -0.49997200672E+03  0.26147664948E+02 -0.63452996840E+03  0.80825985221E+03  0.25500000920E-02 0.  1.
</event>
<event>
 5   0  0.1884407E-05  0.2132461E+04  0.7818609E-02  0.8547077E-01
       -1   -1    0    0    0  501  0.00000000000E+00  0.00000000000E+00  0.47751925363E+03  0.47751925366E+03  0.50400001928E-02 0.  1.
        1   -1    0    0  501    0  0.00000000000E+00  0.00000000000E+00 -0.23807357957E+04  0.23807357957E+04  0.50400001928E-02 0. -1.
    10030    2    1    2    0    0  0.00000000000E+00  0.00000000000E+00 -0.19032165420E+04  0.28582550493E+04  0.21324607197E+04 0.  0.
        3    1    3    3  502    0  0.41116184442E+02 -0.26653946137E+03 -0.23342634480E+04  0.23497914120E+04  0.10100000352E+00 0. -1.
       -3    1    3    3    0  502 -0.41116184442E+02  0.26653946137E+03  0.43104690598E+03  0.50846363730E+03  0.10100000352E+00 0.  1.
</event>
<event>
 5   0  0.4027923E-05  0.2210397E+04  0.7818609E-02  0.8514113E-01
        2   -1    0    0  501    0  0.00000000000E+00  0.00000000000E+00  0.92551032450E+03  0.92551032450E+03  0.25500000920E-02 0.  1.
       -2   -1    0    0    0  501  0.00000000000E+00  0.00000000000E+00 -0.13197733275E+04  0.13197733275E+04  0.25500000920E-02 0. -1.
    10030    2    1    2    0    0  0.00000000000E+00  0.00000000000E+00 -0.39426300298E+03  0.22452836520E+04  0.22103971051E+04 0.  0.
        5    1    3    3  502    0  0.11754833646E+03  0.65731204055E+03  0.69742961672E+03  0.96556040222E+03  0.46999998093E+01 0.  1.
       -5    1    3    3    0  502 -0.11754833646E+03 -0.65731204055E+03 -0.10916926197E+04  0.12797232498E+04  0.46999998093E+01 0. -1.
</event>
<event>
 5   0  0.1866935E-05  0.2199812E+04  0.7818609E-02  0.8518507E-01
       -1   -1    0    0    0  501  0.00000000000E+00  0.00000000000E+00  0.75505863761E+03  0.75505863762E+03  0.50400001928E-02 0. -1.
        1   -1    0    0  501    0  0.00000000000E+00  0.00000000000E+00 -0.16022501937E+04  0.16022501937E+04  0.50400001928E-02 0.  1.
    10030    2    1    2    0    0  0.00000000000E+00  0.00000000000E+00 -0.84719155606E+03  0.23573088313E+04  0.21998116723E+04 0.  0.
        4    1    3    3  502    0  0.13728827011E+03 -0.58571131347E+03  0.56313702398E+03  0.82403321080E+03  0.12699999809E+01 0. -1.
       -4    1    3    3    0  502 -0.13728827011E+03  0.58571131347E+03 -0.14103285800E+04  0.15332756205E+04  0.12699999809E+01 0.  1.
</event>
<event>
 5   0  0.4132460E-05  0.2186734E+04  0.7818609E-02  0.8523970E-01
       -2   -1    0    0    0  501  0.00000000000E+00  0.00000000000E+00  0.10226346685E+04  0.10226346685E+04  0.25500000920E-02 0.  1.
        2   -1    0    0  501    0  0.00000000000E+00  0.00000000000E+00 -0.11689921898E+04  0.11689921898E+04  0.25500000920E-02 0. -1.
    10030    2    1    2    0    0  0.00000000000E+00  0.00000000000E+00 -0.14635752127E+03  0.21916268583E+04  0.21867344973E+04 0.  0.
        4    1    3    3  502    0 -0.64083453244E+03 -0.43272133035E+03  0.70155369897E+03  0.10440765552E+04  0.12699999809E+01 0.  1.
       -4    1    3    3    0  502  0.64083453244E+03  0.43272133035E+03 -0.84791122024E+03  0.11475503030E+04  0.12699999809E+01 0. -1.
</event>
<event>
 5   0  0.1788413E-05  0.2204896E+04  0.7818609E-02  0.8516393E-01
        1   -1    0    0  501    0  0.00000000000E+00  0.00000000000E+00  0.13241001561E+04  0.13241001561E+04  0.50400001928E-02 0. -1.
       -1   -1    0    0    0  501  0.00000000000E+00  0.00000000000E+00 -0.91789986262E+03  0.91789986264E+03  0.50400001928E-02 0.  1.
    10030    2    1    2    0    0  0.00000000000E+00  0.00000000000E+00  0.40620029344E+03  0.22420000187E+04  0.22048957811E+04 0.  0.
        1    1    3    3  502    0  0.13944988426E+03  0.10935751023E+04  0.19678461534E+03  0.11198557762E+04  0.50400001928E-02 0.  1.
       -1    1    3    3    0  502 -0.13944988426E+03 -0.10935751023E+04  0.20941567810E+03  0.11221442425E+04  0.50400001928E-02 0. -1.
</event>
<event>
 5   0  0.3963414E-05  0.2202408E+04  0.7818609E-02  0.8517426E-01
        2   -1    0    0  501    0  0.00000000000E+00  0.00000000000E+00  0.89833588053E+03  0.89833588053E+03  0.25500000920E-02 0.  1.
       -2   -1    0    0    0  501  0.00000000000E+00  0.00000000000E+00 -0.13498857445E+04  0.13498857446E+04  0.25500000920E-02 0. -1.
    10030    2    1    2    0    0  0.00000000000E+00  0.00000000000E+00 -0.45154986402E+03  0.22482216251E+04  0.22024084988E+04 0.  0.
        1    1    3    3  502    0 -0.74847690759E+03  0.33864204146E+03  0.52279667095E+03  0.97376202052E+03  0.50400001928E-02 0.  1.
       -1    1    3    3    0  502  0.74847690759E+03 -0.33864204146E+03 -0.97434653496E+03  0.12744596046E+04  0.50400001928E-02 0. -1.
</event>
<event>
 5   0  0.1866935E-05  0.2198029E+04  0.7818609E-02  0.8519249E-01
       -1   -1    0    0    0  501  0.00000000000E+00  0.00000000000E+00  0.14202939028E+04  0.14202939028E+04  0.50400001928E-02 0.  1.
        1   -1    0    0  501    0  0.00000000000E+00  0.00000000000E+00 -0.85041086461E+03  0.85041086463E+03  0.50400001928E-02 0. -1.
    10030    2    1    2    0    0  0.00000000000E+00  0.00000000000E+00  0.56988303814E+03  0.22707047674E+04  0.21980294501E+04 0.  0.
        4    1    3    3  502    0  0.25494925164E+03  0.79516150297E+03 -0.45321192805E+03  0.95009662737E+03  0.12699999809E+01 0. -1.
       -4    1    3    3    0  502 -0.25494925164E+03 -0.79516150297E+03  0.10230949662E+04  0.13206081400E+04  0.12699999809E+01 0.  1.
</event>
<event>
 5   0  0.4029532E-05  0.2199242E+04  0.7818609E-02  0.8518743E-01
       -2   -1    0    0    0  501  0.00000000000E+00  0.00000000000E+00  0.11282948926E+04  0.11282948926E+04  0.25500000920E-02 0.  1.
        2   -1    0    0  501    0  0.00000000000E+00  0.00000000000E+00 -0.10716762947E+04  0.10716762947E+04  0.25500000920E-02 0. -1.
    10030    2    1    2    0    0  0.00000000000E+00  0.00000000000E+00  0.56618597872E+02  0.21999711873E+04  0.21992424967E+04 0.  0.
        3    1    3    3  502    0  0.10920790246E+04 -0.12027265258E+03 -0.17145526290E+02  0.10988157654E+04  0.10100000352E+00 0. -1.
       -3    1    3    3    0  502 -0.10920790246E+04  0.12027265258E+03  0.73764124162E+02  0.11011554219E+04  0.10100000352E+00 0.  1.
</event>
<event>
 5   0  0.1884407E-05  0.2106232E+04  0.7818609E-02  0.8558503E-01
       -1   -1    0    0    0  501  0.00000000000E+00  0.00000000000E+00  0.11025250587E+04  0.11025250587E+04  0.50400001928E-02 0.  1.
        1   -1    0    0  501    0  0.00000000000E+00  0.00000000000E+00 -0.10059213269E+04  0.10059213269E+04  0.50400001928E-02 0. -1.
    10030    2    1    2    0    0  0.00000000000E+00  0.00000000000E+00  0.96603731766E+02  0.21084463856E+04  0.21062321525E+04 0.  0.
        3    1    3    3  502    0  0.48076456584E+03 -0.87268167245E+03  0.38975514538E+03  0.10698677267E+04  0.10100000352E+00 0.  1.
       -3    1    3    3    0  502 -0.48076456584E+03  0.87268167245E+03 -0.29315141361E+03  0.10385786589E+04  0.10100000352E+00 0. -1.
</event>
<event>
 5   0  0.3963414E-05  0.2220109E+04  0.7818609E-02  0.8510105E-01
       -2   -1    0    0    0  501  0.00000000000E+00  0.00000000000E+00  0.10210573008E+04  0.10210573008E+04  0.25500000920E-02 0.  1.
        2   -1    0    0  501    0  0.00000000000E+00  0.00000000000E+00 -0.12068084443E+04  0.12068084443E+04  0.25500000920E-02 0. -1.
    10030    2    1    2    0    0  0.00000000000E+00  0.00000000000E+00 -0.18575114351E+03  0.22278657451E+04  0.22201086214E+04 0.  0.
        1    1    3    3  502    0 -0.10277318814E+04 -0.21318384504E+03 -0.45544172911E+03  0.11441622876E+04  0.50400001928E-02 0. -1.
       -1    1    3    3    0  502  0.10277318814E+04  0.21318384504E+03  0.26969058561E+03  0.10837034575E+04  0.50400001928E-02 0.  1.
</event>
<event>
 5   0  0.1866935E-05  0.2208364E+04  0.7818609E-02  0.8514955E-01
        1   -1    0    0  501    0  0.00000000000E+00  0.00000000000E+00  0.82010083451E+03  0.82010083453E+03  0.50400001928E-02 0.  1.
       -1   -1    0    0    0  501  0.00000000000E+00  0.00000000000E+00 -0.14866676345E+04  0.14866676345E+04  0.50400001928E-02 0. -1.
    10030    2    1    2    0    0  0.00000000000E+00  0.00000000000E+00 -0.66656680000E+03  0.23067684691E+04  0.22083635278E+04 0.  0.
        4    1    3    3  502    0 -0.58371286868E+03  0.65853667683E+03  0.36338768194E+03  0.95207325773E+03  0.12699999809E+01 0.  1.
       -4    1    3    3    0  502  0.58371286868E+03 -0.65853667683E+03 -0.10299544819E+04  0.13546952113E+04  0.12699999809E+01 0. -1.
</event>
<event>
 5   0  0.4029532E-05  0.2181090E+04  0.7818609E-02  0.8526340E-01
       -2   -1    0    0    0  501  0.00000000000E+00  0.00000000000E+00  0.48144403216E+03  0.48144403216E+03  0.25500000920E-02 0. -1.
        2   -1    0    0  501    0  0.00000000000E+00  0.00000000000E+00 -0.24702519284E+04  0.24702519284E+04  0.25500000920E-02 0.  1.
    10030    2    1    2    0    0  0.00000000000E+00  0.00000000000E+00 -0.19888078963E+04  0.29516959606E+04  0.21810896808E+04 0.  0.
        3    1    3    3  502    0 -0.11053151696E+03  0.42043134186E+03 -0.23479250661E+04  0.23878299470E+04  0.10100000352E+00 0.  1.
       -3    1    3    3    0  502  0.11053151696E+03 -0.42043134186E+03  0.35911716982E+03  0.56386601362E+03  0.10100000352E+00 0. -1.
</event>
<event>
 5   0  0.1866935E-05  0.2204064E+04  0.7818609E-02  0.8516739E-01
        1   -1    0    0  501    0  0.00000000000E+00  0.00000000000E+00  0.14746245256E+04  0.14746245256E+04  0.50400001928E-02 0.  1.
       -1   -1    0    0    0  501  0.00000000000E+00  0.00000000000E+00 -0.82358211081E+03  0.82358211083E+03  0.50400001928E-02 0. -1.
    10030    2    1    2    0    0  0.00000000000E+00  0.00000000000E+00  0.65104241481E+03  0.22982066365E+04  0.22040638643E+04 0.  0.
        4    1    3    3  502    0  0.99645609773E+03 -0.41703538216E+03  0.97957542184E+02  0.10846384456E+04  0.12699999809E+01 0. -1.
       -4    1    3    3    0  502 -0.99645609773E+03  0.41703538216E+03  0.55308487263E+03  0.12135681909E+04  0.12699999809E+01 0.  1.
</event>
<event>
 5   0  0.1786228E-05  0.2193971E+04  0.7818609E-02  0.8520941E-01
       -1   -1    0    0    0  501  0.00000000000E+00  0.00000000000E+00  0.11584516707E+04  0.11584516707E+04  0.50400001928E-02 0.  1.
        1   -1    0    0  501    0  0.00000000000E+00  0.00000000000E+00 -0.10387811255E+04  0.10387811256E+04  0.50400001928E-02 0. -1.
    10030    2    1    2    0    0  0.00000000000E+00  0.00000000000E+00  0.11967054513E+03  0.21972327962E+04  0.21939714951E+04 0.  0.
        5    1    3    3  502    0  0.45218282849E+02  0.67314451860E+03 -0.80642877096E+03  0.10514360126E+04  0.46999998093E+01 0. -1.
       -5    1    3    3    0  502 -0.45218282849E+02 -0.67314451860E+03  0.92609931610E+03  0.11457967836E+04  0.46999998093E+01 0.  1.
</event>
<event>
 5   0  0.1866935E-05  0.2195074E+04  0.7818609E-02  0.8520481E-01
        1   -1    0    0  501    0  0.00000000000E+00  0.00000000000E+00  0.80586467328E+03  0.80586467330E+03  0.50400001928E-02 0.  1.
       -1   -1    0    0    0  501  0.00000000000E+00  0.00000000000E+00 -0.14947759610E+04  0.14947759610E+04  0.50400001928E-02 0. -1.
    10030    2    1    2    0    0  0.00000000000E+00  0.00000000000E+00 -0.68891128775E+03  0.23006406343E+04  0.21950737040E+04 0.  0.
        4    1    3    3  502    0  0.14118366319E+03  0.81086326180E+03 -0.11054268337E+04  0.13781879965E+04  0.12699999809E+01 0. -1.
       -4    1    3    3    0  502 -0.14118366319E+03 -0.81086326180E+03  0.41651554598E+03  0.92245263783E+03  0.12699999809E+01 0.  1.
</event>
<event>
 5   0  0.1786228E-05  0.2205603E+04  0.7818609E-02  0.8516100E-01
       -1   -1    0    0    0  501  0.00000000000E+00  0.00000000000E+00  0.10081265090E+04  0.10081265090E+04  0.50400001928E-02 0.  1.
        1   -1    0    0  501    0  0.00000000000E+00  0.00000000000E+00 -0.12063678909E+04  0.12063678909E+04  0.50400001928E-02 0. -1.
    10030    2    1    2    0    0  0.00000000000E+00  0.00000000000E+00 -0.19824138187E+03  0.22144943999E+04  0.22056032738E+04 0.  0.
        5    1    3    3  502    0 -0.45393914220E+03  0.48663031537E+03 -0.98202869028E+03  0.11862850615E+04  0.46999998093E+01 0. -1.
       -5    1    3    3    0  502  0.45393914220E+03 -0.48663031537E+03  0.78378730842E+03  0.10282093384E+04  0.46999998093E+01 0.  1.
</event>
<event>
 5   0  0.4143281E-05  0.2217075E+04  0.7818609E-02  0.8511355E-01
       -2   -1    0    0    0  501  0.00000000000E+00  0.00000000000E+00  0.86274202552E+03  0.86274202552E+03  0.25500000920E-02 0.  1.
        2   -1    0    0  501    0  0.00000000000E+00  0.00000000000E+00 -0.14243601607E+04  0.14243601607E+04  0.25500000920E-02 0. -1.
    10030    2    1    2    0    0  0.00000000000E+00  0.00000000000E+00 -0.56161813520E+03  0.22871021862E+04  0.22170749831E+04 0.  0.
        2    1    3    3  502    0 -0.10022744591E+04 -0.28127587505E+03  0.11225767762E+03  0.10470300834E+04  0.25500000920E-02 0.  1.
       -2    1    3    3    0  502  0.10022744591E+04  0.28127587505E+03 -0.67387581281E+03  0.12400721029E+04  0.25500000920E-02 0. -1.
</event>
<event>
 5   0  0.4132460E-05  0.2157168E+04  0.7818609E-02  0.8536470E-01
        2   -1    0    0  501    0  0.00000000000E+00  0.00000000000E+00  0.20362523792E+04  0.20362523792E+04  0.25500000920E-02 0. -1.
       -2   -1    0    0    0  501  0.00000000000E+00  0.00000000000E+00 -0.57131617958E+03  0.57131617958E+03  0.25500000920E-02 0.  1.
    10030    2    1    2    0    0  0.00000000000E+00  0.00000000000E+00  0.14649361996E+04  0.26075685588E+04  0.21571684495E+04 0.  0.
        4    1    3    3  502    0  0.41062470581E+03 -0.33337889922E+03 -0.40378903762E+03  0.66543319670E+03  0.12699999809E+01 0.  1.
       -4    1    3    3    0  502 -0.41062470581E+03  0.33337889922E+03  0.18687252372E+04  0.19421353621E+04  0.12699999809E+01 0. -1.
</event>
<event>
 5   0  0.4027923E-05  0.2208229E+04  0.7818609E-02  0.8515011E-01
        2   -1    0    0  501    0  0.00000000000E+00  0.00000000000E+00  0.18170686171E+04  0.18170686171E+04  0.25500000920E-02 0.  1.
       -2   -1    0    0    0  501  0.00000000000E+00  0.00000000000E+00 -0.67089834008E+03  0.67089834008E+03  0.25500000920E-02 0. -1.
    10030    2    1    2    0    0  0.00000000000E+00  0.00000000000E+00  0.11461702771E+04  0.24879669572E+04  0.22082285380E+04 0.  0.
        5    1    3    3  502    0  0.10654704136E+04 -0.28779860957E+03  0.60855296827E+03  0.12603229931E+04  0.46999998093E+01 0. -1.
       -5    1    3    3    0  502 -0.10654704136E+04  0.28779860957E+03  0.53761730879E+03  0.12276439641E+04  0.46999998093E+01 0.  1.
</event>
<event>
 5   0  0.4027923E-05  0.2202478E+04  0.7818609E-02  0.8517397E-01
        2   -1    0    0  501    0  0.00000000000E+00  0.00000000000E+00  0.58824081388E+03  0.58824081388E+03  0.25500000920E-02 0. -1.
       -2   -1    0    0    0  501  0.00000000000E+00  0.00000000000E+00 -0.20616168038E+04  0.20616168038E+04  0.25500000920E-02 0.  1.
    10030    2    1    2    0    0  0.00000000000E+00  0.00000000000E+00 -0.14733759899E+04  0.26498576177E+04  0.22024778288E+04 0.  0.
        5    1    3    3  502    0  0.10357312329E+04  0.30407057919E+03 -0.47445364443E+03  0.11791210518E+04  0.46999998093E+01 0.  1.
       -5    1    3    3    0  502 -0.10357312329E+04 -0.30407057919E+03 -0.99892234549E+03  0.14707365659E+04  0.46999998093E+01 0. -1.
</event>
<event>
 5   0  0.1866935E-05  0.2187341E+04  0.7818609E-02  0.8523715E-01
       -1   -1    0    0    0  501  0.00000000000E+00  0.00000000000E+00  0.86616269479E+03  0.86616269480E+03  0.50400001928E-02 0. -1.
        1   -1    0    0  501    0  0.00000000000E+00  0.00000000000E+00 -0.13809361974E+04  0.13809361974E+04  0.50400001928E-02 0.  1.
    10030    2    1    2    0    0  0.00000000000E+00  0.00000000000E+00 -0.51477350258E+03  0.22470988922E+04  0.21873412336E+04 0.  0.
        4    1    3    3  502    0 -0.35371977923E+03  0.35328878197E+03 -0.12566806890E+04  0.13524712983E+04  0.12699999809E+01 0.  1.
       -4    1    3    3    0  502  0.35371977923E+03 -0.35328878197E+03  0.74190718639E+03  0.89462759392E+03  0.12699999809E+01 0. -1.
</event>
<event>
 5   0  0.1788413E-05  0.2190213E+04  0.7818609E-02  0.8522513E-01
        1   -1    0    0  501    0  0.00000000000E+00  0.00000000000E+00  0.23628900155E+04  0.23628900155E+04  0.50400001928E-02 0.  1.
       -1   -1    0    0    0  501  0.00000000000E+00  0.00000000000E+00 -0.50753853203E+03  0.50753853206E+03  0.50400001928E-02 0. -1.
    10030    2    1    2    0    0  0.00000000000E+00  0.00000000000E+00  0.18553514834E+04  0.28704285475E+04  0.21902125284E+04 0.  0.
        1    1    3    3  502    0  0.60837846775E+03  0.26257491851E+03 -0.21499451851E+03  0.69662945018E+03  0.50400001928E-02 0. -1.
       -1    1    3    3    0  502 -0.60837846775E+03 -0.26257491851E+03  0.20703460020E+04  0.21737990974E+04  0.50400001928E-02 0.  1.
</event>
<event>
 5   0  0.4029532E-05  0.2205872E+04  0.7818609E-02  0.8515988E-01
        2   -1    0    0  501    0  0.00000000000E+00  0.00000000000E+00  0.11938071297E+04  0.11938071297E+04  0.25500000920E-02 0.  1.
       -2   -1    0    0    0  501  0.00000000000E+00  0.00000000000E+00 -0.10189815445E+04  0.10189815445E+04  0.25500000920E-02 0. -1.
    10030    2    1    2    0    0  0.00000000000E+00  0.00000000000E+00  0.17482558520E+03  0.22127886742E+04  0.22058716489E+04 0.  0.
        3    1    3    3  502    0  0.65801576667E+03 -0.93578365764E+02  0.97035789143E+03  0.11761530969E+04  0.10100000352E+00 0.  1.
       -3    1    3    3    0  502 -0.65801576667E+03  0.93578365764E+02 -0.79553230622E+03  0.10366355773E+04  0.10100000352E+00 0. -1.
</event>
<event>
 5   0  0.3963414E-05  0.2187087E+04  0.7818609E-02  0.8523822E-01
       -2   -1    0    0    0  501  0.00000000000E+00  0.00000000000E+00  0.57261672486E+03  0.57261672486E+03  0.25500000920E-02 0.  1.
        2   -1    0    0  501    0  0.00000000000E+00  0.00000000000E+00 -0.20883722464E+04  0.20883722464E+04  0.25500000920E-02 0. -1.
    10030    2    1    2    0    0  0.00000000000E+00  0.00000000000E+00 -0.15157555216E+04  0.26609889713E+04  0.21870865333E+04 0.  0.
        1    1    3    3  502    0  0.32633887742E+03 -0.51289291120E+03 -0.18638415450E+04  0.19604748165E+04  0.50400001928E-02 0. -1.
       -1    1    3    3    0  502 -0.32633887742E+03  0.51289291120E+03  0.34808602345E+03  0.70051415476E+03  0.50400001928E-02 0.  1.
</event>
<event>
 5   0  0.1433375E-05  0.2196482E+04  0.7818609E-02  0.8519894E-01
        3   -1    0    0  501    0  0.00000000000E+00  0.00000000000E+00  0.77398084144E+03  0.77398084803E+03  0.10100000352E+00 0.  1.
       -3   -1    0    0    0  501  0.00000000000E+00  0.00000000000E+00 -0.15583497143E+04  0.15583497175E+04  0.10100000352E+00 0. -1.
    10030    2    1    2    0    0  0.00000000000E+00  0.00000000000E+00 -0.78436887284E+03  0.23323305656E+04  0.21964815816E+04 0.  0.
        5    1    3    3  502    0 -0.37131257149E+03  0.33238986686E+03  0.64699293883E+03  0.81668721199E+03  0.46999998093E+01 0.  1.
       -5    1    3    3    0  502  0.37131257149E+03 -0.33238986686E+03 -0.14313618117E+04  0.15156433536E+04  0.46999998093E+01 0. -1.
</event>
<event>
 5   0  0.4027923E-05  0.2197843E+04  0.7818609E-02  0.8519327E-01
       -2   -1    0    0    0  501  0.00000000000E+00  0.00000000000E+00  0.55326285564E+03  0.55326285564E+03  0.25500000920E-02 0.  1.
        2   -1    0    0  501    0  0.00000000000E+00  0.00000000000E+00 -0.21827382161E+04  0.21827382161E+04  0.25500000920E-02 0. -1.
    10030    2    1    2    0    0  0.00000000000E+00  0.00000000000E+00 -0.16294753604E+04  0.27360010717E+04  0.21978425590E+04 0.  0.
        5    1    3    3  502    0 -0.42042788883E+03  0.71541588592E+03  0.82101151043E+02  0.83387180582E+03  0.46999998093E+01 0. -1.
       -5    1    3    3    0  502  0.42042788883E+03 -0.71541588592E+03 -0.17115765115E+04  0.19021292659E+04  0.46999998093E+01 0.  1.
</event>
<event>
 5   0  0.1884407E-05  0.2166127E+04  0.7818609E-02  0.8532661E-01
       -1   -1    0    0    0  501  0.00000000000E+00  0.00000000000E+00  0.11333699262E+04  0.11333699263E+04  0.50400001928E-02 0.  1.
        1   -1    0    0  501    0  0.00000000000E+00  0.00000000000E+00 -0.10349897932E+04  0.10349897932E+04  0.50400001928E-02 0. -1.
    10030    2    1    2    0    0  0.00000000000E+00  0.00000000000E+00  0.98380133017E+02  0.21683597195E+04  0.21661267790E+04 0.  0.
        3    1    3    3  502    0 -0.25168455601E+03 -0.33938817874E+03 -0.94908256380E+03  0.10388874697E+04  0.10100000352E+00 0. -1.
       -3    1    3    3    0  502  0.25168455601E+03  0.33938817874E+03  0.10474626968E+04  0.11294722498E+04  0.10100000352E+00 0.  1.
</event>
<event>
 5   0  0.4143281E-05  0.2261255E+04  0.7818609E-02  0.8493356E-01
       -2   -1    0    0    0  501  0.00000000000E+00  0.00000000000E+00  0.10697979977E+04  0.10697979977E+04  0.25500000920E-02 0. -1.
        2   -1    0    0  501    0  0.00000000000E+00  0.00000000000E+00 -0.11949159632E+04  0.11949159632E+04  0.25500000920E-02 0.  1.
    10030    2    1    2    0    0  0.00000000000E+00  0.00000000000E+00 -0.12511796545E+03  0.22647139609E+04  0.22612551424E+04 0.  0.
        2    1    3    3  502    0  0.94895467998E+03  0.55389450565E+03 -0.32943344820E+03  0.11471009131E+04  0.25500000920E-02 0.  1.
       -2    1    3    3    0  502 -0.94895467998E+03 -0.55389450565E+03  0.20431548275E+03  0.11176130478E+04  0.25500000920E-02 0. -1.
</event>
<event>
 5   0  0.1788413E-05  0.2196392E+04  0.7818609E-02  0.8519932E-01
        1   -1    0    0  501    0  0.00000000000E+00  0.00000000000E+00  0.11790116614E+04  0.11790116614E+04  0.50400001928E-02 0. -1.
       -1   -1    0    0    0  501  0.00000000000E+00  0.00000000000E+00 -0.10229194436E+04  0.10229194436E+04  0.50400001928E-02 0.  1.
    10030    2    1    2    0    0  0.00000000000E+00  0.00000000000E+00  0.15609221782E+03  0.22019311050E+04  0.21963915431E+04 0.  0.
        1    1    3    3  502    0  0.79271019036E+03 -0.60252988836E+03 -0.38637407844E+03  0.10680433703E+04  0.50400001928E-02 0.  1.
       -1    1    3    3    0  502 -0.79271019036E+03  0.60252988836E+03  0.54246629627E+03  0.11338877347E+04  0.50400001928E-02 0. -1.
</event>
<event>
 5   0  0.4029532E-05  0.2192965E+04  0.7818609E-02  0.8521362E-01
       -2   -1    0    0    0  501  0.00000000000E+00  0.00000000000E+00  0.11579438483E+04  0.11579438483E+04  0.25500000920E-02 0. -1.
        2   -1    0    0  501    0  0.00000000000E+00  0.00000000000E+00 -0.10382838147E+04  0.10382838147E+04  0.25500000920E-02 0.  1.
    10030    2    1    2    0    0  0.00000000000E+00  0.00000000000E+00  0.11966003363E+03  0.21962276630E+04  0.21929654407E+04 0.  0.
        3    1    3    3  502    0  0.22682189123E+03 -0.88237731655E+03  0.67084944133E+03  0.11314048269E+04  0.10100000352E+00 0. -1.
       -3    1    3    3    0  502 -0.22682189123E+03  0.88237731655E+03 -0.55118940770E+03  0.10648228362E+04  0.10100000352E+00 0.  1.
</event>
<event>
 5   0  0.4143281E-05  0.2155605E+04  0.7818609E-02  0.8537137E-01
        2   -1    0    0  501    0  0.00000000000E+00  0.00000000000E+00  0.11907711992E+04  0.11907711992E+04  0.25500000920E-02 0.  1.
       -2   -1    0    0    0  501  0.00000000000E+00  0.00000000000E+00 -0.97555084671E+03  0.97555084672E+03  0.25500000920E-02 0. -1.
    10030    2    1    2    0    0  0.00000000000E+00  0.00000000000E+00  0.21522035248E+03  0.21663220459E+04  0.21556046499E+04 0.  0.
        2    1    3    3  502    0 -0.76368336135E+03  0.50471180753E+03  0.67939551638E+03  0.11399669086E+04  0.25500000920E-02 0.  1.
       -2    1    3    3    0  502  0.76368336135E+03 -0.50471180753E+03 -0.46417516390E+03  0.10263551373E+04  0.25500000920E-02 0. -1.
</event>
<event>
 5   0  0.1788413E-05  0.2178176E+04  0.7818609E-02  0.8527567E-01
       -1   -1    0    0    0  501  0.00000000000E+00  0.00000000000E+00  0.63697396604E+03  0.63697396606E+03  0.50400001928E-02 0.  1.
        1   -1    0    0  501    0  0.00000000000E+00  0.00000000000E+00 -0.18621045789E+04  0.18621045789E+04  0.50400001928E-02 0. -1.
    10030    2    1    2    0    0  0.00000000000E+00  0.00000000000E+00 -0.12251306129E+04  0.24990785450E+04  0.21781755107E+04 0.  0.
        1    1    3    3  502    0  0.52286455019E+03  0.51076050879E+03 -0.15388838787E+04  0.17036511460E+04  0.50400001928E-02 0. -1.
       -1    1    3    3    0  502 -0.52286455019E+03 -0.51076050879E+03  0.31375326582E+03  0.79542739896E+03  0.50400001928E-02 0.  1.
</event>
<event>
 5   0  0.4027923E-05  0.2167034E+04  0.7818609E-02  0.8532276E-01
        2   -1    0    0  501    0  0.00000000000E+00  0.00000000000E+00  0.24753968872E+04  0.24753968872E+04  0.25500000920E-02 0.  1.
       -2   -1    0    0    0  501  0.00000000000E+00  0.00000000000E+00 -0.47427105905E+03  0.47427105906E+03  0.25500000920E-02 0. -1.
    10030    2    1    2    0    0  0.00000000000E+00  0.00000000000E+00  0.20011258281E+04  0.29496679462E+04  0.21670340129E+04 0.  0.
        5    1    3    3  502    0  0.96591752848E+03 -0.20819168712E+03  0.39542824643E+03  0.10642960295E+04  0.46999998093E+01 0. -1.
       -5    1    3    3    0  502 -0.96591752848E+03  0.20819168712E+03  0.16056975817E+04  0.18853719167E+04  0.46999998093E+01 0.  1.
</event>
<event>
 5   0  0.4143281E-05  0.2204283E+04  0.7818609E-02  0.8516648E-01
       -2   -1    0    0    0  501  0.00000000000E+00  0.00000000000E+00  0.99823276115E+03  0.99823276116E+03  0.25500000920E-02 0. -1.
        2   -1    0    0  501    0  0.00000000000E+00  0.00000000000E+00 -0.12168662853E+04  0.12168662853E+04  0.25500000920E-02 0.  1.
    10030    2    1    2    0    0  0.00000000000E+00  0.00000000000E+00 -0.21863352412E+03  0.22150990464E+04  0.22042829146E+04 0.  0.
        2    1    3    3  502    0  0.59711397607E+03 -0.65494327873E+02 -0.10379079064E+04  0.11992028309E+04  0.25500000920E-02 0.  1.
       -2    1    3    3    0  502 -0.59711397607E+03  0.65494327873E+02  0.81927438226E+03  0.10158962156E+04  0.25500000920E-02 0. -1.
</event>
<event>
 5   0  0.4027923E-05  0.2147334E+04  0.7818609E-02  0.8540674E-01
       -2   -1    0    0    0  501  0.00000000000E+00  0.00000000000E+00  0.73117296013E+03  0.73117296014E+03  0.25500000920E-02 0. -1.
        2   -1    0    0  501    0  0.00000000000E+00  0.00000000000E+00 -0.15765908718E+04  0.15765908718E+04  0.25500000920E-02 0.  1.
    10030    2    1    2    0    0  0.00000000000E+00  0.00000000000E+00 -0.84541791171E+03  0.23077638320E+04  0.21473338024E+04 0.  0.
        5    1    3    3  502    0  0.55094509721E+03  0.90000085565E+03 -0.20993652269E+03  0.10759356272E+04  0.46999998093E+01 0. -1.
       -5    1    3    3    0  502 -0.55094509721E+03 -0.90000085565E+03 -0.63548138902E+03  0.12318282048E+04  0.46999998093E+01 0.  1.
</event>
<event>
 5   0  0.1788413E-05  0.2193943E+04  0.7818609E-02  0.8520953E-01
       -1   -1    0    0    0  501  0.00000000000E+00  0.00000000000E+00  0.64809434755E+03  0.64809434757E+03  0.50400001928E-02 0.  1.
        1   -1    0    0  501    0  0.00000000000E+00  0.00000000000E+00 -0.18567455543E+04  0.18567455543E+04  0.50400001928E-02 0. -1.
    10030    2    1    2    0    0  0.00000000000E+00  0.00000000000E+00 -0.12086512068E+04  0.25048399019E+04  0.21939428421E+04 0.  0.
        1    1    3    3  502    0  0.38374419906E+03 -0.19999573124E+03  0.54652886908E+03  0.69710236522E+03  0.50400001928E-02 0.  1.
       -1    1    3    3    0  502 -0.38374419906E+03  0.19999573124E+03 -0.17551800759E+04  0.18077375367E+04  0.50400001928E-02 0. -1.
</event>
<event>
 5   0  0.4132460E-05  0.2210838E+04  0.7818609E-02  0.8513931E-01
       -2   -1    0    0    0  501  0.00000000000E+00  0.00000000000E+00  0.84851607732E+03  0.84851607732E+03  0.25500000920E-02 0.  1.
        2   -1    0    0  501    0  0.00000000000E+00  0.00000000000E+00 -0.14401036372E+04  0.14401036372E+04  0.25500000920E-02 0. -1.
    10030    2    1    2    0    0  0.00000000000E+00  0.00000000000E+00 -0.59158755988E+03  0.22886197145E+04  0.22108379309E+04 0.  0.
        4    1    3    3  502    0  0.58008750696E+03  0.11184900228E+03 -0.12629761418E+04  0.13943177768E+04  0.12699999809E+01 0.  1.
       -4    1    3    3    0  502 -0.58008750696E+03 -0.11184900228E+03  0.67138858190E+03  0.89430193774E+03  0.12699999809E+01 0. -1.
</event>
<event>
 5   0  0.4029532E-05  0.2184637E+04  0.7818609E-02  0.8524850E-01
        2   -1    0    0  501    0  0.00000000000E+00  0.00000000000E+00  0.15838838139E+04  0.15838838139E+04  0.25500000920E-02 0. -1.
       -2   -1    0    0    0  501  0.00000000000E+00  0.00000000000E+00 -0.75331232553E+03  0.75331232554E+03  0.25500000920E-02 0.  1.
    10030    2    1    2    0    0  0.00000000000E+00  0.00000000000E+00  0.83057148833E+03  0.23371961394E+04  0.21846365365E+04 0.  0.
        3    1    3    3  502    0  0.48801187429E+03 -0.45941500629E+03 -0.50746700229E+03  0.84067859856E+03  0.10100000352E+00 0.  1.
       -3    1    3    3    0  502 -0.48801187429E+03  0.45941500629E+03  0.13380384906E+04  0.14965175408E+04  0.10100000352E+00 0. -1.
</event>
<event>
 5   0  0.4027923E-05  0.2206601E+04  0.7818609E-02  0.8515686E-01
        2   -1    0    0  501    0  0.00000000000E+00  0.00000000000E+00  0.90496637130E+03  0.90496637130E+03  0.25500000920E-02 0. -1.
       -2   -1    0    0    0  501  0.00000000000E+00  0.00000000000E+00 -0.13451017384E+04  0.13451017384E+04  0.25500000920E-02 0.  1.
    10030    2    1    2    0    0  0.00000000000E+00  0.00000000000E+00 -0.44013536712E+03  0.22500681097E+04  0.22066008604E+04 0.  0.
        5    1    3    3  502    0  0.56174933132E+03  0.71529906942E+03  0.41676228537E+03  0.10004638736E+04  0.46999998093E+01 0. -1.
       -5    1    3    3    0  502 -0.56174933132E+03 -0.71529906942E+03 -0.85689765249E+03  0.12496042361E+04  0.46999998093E+01 0.  1.
</event>
<event>
 5   0  0.4029532E-05  0.2187765E+04  0.7818609E-02  0.8523538E-01
        2   -1    0    0  501    0  0.00000000000E+00  0.00000000000E+00  0.15602967694E+04  0.15602967694E+04  0.25500000920E-02 0.  1.
       -2   -1    0    0    0  501  0.00000000000E+00  0.00000000000E+00 -0.76689170450E+03  0.76689170450E+03  0.25500000920E-02 0. -1.
    10030    2    1    2    0    0  0.00000000000E+00  0.00000000000E+00  0.79340506493E+03  0.23271884739E+04  0.21877647488E+04 0.  0.
        3    1    3    3  502    0  0.66201221751E+03 -0.57089659079E+03 -0.30277141347E+03  0.92512357689E+03  0.10100000352E+00 0. -1.
       -3    1    3    3    0  502 -0.66201221751E+03  0.57089659079E+03  0.10961764784E+04  0.14020648970E+04  0.10100000352E+00 0.  1.
</event>
<event>
 5   0  0.1884407E-05  0.2216964E+04  0.7818609E-02  0.8511400E-01
       -1   -1    0    0    0  501  0.00000000000E+00  0.00000000000E+00  0.31641233727E+04  0.31641233727E+04  0.50400001928E-02 0. -1.
        1   -1    0    0  501    0  0.00000000000E+00  0.00000000000E+00 -0.38833261794E+03  0.38833261798E+03  0.50400001928E-02 0.  1.
    10030    2    1    2    0    0  0.00000000000E+00  0.00000000000E+00  0.27757907548E+04  0.35524559907E+04  0.22169639716E+04 0.  0.
        3    1    3    3  502    0 -0.11331062027E+03  0.10248668618E+04  0.20398580859E+04  0.22856536050E+04  0.10100000352E+00 0. -1.
       -3    1    3    3    0  502  0.11331062027E+03 -0.10248668618E+04  0.73593266889E+03  0.12668023857E+04  0.10100000352E+00 0.  1.
</event>
<event>
 5   0  0.1884407E-05  0.2233208E+04  0.7818609E-02  0.8504732E-01
        1   -1    0    0  501    0  0.00000000000E+00  0.00000000000E+00  0.79930495287E+03  0.79930495289E+03  0.50400001928E-02 0.  1.
       -1   -1    0    0    0  501  0.00000000000E+00  0.00000000000E+00 -0.15598613371E+04  0.15598613371E+04  0.50400001928E-02 0. -1.
    10030    2    1    2    0    0  0.00000000000E+00  0.00000000000E+00 -0.76055638425E+03  0.23591662900E+04  0.22332083580E+04 0.  0.
        3    1    3    3  502    0 -0.43327466714E+03 -0.74013401934E+03  0.37508972099E+03  0.93606496183E+03  0.10100000352E+00 0.  1.
       -3    1    3    3    0  502  0.43327466714E+03  0.74013401934E+03 -0.11356461052E+04  0.14231013282E+04  0.10100000352E+00 0. -1.
</event>
<event>
 5   0  0.4132460E-05  0.2215580E+04  0.7818609E-02  0.8511971E-01
       -2   -1    0    0    0  501  0.00000000000E+00  0.00000000000E+00  0.10007174973E+04  0.10007174973E+04  0.25500000920E-02 0. -1.
        2   -1    0    0  501    0  0.00000000000E+00  0.00000000000E+00 -0.12263183188E+04  0.12263183188E+04  0.25500000920E-02 0.  1.
    10030    2    1    2    0    0  0.00000000000E+00  0.00000000000E+00 -0.22560082154E+03  0.22270358162E+04  0.22155795620E+04 0.  0.
        4    1    3    3  502    0  0.52301118364E+03  0.25105518957E+03  0.83580986233E+03  0.10174227957E+04  0.12699999809E+01 0. -1.
       -4    1    3    3    0  502 -0.52301118364E+03 -0.25105518957E+03 -0.10614106839E+04  0.12096130204E+04  0.12699999809E+01 0.  1.
</event>
<event>
 5   0  0.1786228E-05  0.2266554E+04  0.7818609E-02  0.8491226E-01
       -1   -1    0    0    0  501  0.00000000000E+00  0.00000000000E+00  0.11564463848E+04  0.11564463848E+04  0.50400001928E-02 0.  1.
        1   -1    0    0  501    0  0.00000000000E+00  0.00000000000E+00 -0.11105720064E+04  0.11105720064E+04  0.50400001928E-02 0. -1.
    10030    2    1    2    0    0  0.00000000000E+00  0.00000000000E+00  0.45874378417E+02  0.22670183913E+04  0.22665541970E+04 0.  0.
        5    1    3    3  502    0  0.40051247957E+02 -0.81603284523E+03 -0.76257783077E+03  0.11176138622E+04  0.46999998093E+01 0. -1.
       -5    1    3    3    0  502 -0.40051247957E+02  0.81603284523E+03  0.80845220919E+03  0.11494045291E+04  0.46999998093E+01 0.  1.
</event>
<event>
 5   0  0.1433375E-05  0.2199918E+04  0.7818609E-02  0.8518462E-01
       -3   -1    0    0    0  501  0.00000000000E+00  0.00000000000E+00  0.11474543917E+04  0.11474543961E+04  0.10100000352E+00 0.  1.
        3   -1    0    0  501    0  0.00000000000E+00  0.00000000000E+00 -0.10544297249E+04  0.10544297297E+04  0.10100000352E+00 0. -1.
    10030    2    1    2    0    0  0.00000000000E+00  0.00000000000E+00  0.93024666805E+02  0.22018841259E+04  0.21999182064E+04 0.  0.
        3    1    3    3  502    0 -0.40526152465E+02  0.38442538196E+03 -0.98420634325E+03  0.10573965101E+04  0.10100000352E+00 0. -1.
       -3    1    3    3    0  502  0.40526152465E+02 -0.38442538196E+03  0.10772310101E+04  0.11444876157E+04  0.10100000352E+00 0.  1.
</event>
<event>
 5   0  0.1884407E-05  0.2185634E+04  0.7818609E-02  0.8524431E-01
       -1   -1    0    0    0  501  0.00000000000E+00  0.00000000000E+00  0.90459235113E+03  0.90459235115E+03  0.50400001928E-02 0.  1.
        1   -1    0    0  501    0  0.00000000000E+00  0.00000000000E+00 -0.13202067469E+04  0.13202067470E+04  0.50400001928E-02 0. -1.
    10030    2    1    2    0    0  0.00000000000E+00  0.00000000000E+00 -0.41561439582E+03  0.22247990981E+04  0.21856339357E+04 0.  0.
        3    1    3    3  502    0  0.78195915926E+03 -0.46931335382E+03  0.40508995617E+03  0.99790432087E+03  0.10100000352E+00 0.  1.
       -3    1    3    3    0  502 -0.78195915926E+03  0.46931335382E+03 -0.82070435199E+03  0.12268947772E+04  0.10100000352E+00 0. -1.
</event>
<event>
 5   0  0.1433375E-05  0.2100151E+04  0.7818609E-02  0.8561177E-01
       -3   -1    0    0    0  501  0.00000000000E+00  0.00000000000E+00  0.92785300572E+03  0.92785301122E+03  0.10100000352E+00 0.  1.
        3   -1    0    0  501    0  0.00000000000E+00  0.00000000000E+00 -0.11883975210E+04  0.11883975253E+04  0.10100000352E+00 0. -1.
    10030    2    1    2    0    0  0.00000000000E+00  0.00000000000E+00 -0.26054451526E+03  0.21162505365E+04  0.21001506824E+04 0.  0.
        4    1    3    3  502    0 -0.31418067401E+03 -0.63938692573E+03 -0.90763385898E+03  0.11538309978E+04  0.12699999809E+01 0. -1.
       -4    1    3    3    0  502  0.31418067401E+03  0.63938692573E+03  0.64708934371E+03  0.96241953865E+03  0.12699999809E+01 0.  1.
</event>
<event>
 5   0  0.1884407E-05  0.2206006E+04  0.7818609E-02  0.8515933E-01
        1   -1    0    0  501    0  0.00000000000E+00  0.00000000000E+00  0.95196466699E+03  0.95196466700E+03  0.50400001928E-02 0.  1.
       -1   -1    0    0    0  501  0.00000000000E+00  0.00000000000E+00 -0.12780046069E+04  0.12780046069E+04  0.50400001928E-02 0. -1.
    10030    2    1    2    0    0  0.00000000000E+00  0.00000000000E+00 -0.32603993992E+03  0.22299692739E+04  0.22060056483E+04 0.  0.
        3    1    3    3  502    0  0.71195718609E+03 -0.76088452187E+03  0.20255329779E+03  0.10615348035E+04  0.10100000352E+00 0.  1.
       -3    1    3    3    0  502 -0.71195718609E+03  0.76088452187E+03 -0.52859323771E+03  0.11684344704E+04  0.10100000352E+00 0. -1.
</event>
<event>
 5   0  0.3963414E-05  0.2129899E+04  0.7818609E-02  0.8548186E-01
       -2   -1    0    0    0  501  0.00000000000E+00  0.00000000000E+00  0.45463838547E+03  0.45463838548E+03  0.25500000920E-02 0.  1.
        2   -1    0    0  501    0  0.00000000000E+00  0.00000000000E+00 -0.24945480243E+04  0.24945480243E+04  0.25500000920E-02 0. -1.
    10030    2    1    2    0    0  0.00000000000E+00  0.00000000000E+00 -0.20399096388E+04  0.29491864098E+04  0.21298988580E+04 0.  0.
        1    1    3    3  502    0 -0.84639494269E+03  0.50417309699E+02 -0.19121650511E+04  0.20917221342E+04  0.50400001928E-02 0. -1.
       -1    1    3    3    0  502  0.84639494269E+03 -0.50417309699E+02 -0.12774458772E+03  0.85746427556E+03  0.50400001928E-02 0.  1.
</event>
<event>
 5   0  0.1815681E-05  0.2222931E+04  0.7818609E-02  0.8508944E-01
        1   -1    0    0  501    0  0.00000000000E+00  0.00000000000E+00  0.99153287537E+03  0.99153287538E+03  0.50400001928E-02 0.  1.
       -1   -1    0    0    0  501  0.00000000000E+00  0.00000000000E+00 -0.12459049068E+04  0.12459049068E+04  0.50400001928E-02 0. -1.
    10030    2    1    2    0    0  0.00000000000E+00  0.00000000000E+00 -0.25437203142E+03  0.22374377822E+04  0.22229311053E+04 0.  0.
        2    1    3    3  502    0  0.53639741637E+03  0.73273752202E+03 -0.77224994781E+03  0.11920555551E+04  0.25500000920E-02 0. -1.
       -2    1    3    3    0  502 -0.53639741637E+03 -0.73273752202E+03  0.51787791639E+03  0.10453822271E+04  0.25500000920E-02 0.  1.
</event>
<event>
 5   0  0.1884407E-05  0.2158874E+04  0.7818609E-02  0.8535743E-01
        1   -1    0    0  501    0  0.00000000000E+00  0.00000000000E+00  0.16622389747E+04  0.16622389748E+04  0.50400001928E-02 0.  1.
       -1   -1    0    0    0  501  0.00000000000E+00  0.00000000000E+00 -0.70097256887E+03  0.70097256889E+03  0.50400001928E-02 0. -1.
    10030    2    1    2    0    0  0.00000000000E+00  0.00000000000E+00  0.96126640587E+03  0.23632115436E+04  0.21588737103E+04 0.  0.
        3    1    3    3  502    0  0.24182949536E+03  0.92912448097E+03 -0.59452284538E+02  0.96191911838E+03  0.10100000352E+00 0.  1.
       -3    1    3    3    0  502 -0.24182949536E+03 -0.92912448097E+03  0.10207186904E+04  0.14012924253E+04  0.10100000352E+00 0. -1.
</event>
<event>
 5   0  0.1815681E-05  0.2214262E+04  0.7818609E-02  0.8512515E-01
       -1   -1    0    0    0  501  0.00000000000E+00  0.00000000000E+00  0.17892703710E+04  0.17892703710E+04  0.50400001928E-02 0.  1.
        1   -1    0    0  501    0  0.00000000000E+00  0.00000000000E+00 -0.68504974011E+03  0.68504974013E+03  0.50400001928E-02 0. -1.
    10030    2    1    2    0    0  0.00000000000E+00  0.00000000000E+00  0.11042206309E+04  0.24743201111E+04  0.22142621368E+04 0.  0.
        2    1    3    3  502    0  0.80189212628E+03 -0.16378735814E+03  0.13852505849E+04  0.16089675148E+04  0.25500000920E-02 0.  1.
       -2    1    3    3    0  502 -0.80189212628E+03  0.16378735814E+03 -0.28102995400E+03  0.86535259630E+03  0.25500000920E-02 0. -1.
</event>
<event>
 5   0  0.1884407E-05  0.2199641E+04  0.7818609E-02  0.8518578E-01
        1   -1    0    0  501    0  0.00000000000E+00  0.00000000000E+00  0.13945314264E+04  0.13945314264E+04  0.50400001928E-02 0.  1.
       -1   -1    0    0    0  501  0.00000000000E+00  0.00000000000E+00 -0.86739150014E+03  0.86739150015E+03  0.50400001928E-02 0. -1.
    10030    2    1    2    0    0  0.00000000000E+00  0.00000000000E+00  0.52713992625E+03  0.22619229265E+04  0.21996406124E+04 0.  0.
        3    1    3    3  502    0 -0.21620876373E+03 -0.93669415221E+03 -0.28584518506E+03  0.10029205573E+04  0.10100000352E+00 0.  1.
       -3    1    3    3    0  502  0.21620876373E+03  0.93669415221E+03  0.81298511131E+03  0.12590023692E+04  0.10100000352E+00 0. -1.
</event>
<event>
 5   0  0.4027923E-05  0.2262373E+04  0.7818609E-02  0.8492907E-01
       -2   -1    0    0    0  501  0.00000000000E+00  0.00000000000E+00  0.65412163267E+03  0.65412163268E+03  0.25500000920E-02 0.  1.
        2   -1    0    0  501    0  0.00000000000E+00  0.00000000000E+00 -0.19561845291E+04  0.19561845291E+04  0.25500000920E-02 0. -1.
    10030    2    1    2    0    0  0.00000000000E+00  0.00000000000E+00 -0.13020628964E+04  0.26103061617E+04  0.22623727526E+04 0.  0.
        5    1    3    3  502    0 -0.88836437171E+03  0.69287972113E+03 -0.76805435393E+03  0.13635259974E+04  0.46999998093E+01 0.  1.
       -5    1    3    3    0  502  0.88836437171E+03 -0.69287972113E+03 -0.53400854246E+03  0.12467801644E+04  0.46999998093E+01 0. -1.
</event>
<event>
 5   0  0.3963414E-05  0.2199036E+04  0.7818609E-02  0.8518830E-01
        2   -1    0    0  501    0  0.00000000000E+00  0.00000000000E+00  0.24535701491E+04  0.24535701491E+04  0.25500000920E-02 0.  1.
       -2   -1    0    0    0  501  0.00000000000E+00  0.00000000000E+00 -0.49272673418E+03  0.49272673419E+03  0.25500000920E-02 0. -1.
    10030    2    1    2    0    0  0.00000000000E+00  0.00000000000E+00  0.19608434149E+04  0.29462968833E+04  0.21990357948E+04 0.  0.
        1    1    3    3  502    0 -0.93334090325E+03  0.10909872720E+03  0.21554000485E+03  0.96409816288E+03  0.50400001928E-02 0.  1.
       -1    1    3    3    0  502  0.93334090325E+03 -0.10909872720E+03  0.17453034101E+04  0.19821987204E+04  0.50400001928E-02 0. -1.
</event>
<event>
 5   0  0.1788413E-05  0.2444720E+04  0.7818609E-02  0.8422948E-01
       -1   -1    0    0    0  501  0.00000000000E+00  0.00000000000E+00  0.17573222464E+04  0.17573222464E+04  0.50400001928E-02 0. -1.
        1   -1    0    0  501    0  0.00000000000E+00  0.00000000000E+00 -0.85025034418E+03  0.85025034419E+03  0.50400001928E-02 0.  1.
    10030    2    1    2    0    0  0.00000000000E+00  0.00000000000E+00  0.90707190226E+03  0.26075725906E+04  0.24447198980E+04 0.  0.
        1    1    3    3  502    0  0.77117764789E+03 -0.43259036754E+03  0.13537445945E+04  0.16169334612E+04  0.50400001928E-02 0. -1.
       -1    1    3    3    0  502 -0.77117764789E+03  0.43259036754E+03 -0.44667269228E+03  0.99063912943E+03  0.50400001928E-02 0.  1.
</event>
<event>
 5   0  0.4143281E-05  0.2198814E+04  0.7818609E-02  0.8518922E-01
       -2   -1    0    0    0  501  0.00000000000E+00  0.00000000000E+00  0.99207771207E+03  0.99207771207E+03  0.25500000920E-02 0.  1.
        2   -1    0    0  501    0  0.00000000000E+00  0.00000000000E+00 -0.12183477201E+04  0.12183477201E+04  0.25500000920E-02 0. -1.
    10030    2    1    2    0    0  0.00000000000E+00  0.00000000000E+00 -0.22627000804E+03  0.22104254322E+04  0.21988138790E+04 0.  0.
        2    1    3    3  502    0  0.41356590875E+03 -0.53418866713E+03 -0.98506840157E+03  0.11944681029E+04  0.25500000920E-02 0. -1.
       -2    1    3    3    0  502 -0.41356590875E+03  0.53418866713E+03  0.75879839353E+03  0.10159573293E+04  0.25500000920E-02 0.  1.
</event>
<event>
 5   0  0.4027923E-05  0.2211486E+04  0.7818609E-02  0.8513663E-01
        2   -1    0    0  501    0  0.00000000000E+00  0.00000000000E+00  0.12843721519E+04  0.12843721519E+04  0.25500000920E-02 0.  1.
       -2   -1    0    0    0  501  0.00000000000E+00  0.00000000000E+00 -0.95195749316E+03  0.95195749317E+03  0.25500000920E-02 0. -1.
    10030    2    1    2    0    0  0.00000000000E+00  0.00000000000E+00  0.33241465876E+03  0.22363296451E+04  0.22114861013E+04 0.  0.
        5    1    3    3  502    0 -0.17420586248E+03  0.63104727452E+03 -0.73491341174E+03  0.98421956796E+03  0.46999998093E+01 0. -1.
       -5    1    3    3    0  502  0.17420586248E+03 -0.63104727452E+03  0.10673280705E+04  0.12521100771E+04  0.46999998093E+01 0.  1.
</event>
<event>
 5   0  0.1815681E-05  0.2118308E+04  0.7818609E-02  0.8553221E-01
       -1   -1    0    0    0  501  0.00000000000E+00  0.00000000000E+00  0.73972393104E+03  0.73972393106E+03  0.50400001928E-02 0.  1.
        1   -1    0    0  501    0  0.00000000000E+00  0.00000000000E+00 -0.15165212107E+04  0.15165212107E+04  0.50400001928E-02 0. -1.
    10030    2    1    2    0    0  0.00000000000E+00  0.00000000000E+00 -0.77679727965E+03  0.22562451418E+04  0.21183078450E+04 0.  0.
        2    1    3    3  502    0  0.91792693443E+02 -0.63630264378E+03 -0.12849334584E+04  0.14367884137E+04  0.25500000920E-02 0. -1.
       -2    1    3    3    0  502 -0.91792693443E+02  0.63630264378E+03  0.50813617877E+03  0.81945672810E+03  0.25500000920E-02 0.  1.
</event>
<event>
 5   0  0.4143281E-05  0.2193418E+04  0.7818609E-02  0.8521173E-01
       -2   -1    0    0    0  501  0.00000000000E+00  0.00000000000E+00  0.14402841814E+04  0.14402841814E+04  0.25500000920E-02 0.  1.
        2   -1    0    0  501    0  0.00000000000E+00  0.00000000000E+00 -0.83509238956E+03  0.83509238956E+03  0.25500000920E-02 0. -1.
    10030    2    1    2    0    0  0.00000000000E+00  0.00000000000E+00  0.60519179182E+03  0.22753765709E+04  0.21934177520E+04 0.  0.
        2    1    3    3  502    0  0.65164726180E+02  0.49795088752E+03  0.13139976738E+04  0.14066952103E+04  0.25500000920E-02 0.  1.
       -2    1    3    3    0  502 -0.65164726180E+02 -0.49795088752E+03 -0.70880588200E+03  0.86868136062E+03  0.25500000920E-02 0. -1.
</event>
<event>
 5   0  0.4029532E-05  0.2198869E+04  0.7818609E-02  0.8518899E-01
       -2   -1    0    0    0  501  0.00000000000E+00  0.00000000000E+00  0.13400528755E+04  0.13400528755E+04  0.25500000920E-02 0. -1.
        2   -1    0    0  501    0  0.00000000000E+00  0.00000000000E+00 -0.90202165669E+03  0.90202165669E+03  0.25500000920E-02 0.  1.
    10030    2    1    2    0    0  0.00000000000E+00  0.00000000000E+00  0.43803121882E+03  0.22420745322E+04  0.21988694503E+04 0.  0.
        3    1    3    3  502    0 -0.10720856136E+04 -0.23895967916E+03  0.26778226014E+03  0.11305647440E+04  0.10100000352E+00 0.  1.
       -3    1    3    3    0  502  0.10720856136E+04  0.23895967916E+03  0.17024895868E+03  0.11115097882E+04  0.10100000352E+00 0. -1.
</event>
<event>
 5   0  0.1786228E-05  0.2200499E+04  0.7818609E-02  0.8518220E-01
        1   -1    0    0  501    0  0.00000000000E+00  0.00000000000E+00  0.13867816965E+04  0.13867816965E+04  0.50400001928E-02 0.  1.
       -1   -1    0    0    0  501  0.00000000000E+00  0.00000000000E+00 -0.87291998149E+03  0.87291998151E+03  0.50400001928E-02 0. -1.
    10030    2    1    2    0    0  0.00000000000E+00  0.00000000000E+00  0.51386171503E+03  0.22597016780E+04  0.22004994459E+04 0.  0.
        5    1    3    3  502    0 -0.62105142925E+03 -0.68911204400E+03  0.86440952141E+03  0.12679929801E+04  0.46999998093E+01 0.  1.
       -5    1    3    3    0  502  0.62105142925E+03  0.68911204400E+03 -0.35054780638E+03  0.99170869791E+03  0.46999998093E+01 0. -1.
</event>
<event>
 5   0  0.1786228E-05  0.2200450E+04  0.7818609E-02  0.8518241E-01
        1   -1    0    0  501    0  0.00000000000E+00  0.00000000000E+00  0.16565401194E+04  0.16565401194E+04  0.50400001928E-02 0. -1.
       -1   -1    0    0    0  501  0.00000000000E+00  0.00000000000E+00 -0.73073714436E+03  0.73073714438E+03  0.50400001928E-02 0.  1.
    10030    2    1    2    0    0  0.00000000000E+00  0.00000000000E+00  0.92580297505E+03  0.23872772638E+04  0.22004503143E+04 0.  0.
        5    1    3    3  502    0  0.12690366908E+03  0.77813198178E+03  0.12954402640E+04  0.15165030464E+04  0.46999998093E+01 0. -1.
       -5    1    3    3    0  502 -0.12690366908E+03 -0.77813198178E+03 -0.36963728891E+03  0.87077421738E+03  0.46999998093E+01 0.  1.
</event>
<event>
 5   0  0.3963414E-05  0.2215251E+04  0.7818609E-02  0.8512107E-01
       -2   -1    0    0    0  501  0.00000000000E+00  0.00000000000E+00  0.68469284179E+03  0.68469284179E+03  0.25500000920E-02 0.  1.
        2   -1    0    0  501    0  0.00000000000E+00  0.00000000000E+00 -0.17918023146E+04  0.17918023146E+04  0.25500000920E-02 0. -1.
    10030    2    1    2    0    0  0.00000000000E+00  0.00000000000E+00 -0.11071094728E+04  0.24764951564E+04  0.22152509733E+04 0.  0.
        1    1    3    3  502    0 -0.17242210067E+03 -0.42764942891E+03 -0.16794054416E+04  0.17415556414E+04  0.50400001928E-02 0. -1.
       -1    1    3    3    0  502  0.17242210067E+03  0.42764942891E+03  0.57229596875E+03  0.73493951501E+03  0.50400001928E-02 0.  1.
</event>
<event>
 5   0  0.1866935E-05  0.2211179E+04  0.7818609E-02  0.8513789E-01
       -1   -1    0    0    0  501  0.00000000000E+00  0.00000000000E+00  0.11136567266E+04  0.11136567266E+04  0.50400001928E-02 0.  1.
        1   -1    0    0  501    0  0.00000000000E+00  0.00000000000E+00 -0.10975810654E+04  0.10975810654E+04  0.50400001928E-02 0. -1.
    10030    2    1    2    0    0  0.00000000000E+00  0.00000000000E+00  0.16075661151E+02  0.22112377920E+04  0.22111793564E+04 0.  0.
        4    1    3    3  502    0  0.97764997331E+03  0.11831287667E+03  0.51057426114E+03  0.11092723273E+04  0.12699999809E+01 0.  1.
       -4    1    3    3    0  502 -0.97764997331E+03 -0.11831287667E+03 -0.49449859999E+03  0.11019654647E+04  0.12699999809E+01 0. -1.
</event>
<event>
 5   0  0.1815681E-05  0.2194325E+04  0.7818609E-02  0.8520794E-01
        1   -1    0    0  501    0  0.00000000000E+00  0.00000000000E+00  0.77640622632E+03  0.77640622634E+03  0.50400001928E-02 0.  1.
       -1   -1    0    0    0  501  0.00000000000E+00  0.00000000000E+00 -0.15504325976E+04  0.15504325976E+04  0.50400001928E-02 0. -1.
    10030    2    1    2    0    0  0.00000000000E+00  0.00000000000E+00 -0.77402637125E+03  0.23268388239E+04  0.21943249735E+04 0.  0.
        2    1    3    3  502    0 -0.41889285451E+03  0.66320819764E+03 -0.12004425359E+04  0.14340078867E+04  0.25500000920E-02 0. -1.
       -2    1    3    3    0  502  0.41889285451E+03 -0.66320819764E+03  0.42641616469E+03  0.89283093724E+03  0.25500000920E-02 0.  1.
</event>
<event>
 5   0  0.4132460E-05  0.2198950E+04  0.7818609E-02  0.8518865E-01
        2   -1    0    0  501    0  0.00000000000E+00  0.00000000000E+00  0.12889176183E+04  0.12889176183E+04  0.25500000920E-02 0.  1.
       -2   -1    0    0    0  501  0.00000000000E+00  0.00000000000E+00 -0.93787617946E+03  0.93787617947E+03  0.25500000920E-02 0. -1.
    10030    2    1    2    0    0  0.00000000000E+00  0.00000000000E+00  0.35104143884E+03  0.22267937978E+04  0.21989498689E+04 0.  0.
        4    1    3    3  502    0  0.77405028101E+02 -0.10854186772E+04  0.33473197177E+03  0.11384956517E+04  0.12699999809E+01 0.  1.
       -4    1    3    3    0  502 -0.77405028101E+02  0.10854186772E+04  0.16309467072E+02  0.10882981461E+04  0.12699999809E+01 0. -1.
</event>
<event>
 5   0  0.4143281E-05  0.2195114E+04  0.7818609E-02  0.8520465E-01
        2   -1    0    0  501    0  0.00000000000E+00  0.00000000000E+00  0.10530272226E+04  0.10530272226E+04  0.25500000920E-02 0. -1.
       -2   -1    0    0    0  501  0.00000000000E+00  0.00000000000E+00 -0.11439698377E+04  0.11439698377E+04  0.25500000920E-02 0.  1.
    10030    2    1    2    0    0  0.00000000000E+00  0.00000000000E+00 -0.90942615081E+02  0.21969970604E+04  0.21951140116E+04 0.  0.
        2    1    3    3  502    0  0.10155871025E+04  0.33914310489E+03  0.19597446494E+03  0.10885041108E+04  0.25500000920E-02 0. -1.
       -2    1    3    3    0  502 -0.10155871025E+04 -0.33914310489E+03 -0.28691708002E+03  0.11084929495E+04  0.25500000920E-02 0.  1.
</event>
<event>
 5   0  0.4029532E-05  0.2196909E+04  0.7818609E-02  0.8519716E-01
       -2   -1    0    0    0  501  0.00000000000E+00  0.00000000000E+00  0.70691073329E+03  0.70691073329E+03  0.25500000920E-02 0. -1.
        2   -1    0    0  501    0  0.00000000000E+00  0.00000000000E+00 -0.17068669774E+04  0.17068669774E+04  0.25500000920E-02 0.  1.
    10030    2    1    2    0    0  0.00000000000E+00  0.00000000000E+00 -0.99995624416E+03  0.24137777107E+04  0.21969092714E+04 0.  0.
        3    1    3    3  502    0  0.35100934648E+03 -0.78201203073E+03 -0.12547020907E+04  0.15195485264E+04  0.10100000352E+00 0.  1.
       -3    1    3    3    0  502 -0.35100934648E+03  0.78201203073E+03  0.25474584656E+03  0.89422918431E+03  0.10100000352E+00 0. -1.
</event>
<event>
 5   0  0.1433375E-05  0.2174536E+04  0.7818609E-02  0.8529102E-01
       -4   -1    0    0    0  501  0.00000000000E+00  0.00000000000E+00  0.12325182178E+04  0.12325188721E+04  0.12699999809E+01 0.  1.
        4   -1    0    0  501    0  0.00000000000E+00  0.00000000000E+00 -0.95913350957E+03  0.95913435038E+03  0.12699999809E+01 0. -1.
    10030    2    1    2    0    0  0.00000000000E+00  0.00000000000E+00  0.27338470822E+03  0.21916532225E+04  0.21745355019E+04 0.  0.
        3    1    3    3  502    0 -0.78264501901E+03 -0.36110555042E+03  0.80464663816E+03  0.11791465841E+04  0.10100000352E+00 0.  1.
       -3    1    3    3    0  502  0.78264501901E+03  0.36110555042E+03 -0.53126192995E+03  0.10125066384E+04  0.10100000352E+00 0. -1.
</event>
<event>
 5   0  0.4132460E-05  0.2201052E+04  0.7818609E-02  0.8517990E-01
       -2   -1    0    0    0  501  0.00000000000E+00  0.00000000000E+00  0.10194071782E+04  0.10194071782E+04  0.25500000920E-02 0.  1.
        2   -1    0    0  501    0  0.00000000000E+00  0.00000000000E+00 -0.11881003011E+04  0.11881003011E+04  0.25500000920E-02 0. -1.
    10030    2    1    2    0    0  0.00000000000E+00  0.00000000000E+00 -0.16869312296E+03  0.22075074793E+04  0.22010524532E+04 0.  0.
        4    1    3    3  502    0  0.34476453694E+03 -0.57151570237E+03  0.79324166011E+03  0.10366902759E+04  0.12699999809E+01 0.  1.
       -4    1    3    3    0  502 -0.34476453694E+03  0.57151570237E+03 -0.96193478307E+03  0.11708172034E+04  0.12699999809E+01 0. -1.
</event>
<event>
 5   0  0.4029532E-05  0.2196698E+04  0.7818609E-02  0.8519804E-01
       -2   -1    0    0    0  501  0.00000000000E+00  0.00000000000E+00  0.12605058245E+04  0.12605058245E+04  0.25500000920E-02 0. -1.
        2   -1    0    0  501    0  0.00000000000E+00  0.00000000000E+00 -0.95705249214E+03  0.95705249215E+03  0.25500000920E-02 0.  1.
    10030    2    1    2    0    0  0.00000000000E+00  0.00000000000E+00  0.30345333232E+03  0.22175583166E+04  0.21966977404E+04 0.  0.
        3    1    3    3  502    0  0.96011667602E+03  0.26535137075E+03  0.61886813504E+03  0.11727033556E+04  0.10100000352E+00 0. -1.
       -3    1    3    3    0  502 -0.96011667602E+03 -0.26535137075E+03 -0.31541480272E+03  0.10448549610E+04  0.10100000352E+00 0.  1.
</event>
<event>
 5   0  0.1884407E-05  0.2192913E+04  0.7818609E-02  0.8521384E-01
       -1   -1    0    0    0  501  0.00000000000E+00  0.00000000000E+00  0.73060458568E+03  0.73060458570E+03  0.50400001928E-02 0.  1.
        1   -1    0    0  501    0  0.00000000000E+00  0.00000000000E+00 -0.16455099255E+04  0.16455099255E+04  0.50400001928E-02 0. -1.
    10030    2    1    2    0    0  0.00000000000E+00  0.00000000000E+00 -0.91490533980E+03  0.23761145112E+04  0.21929132198E+04 0.  0.
        3    1    3    3  502    0 -0.47520920030E+03 -0.98808464172E+03 -0.46726719088E+03  0.11918362644E+04  0.10100000352E+00 0. -1.
       -3    1    3    3    0  502  0.47520920030E+03  0.98808464172E+03 -0.44763814892E+03  0.11842782468E+04  0.10100000352E+00 0.  1.
</event>
<event>
 5   0  0.4029532E-05  0.2204588E+04  0.7818609E-02  0.8516521E-01
       -2   -1    0    0    0  501  0.00000000000E+00  0.00000000000E+00  0.10519031067E+04  0.10519031067E+04  0.25500000920E-02 0. -1.
        2   -1    0    0  501    0  0.00000000000E+00  0.00000000000E+00 -0.11550988811E+04  0.11550988811E+04  0.25500000920E-02 0.  1.
    10030    2    1    2    0    0  0.00000000000E+00  0.00000000000E+00 -0.10319577443E+03  0.22070019879E+04  0.22045880356E+04 0.  0.
        3    1    3    3  502    0 -0.64946428246E+03 -0.78281196022E+03  0.37366564325E+03  0.10836163723E+04  0.10100000352E+00 0. -1.
       -3    1    3    3    0  502  0.64946428246E+03  0.78281196022E+03 -0.47686141768E+03  0.11233856155E+04  0.10100000352E+00 0.  1.
</event>
<event>
 5   0  0.1815681E-05  0.2203889E+04  0.7818609E-02  0.8516811E-01
        1   -1    0    0  501    0  0.00000000000E+00  0.00000000000E+00  0.11072831737E+04  0.11072831737E+04  0.50400001928E-02 0.  1.
       -1   -1    0    0    0  501  0.00000000000E+00  0.00000000000E+00 -0.10966312364E+04  0.10966312364E+04  0.50400001928E-02 0. -1.
    10030    2    1    2    0    0  0.00000000000E+00  0.00000000000E+00  0.10651937286E+02  0.22039144101E+04  0.22038886685E+04 0.  0.
        2    1    3    3  502    0  0.75585970971E+03  0.44472263817E+03 -0.66189932287E+03  0.10987323784E+04  0.25500000920E-02 0. -1.
       -2    1    3    3    0  502 -0.75585970971E+03 -0.44472263817E+03  0.67255126015E+03  0.11051820317E+04  0.25500000920E-02 0.  1.
</event>
<event>
 5   0  0.1788413E-05  0.2195375E+04  0.7818609E-02  0.8520356E-01
        1   -1    0    0  501    0  0.00000000000E+00  0.00000000000E+00  0.10551279091E+04  0.10551279091E+04  0.50400001928E-02 0.  1.
       -1   -1    0    0    0  501  0.00000000000E+00  0.00000000000E+00 -0.11419637029E+04  0.11419637029E+04  0.50400001928E-02 0. -1.
    10030    2    1    2    0    0  0.00000000000E+00  0.00000000000E+00 -0.86835793801E+02  0.21970916119E+04  0.21953749329E+04 0.  0.
        1    1    3    3  502    0  0.15212618131E+03  0.73748147924E+03 -0.84272663969E+03  0.11301369371E+04  0.50400001928E-02 0. -1.
       -1    1    3    3    0  502 -0.15212618131E+03 -0.73748147924E+03  0.75589084589E+03  0.10669546749E+04  0.50400001928E-02 0.  1.
</event>
<event>
 5   0  0.4132460E-05  0.2203266E+04  0.7818609E-02  0.8517070E-01
        2   -1    0    0  501    0  0.00000000000E+00  0.00000000000E+00  0.43164226841E+03  0.43164226842E+03  0.25500000920E-02 0.  1.
       -2   -1    0    0    0  501  0.00000000000E+00  0.00000000000E+00 -0.28115756382E+04  0.28115756382E+04  0.25500000920E-02 0. -1.
    10030    2    1    2    0    0  0.00000000000E+00  0.00000000000E+00 -0.23799333698E+04  0.32432179066E+04  0.22032656547E+04 0.  0.
        4    1    3    3  502    0 -0.74487469231E+03 -0.50262922161E+03 -0.25189542880E+03  0.93323489091E+03  0.12699999809E+01 0.  1.
       -4    1    3    3    0  502  0.74487469231E+03  0.50262922161E+03 -0.21280379410E+04  0.23099830157E+04  0.12699999809E+01 0. -1.
</event>
<event>
 5   0  0.4132460E-05  0.2196505E+04  0.7818609E-02  0.8519884E-01
       -2   -1    0    0    0  501  0.00000000000E+00  0.00000000000E+00  0.73585093214E+03  0.73585093215E+03  0.25500000920E-02 0.  1.
        2   -1    0    0  501    0  0.00000000000E+00  0.00000000000E+00 -0.16391338087E+04  0.16391338087E+04  0.25500000920E-02 0. -1.
    10030    2    1    2    0    0  0.00000000000E+00  0.00000000000E+00 -0.90328287660E+03  0.23749847409E+04  0.21965046242E+04 0.  0.
        4    1    3    3  502    0  0.77582944390E+03 -0.77708738763E+03 -0.47272993464E+03  0.11955130020E+04  0.12699999809E+01 0.  1.
       -4    1    3    3    0  502 -0.77582944390E+03  0.77708738763E+03 -0.43055294195E+03  0.11794717389E+04  0.12699999809E+01 0. -1.
</event>
<event>
 5   0  0.4132460E-05  0.2227220E+04  0.7818609E-02  0.8507183E-01
        2   -1    0    0  501    0  0.00000000000E+00  0.00000000000E+00  0.99586765841E+03  0.99586765841E+03  0.25500000920E-02 0.  1.
       -2   -1    0    0    0  501  0.00000000000E+00  0.00000000000E+00 -0.12452729518E+04  0.12452729518E+04  0.25500000920E-02 0. -1.
    10030    2    1    2    0    0  0.00000000000E+00  0.00000000000E+00 -0.24940529342E+03  0.22411406102E+04  0.22272198442E+04 0.  0.
        4    1    3    3  502    0  0.88771823774E+03  0.31111837639E+03  0.47508256954E+03  0.10538232179E+04  0.12699999809E+01 0.  1.
       -4    1    3    3    0  502 -0.88771823774E+03 -0.31111837639E+03 -0.72448786296E+03  0.11873173924E+04  0.12699999809E+01 0. -1.
</event>
<event>
 5   0  0.1433375E-05  0.2209198E+04  0.7818609E-02  0.8514610E-01
       -3   -1    0    0    0  501  0.00000000000E+00  0.00000000000E+00  0.21475942931E+04  0.21475942955E+04  0.10100000352E+00 0. -1.
        3   -1    0    0  501    0  0.00000000000E+00  0.00000000000E+00 -0.56814194390E+03  0.56814195288E+03  0.10100000352E+00 0.  1.
    10030    2    1    2    0    0  0.00000000000E+00  0.00000000000E+00  0.15794523492E+04  0.27157362484E+04  0.22091975120E+04 0.  0.
        5    1    3    3  502    0  0.47635132327E+03 -0.16479428651E+03 -0.41851192766E+03  0.65516567648E+03  0.46999998093E+01 0.  1.
       -5    1    3    3    0  502 -0.47635132327E+03  0.16479428651E+03  0.19979642769E+04  0.20605705719E+04  0.46999998093E+01 0. -1.
</event>
<event>
 5   0  0.1788413E-05  0.2184699E+04  0.7818609E-02  0.8524824E-01
        1   -1    0    0  501    0  0.00000000000E+00  0.00000000000E+00  0.23003135263E+04  0.23003135263E+04  0.50400001928E-02 0. -1.
       -1   -1    0    0    0  501  0.00000000000E+00  0.00000000000E+00 -0.51872404063E+03  0.51872404065E+03  0.50400001928E-02 0.  1.
    10030    2    1    2    0    0  0.00000000000E+00  0.00000000000E+00  0.17815894857E+04  0.28190375670E+04  0.21846994550E+04 0.  0.
        1    1    3    3  502    0  0.40311082187E+03 -0.85408717301E+03  0.18255012671E+03  0.96191880249E+03  0.50400001928E-02 0.  1.
       -1    1    3    3    0  502 -0.40311082187E+03  0.85408717301E+03  0.15990393590E+04  0.18571187645E+04  0.50400001928E-02 0. -1.
</event>
<event>
 5   0  0.4029532E-05  0.2168970E+04  0.7818609E-02  0.8531456E-01
       -2   -1    0    0    0  501  0.00000000000E+00  0.00000000000E+00  0.46606473678E+03  0.46606473679E+03  0.25500000920E-02 0.  1.
        2   -1    0    0  501    0  0.00000000000E+00  0.00000000000E+00 -0.25234850341E+04  0.25234850341E+04  0.25500000920E-02 0. -1.
    10030    2    1    2    0    0  0.00000000000E+00  0.00000000000E+00 -0.20574202974E+04  0.29895497709E+04  0.21689696985E+04 0.  0.
        3    1    3    3  502    0 -0.28631695919E+03 -0.93416241406E+02 -0.24646884872E+04  0.24830210117E+04  0.10100000352E+00 0. -1.
       -3    1    3    3    0  502  0.28631695919E+03  0.93416241406E+02  0.40726818985E+03  0.50652875925E+03  0.10100000352E+00 0.  1.
</event>
<event>
 5   0  0.3963414E-05  0.2201147E+04  0.7818609E-02  0.8517951E-01
       -2   -1    0    0    0  501  0.00000000000E+00  0.00000000000E+00  0.12596585079E+04  0.12596585079E+04  0.25500000920E-02 0. -1.
        2   -1    0    0  501    0  0.00000000000E+00  0.00000000000E+00 -0.96157944971E+03  0.96157944971E+03  0.25500000920E-02 0.  1.
    10030    2    1    2    0    0  0.00000000000E+00  0.00000000000E+00  0.29807905820E+03  0.22212379576E+04  0.22011467328E+04 0.  0.
        1    1    3    3  502    0 -0.99516771663E+03  0.46281193364E+03  0.66389176082E+02  0.10995277136E+04  0.50400001928E-02 0.  1.
       -1    1    3    3    0  502  0.99516771663E+03 -0.46281193364E+03  0.23168988212E+03  0.11217102441E+04  0.50400001928E-02 0. -1.
</event>
<event>
 5   0  0.1433375E-05  0.2012328E+04  0.7818609E-02  0.8600879E-01
        4   -1    0    0  501    0  0.00000000000E+00  0.00000000000E+00  0.73212860531E+03  0.73212970683E+03  0.12699999809E+01 0. -1.
       -4   -1    0    0    0  501  0.00000000000E+00  0.00000000000E+00 -0.13827677951E+04  0.13827683783E+04  0.12699999809E+01 0.  1.
    10030    2    1    2    0    0  0.00000000000E+00  0.00000000000E+00 -0.65063918976E+03  0.21148980851E+04  0.20123276461E+04 0.  0.
        5    1    3    3  502    0 -0.52510776456E+03  0.47717261867E+03 -0.10750617978E+04  0.12881039677E+04  0.46999998093E+01 0.  1.
       -5    1    3    3    0  502  0.52510776456E+03 -0.47717261867E+03  0.42442260805E+03  0.82679411744E+03  0.46999998093E+01 0. -1.
</event>
<event>
 5   0  0.1788413E-05  0.2221854E+04  0.7818609E-02  0.8509387E-01
       -1   -1    0    0    0  501  0.00000000000E+00  0.00000000000E+00  0.64837242306E+03  0.64837242308E+03  0.50400001928E-02 0. -1.
        1   -1    0    0  501    0  0.00000000000E+00  0.00000000000E+00 -0.19034724549E+04  0.19034724549E+04  0.50400001928E-02 0.  1.
    10030    2    1    2    0    0  0.00000000000E+00  0.00000000000E+00 -0.12551000319E+04  0.25518448780E+04  0.22218542237E+04 0.  0.
        1    1    3    3  502    0  0.24664003818E+03 -0.72099449209E+03 -0.15560026192E+04  0.17325728029E+04  0.50400001928E-02 0.  1.
       -1    1    3    3    0  502 -0.24664003818E+03  0.72099449209E+03  0.30090258736E+03  0.81927207517E+03  0.50400001928E-02 0. -1.
</event>
<event>
 5   0  0.1815681E-05  0.2304325E+04  0.7818609E-02  0.8476218E-01
       -1   -1    0    0    0  501  0.00000000000E+00  0.00000000000E+00  0.81431834068E+03  0.81431834070E+03  0.50400001928E-02 0.  1.
        1   -1    0    0  501    0  0.00000000000E+00  0.00000000000E+00 -0.16301716261E+04  0.16301716261E+04  0.50400001928E-02 0. -1.
    10030    2    1    2    0    0  0.00000000000E+00  0.00000000000E+00 -0.81585328544E+03  0.24444899668E+04  0.23043251972E+04 0.  0.
        2    1    3    3  502    0  0.10504166974E+04 -0.22913001495E+03 -0.84737388216E+03  0.13689113551E+04  0.25500000920E-02 0.  1.
       -2    1    3    3    0  502 -0.10504166974E+04  0.22913001495E+03  0.31520596722E+02  0.10755786117E+04  0.25500000920E-02 0. -1.
</event>
<event>
 5   0  0.4029532E-05  0.2200081E+04  0.7818609E-02  0.8518395E-01
        2   -1    0    0  501    0  0.00000000000E+00  0.00000000000E+00  0.18439160458E+04  0.18439160458E+04  0.25500000920E-02 0. -1.
       -2   -1    0    0    0  501  0.00000000000E+00  0.00000000000E+00 -0.65626020683E+03  0.65626020683E+03  0.25500000920E-02 0.  1.
    10030    2    1    2    0    0  0.00000000000E+00  0.00000000000E+00  0.11876558389E+04  0.25001762526E+04  0.22000806581E+04 0.  0.
        3    1    3    3  502    0  0.77848213434E+03  0.69674216873E+03  0.20246214039E+03  0.10641780921E+04  0.10100000352E+00 0.  1.
       -3    1    3    3    0  502 -0.77848213434E+03 -0.69674216873E+03  0.98519369855E+03  0.14359981605E+04  0.10100000352E+00 0. -1.
</event>
<event>
 5   0  0.1815681E-05  0.2202656E+04  0.7818609E-02  0.8517323E-01
       -1   -1    0    0    0  501  0.00000000000E+00  0.00000000000E+00  0.74667134175E+03  0.74667134176E+03  0.50400001928E-02 0. -1.
        1   -1    0    0  501    0  0.00000000000E+00  0.00000000000E+00 -0.16244409367E+04  0.16244409367E+04  0.50400001928E-02 0.  1.
    10030    2    1    2    0    0  0.00000000000E+00  0.00000000000E+00 -0.87776959499E+03  0.23711122785E+04  0.22026561183E+04 0.  0.
        2    1    3    3  502    0  0.32108971283E+03 -0.97086570725E+03  0.13471549655E+01  0.10225852727E+04  0.25500000920E-02 0. -1.
       -2    1    3    3    0  502 -0.32108971283E+03  0.97086570725E+03 -0.87911674995E+03  0.13485270058E+04  0.25500000920E-02 0.  1.
</event>
<event>
 5   0  0.4132460E-05  0.2179951E+04  0.7818609E-02  0.8526820E-01
        2   -1    0    0  501    0  0.00000000000E+00  0.00000000000E+00  0.99945741850E+03  0.99945741851E+03  0.25500000920E-02 0. -1.
       -2   -1    0    0    0  501  0.00000000000E+00  0.00000000000E+00 -0.11886911667E+04  0.11886911667E+04  0.25500000920E-02 0.  1.
    10030    2    1    2    0    0  0.00000000000E+00  0.00000000000E+00 -0.18923374822E+03  0.21881485852E+04  0.21799506461E+04 0.  0.
        4    1    3    3  502    0  0.10736757900E+04 -0.18754233805E+03 -0.84949387714E+02  0.10932382366E+04  0.12699999809E+01 0.  1.
       -4    1    3    3    0  502 -0.10736757900E+04  0.18754233805E+03 -0.10428436050E+03  0.10949103486E+04  0.12699999809E+01 0. -1.
</event>
<event>
 5   0  0.1884407E-05  0.2177698E+04  0.7818609E-02  0.8527768E-01
        1   -1    0    0  501    0  0.00000000000E+00  0.00000000000E+00  0.16341629647E+04  0.16341629647E+04  0.50400001928E-02 0.  1.
       -1   -1    0    0    0  501  0.00000000000E+00  0.00000000000E+00 -0.72550440839E+03  0.72550440840E+03  0.50400001928E-02 0. -1.
    10030    2    1    2    0    0  0.00000000000E+00  0.00000000000E+00  0.90865855631E+03  0.23596673731E+04  0.21776982665E+04 0.  0.
        3    1    3    3  502    0  0.61062917687E+02  0.98958286741E+03  0.94203914445E+03  0.13676405563E+04  0.10100000352E+00 0.  1.
       -3    1    3    3    0  502 -0.61062917687E+02 -0.98958286741E+03 -0.33380588140E+02  0.99202681680E+03  0.10100000352E+00 0. -1.
</event>
<event>
 5   0  0.1788413E-05  0.2204156E+04  0.7818609E-02  0.8516700E-01
        1   -1    0    0  501    0  0.00000000000E+00  0.00000000000E+00  0.23596037777E+04  0.23596037777E+04  0.50400001928E-02 0.  1.
       -1   -1    0    0    0  501  0.00000000000E+00  0.00000000000E+00 -0.51473743301E+03  0.51473743304E+03  0.50400001928E-02 0. -1.
    10030    2    1    2    0    0  0.00000000000E+00  0.00000000000E+00  0.18448663447E+04  0.28743412107E+04  0.22041564296E+04 0.  0.
        1    1    3    3  502    0  0.51517954843E+03 -0.55844531880E+03 -0.11861219646E+03  0.76898634213E+03  0.50400001928E-02 0. -1.
       -1    1    3    3    0  502 -0.51517954843E+03  0.55844531880E+03  0.19634785411E+04  0.21053548686E+04  0.50400001928E-02 0.  1.
</event>
<event>
 5   0  0.4132460E-05  0.2195739E+04  0.7818609E-02  0.8520204E-01
       -2   -1    0    0    0  501  0.00000000000E+00  0.00000000000E+00  0.81597176393E+03  0.81597176393E+03  0.25500000920E-02 0. -1.
        2   -1    0    0  501    0  0.00000000000E+00  0.00000000000E+00 -0.14771552560E+04  0.14771552560E+04  0.25500000920E-02 0.  1.
    10030    2    1    2    0    0  0.00000000000E+00  0.00000000000E+00 -0.66118349205E+03  0.22931270199E+04  0.21957385817E+04 0.  0.
        4    1    3    3  502    0 -0.93250125124E+02  0.36573031230E+03 -0.14072694976E+04  0.14570049070E+04  0.12699999809E+01 0.  1.
       -4    1    3    3    0  502  0.93250125124E+02 -0.36573031230E+03  0.74608600555E+03  0.83612211294E+03  0.12699999809E+01 0. -1.
</event>
<event>
 5   0  0.4027923E-05  0.2167828E+04  0.7818609E-02  0.8531940E-01
        2   -1    0    0  501    0  0.00000000000E+00  0.00000000000E+00  0.19445511056E+04  0.19445511056E+04  0.25500000920E-02 0. -1.
       -2   -1    0    0    0  501  0.00000000000E+00  0.00000000000E+00 -0.60418528694E+03  0.60418528695E+03  0.25500000920E-02 0.  1.
    10030    2    1    2    0    0  0.00000000000E+00  0.00000000000E+00  0.13403658186E+04  0.25487363925E+04  0.21678276386E+04 0.  0.
        5    1    3    3  502    0  0.88027947474E+02  0.68399112714E+03 -0.31296247084E+03  0.75733769198E+03  0.46999998093E+01 0.  1.
       -5    1    3    3    0  502 -0.88027947474E+02 -0.68399112714E+03  0.16533282895E+04  0.17913987005E+04  0.46999998093E+01 0. -1.
</event>
<event>
 5   0  0.1815681E-05  0.2207427E+04  0.7818609E-02  0.8515343E-01
       -1   -1    0    0    0  501  0.00000000000E+00  0.00000000000E+00  0.17221512809E+04  0.17221512809E+04  0.50400001928E-02 0.  1.
        1   -1    0    0  501    0  0.00000000000E+00  0.00000000000E+00 -0.70736175118E+03  0.70736175120E+03  0.50400001928E-02 0. -1.
    10030    2    1    2    0    0  0.00000000000E+00  0.00000000000E+00  0.10147895298E+04  0.24295130321E+04  0.22074274130E+04 0.  0.
        2    1    3    3  502    0  0.54253084121E+03 -0.75439358147E+03  0.11629126570E+04  0.14885614658E+04  0.25500000920E-02 0.  1.
       -2    1    3    3    0  502 -0.54253084121E+03  0.75439358147E+03 -0.14812312729E+03  0.94095156638E+03  0.25500000920E-02 0. -1.
</event>
<event>
 5   0  0.1815681E-05  0.2206630E+04  0.7818609E-02  0.8515674E-01
       -1   -1    0    0    0  501  0.00000000000E+00  0.00000000000E+00  0.19503884902E+04  0.19503884902E+04  0.50400001928E-02 0.  1.
        1   -1    0    0  501    0  0.00000000000E+00  0.00000000000E+00 -0.62413394169E+03  0.62413394171E+03  0.50400001928E-02 0. -1.
    10030    2    1    2    0    0  0.00000000000E+00  0.00000000000E+00  0.13262545485E+04  0.25745224319E+04  0.22066296982E+04 0.  0.
        2    1    3    3  502    0 -0.71244776609E+03 -0.20760977516E+03  0.16157181049E+04  0.17779844298E+04  0.25500000920E-02 0.  1.
       -2    1    3    3    0  502  0.71244776609E+03  0.20760977516E+03 -0.28946355647E+03  0.79653800203E+03  0.25500000920E-02 0. -1.
</event>
<event>
 5   0  0.1788413E-05  0.2201237E+04  0.7818609E-02  0.8517914E-01
       -1   -1    0    0    0  501  0.00000000000E+00  0.00000000000E+00  0.54456094885E+03  0.54456094887E+03  0.50400001928E-02 0.  1.
        1   -1    0    0  501    0  0.00000000000E+00  0.00000000000E+00 -0.22244721621E+04  0.22244721621E+04  0.50400001928E-02 0. -1.
    10030    2    1    2    0    0  0.00000000000E+00  0.00000000000E+00 -0.16799112132E+04  0.27690331109E+04  0.22012366264E+04 0.  0.
        1    1    3    3  502    0  0.50133820040E+02 -0.95282743864E+03 -0.15300698034E+04  0.18031935923E+04  0.50400001928E-02 0. -1.
       -1    1    3    3    0  502 -0.50133820040E+02  0.95282743864E+03 -0.14984140978E+03  0.96583951868E+03  0.50400001928E-02 0.  1.
</event>
<event>
 5   0  0.1786228E-05  0.2218208E+04  0.7818609E-02  0.8510888E-01
        1   -1    0    0  501    0  0.00000000000E+00  0.00000000000E+00  0.16503934589E+04  0.16503934589E+04  0.50400001928E-02 0. -1.
       -1   -1    0    0    0  501  0.00000000000E+00  0.00000000000E+00 -0.74534439905E+03  0.74534439906E+03  0.50400001928E-02 0.  1.
    10030    2    1    2    0    0  0.00000000000E+00  0.00000000000E+00  0.90504905981E+03  0.23957378579E+04  0.22182078539E+04 0.  0.
        5    1    3    3  502    0 -0.10754616151E+04 -0.12852705864E+03  0.19477753648E+03  0.11004986456E+04  0.46999998093E+01 0. -1.
       -5    1    3    3    0  502  0.10754616151E+04  0.12852705864E+03  0.71027152333E+03  0.12952392123E+04  0.46999998093E+01 0.  1.
</event>
<event>
 5   0  0.1884407E-05  0.2349565E+04  0.7818609E-02  0.8458631E-01
       -1   -1    0    0    0  501  0.00000000000E+00  0.00000000000E+00  0.70041773265E+03  0.70041773267E+03  0.50400001928E-02 0. -1.
        1   -1    0    0  501    0  0.00000000000E+00  0.00000000000E+00 -0.19704157711E+04  0.19704157711E+04  0.50400001928E-02 0.  1.
    10030    2    1    2    0    0  0.00000000000E+00  0.00000000000E+00 -0.12699980385E+04  0.26708335038E+04  0.23495651911E+04 0.  0.
        3    1    3    3  502    0  0.46354423143E+02  0.78150246180E+03 -0.16306774003E+04  0.18088680506E+04  0.10100000352E+00 0.  1.
       -3    1    3    3    0  502 -0.46354423143E+02 -0.78150246180E+03  0.36067936181E+03  0.86196545324E+03  0.10100000352E+00 0. -1.
</event>
<event>
 5   0  0.3963414E-05  0.2206695E+04  0.7818609E-02  0.8515646E-01
        2   -1    0    0  501    0  0.00000000000E+00  0.00000000000E+00  0.14991143436E+04  0.14991143436E+04  0.25500000920E-02 0. -1.
       -2   -1    0    0    0  501  0.00000000000E+00  0.00000000000E+00 -0.81206360005E+03  0.81206360005E+03  0.25500000920E-02 0.  1.
    10030    2    1    2    0    0  0.00000000000E+00  0.00000000000E+00  0.68705074354E+03  0.23111779436E+04  0.22066954396E+04 0.  0.
        1    1    3    3  502    0  0.37246742132E+03  0.98543001981E+03  0.68703615915E+03  0.12577054456E+04  0.50400001928E-02 0. -1.
       -1    1    3    3    0  502 -0.37246742132E+03 -0.98543001981E+03  0.14584393220E-01  0.10534724980E+04  0.50400001928E-02 0.  1.
</event>
<event>
 5   0  0.1786228E-05  0.2225963E+04  0.7818609E-02  0.8507699E-01
        1   -1    0    0  501    0  0.00000000000E+00  0.00000000000E+00  0.13957227094E+04  0.13957227094E+04  0.50400001928E-02 0.  1.
       -1   -1    0    0    0  501  0.00000000000E+00  0.00000000000E+00 -0.88751726767E+03  0.88751726768E+03  0.50400001928E-02 0. -1.
    10030    2    1    2    0    0  0.00000000000E+00  0.00000000000E+00  0.50820544169E+03  0.22832399770E+04  0.22259631672E+04 0.  0.
        5    1    3    3  502    0 -0.84162576466E+03 -0.15155599027E+03  0.98475375398E+03  0.13042488995E+04  0.46999998093E+01 0.  1.
       -5    1    3    3    0  502  0.84162576466E+03  0.15155599027E+03 -0.47654831230E+03  0.97899107753E+03  0.46999998093E+01 0. -1.
</event>
<event>
 5   0  0.1788413E-05  0.2184275E+04  0.7818609E-02  0.8525002E-01
        1   -1    0    0  501    0  0.00000000000E+00  0.00000000000E+00  0.15622850080E+04  0.15622850080E+04  0.50400001928E-02 0.  1.
       -1   -1    0    0    0  501  0.00000000000E+00  0.00000000000E+00 -0.76347402332E+03  0.76347402333E+03  0.50400001928E-02 0. -1.
    10030    2    1    2    0    0  0.00000000000E+00  0.00000000000E+00  0.79881098466E+03  0.23257590313E+04  0.21842747269E+04 0.  0.
        1    1    3    3  502    0 -0.30879097296E+03  0.92031509400E+03  0.93225259901E+03  0.13458925089E+04  0.50400001928E-02 0.  1.
       -1    1    3    3    0  502  0.30879097296E+03 -0.92031509400E+03 -0.13344161435E+03  0.97986652238E+03  0.50400001928E-02 0. -1.
</event>
<event>
 5   0  0.1788413E-05  0.2192918E+04  0.7818609E-02  0.8521382E-01
       -1   -1    0    0    0  501  0.00000000000E+00  0.00000000000E+00  0.64306904453E+03  0.64306904455E+03  0.50400001928E-02 0. -1.
        1   -1    0    0  501    0  0.00000000000E+00  0.00000000000E+00 -0.18695071351E+04  0.18695071351E+04  0.50400001928E-02 0.  1.
    10030    2    1    2    0    0  0.00000000000E+00  0.00000000000E+00 -0.12264380906E+04  0.25125761797E+04  0.21929178436E+04 0.  0.
        1    1    3    3  502    0 -0.63147148439E+02 -0.10836845422E+04 -0.79021123411E+03  0.13426814752E+04  0.50400001928E-02 0. -1.
       -1    1    3    3    0  502  0.63147148439E+02  0.10836845422E+04 -0.43622685647E+03  0.11698947045E+04  0.50400001928E-02 0.  1.
</event>
<event>
 5   0  0.1866935E-05  0.2210564E+04  0.7818609E-02  0.8514044E-01
       -1   -1    0    0    0  501  0.00000000000E+00  0.00000000000E+00  0.62436118438E+03  0.62436118440E+03  0.50400001928E-02 0.  1.
        1   -1    0    0  501    0  0.00000000000E+00  0.00000000000E+00 -0.19566367008E+04  0.19566367008E+04  0.50400001928E-02 0. -1.
    10030    2    1    2    0    0  0.00000000000E+00  0.00000000000E+00 -0.13322755164E+04  0.25809978852E+04  0.22105637362E+04 0.  0.
        4    1    3    3  502    0 -0.58851627814E+03 -0.91114954721E+03 -0.41817866314E+03  0.11625058771E+04  0.12699999809E+01 0.  1.
       -4    1    3    3    0  502  0.58851627814E+03  0.91114954721E+03 -0.91409685326E+03  0.14184920081E+04  0.12699999809E+01 0. -1.
</event>
<event>
 5   0  0.1884407E-05  0.2221065E+04  0.7818609E-02  0.8509711E-01
        1   -1    0    0  501    0  0.00000000000E+00  0.00000000000E+00  0.21040313717E+04  0.21040313717E+04  0.50400001928E-02 0.  1.
       -1   -1    0    0    0  501  0.00000000000E+00  0.00000000000E+00 -0.58615231973E+03  0.58615231975E+03  0.50400001928E-02 0. -1.
    10030    2    1    2    0    0  0.00000000000E+00  0.00000000000E+00  0.15178790520E+04  0.26901836915E+04  0.22210653924E+04 0.  0.
        3    1    3    3  502    0  0.43961603375E+03 -0.36265420914E+03  0.19134122062E+04  0.19964785532E+04  0.10100000352E+00 0.  1.
       -3    1    3    3    0  502 -0.43961603375E+03  0.36265420914E+03 -0.39553315420E+03  0.69370513823E+03  0.10100000352E+00 0. -1.
</event>
<event>
 5   0  0.3963414E-05  0.2196518E+04  0.7818609E-02  0.8519879E-01
       -2   -1    0    0    0  501  0.00000000000E+00  0.00000000000E+00  0.49722342210E+03  0.49722342211E+03  0.25500000920E-02 0.  1.
        2   -1    0    0  501    0  0.00000000000E+00  0.00000000000E+00 -0.24258169601E+04  0.24258169601E+04  0.25500000920E-02 0. -1.
    10030    2    1    2    0    0  0.00000000000E+00  0.00000000000E+00 -0.19285935380E+04  0.29230403822E+04  0.21965181632E+04 0.  0.
        1    1    3    3  502    0 -0.25917980633E+03 -0.69462302454E+03 -0.20425396966E+04  0.21729343595E+04  0.50400001928E-02 0. -1.
       -1    1    3    3    0  502  0.25917980633E+03  0.69462302454E+03  0.11394615865E+03  0.75010602272E+03  0.50400001928E-02 0.  1.
</event>
<event>
 5   0  0.4029532E-05  0.2191340E+04  0.7818609E-02  0.8522041E-01
        2   -1    0    0  501    0  0.00000000000E+00  0.00000000000E+00  0.18444010140E+04  0.18444010140E+04  0.25500000920E-02 0. -1.
       -2   -1    0    0    0  501  0.00000000000E+00  0.00000000000E+00 -0.65088505465E+03  0.65088505466E+03  0.25500000920E-02 0.  1.
    10030    2    1    2    0    0  0.00000000000E+00  0.00000000000E+00  0.11935159594E+04  0.24952860687E+04  0.21913402792E+04 0.  0.
        3    1    3    3  502    0  0.60895786057E+01 -0.92366315295E+03  0.12678226515E+04  0.15686188157E+04  0.10100000352E+00 0. -1.
       -3    1    3    3    0  502 -0.60895786057E+01  0.92366315295E+03 -0.74306692118E+02  0.92666725300E+03  0.10100000352E+00 0.  1.
</event>
<event>
 5   0  0.1884407E-05  0.2201530E+04  0.7818609E-02  0.8517792E-01
        1   -1    0    0  501    0  0.00000000000E+00  0.00000000000E+00  0.89096203388E+03  0.89096203390E+03  0.50400001928E-02 0.  1.
       -1   -1    0    0    0  501  0.00000000000E+00  0.00000000000E+00 -0.13599722554E+04  0.13599722554E+04  0.50400001928E-02 0. -1.
    10030    2    1    2    0    0  0.00000000000E+00  0.00000000000E+00 -0.46901022150E+03  0.22509342893E+04  0.22015300559E+04 0.  0.
        3    1    3    3  502    0 -0.28386528440E+03 -0.10309710157E+04 -0.50152254848E+03  0.11811035567E+04  0.10100000352E+00 0. -1.
       -3    1    3    3    0  502  0.28386528440E+03  0.10309710157E+04  0.32512326982E+02  0.10698307326E+04  0.10100000352E+00 0.  1.
</event>
<event>
 5   0  0.4027923E-05  0.2221827E+04  0.7818609E-02  0.8509398E-01
        2   -1    0    0  501    0  0.00000000000E+00  0.00000000000E+00  0.22528591301E+04  0.22528591301E+04  0.25500000920E-02 0.  1.
       -2   -1    0    0    0  501  0.00000000000E+00  0.00000000000E+00 -0.54780545471E+03  0.54780545472E+03  0.25500000920E-02 0. -1.
    10030    2    1    2    0    0  0.00000000000E+00  0.00000000000E+00  0.17050536754E+04  0.28006645848E+04  0.22218267441E+04 0.  0.
        5    1    3    3  502    0  0.11065036207E+04 -0.81216044374E+02  0.92338710881E+03  0.14434722551E+04  0.46999998093E+01 0. -1.
       -5    1    3    3    0  502 -0.11065036207E+04  0.81216044374E+02  0.78166656657E+03  0.13571923297E+04  0.46999998093E+01 0.  1.
</event>
<event>
 5   0  0.1866935E-05  0.2235329E+04  0.7818609E-02  0.8503866E-01
        1   -1    0    0  501    0  0.00000000000E+00  0.00000000000E+00  0.87331648328E+03  0.87331648329E+03  0.50400001928E-02 0. -1.
       -1   -1    0    0    0  501  0.00000000000E+00  0.00000000000E+00 -0.14303789521E+04  0.14303789521E+04  0.50400001928E-02 0.  1.
    10030    2    1    2    0    0  0.00000000000E+00  0.00000000000E+00 -0.55706246884E+03  0.23036954354E+04  0.22353286257E+04 0.  0.
        4    1    3    3  502    0 -0.46224937105E+03 -0.44836599688E+03 -0.12199608090E+04  0.13794972043E+04  0.12699999809E+01 0.  1.
       -4    1    3    3    0  502  0.46224937105E+03  0.44836599688E+03  0.66289834015E+03  0.92419823116E+03  0.12699999809E+01 0. -1.
</event>
<event>
 5   0  0.1815681E-05  0.2133061E+04  0.7818609E-02  0.8546818E-01
       -1   -1    0    0    0  501  0.00000000000E+00  0.00000000000E+00  0.54107075524E+03  0.54107075526E+03  0.50400001928E-02 0. -1.
        1   -1    0    0  501    0  0.00000000000E+00  0.00000000000E+00 -0.21022892355E+04  0.21022892355E+04  0.50400001928E-02 0.  1.
    10030    2    1    2    0    0  0.00000000000E+00  0.00000000000E+00 -0.15612184803E+04  0.26433599908E+04  0.21330609222E+04 0.  0.
        2    1    3    3  502    0  0.39661145148E+03 -0.98817828131E+03 -0.70532885187E+03  0.12772179722E+04  0.25500000920E-02 0.  1.
       -2    1    3    3    0  502 -0.39661145148E+03  0.98817828131E+03 -0.85588962843E+03  0.13661420187E+04  0.25500000920E-02 0. -1.
</event>
<event>
 5   0  0.1788413E-05  0.2193194E+04  0.7818609E-02  0.8521266E-01
        1   -1    0    0  501    0  0.00000000000E+00  0.00000000000E+00  0.19815781935E+04  0.19815781935E+04  0.50400001928E-02 0.  1.
       -1   -1    0    0    0  501  0.00000000000E+00  0.00000000000E+00 -0.60685188567E+03  0.60685188569E+03  0.50400001928E-02 0. -1.
    10030    2    1    2    0    0  0.00000000000E+00  0.00000000000E+00  0.13747263078E+04  0.25884300792E+04  0.21931935285E+04 0.  0.
        1    1    3    3  502    0  0.43743522471E+03  0.42352543676E+03  0.17637520904E+04  0.18658898167E+04  0.50400001928E-02 0.  1.
       -1    1    3    3    0  502 -0.43743522471E+03 -0.42352543676E+03 -0.38902578261E+03  0.72254026252E+03  0.50400001928E-02 0. -1.
</event>
<event>
 5   0  0.1786228E-05  0.2205259E+04  0.7818609E-02  0.8516243E-01
        1   -1    0    0  501    0  0.00000000000E+00  0.00000000000E+00  0.22673255469E+04  0.22673255469E+04  0.50400001928E-02 0. -1.
       -1   -1    0    0    0  501  0.00000000000E+00  0.00000000000E+00 -0.53622265862E+03  0.53622265864E+03  0.50400001928E-02 0.  1.
    10030    2    1    2    0    0  0.00000000000E+00  0.00000000000E+00  0.17311028882E+04  0.28035482055E+04  0.22052585633E+04 0.  0.
        5    1    3    3  502    0 -0.28180225344E+03  0.54495497247E+02 -0.48788422896E+03  0.56607011945E+03  0.46999998093E+01 0.  1.
       -5    1    3    3    0  502  0.28180225344E+03 -0.54495497247E+02  0.22189871172E+04  0.22374780861E+04  0.46999998093E+01 0. -1.
</event>
<event>
 5   0  0.4027923E-05  0.2203849E+04  0.7818609E-02  0.8516828E-01
        2   -1    0    0  501    0  0.00000000000E+00  0.00000000000E+00  0.16132959732E+04  0.16132959732E+04  0.25500000920E-02 0. -1.
       -2   -1    0    0    0  501  0.00000000000E+00  0.00000000000E+00 -0.75264408991E+03  0.75264408991E+03  0.25500000920E-02 0.  1.
    10030    2    1    2    0    0  0.00000000000E+00  0.00000000000E+00  0.86065188330E+03  0.23659400631E+04  0.22038490688E+04 0.  0.
        5    1    3    3  502    0 -0.62381299439E+03  0.17271062313E+03  0.13876789019E+04  0.15312238361E+04  0.46999998093E+01 0. -1.
       -5    1    3    3    0  502  0.62381299439E+03 -0.17271062313E+03 -0.52702701864E+03  0.83471622704E+03  0.46999998093E+01 0.  1.
</event>
<event>
 5   0  0.4132460E-05  0.2196320E+04  0.7818609E-02  0.8519961E-01
       -2   -1    0    0    0  501  0.00000000000E+00  0.00000000000E+00  0.54145683187E+03  0.54145683187E+03  0.25500000920E-02 0. -1.
        2   -1    0    0  501    0  0.00000000000E+00  0.00000000000E+00 -0.22272421315E+04  0.22272421315E+04  0.25500000920E-02 0.  1.
    10030    2    1    2    0    0  0.00000000000E+00  0.00000000000E+00 -0.16857852996E+04  0.27686989633E+04  0.21963200753E+04 0.  0.
        4    1    3    3  502    0 -0.87092889143E+03  0.59807558034E+03 -0.12205333178E+04  0.16142845866E+04  0.12699999809E+01 0.  1.
       -4    1    3    3    0  502  0.87092889143E+03 -0.59807558034E+03 -0.46525198175E+03  0.11544143767E+04  0.12699999809E+01 0. -1.
</event>
<event>
 5   0  0.1786228E-05  0.2154018E+04  0.7818609E-02  0.8537814E-01
       -1   -1    0    0    0  501  0.00000000000E+00  0.00000000000E+00  0.73867119900E+03  0.73867119902E+03  0.50400001928E-02 0.  1.
        1   -1    0    0  501    0  0.00000000000E+00  0.00000000000E+00 -0.15703182773E+04  0.15703182773E+04  0.50400001928E-02 0. -1.
    10030    2    1    2    0    0  0.00000000000E+00  0.00000000000E+00 -0.83164707832E+03  0.23089894763E+04  0.21540184630E+04 0.  0.
        5    1    3    3  502    0  0.61005382443E+02  0.92250331410E+03  0.17636453226E+03  0.94120165717E+03  0.46999998093E+01 0.  1.
       -5    1    3    3    0  502 -0.61005382443E+02 -0.92250331410E+03 -0.10080116106E+04  0.13677878192E+04  0.46999998093E+01 0. -1.
</event>
<event>
 5   0  0.1433375E-05  0.2200549E+04  0.7818609E-02  0.8518200E-01
        3   -1    0    0  501    0  0.00000000000E+00  0.00000000000E+00  0.15418072796E+04  0.15418072829E+04  0.10100000352E+00 0.  1.
       -3   -1    0    0    0  501  0.00000000000E+00  0.00000000000E+00 -0.78518479349E+03  0.78518479998E+03  0.10100000352E+00 0. -1.
    10030    2    1    2    0    0  0.00000000000E+00  0.00000000000E+00  0.75662248607E+03  0.23269920828E+04  0.22005486969E+04 0.  0.
        2    1    3    3  502    0 -0.94456095745E+03 -0.13589797653E+03  0.95744796110E+03  0.13518025968E+04  0.25500000920E-02 0.  1.
       -2    1    3    3    0  502  0.94456095745E+03  0.13589797653E+03 -0.20082547504E+03  0.97518948609E+03  0.25500000920E-02 0. -1.
</event>
<event>
 5   0  0.3963414E-05  0.2131498E+04  0.7818609E-02  0.8547494E-01
       -2   -1    0    0    0  501  0.00000000000E+00  0.00000000000E+00  0.10223393001E+04  0.10223393001E+04  0.25500000920E-02 0. -1.
        2   -1    0    0  501    0  0.00000000000E+00  0.00000000000E+00 -0.11110023610E+04  0.11110023611E+04  0.25500000920E-02 0.  1.
    10030    2    1    2    0    0  0.00000000000E+00  0.00000000000E+00 -0.88663060939E+02  0.21333416612E+04  0.21314984178E+04 0.  0.
        1    1    3    3  502    0  0.59560228968E+03  0.77617177434E+03 -0.46735133638E+03  0.10842518077E+04  0.50400001928E-02 0.  1.
       -1    1    3    3    0  502 -0.59560228968E+03 -0.77617177434E+03  0.37868827544E+03  0.10490898535E+04  0.50400001928E-02 0. -1.
</event>
<event>
 5   0  0.4132460E-05  0.1954905E+04  0.7818609E-02  0.8627999E-01
       -2   -1    0    0    0  501  0.00000000000E+00  0.00000000000E+00  0.90388286422E+03  0.90388286422E+03  0.25500000920E-02 0. -1.
        2   -1    0    0  501    0  0.00000000000E+00  0.00000000000E+00 -0.10570099558E+04  0.10570099558E+04  0.25500000920E-02 0.  1.
    10030    2    1    2    0    0  0.00000000000E+00  0.00000000000E+00 -0.15312709160E+03  0.19608928200E+04  0.19549047919E+04 0.  0.
        4    1    3    3  502    0 -0.15316865642E+03 -0.47841917852E+03  0.76449514184E+03  0.91476772050E+03  0.12699999809E+01 0. -1.
       -4    1    3    3    0  502  0.15316865642E+03  0.47841917852E+03 -0.91762223344E+03  0.10461250995E+04  0.12699999809E+01 0.  1.
</event>
<event>
 5   0  0.4132460E-05  0.2192224E+04  0.7818609E-02  0.8521671E-01
        2   -1    0    0  501    0  0.00000000000E+00  0.00000000000E+00  0.10242323193E+04  0.10242323193E+04  0.25500000920E-02 0.  1.
       -2   -1    0    0    0  501  0.00000000000E+00  0.00000000000E+00 -0.11730364965E+04  0.11730364965E+04  0.25500000920E-02 0. -1.
    10030    2    1    2    0    0  0.00000000000E+00  0.00000000000E+00 -0.14880417718E+03  0.21972688158E+04  0.21922243420E+04 0.  0.
        4    1    3    3  502    0 -0.93563702902E+03  0.21773731156E+03  0.45467057479E+03  0.10628043712E+04  0.12699999809E+01 0.  1.
       -4    1    3    3    0  502  0.93563702902E+03 -0.21773731156E+03 -0.60347475197E+03  0.11344644446E+04  0.12699999809E+01 0. -1.
</event>
<event>
 5   0  0.1866935E-05  0.2187404E+04  0.7818609E-02  0.8523689E-01
        1   -1    0    0  501    0  0.00000000000E+00  0.00000000000E+00  0.89810198665E+03  0.89810198667E+03  0.50400001928E-02 0. -1.
       -1   -1    0    0    0  501  0.00000000000E+00  0.00000000000E+00 -0.13319021398E+04  0.13319021398E+04  0.50400001928E-02 0.  1.
    10030    2    1    2    0    0  0.00000000000E+00  0.00000000000E+00 -0.43380015318E+03  0.22300041265E+04  0.21874039022E+04 0.  0.
        4    1    3    3  502    0  0.11447728325E+03 -0.76752814163E+03  0.56880906944E+03  0.96215896137E+03  0.12699999809E+01 0. -1.
       -4    1    3    3    0  502 -0.11447728325E+03  0.76752814163E+03 -0.10026092226E+04  0.12678451651E+04  0.12699999809E+01 0.  1.
</event>
<event>
 5   0  0.1884407E-05  0.2166809E+04  0.7818609E-02  0.8532371E-01
        1   -1    0    0  501    0  0.00000000000E+00  0.00000000000E+00  0.87263400724E+03  0.87263400726E+03  0.50400001928E-02 0. -1.
       -1   -1    0    0    0  501  0.00000000000E+00  0.00000000000E+00 -0.13450835409E+04  0.13450835409E+04  0.50400001928E-02 0.  1.
    10030    2    1    2    0    0  0.00000000000E+00  0.00000000000E+00 -0.47244953365E+03  0.22177175482E+04  0.21668093044E+04 0.  0.
        3    1    3    3  502    0 -0.26456671485E+03 -0.97640268644E+03  0.16071154717E+03  0.10242977908E+04  0.10100000352E+00 0.  1.
       -3    1    3    3    0  502  0.26456671485E+03  0.97640268644E+03 -0.63316108082E+03  0.11934197573E+04  0.10100000352E+00 0. -1.
</event>
<event>
 5   0  0.1884407E-05  0.2197884E+04  0.7818609E-02  0.8519309E-01
        1   -1    0    0  501    0  0.00000000000E+00  0.00000000000E+00  0.15149704980E+04  0.15149704980E+04  0.50400001928E-02 0.  1.
       -1   -1    0    0    0  501  0.00000000000E+00  0.00000000000E+00 -0.79715991298E+03  0.79715991300E+03  0.50400001928E-02 0. -1.
    10030    2    1    2    0    0  0.00000000000E+00  0.00000000000E+00  0.71781058505E+03  0.23121304110E+04  0.21978842102E+04 0.  0.
        3    1    3    3  502    0 -0.27724009000E+03 -0.86299451815E+03  0.10125330633E+04  0.13589866888E+04  0.10100000352E+00 0.  1.
       -3    1    3    3    0  502  0.27724009000E+03  0.86299451815E+03 -0.29472247824E+03  0.95314372224E+03  0.10100000352E+00 0. -1.
</event>
<event>
 5   0  0.4132460E-05  0.2207149E+04  0.7818609E-02  0.8515458E-01
       -2   -1    0    0    0  501  0.00000000000E+00  0.00000000000E+00  0.10446126244E+04  0.10446126244E+04  0.25500000920E-02 0.  1.
        2   -1    0    0  501    0  0.00000000000E+00  0.00000000000E+00 -0.11658647343E+04  0.11658647343E+04  0.25500000920E-02 0. -1.
    10030    2    1    2    0    0  0.00000000000E+00  0.00000000000E+00 -0.12125210989E+03  0.22104773587E+04  0.22071493106E+04 0.  0.
        4    1    3    3  502    0  0.12880612658E+03 -0.59593864849E+03 -0.98187257307E+03  0.11557721461E+04  0.12699999809E+01 0. -1.
       -4    1    3    3    0  502 -0.12880612658E+03  0.59593864849E+03  0.86062046318E+03  0.10547052126E+04  0.12699999809E+01 0.  1.
</event>
<event>
 5   0  0.1866935E-05  0.2219602E+04  0.7818609E-02  0.8510313E-01
       -1   -1    0    0    0  501  0.00000000000E+00  0.00000000000E+00  0.81975409709E+03  0.81975409711E+03  0.50400001928E-02 0. -1.
        1   -1    0    0  501    0  0.00000000000E+00  0.00000000000E+00 -0.15024734953E+04  0.15024734953E+04  0.50400001928E-02 0.  1.
    10030    2    1    2    0    0  0.00000000000E+00  0.00000000000E+00 -0.68271939823E+03  0.23222275924E+04  0.22196024902E+04 0.  0.
        4    1    3    3  502    0  0.41121726337E+03  0.19637710946E+03 -0.14000725760E+04  0.14723683092E+04  0.12699999809E+01 0.  1.
       -4    1    3    3    0  502 -0.41121726337E+03 -0.19637710946E+03  0.71735317778E+03  0.84985928328E+03  0.12699999809E+01 0. -1.
</event>
<event>
 5   0  0.3963414E-05  0.2185086E+04  0.7818609E-02  0.8524661E-01
       -2   -1    0    0    0  501  0.00000000000E+00  0.00000000000E+00  0.64140360586E+03  0.64140360586E+03  0.25500000920E-02 0. -1.
        2   -1    0    0  501    0  0.00000000000E+00  0.00000000000E+00 -0.18609973985E+04  0.18609973985E+04  0.25500000920E-02 0.  1.
    10030    2    1    2    0    0  0.00000000000E+00  0.00000000000E+00 -0.12195937926E+04  0.25024010043E+04  0.21850862151E+04 0.  0.
        1    1    3    3  502    0  0.78474462310E+03 -0.57640107683E+03 -0.42262741356E+02  0.97460169515E+03  0.50400001928E-02 0. -1.
       -1    1    3    3    0  502 -0.78474462310E+03  0.57640107683E+03 -0.11773310512E+04  0.15277993092E+04  0.50400001928E-02 0.  1.
</event>
<event>
 5   0  0.1786228E-05  0.2168108E+04  0.7818609E-02  0.8531821E-01
        1   -1    0    0  501    0  0.00000000000E+00  0.00000000000E+00  0.14613204439E+04  0.14613204439E+04  0.50400001928E-02 0.  1.
       -1   -1    0    0    0  501  0.00000000000E+00  0.00000000000E+00 -0.80418550936E+03  0.80418550938E+03  0.50400001928E-02 0. -1.
    10030    2    1    2    0    0  0.00000000000E+00  0.00000000000E+00  0.65713493456E+03  0.22655059533E+04  0.21681076777E+04 0.  0.
        5    1    3    3  502    0  0.10391375306E+04  0.14301336063E+03  0.42611479406E+02  0.10498082953E+04  0.46999998093E+01 0. -1.
       -5    1    3    3    0  502 -0.10391375306E+04 -0.14301336063E+03  0.61452345516E+03  0.12156976580E+04  0.46999998093E+01 0.  1.
</event>
<event>
 5   0  0.4029532E-05  0.2190520E+04  0.7818609E-02  0.8522384E-01
        2   -1    0    0  501    0  0.00000000000E+00  0.00000000000E+00  0.20675295116E+04  0.20675295116E+04  0.25500000920E-02 0.  1.
       -2   -1    0    0    0  501  0.00000000000E+00  0.00000000000E+00 -0.58020645128E+03  0.58020645129E+03  0.25500000920E-02 0. -1.
    10030    2    1    2    0    0  0.00000000000E+00  0.00000000000E+00  0.14873230603E+04  0.26477359629E+04  0.21905195373E+04 0.  0.
        3    1    3    3  502    0 -0.44369236472E+03 -0.99741156846E+03  0.85110352166E+03  0.13842217908E+04  0.10100000352E+00 0.  1.
       -3    1    3    3    0  502  0.44369236472E+03  0.99741156846E+03  0.63621953863E+03  0.12635141720E+04  0.10100000352E+00 0. -1.
</event>
<event>
 5   0  0.3963414E-05  0.2199958E+04  0.7818609E-02  0.8518446E-01
       -2   -1    0    0    0  501  0.00000000000E+00  0.00000000000E+00  0.77394506189E+03  0.77394506190E+03  0.25500000920E-02 0.  1.
        2   -1    0    0  501    0  0.00000000000E+00  0.00000000000E+00 -0.15633583381E+04  0.15633583381E+04  0.25500000920E-02 0. -1.
    10030    2    1    2    0    0  0.00000000000E+00  0.00000000000E+00 -0.78941327618E+03  0.23373034000E+04  0.21999576957E+04 0.  0.
        1    1    3    3  502    0  0.21974541493E+03 -0.63600857397E+03 -0.13191794977E+04  0.14808880784E+04  0.50400001928E-02 0. -1.
       -1    1    3    3    0  502 -0.21974541493E+03  0.63600857397E+03  0.52976622152E+03  0.85641532158E+03  0.50400001928E-02 0.  1.
</event>
<event>
 5   0  0.1786228E-05  0.2209732E+04  0.7818609E-02  0.8514388E-01
        1   -1    0    0  501    0  0.00000000000E+00  0.00000000000E+00  0.22427319575E+04  0.22427319575E+04  0.50400001928E-02 0.  1.
       -1   -1    0    0    0  501  0.00000000000E+00  0.00000000000E+00 -0.54430424664E+03  0.54430424666E+03  0.50400001928E-02 0. -1.
    10030    2    1    2    0    0  0.00000000000E+00  0.00000000000E+00  0.16984277109E+04  0.27870362042E+04  0.22097316838E+04 0.  0.
        5    1    3    3  502    0  0.68271768106E+03 -0.65974113465E+03  0.13647098068E+03  0.95917058720E+03  0.46999998093E+01 0.  1.
       -5    1    3    3    0  502 -0.68271768106E+03  0.65974113465E+03  0.15619567302E+04  0.18278656170E+04  0.46999998093E+01 0. -1.
</event>
<event>
 5   0  0.1815681E-05  0.2172171E+04  0.7818609E-02  0.8530101E-01
       -1   -1    0    0    0  501  0.00000000000E+00  0.00000000000E+00  0.73461985038E+03  0.73461985040E+03  0.50400001928E-02 0.  1.
        1   -1    0    0  501    0  0.00000000000E+00  0.00000000000E+00 -0.16057029247E+04  0.16057029247E+04  0.50400001928E-02 0. -1.
    10030    2    1    2    0    0  0.00000000000E+00  0.00000000000E+00 -0.87108307436E+03  0.23403227751E+04  0.21721705664E+04 0.  0.
        2    1    3    3  502    0 -0.45599436826E+03 -0.19534567738E+03 -0.14765080839E+04  0.15576157804E+04  0.25500000920E-02 0. -1.
       -2    1    3    3    0  502  0.45599436826E+03  0.19534567738E+03  0.60542500949E+03  0.78270699478E+03  0.25500000920E-02 0.  1.
</event>
<event>
 5   0  0.4143281E-05  0.2197866E+04  0.7818609E-02  0.8519317E-01
        2   -1    0    0  501    0  0.00000000000E+00  0.00000000000E+00  0.22981392651E+04  0.22981392651E+04  0.25500000920E-02 0. -1.
       -2   -1    0    0    0  501  0.00000000000E+00  0.00000000000E+00 -0.52549179180E+03  0.52549179180E+03  0.25500000920E-02 0.  1.
    10030    2    1    2    0    0  0.00000000000E+00  0.00000000000E+00  0.17726474733E+04  0.28236310569E+04  0.21978656194E+04 0.  0.
        2    1    3    3  502    0  0.83880371772E+03  0.41278662554E+03  0.14421995687E+03  0.94593016182E+03  0.25500000920E-02 0.  1.
       -2    1    3    3    0  502 -0.83880371772E+03 -0.41278662554E+03  0.16284275164E+04  0.18777008950E+04  0.25500000920E-02 0. -1.
</event>
<event>
 5   0  0.4143281E-05  0.2189474E+04  0.7818609E-02  0.8522822E-01
        2   -1    0    0  501    0  0.00000000000E+00  0.00000000000E+00  0.19890509008E+04  0.19890509008E+04  0.25500000920E-02 0. -1.
       -2   -1    0    0    0  501  0.00000000000E+00  0.00000000000E+00 -0.60252312710E+03  0.60252312710E+03  0.25500000920E-02 0.  1.
    10030    2    1    2    0    0  0.00000000000E+00  0.00000000000E+00  0.13865277737E+04  0.25915740279E+04  0.21894740635E+04 0.  0.
        2    1    3    3  502    0  0.18765283486E+03  0.25571308059E+03 -0.54694433340E+03  0.63225854668E+03  0.25500000920E-02 0.  1.
       -2    1    3    3    0  502 -0.18765283486E+03 -0.25571308059E+03  0.19334721071E+04  0.19593154812E+04  0.25500000920E-02 0. -1.
</event>
<event>
 5   0  0.1884407E-05  0.2201699E+04  0.7818609E-02  0.8517721E-01
       -1   -1    0    0    0  501  0.00000000000E+00  0.00000000000E+00  0.70548791505E+03  0.70548791507E+03  0.50400001928E-02 0. -1.
        1   -1    0    0  501    0  0.00000000000E+00  0.00000000000E+00 -0.17177757807E+04  0.17177757808E+04  0.50400001928E-02 0.  1.
    10030    2    1    2    0    0  0.00000000000E+00  0.00000000000E+00 -0.10122878657E+04  0.24232636958E+04  0.22016993928E+04 0.  0.
        3    1    3    3  502    0  0.73288391820E+03  0.65353898259E+03  0.41566862931E+02  0.98283256642E+03  0.10100000352E+00 0.  1.
       -3    1    3    3    0  502 -0.73288391820E+03 -0.65353898259E+03 -0.10538547286E+04  0.14404311294E+04  0.10100000352E+00 0. -1.
</event>
<event>
 5   0  0.1815681E-05  0.2192873E+04  0.7818609E-02  0.8521400E-01
       -1   -1    0    0    0  501  0.00000000000E+00  0.00000000000E+00  0.56158589794E+03  0.56158589796E+03  0.50400001928E-02 0. -1.
        1   -1    0    0  501    0  0.00000000000E+00  0.00000000000E+00 -0.21406756769E+04  0.21406756769E+04  0.50400001928E-02 0.  1.
    10030    2    1    2    0    0  0.00000000000E+00  0.00000000000E+00 -0.15790897790E+04  0.27022615749E+04  0.21928732496E+04 0.  0.
        2    1    3    3  502    0 -0.29246956880E+02  0.36786246602E+03 -0.20618505489E+04  0.20946135358E+04  0.25500000920E-02 0.  1.
       -2    1    3    3    0  502  0.29246956880E+02 -0.36786246602E+03  0.48276076993E+03  0.60764803907E+03  0.25500000920E-02 0. -1.
</event>
<event>
 5   0  0.3963414E-05  0.2189551E+04  0.7818609E-02  0.8522790E-01
        2   -1    0    0  501    0  0.00000000000E+00  0.00000000000E+00  0.20543136334E+04  0.20543136334E+04  0.25500000920E-02 0. -1.
       -2   -1    0    0    0  501  0.00000000000E+00  0.00000000000E+00 -0.58342302119E+03  0.58342302119E+03  0.25500000920E-02 0.  1.
    10030    2    1    2    0    0  0.00000000000E+00  0.00000000000E+00  0.14708906122E+04  0.26377366546E+04  0.21895514303E+04 0.  0.
        1    1    3    3  502    0 -0.80721997601E+03 -0.15992146491E+03 -0.13440198288E+03  0.83381224363E+03  0.50400001928E-02 0.  1.
       -1    1    3    3    0  502  0.80721997601E+03  0.15992146491E+03  0.16052925951E+04  0.18039244110E+04  0.50400001928E-02 0. -1.
</event>
<event>
 5   0  0.1866935E-05  0.2204084E+04  0.7818609E-02  0.8516730E-01
       -1   -1    0    0    0  501  0.00000000000E+00  0.00000000000E+00  0.12548793536E+04  0.12548793536E+04  0.50400001928E-02 0. -1.
        1   -1    0    0  501    0  0.00000000000E+00  0.00000000000E+00 -0.96781904280E+03  0.96781904282E+03  0.50400001928E-02 0.  1.
    10030    2    1    2    0    0  0.00000000000E+00  0.00000000000E+00  0.28706031082E+03  0.22226983964E+04  0.22040836054E+04 0.  0.
        4    1    3    3  502    0 -0.51614807679E+03  0.95933872706E+03 -0.24474857212E+02  0.10896514406E+04  0.12699999809E+01 0.  1.
       -4    1    3    3    0  502  0.51614807679E+03 -0.95933872706E+03  0.31153516803E+03  0.11330469559E+04  0.12699999809E+01 0. -1.
</event>
<event>
 5   0  0.3963414E-05  0.2184891E+04  0.7818609E-02  0.8524743E-01
       -2   -1    0    0    0  501  0.00000000000E+00  0.00000000000E+00  0.62485094731E+03  0.62485094732E+03  0.25500000920E-02 0. -1.
        2   -1    0    0  501    0  0.00000000000E+00  0.00000000000E+00 -0.19099541181E+04  0.19099541181E+04  0.25500000920E-02 0.  1.
    10030    2    1    2    0    0  0.00000000000E+00  0.00000000000E+00 -0.12851031708E+04  0.25348050655E+04  0.21848905145E+04 0.  0.
        1    1    3    3  502    0  0.67883778197E+03  0.63850696306E+03  0.18760246730E+02  0.93212865153E+03  0.50400001928E-02 0. -1.
       -1    1    3    3    0  502 -0.67883778197E+03 -0.63850696306E+03 -0.13038634176E+04  0.16026764139E+04  0.50400001928E-02 0.  1.
</event>
<event>
 5   0  0.1788413E-05  0.2206044E+04  0.7818609E-02  0.8515917E-01
       -1   -1    0    0    0  501  0.00000000000E+00  0.00000000000E+00  0.12981845674E+04  0.12981845674E+04  0.50400001928E-02 0. -1.
        1   -1    0    0  501    0  0.00000000000E+00  0.00000000000E+00 -0.93719900525E+03  0.93719900526E+03  0.50400001928E-02 0.  1.
    10030    2    1    2    0    0  0.00000000000E+00  0.00000000000E+00  0.36098556216E+03  0.22353835727E+04  0.22060437758E+04 0.  0.
        1    1    3    3  502    0  0.59428695052E+03 -0.11980875399E+02 -0.76102395991E+03  0.96564899861E+03  0.50400001928E-02 0.  1.
       -1    1    3    3    0  502 -0.59428695052E+03  0.11980875399E+02  0.11220095221E+04  0.12697345741E+04  0.50400001928E-02 0. -1.
</event>
<event>
 5   0  0.4132460E-05  0.2196267E+04  0.7818609E-02  0.8519984E-01
       -2   -1    0    0    0  501  0.00000000000E+00  0.00000000000E+00  0.82847765788E+03  0.82847765789E+03  0.25500000920E-02 0.  1.
        2   -1    0    0  501    0  0.00000000000E+00  0.00000000000E+00 -0.14555576781E+04  0.14555576781E+04  0.25500000920E-02 0. -1.
    10030    2    1    2    0    0  0.00000000000E+00  0.00000000000E+00 -0.62708002022E+03  0.22840353360E+04  0.21962668472E+04 0.  0.
        4    1    3    3  502    0 -0.79790217847E+03  0.10778419352E+03 -0.10901282519E+04  0.13552293301E+04  0.12699999809E+01 0. -1.
       -4    1    3    3    0  502  0.79790217847E+03 -0.10778419352E+03  0.46304823167E+03  0.92880600586E+03  0.12699999809E+01 0.  1.
</event>
<event>
 5   0  0.1433375E-05  0.2011688E+04  0.7818609E-02  0.8601176E-01
       -3   -1    0    0    0  501  0.00000000000E+00  0.00000000000E+00  0.93656670704E+03  0.93656671248E+03  0.10100000352E+00 0. -1.
        3   -1    0    0  501    0  0.00000000000E+00  0.00000000000E+00 -0.10802456721E+04  0.10802456768E+04  0.10100000352E+00 0.  1.
    10030    2    1    2    0    0  0.00000000000E+00  0.00000000000E+00 -0.14367896505E+03  0.20168123893E+04  0.20116879899E+04 0.  0.
        2    1    3    3  502    0 -0.64418375597E+03  0.37348707827E+03  0.60609071511E+03  0.96011002704E+03  0.25500000920E-02 0. -1.
       -2    1    3    3    0  502  0.64418375597E+03 -0.37348707827E+03 -0.74976968015E+03  0.10567023622E+04  0.25500000920E-02 0.  1.
</event>
<event>
 5   0  0.4029532E-05  0.2206635E+04  0.7818609E-02  0.8515672E-01
       -2   -1    0    0    0  501  0.00000000000E+00  0.00000000000E+00  0.67513640985E+03  0.67513640986E+03  0.25500000920E-02 0.  1.
        2   -1    0    0  501    0  0.00000000000E+00  0.00000000000E+00 -0.18030568351E+04  0.18030568351E+04  0.25500000920E-02 0. -1.
    10030    2    1    2    0    0  0.00000000000E+00  0.00000000000E+00 -0.11279204253E+04  0.24781932450E+04  0.22066348302E+04 0.  0.
        3    1    3    3  502    0 -0.10057464237E+03  0.99344079256E+03 -0.36873795184E+02  0.99919945655E+03  0.10100000352E+00 0. -1.
       -3    1    3    3    0  502  0.10057464237E+03 -0.99344079256E+03 -0.10910466301E+04  0.14789937885E+04  0.10100000352E+00 0.  1.
</event>
<event>
 5   0  0.4143281E-05  0.2193260E+04  0.7818609E-02  0.8521239E-01
        2   -1    0    0  501    0  0.00000000000E+00  0.00000000000E+00  0.92632407090E+03  0.92632407090E+03  0.25500000920E-02 0. -1.
       -2   -1    0    0    0  501  0.00000000000E+00  0.00000000000E+00 -0.12982463261E+04  0.12982463261E+04  0.25500000920E-02 0.  1.
    10030    2    1    2    0    0  0.00000000000E+00  0.00000000000E+00 -0.37192225522E+03  0.22245703970E+04  0.21932595121E+04 0.  0.
        2    1    3    3  502    0  0.18345645847E+03  0.10745096612E+04 -0.64376819076E+02  0.10919577185E+04  0.25500000920E-02 0. -1.
       -2    1    3    3    0  502 -0.18345645847E+03 -0.10745096612E+04 -0.30754543615E+03  0.11326126785E+04  0.25500000920E-02 0.  1.
</event>
<event>
 5   0  0.3963414E-05  0.2195632E+04  0.7818609E-02  0.8520248E-01
        2   -1    0    0  501    0  0.00000000000E+00  0.00000000000E+00  0.12444025418E+04  0.12444025418E+04  0.25500000920E-02 0.  1.
       -2   -1    0    0    0  501  0.00000000000E+00  0.00000000000E+00 -0.96849718618E+03  0.96849718619E+03  0.25500000920E-02 0. -1.
    10030    2    1    2    0    0  0.00000000000E+00  0.00000000000E+00  0.27590535563E+03  0.22128997280E+04  0.21956323556E+04 0.  0.
        1    1    3    3  502    0 -0.48877941819E+03 -0.78117586934E+03 -0.46344712482E+03  0.10314670601E+04  0.50400001928E-02 0. -1.
       -1    1    3    3    0  502  0.48877941819E+03  0.78117586934E+03  0.73935248045E+03  0.11814326679E+04  0.50400001928E-02 0.  1.
</event>
<event>
 5   0  0.1815681E-05  0.2192664E+04  0.7818609E-02  0.8521488E-01
        1   -1    0    0  501    0  0.00000000000E+00  0.00000000000E+00  0.11102639667E+04  0.11102639667E+04  0.50400001928E-02 0. -1.
       -1   -1    0    0    0  501  0.00000000000E+00  0.00000000000E+00 -0.10825751202E+04  0.10825751202E+04  0.50400001928E-02 0.  1.
    10030    2    1    2    0    0  0.00000000000E+00  0.00000000000E+00  0.27688846501E+02  0.21928390868E+04  0.21926642672E+04 0.  0.
        2    1    3    3  502    0 -0.46837422143E+03 -0.96294536426E+03 -0.22134652180E+03  0.10934498016E+04  0.25500000920E-02 0. -1.
       -2    1    3    3    0  502  0.46837422143E+03  0.96294536426E+03  0.24903536831E+03  0.10993892853E+04  0.25500000920E-02 0.  1.
</event>
<event>
 5   0  0.4143281E-05  0.2185039E+04  0.7818609E-02  0.8524681E-01
       -2   -1    0    0    0  501  0.00000000000E+00  0.00000000000E+00  0.93277009314E+03  0.93277009315E+03  0.25500000920E-02 0. -1.
        2   -1    0    0  501    0  0.00000000000E+00  0.00000000000E+00 -0.12796283617E+04  0.12796283618E+04  0.25500000920E-02 0.  1.
    10030    2    1    2    0    0  0.00000000000E+00  0.00000000000E+00 -0.34685826861E+03  0.22123984549E+04  0.21850391907E+04 0.  0.
        2    1    3    3  502    0  0.35836539478E+03  0.35870094171E+03 -0.11532791789E+04  0.12598194260E+04  0.25500000920E-02 0.  1.
       -2    1    3    3    0  502 -0.35836539478E+03 -0.35870094171E+03  0.80642091026E+03  0.95257902888E+03  0.25500000920E-02 0. -1.
</event>
<event>
 5   0  0.1884407E-05  0.2207490E+04  0.7818609E-02  0.8515317E-01
       -1   -1    0    0    0  501  0.00000000000E+00  0.00000000000E+00  0.10227506635E+04  0.10227506635E+04  0.50400001928E-02 0. -1.
        1   -1    0    0  501    0  0.00000000000E+00  0.00000000000E+00 -0.11911531747E+04  0.11911531747E+04  0.50400001928E-02 0.  1.
    10030    2    1    2    0    0  0.00000000000E+00  0.00000000000E+00 -0.16840251122E+03  0.22139038382E+04  0.22074897053E+04 0.  0.
        3    1    3    3  502    0  0.73585735178E+03 -0.14101652089E+03  0.72863564749E+03  0.10451227767E+04  0.10100000352E+00 0. -1.
       -3    1    3    3    0  502 -0.73585735178E+03  0.14101652089E+03 -0.89703815871E+03  0.11687810615E+04  0.10100000352E+00 0.  1.
</event>
<event>
 5   0  0.1866935E-05  0.2206670E+04  0.7818609E-02  0.8515657E-01
        1   -1    0    0  501    0  0.00000000000E+00  0.00000000000E+00  0.11157344314E+04  0.11157344314E+04  0.50400001928E-02 0.  1.
       -1   -1    0    0    0  501  0.00000000000E+00  0.00000000000E+00 -0.10910733105E+04  0.10910733105E+04  0.50400001928E-02 0. -1.
    10030    2    1    2    0    0  0.00000000000E+00  0.00000000000E+00  0.24661120895E+02  0.22068077419E+04  0.22066699433E+04 0.  0.
        4    1    3    3  502    0  0.28862104415E+03 -0.18365793620E+03 -0.10366935230E+04  0.10916810057E+04  0.12699999809E+01 0. -1.
       -4    1    3    3    0  502 -0.28862104415E+03  0.18365793620E+03  0.10613546439E+04  0.11151267362E+04  0.12699999809E+01 0.  1.
</event>
<event>
 5   0  0.1815681E-05  0.2202050E+04  0.7818609E-02  0.8517575E-01
       -1   -1    0    0    0  501  0.00000000000E+00  0.00000000000E+00  0.21141702627E+04  0.21141702627E+04  0.50400001928E-02 0.  1.
        1   -1    0    0  501    0  0.00000000000E+00  0.00000000000E+00 -0.57339589788E+03  0.57339589790E+03  0.50400001928E-02 0. -1.
    10030    2    1    2    0    0  0.00000000000E+00  0.00000000000E+00  0.15407743649E+04  0.26875661606E+04  0.22020504591E+04 0.  0.
        2    1    3    3  502    0  0.12034163216E+03 -0.66835694646E+03  0.18281129877E+04  0.19501744055E+04  0.25500000920E-02 0.  1.
       -2    1    3    3    0  502 -0.12034163216E+03  0.66835694646E+03 -0.28733862283E+03  0.73739175510E+03  0.25500000920E-02 0. -1.
</event>
<event>
 5   0  0.1786228E-05  0.2210549E+04  0.7818609E-02  0.8514050E-01
        1   -1    0    0  501    0  0.00000000000E+00  0.00000000000E+00  0.89208815077E+03  0.89208815079E+03  0.50400001928E-02 0.  1.
       -1   -1    0    0    0  501  0.00000000000E+00  0.00000000000E+00 -0.13694069391E+04  0.13694069391E+04  0.50400001928E-02 0. -1.
    10030    2    1    2    0    0  0.00000000000E+00  0.00000000000E+00 -0.47731878829E+03  0.22614950899E+04  0.22105489852E+04 0.  0.
        5    1    3    3  502    0  0.53477627812E+03  0.21722438729E+03  0.72563346241E+03  0.92722063925E+03  0.46999998093E+01 0.  1.
       -5    1    3    3    0  502 -0.53477627812E+03 -0.21722438729E+03 -0.12029522507E+04  0.13342744506E+04  0.46999998093E+01 0. -1.
</event>
<event>
 5   0  0.3963414E-05  0.2200920E+04  0.7818609E-02  0.8518045E-01
       -2   -1    0    0    0  501  0.00000000000E+00  0.00000000000E+00  0.12045771526E+04  0.12045771526E+04  0.25500000920E-02 0. -1.
        2   -1    0    0  501    0  0.00000000000E+00  0.00000000000E+00 -0.10053423487E+04  0.10053423487E+04  0.25500000920E-02 0.  1.
    10030    2    1    2    0    0  0.00000000000E+00  0.00000000000E+00  0.19923480383E+03  0.22099195013E+04  0.22009201928E+04 0.  0.
        1    1    3    3  502    0 -0.15376821582E+02  0.27883995942E+02  0.12041144720E+04  0.12045354397E+04  0.50400001928E-02 0. -1.
       -1    1    3    3    0  502  0.15376821582E+02 -0.27883995942E+02 -0.10048796681E+04  0.10053840616E+04  0.50400001928E-02 0.  1.
</event>
<event>
 5   0  0.4132460E-05  0.2189835E+04  0.7818609E-02  0.8522671E-01
        2   -1    0    0  501    0  0.00000000000E+00  0.00000000000E+00  0.10860008296E+04  0.10860008296E+04  0.25500000920E-02 0.  1.
       -2   -1    0    0    0  501  0.00000000000E+00  0.00000000000E+00 -0.11039077642E+04  0.11039077642E+04  0.25500000920E-02 0. -1.
    10030    2    1    2    0    0  0.00000000000E+00  0.00000000000E+00 -0.17906934649E+02  0.21899085938E+04  0.21898353799E+04 0.  0.
        4    1    3    3  502    0 -0.15102751030E+03 -0.65259674306E+03  0.85718825215E+03  0.10878718355E+04  0.12699999809E+01 0.  1.
       -4    1    3    3    0  502  0.15102751030E+03  0.65259674306E+03 -0.87509518680E+03  0.11020367584E+04  0.12699999809E+01 0. -1.
</event>
<event>
 5   0  0.4029532E-05  0.2209708E+04  0.7818609E-02  0.8514398E-01
       -2   -1    0    0    0  501  0.00000000000E+00  0.00000000000E+00  0.11324132307E+04  0.11324132307E+04  0.25500000920E-02 0. -1.
        2   -1    0    0  501    0  0.00000000000E+00  0.00000000000E+00 -0.10779653931E+04  0.10779653932E+04  0.25500000920E-02 0.  1.
    10030    2    1    2    0    0  0.00000000000E+00  0.00000000000E+00  0.54447837598E+02  0.22103786239E+04  0.22097079205E+04 0.  0.
        3    1    3    3  502    0  0.29784282833E+03 -0.10320905351E+04 -0.23127479673E+03  0.10988217621E+04  0.10100000352E+00 0. -1.
       -3    1    3    3    0  502 -0.29784282833E+03  0.10320905351E+04  0.28572263433E+03  0.11115568618E+04  0.10100000352E+00 0.  1.
</event>
<event>
 5   0  0.1815681E-05  0.2176324E+04  0.7818609E-02  0.8528348E-01
        1   -1    0    0  501    0  0.00000000000E+00  0.00000000000E+00  0.12772330170E+04  0.12772330170E+04  0.50400001928E-02 0. -1.
       -1   -1    0    0    0  501  0.00000000000E+00  0.00000000000E+00 -0.92707917526E+03  0.92707917528E+03  0.50400001928E-02 0.  1.
    10030    2    1    2    0    0  0.00000000000E+00  0.00000000000E+00  0.35015384172E+03  0.22043121923E+04  0.21763236267E+04 0.  0.
        2    1    3    3  502    0  0.13408645838E+03  0.14294016462E+03  0.12592091401E+04  0.12743699336E+04  0.25500000920E-02 0. -1.
       -2    1    3    3    0  502 -0.13408645838E+03 -0.14294016462E+03 -0.90905529840E+03  0.92994225871E+03  0.25500000920E-02 0.  1.
</event>
<event>
 5   0  0.1433375E-05  0.2203216E+04  0.7818609E-02  0.8517091E-01
        4   -1    0    0  501    0  0.00000000000E+00  0.00000000000E+00  0.58891125382E+03  0.58891262321E+03  0.12699999809E+01 0.  1.
       -4   -1    0    0    0  501  0.00000000000E+00  0.00000000000E+00 -0.20606458061E+04  0.20606461975E+04  0.12699999809E+01 0. -1.
    10030    2    1    2    0    0  0.00000000000E+00  0.00000000000E+00 -0.14717345523E+04  0.26495588207E+04  0.22032156844E+04 0.  0.
        5    1    3    3  502    0 -0.10302409928E+04 -0.38730726477E+03 -0.79116441484E+03  0.13554949804E+04  0.46999998093E+01 0. -1.
       -5    1    3    3    0  502  0.10302409928E+04  0.38730726477E+03 -0.68057013748E+03  0.12940638403E+04  0.46999998093E+01 0.  1.
</event>
<event>
 5   0  0.1433375E-05  0.2199795E+04  0.7818609E-02  0.8518513E-01
        3   -1    0    0  501    0  0.00000000000E+00  0.00000000000E+00  0.15603425505E+04  0.15603425537E+04  0.10100000352E+00 0. -1.
       -3   -1    0    0    0  501  0.00000000000E+00  0.00000000000E+00 -0.77532646027E+03  0.77532646685E+03  0.10100000352E+00 0.  1.
    10030    2    1    2    0    0  0.00000000000E+00  0.00000000000E+00  0.78501609020E+03  0.23356690206E+04  0.21997953341E+04 0.  0.
        4    1    3    3  502    0  0.61707587375E+03  0.39728662982E+03  0.12623495051E+04  0.14601873805E+04  0.12699999809E+01 0. -1.
       -4    1    3    3    0  502 -0.61707587375E+03 -0.39728662982E+03 -0.47733341493E+03  0.87548164007E+03  0.12699999809E+01 0.  1.
</event>
<event>
 5   0  0.1433375E-05  0.2009039E+04  0.7818609E-02  0.8602406E-01
        3   -1    0    0  501    0  0.00000000000E+00  0.00000000000E+00  0.12150956622E+04  0.12150956664E+04  0.10100000352E+00 0.  1.
       -3   -1    0    0    0  501  0.00000000000E+00  0.00000000000E+00 -0.83043645023E+03  0.83043645637E+03  0.10100000352E+00 0. -1.
    10030    2    1    2    0    0  0.00000000000E+00  0.00000000000E+00  0.38465921198E+03  0.20455321228E+04  0.20090393117E+04 0.  0.
        2    1    3    3  502    0 -0.56413419101E+02 -0.38623876258E+03  0.11347213280E+04  0.11999813948E+04  0.25500000920E-02 0.  1.
       -2    1    3    3    0  502  0.56413419101E+02  0.38623876258E+03 -0.75006211607E+03  0.84555072795E+03  0.25500000920E-02 0. -1.
</event>
<event>
 5   0  0.1866935E-05  0.2197292E+04  0.7818609E-02  0.8519556E-01
       -1   -1    0    0    0  501  0.00000000000E+00  0.00000000000E+00  0.65211296563E+03  0.65211296564E+03  0.50400001928E-02 0. -1.
        1   -1    0    0  501    0  0.00000000000E+00  0.00000000000E+00 -0.18509414237E+04  0.18509414237E+04  0.50400001928E-02 0.  1.
    10030    2    1    2    0    0  0.00000000000E+00  0.00000000000E+00 -0.11988284581E+04  0.25030543893E+04  0.21972918796E+04 0.  0.
        4    1    3    3  502    0  0.55885057268E+03  0.62152046184E+03 -0.14116716647E+04  0.16405548296E+04  0.12699999809E+01 0.  1.
       -4    1    3    3    0  502 -0.55885057268E+03 -0.62152046184E+03  0.21284320662E+03  0.86249955976E+03  0.12699999809E+01 0. -1.
</event>
<event>
 5   0  0.1788413E-05  0.2169811E+04  0.7818609E-02  0.8531100E-01
        1   -1    0    0  501    0  0.00000000000E+00  0.00000000000E+00  0.15171903981E+04  0.15171903981E+04  0.50400001928E-02 0.  1.
       -1   -1    0    0    0  501  0.00000000000E+00  0.00000000000E+00 -0.77578917444E+03  0.77578917445E+03  0.50400001928E-02 0. -1.
    10030    2    1    2    0    0  0.00000000000E+00  0.00000000000E+00  0.74140122363E+03  0.22929795725E+04  0.21698109470E+04 0.  0.
        1    1    3    3  502    0  0.53469988378E+03 -0.87597404516E+03  0.74250369726E+03  0.12667068461E+04  0.50400001928E-02 0.  1.
       -1    1    3    3    0  502 -0.53469988378E+03  0.87597404516E+03 -0.11024736328E+01  0.10262727264E+04  0.50400001928E-02 0. -1.
</event>
<event>
 5   0  0.4132460E-05  0.2178153E+04  0.7818609E-02  0.8527577E-01
       -2   -1    0    0    0  501  0.00000000000E+00  0.00000000000E+00  0.12693171413E+04  0.12693171413E+04  0.25500000920E-02 0.  1.
        2   -1    0    0  501    0  0.00000000000E+00  0.00000000000E+00 -0.93442986414E+03  0.93442986414E+03  0.25500000920E-02 0. -1.
    10030    2    1    2    0    0  0.00000000000E+00  0.00000000000E+00  0.33488727713E+03  0.22037470054E+04  0.21781532029E+04 0.  0.
        4    1    3    3  502    0  0.11251009420E+03 -0.12896077847E+03 -0.92073915988E+03  0.93651034010E+03  0.12699999809E+01 0. -1.
       -4    1    3    3    0  502 -0.11251009420E+03  0.12896077847E+03  0.12556264370E+04  0.12672366653E+04  0.12699999809E+01 0.  1.
</event>
<event>
 5   0  0.4027923E-05  0.2197007E+04  0.7818609E-02  0.8519675E-01
        2   -1    0    0  501    0  0.00000000000E+00  0.00000000000E+00  0.10841850307E+04  0.10841850307E+04  0.25500000920E-02 0.  1.
       -2   -1    0    0    0  501  0.00000000000E+00  0.00000000000E+00 -0.11130108950E+04  0.11130108950E+04  0.25500000920E-02 0. -1.
    10030    2    1    2    0    0  0.00000000000E+00  0.00000000000E+00 -0.28825864339E+02  0.21971959257E+04  0.21970068287E+04 0.  0.
        5    1    3    3  502    0  0.50282313060E+03  0.12424906785E+03  0.95439059627E+03  0.10858878541E+04  0.46999998093E+01 0.  1.
       -5    1    3    3    0  502 -0.50282313060E+03 -0.12424906785E+03 -0.98321646061E+03  0.11113080716E+04  0.46999998093E+01 0. -1.
</event>
<event>
 5   0  0.1786228E-05  0.2190055E+04  0.7818609E-02  0.8522579E-01
       -1   -1    0    0    0  501  0.00000000000E+00  0.00000000000E+00  0.83292873307E+03  0.83292873309E+03  0.50400001928E-02 0. -1.
        1   -1    0    0  501    0  0.00000000000E+00  0.00000000000E+00 -0.14396016732E+04  0.14396016732E+04  0.50400001928E-02 0.  1.
    10030    2    1    2    0    0  0.00000000000E+00  0.00000000000E+00 -0.60667294011E+03  0.22725304063E+04  0.21900553398E+04 0.  0.
        5    1    3    3  502    0 -0.60431027292E+02  0.81224183925E+03  0.45612407931E+03  0.93352020879E+03  0.46999998093E+01 0. -1.
       -5    1    3    3    0  502  0.60431027292E+02 -0.81224183925E+03 -0.10627970194E+04  0.13390101975E+04  0.46999998093E+01 0.  1.
</event>
<event>
 5   0  0.3963414E-05  0.2145000E+04  0.7818609E-02  0.8541676E-01
       -2   -1    0    0    0  501  0.00000000000E+00  0.00000000000E+00  0.12450616125E+04  0.12450616125E+04  0.25500000920E-02 0. -1.
        2   -1    0    0  501    0  0.00000000000E+00  0.00000000000E+00 -0.92385475852E+03  0.92385475852E+03  0.25500000920E-02 0.  1.
    10030    2    1    2    0    0  0.00000000000E+00  0.00000000000E+00  0.32120685401E+03  0.21689163711E+04  0.21449998558E+04 0.  0.
        1    1    3    3  502    0  0.10608292861E+04 -0.14192536055E+03  0.23032522348E+03  0.10947836730E+04  0.50400001928E-02 0. -1.
       -1    1    3    3    0  502 -0.10608292861E+04  0.14192536055E+03  0.90881630539E+02  0.10741326980E+04  0.50400001928E-02 0.  1.
</event>
<event>
 5   0  0.4143281E-05  0.2198444E+04  0.7818609E-02  0.8519076E-01
       -2   -1    0    0    0  501  0.00000000000E+00  0.00000000000E+00  0.70743933778E+03  0.70743933778E+03  0.25500000920E-02 0.  1.
        2   -1    0    0  501    0  0.00000000000E+00  0.00000000000E+00 -0.17079756554E+04  0.17079756554E+04  0.25500000920E-02 0. -1.
    10030    2    1    2    0    0  0.00000000000E+00  0.00000000000E+00 -0.10005363176E+04  0.24154149932E+04  0.21984441467E+04 0.  0.
        2    1    3    3  502    0  0.29748483145E+03  0.97346390285E+03 -0.95613962762E+03  0.13965429398E+04  0.25500000920E-02 0. -1.
       -2    1    3    3    0  502 -0.29748483145E+03 -0.97346390285E+03 -0.44396689973E+02  0.10188720534E+04  0.25500000920E-02 0.  1.
</event>
<event>
 5   0  0.4143281E-05  0.2223645E+04  0.7818609E-02  0.8508651E-01
       -2   -1    0    0    0  501  0.00000000000E+00  0.00000000000E+00  0.85970262125E+03  0.85970262126E+03  0.25500000920E-02 0.  1.
        2   -1    0    0  501    0  0.00000000000E+00  0.00000000000E+00 -0.14378797115E+04  0.14378797115E+04  0.25500000920E-02 0. -1.
    10030    2    1    2    0    0  0.00000000000E+00  0.00000000000E+00 -0.57817709021E+03  0.22975823327E+04  0.22236447171E+04 0.  0.
        2    1    3    3  502    0 -0.80261752964E+03 -0.76921463946E+03 -0.27233533162E+03  0.11445752895E+04  0.25500000920E-02 0. -1.
       -2    1    3    3    0  502  0.80261752964E+03  0.76921463946E+03 -0.30584175859E+03  0.11530070432E+04  0.25500000920E-02 0.  1.
</event>
<event>
 5   0  0.1866935E-05  0.2206228E+04  0.7818609E-02  0.8515841E-01
        1   -1    0    0  501    0  0.00000000000E+00  0.00000000000E+00  0.14592610516E+04  0.14592610516E+04  0.50400001928E-02 0. -1.
       -1   -1    0    0    0  501  0.00000000000E+00  0.00000000000E+00 -0.83388780623E+03  0.83388780625E+03  0.50400001928E-02 0.  1.
    10030    2    1    2    0    0  0.00000000000E+00  0.00000000000E+00  0.62537324538E+03  0.22931488579E+04  0.22062275468E+04 0.  0.
        4    1    3    3  502    0  0.68452381368E+03  0.27207903182E+03  0.11661702029E+04  0.13793311445E+04  0.12699999809E+01 0.  1.
       -4    1    3    3    0  502 -0.68452381368E+03 -0.27207903182E+03 -0.54079695756E+03  0.91381771337E+03  0.12699999809E+01 0. -1.
</event>
<event>
 5   0  0.1788413E-05  0.2196377E+04  0.7818609E-02  0.8519938E-01
       -1   -1    0    0    0  501  0.00000000000E+00  0.00000000000E+00  0.12318040269E+04  0.12318040269E+04  0.50400001928E-02 0.  1.
        1   -1    0    0  501    0  0.00000000000E+00  0.00000000000E+00 -0.97906605249E+03  0.97906605250E+03  0.50400001928E-02 0. -1.
    10030    2    1    2    0    0  0.00000000000E+00  0.00000000000E+00  0.25273797440E+03  0.22108700794E+04  0.21963765671E+04 0.  0.
        1    1    3    3  502    0  0.39618342707E+03  0.67273930231E+03 -0.65104732028E+03  0.10165638642E+04  0.50400001928E-02 0. -1.
       -1    1    3    3    0  502 -0.39618342707E+03 -0.67273930231E+03  0.90378529468E+03  0.11943062152E+04  0.50400001928E-02 0.  1.
</event>
<event>
 5   0  0.4027923E-05  0.2199823E+04  0.7818609E-02  0.8518502E-01
        2   -1    0    0  501    0  0.00000000000E+00  0.00000000000E+00  0.95384260048E+03  0.95384260049E+03  0.25500000920E-02 0.  1.
       -2   -1    0    0    0  501  0.00000000000E+00  0.00000000000E+00 -0.12683492268E+04  0.12683492268E+04  0.25500000920E-02 0. -1.
    10030    2    1    2    0    0  0.00000000000E+00  0.00000000000E+00 -0.31450662632E+03  0.22221918273E+04  0.21998231973E+04 0.  0.
        5    1    3    3  502    0  0.10118955204E+04 -0.40767567859E+03 -0.29886231654E+03  0.11311378242E+04  0.46999998093E+01 0.  1.
       -5    1    3    3    0  502 -0.10118955204E+04  0.40767567859E+03 -0.15644309780E+02  0.10910540031E+04  0.46999998093E+01 0. -1.
</event>
<event>
 5   0  0.1786228E-05  0.2199267E+04  0.7818609E-02  0.8518733E-01
        1   -1    0    0  501    0  0.00000000000E+00  0.00000000000E+00  0.77107528854E+03  0.77107528856E+03  0.50400001928E-02 0.  1.
       -1   -1    0    0    0  501  0.00000000000E+00  0.00000000000E+00 -0.15681914649E+04  0.15681914649E+04  0.50400001928E-02 0. -1.
    10030    2    1    2    0    0  0.00000000000E+00  0.00000000000E+00 -0.79711617636E+03  0.23392667535E+04  0.21992668654E+04 0.  0.
        5    1    3    3  502    0  0.57002502447E+03 -0.25854672807E+03 -0.13602107677E+04  0.14973210617E+04  0.46999998093E+01 0. -1.
       -5    1    3    3    0  502 -0.57002502447E+03  0.25854672807E+03  0.56309459136E+03  0.84194569180E+03  0.46999998093E+01 0.  1.
</event>
<event>
 5   0  0.4143281E-05  0.2187524E+04  0.7818609E-02  0.8523639E-01
       -2   -1    0    0    0  501  0.00000000000E+00  0.00000000000E+00  0.76235800259E+03  0.76235800260E+03  0.25500000920E-02 0.  1.
        2   -1    0    0  501    0  0.00000000000E+00  0.00000000000E+00 -0.15692301840E+04  0.15692301840E+04  0.25500000920E-02 0. -1.
    10030    2    1    2    0    0  0.00000000000E+00  0.00000000000E+00 -0.80687218144E+03  0.23315881866E+04  0.21875238867E+04 0.  0.
        2    1    3    3  502    0 -0.10988902360E+03 -0.95202017247E+03  0.15844072690E+03  0.97135033342E+03  0.25500000920E-02 0.  1.
       -2    1    3    3    0  502  0.10988902360E+03  0.95202017247E+03 -0.96531290833E+03  0.13602378532E+04  0.25500000920E-02 0. -1.
</event>
<event>
 5   0  0.4132460E-05  0.2189607E+04  0.7818609E-02  0.8522767E-01
       -2   -1    0    0    0  501  0.00000000000E+00  0.00000000000E+00  0.63074063703E+03  0.63074063703E+03  0.25500000920E-02 0.  1.
        2   -1    0    0  501    0  0.00000000000E+00  0.00000000000E+00 -0.19002965814E+04  0.19002965814E+04  0.25500000920E-02 0. -1.
    10030    2    1    2    0    0  0.00000000000E+00  0.00000000000E+00 -0.12695559444E+04  0.25310372184E+04  0.21896066097E+04 0.  0.
        4    1    3    3  502    0 -0.23091693785E+03  0.97211543743E+03 -0.11749130478E+03  0.10060501357E+04  0.12699999809E+01 0.  1.
       -4    1    3    3    0  502  0.23091693785E+03 -0.97211543743E+03 -0.11520646396E+04  0.15249870828E+04  0.12699999809E+01 0. -1.
</event>
<event>
 5   0  0.1866935E-05  0.2206298E+04  0.7818609E-02  0.8515811E-01
       -1   -1    0    0    0  501  0.00000000000E+00  0.00000000000E+00  0.19480972140E+04  0.19480972140E+04  0.50400001928E-02 0. -1.
        1   -1    0    0  501    0  0.00000000000E+00  0.00000000000E+00 -0.62467994634E+03  0.62467994636E+03  0.50400001928E-02 0.  1.
    10030    2    1    2    0    0  0.00000000000E+00  0.00000000000E+00  0.13234172677E+04  0.25727771604E+04  0.22062975893E+04 0.  0.
        4    1    3    3  502    0 -0.40739806013E+03  0.99272319116E+03  0.96006580882E+03  0.14398612724E+04  0.12699999809E+01 0. -1.
       -4    1    3    3    0  502  0.40739806013E+03 -0.99272319116E+03  0.36335145888E+03  0.11329158880E+04  0.12699999809E+01 0.  1.
</event>
<event>
 5   0  0.4027923E-05  0.2169401E+04  0.7818609E-02  0.8531273E-01
        2   -1    0    0  501    0  0.00000000000E+00  0.00000000000E+00  0.17053918121E+04  0.17053918121E+04  0.25500000920E-02 0. -1.
       -2   -1    0    0    0  501  0.00000000000E+00  0.00000000000E+00 -0.68991487232E+03  0.68991487232E+03  0.25500000920E-02 0.  1.
    10030    2    1    2    0    0  0.00000000000E+00  0.00000000000E+00  0.10154769398E+04  0.23953066845E+04  0.21694009997E+04 0.  0.
        5    1    3    3  502    0  0.73468716900E+03 -0.79087665175E+03  0.62511962007E+03  0.12474164277E+04  0.46999998093E+01 0. -1.
       -5    1    3    3    0  502 -0.73468716900E+03  0.79087665175E+03  0.39035731975E+03  0.11478902568E+04  0.46999998093E+01 0.  1.
</event>
<event>
 5   0  0.4029532E-05  0.2199202E+04  0.7818609E-02  0.8518760E-01
        2   -1    0    0  501    0  0.00000000000E+00  0.00000000000E+00  0.10266115346E+04  0.10266115346E+04  0.25500000920E-02 0. -1.
       -2   -1    0    0    0  501  0.00000000000E+00  0.00000000000E+00 -0.11777801790E+04  0.11777801790E+04  0.25500000920E-02 0.  1.
    10030    2    1    2    0    0  0.00000000000E+00  0.00000000000E+00 -0.15116864440E+03  0.22043917136E+04  0.21992023254E+04 0.  0.
        3    1    3    3  502    0  0.85660510620E+02 -0.41325964433E+03 -0.10933627037E+04  0.11719911556E+04  0.10100000352E+00 0.  1.
       -3    1    3    3    0  502 -0.85660510620E+02  0.41325964433E+03  0.94219405929E+03  0.10324005581E+04  0.10100000352E+00 0. -1.
</event>
<event>
 5   0  0.4132460E-05  0.2194765E+04  0.7818609E-02  0.8520610E-01
       -2   -1    0    0    0  501  0.00000000000E+00  0.00000000000E+00  0.47503449891E+03  0.47503449892E+03  0.25500000920E-02 0.  1.
        2   -1    0    0  501    0  0.00000000000E+00  0.00000000000E+00 -0.25350750640E+04  0.25350750640E+04  0.25500000920E-02 0. -1.
    10030    2    1    2    0    0  0.00000000000E+00  0.00000000000E+00 -0.20600405651E+04  0.30101095629E+04  0.21947647826E+04 0.  0.
        4    1    3    3  502    0 -0.26292355387E+03  0.96535093961E+03 -0.41175837735E+03  0.10819324406E+04  0.12699999809E+01 0. -1.
       -4    1    3    3    0  502  0.26292355387E+03 -0.96535093961E+03 -0.16482821877E+04  0.19281771223E+04  0.12699999809E+01 0.  1.
</event>
<event>
 5   0  0.1815681E-05  0.2205847E+04  0.7818609E-02  0.8515999E-01
       -1   -1    0    0    0  501  0.00000000000E+00  0.00000000000E+00  0.82548772798E+03  0.82548772799E+03  0.50400001928E-02 0.  1.
        1   -1    0    0  501    0  0.00000000000E+00  0.00000000000E+00 -0.14736013568E+04  0.14736013569E+04  0.50400001928E-02 0. -1.
    10030    2    1    2    0    0  0.00000000000E+00  0.00000000000E+00 -0.64811362887E+03  0.22990890848E+04  0.22058466275E+04 0.  0.
        2    1    3    3  502    0 -0.33850927818E+03  0.84499835929E+02  0.76645467170E+03  0.84212915723E+03  0.25500000920E-02 0.  1.
       -2    1    3    3    0  502  0.33850927818E+03 -0.84499835929E+02 -0.14145683006E+04  0.14569599276E+04  0.25500000920E-02 0. -1.
</event>
<event>
 5   0  0.4029532E-05  0.2205202E+04  0.7818609E-02  0.8516266E-01
        2   -1    0    0  501    0  0.00000000000E+00  0.00000000000E+00  0.13271006374E+04  0.13271006374E+04  0.25500000920E-02 0.  1.
       -2   -1    0    0    0  501  0.00000000000E+00  0.00000000000E+00 -0.91607927229E+03  0.91607927229E+03  0.25500000920E-02 0. -1.
    10030    2    1    2    0    0  0.00000000000E+00  0.00000000000E+00  0.41102136515E+03  0.22431799097E+04  0.22052023818E+04 0.  0.
        3    1    3    3  502    0  0.47979392218E+03  0.20242196078E+03 -0.78310776217E+03  0.94044385018E+03  0.10100000352E+00 0. -1.
       -3    1    3    3    0  502 -0.47979392218E+03 -0.20242196078E+03  0.11941291273E+04  0.13027360596E+04  0.10100000352E+00 0.  1.
</event>
<event>
 5   0  0.1884407E-05  0.2212226E+04  0.7818609E-02  0.8513356E-01
        1   -1    0    0  501    0  0.00000000000E+00  0.00000000000E+00  0.79380052512E+03  0.79380052514E+03  0.50400001928E-02 0.  1.
       -1   -1    0    0    0  501  0.00000000000E+00  0.00000000000E+00 -0.15413018531E+04  0.15413018532E+04  0.50400001928E-02 0. -1.
    10030    2    1    2    0    0  0.00000000000E+00  0.00000000000E+00 -0.74750132803E+03  0.23351023783E+04  0.22122262275E+04 0.  0.
        3    1    3    3  502    0  0.28527604330E+03 -0.88429404107E+03  0.25968824488E+03  0.96477788464E+03  0.10100000352E+00 0.  1.
       -3    1    3    3    0  502 -0.28527604330E+03  0.88429404107E+03 -0.10071895729E+04  0.13703244937E+04  0.10100000352E+00 0. -1.
</event>
<event>
 5   0  0.4132460E-05  0.2195491E+04  0.7818609E-02  0.8520307E-01
        2   -1    0    0  501    0  0.00000000000E+00  0.00000000000E+00  0.17454613101E+04  0.17454613101E+04  0.25500000920E-02 0.  1.
       -2   -1    0    0    0  501  0.00000000000E+00  0.00000000000E+00 -0.69038792451E+03  0.69038792451E+03  0.25500000920E-02 0. -1.
    10030    2    1    2    0    0  0.00000000000E+00  0.00000000000E+00  0.10550733856E+04  0.24358492346E+04  0.21954912081E+04 0.  0.
        4    1    3    3  502    0 -0.82710072509E+03 -0.65100260227E+03  0.87333769496E+03  0.13677062331E+04  0.12699999809E+01 0. -1.
       -4    1    3    3    0  502  0.82710072509E+03  0.65100260227E+03  0.18173569062E+03  0.10681430015E+04  0.12699999809E+01 0.  1.
</event>
<event>
 5   0  0.1788413E-05  0.2180114E+04  0.7818609E-02  0.8526751E-01
       -1   -1    0    0    0  501  0.00000000000E+00  0.00000000000E+00  0.75191953413E+03  0.75191953414E+03  0.50400001928E-02 0.  1.
        1   -1    0    0  501    0  0.00000000000E+00  0.00000000000E+00 -0.15802549669E+04  0.15802549669E+04  0.50400001928E-02 0. -1.
    10030    2    1    2    0    0  0.00000000000E+00  0.00000000000E+00 -0.82833543274E+03  0.23321745010E+04  0.21801142892E+04 0.  0.
        1    1    3    3  502    0 -0.46600591814E+03  0.34386795236E+03 -0.14020607738E+04  0.15169644352E+04  0.50400001928E-02 0. -1.
       -1    1    3    3    0  502  0.46600591814E+03 -0.34386795236E+03  0.57372534102E+03  0.81521006579E+03  0.50400001928E-02 0.  1.
</event>
<event>
 5   0  0.4027923E-05  0.2196269E+04  0.7818609E-02  0.8519983E-01
       -2   -1    0    0    0  501  0.00000000000E+00  0.00000000000E+00  0.10111860531E+04  0.10111860531E+04  0.25500000920E-02 0.  1.
        2   -1    0    0  501    0  0.00000000000E+00  0.00000000000E+00 -0.11925592072E+04  0.11925592072E+04  0.25500000920E-02 0. -1.
    10030    2    1    2    0    0  0.00000000000E+00  0.00000000000E+00 -0.18137315418E+03  0.22037452603E+04  0.21962688704E+04 0.  0.
        5    1    3    3  502    0  0.96244758969E+03  0.39277199345E+03 -0.44587172158E+03  0.11311051604E+04  0.46999998093E+01 0. -1.
       -5    1    3    3    0  502 -0.96244758969E+03 -0.39277199345E+03  0.26449856741E+03  0.10726400999E+04  0.46999998093E+01 0.  1.
</event>
<event>
 5   0  0.1786228E-05  0.2193990E+04  0.7818609E-02  0.8520934E-01
        1   -1    0    0  501    0  0.00000000000E+00  0.00000000000E+00  0.19706841047E+04  0.19706841048E+04  0.50400001928E-02 0. -1.
       -1   -1    0    0    0  501  0.00000000000E+00  0.00000000000E+00 -0.61064979044E+03  0.61064979047E+03  0.50400001928E-02 0.  1.
    10030    2    1    2    0    0  0.00000000000E+00  0.00000000000E+00  0.13600343143E+04  0.25813338952E+04  0.21939898228E+04 0.  0.
        5    1    3    3  502    0 -0.10733996408E+04 -0.14971983241E+03  0.48044423840E+03  0.11855174285E+04  0.46999998093E+01 0.  1.
       -5    1    3    3    0  502  0.10733996408E+04  0.14971983241E+03  0.87959007590E+03  0.13958164667E+04  0.46999998093E+01 0. -1.
</event>
<event>
 5   0  0.1786228E-05  0.2248873E+04  0.7818609E-02  0.8498357E-01
        1   -1    0    0  501    0  0.00000000000E+00  0.00000000000E+00  0.15932124456E+04  0.15932124456E+04  0.50400001928E-02 0. -1.
       -1   -1    0    0    0  501  0.00000000000E+00  0.00000000000E+00 -0.79359003860E+03  0.79359003861E+03  0.50400001928E-02 0.  1.
    10030    2    1    2    0    0  0.00000000000E+00  0.00000000000E+00  0.79962240697E+03  0.23868024842E+04  0.22488730744E+04 0.  0.
        5    1    3    3  502    0 -0.56286085016E+03 -0.84631097534E+03 -0.11060136209E+03  0.10224037143E+04  0.46999998093E+01 0.  1.
       -5    1    3    3    0  502  0.56286085016E+03  0.84631097534E+03  0.91022376907E+03  0.13643987699E+04  0.46999998093E+01 0. -1.
</event>
<event>
 5   0  0.4027923E-05  0.2226693E+04  0.7818609E-02  0.8507399E-01
       -2   -1    0    0    0  501  0.00000000000E+00  0.00000000000E+00  0.10721172650E+04  0.10721172650E+04  0.25500000920E-02 0.  1.
        2   -1    0    0  501    0  0.00000000000E+00  0.00000000000E+00 -0.11561616071E+04  0.11561616071E+04  0.25500000920E-02 0. -1.
    10030    2    1    2    0    0  0.00000000000E+00  0.00000000000E+00 -0.84044342054E+02  0.22282788721E+04  0.22266933512E+04 0.  0.
        5    1    3    3  502    0 -0.85450752927E+03  0.11136114736E+03 -0.74745979772E+03  0.11407465371E+04  0.46999998093E+01 0. -1.
       -5    1    3    3    0  502  0.85450752927E+03 -0.11136114736E+03  0.66341545567E+03  0.10875323349E+04  0.46999998093E+01 0.  1.
</event>
<event>
 5   0  0.1866935E-05  0.2195144E+04  0.7818609E-02  0.8520452E-01
        1   -1    0    0  501    0  0.00000000000E+00  0.00000000000E+00  0.11709092850E+04  0.11709092850E+04  0.50400001928E-02 0.  1.
       -1   -1    0    0    0  501  0.00000000000E+00  0.00000000000E+00 -0.10288278131E+04  0.10288278131E+04  0.50400001928E-02 0. -1.
    10030    2    1    2    0    0  0.00000000000E+00  0.00000000000E+00  0.14208147195E+03  0.21997370981E+04  0.21951437666E+04 0.  0.
        4    1    3    3  502    0 -0.59716072297E+03  0.88564457292E+03 -0.18186642168E+03  0.10835332237E+04  0.12699999809E+01 0. -1.
       -4    1    3    3    0  502  0.59716072297E+03 -0.88564457292E+03  0.32394789363E+03  0.11162038744E+04  0.12699999809E+01 0.  1.
</event>
<event>
 5   0  0.1866935E-05  0.2181079E+04  0.7818609E-02  0.8526345E-01
       -1   -1    0    0    0  501  0.00000000000E+00  0.00000000000E+00  0.13192499262E+04  0.13192499262E+04  0.50400001928E-02 0.  1.
        1   -1    0    0  501    0  0.00000000000E+00  0.00000000000E+00 -0.90147906052E+03  0.90147906053E+03  0.50400001928E-02 0. -1.
    10030    2    1    2    0    0  0.00000000000E+00  0.00000000000E+00  0.41777086564E+03  0.22207289867E+04  0.21810788010E+04 0.  0.
        4    1    3    3  502    0 -0.58824783550E+03  0.87085795263E+02  0.11396455032E+04  0.12854621494E+04  0.12699999809E+01 0.  1.
       -4    1    3    3    0  502  0.58824783550E+03 -0.87085795263E+02 -0.72187463755E+03  0.93526683730E+03  0.12699999809E+01 0. -1.
</event>
<event>
 5   0  0.1786228E-05  0.2197787E+04  0.7818609E-02  0.8519350E-01
       -1   -1    0    0    0  501  0.00000000000E+00  0.00000000000E+00  0.10536310531E+04  0.10536310532E+04  0.50400001928E-02 0.  1.
        1   -1    0    0  501    0  0.00000000000E+00  0.00000000000E+00 -0.11461001352E+04  0.11461001352E+04  0.50400001928E-02 0. -1.
    10030    2    1    2    0    0  0.00000000000E+00  0.00000000000E+00 -0.92469082051E+02  0.21997311884E+04  0.21977867890E+04 0.  0.
        5    1    3    3  502    0 -0.94366278927E+02  0.36274870652E+03 -0.10801309959E+04  0.11433270210E+04  0.46999998093E+01 0. -1.
       -5    1    3    3    0  502  0.94366278927E+02 -0.36274870652E+03  0.98766191386E+03  0.10564041673E+04  0.46999998093E+01 0.  1.
</event>
<event>
 5   0  0.1866935E-05  0.2202332E+04  0.7818609E-02  0.8517458E-01
        1   -1    0    0  501    0  0.00000000000E+00  0.00000000000E+00  0.28381556128E+04  0.28381556128E+04  0.50400001928E-02 0. -1.
       -1   -1    0    0    0  501  0.00000000000E+00  0.00000000000E+00 -0.42723749271E+03  0.42723749274E+03  0.50400001928E-02 0.  1.
    10030    2    1    2    0    0  0.00000000000E+00  0.00000000000E+00  0.24109181201E+04  0.32653931056E+04  0.22023319350E+04 0.  0.
        4    1    3    3  502    0 -0.84379193289E+03 -0.24644246154E+03  0.21887976857E+04  0.23587190665E+04  0.12699999809E+01 0. -1.
       -4    1    3    3    0  502  0.84379193289E+03  0.24644246154E+03  0.22212043444E+03  0.90667403909E+03  0.12699999809E+01 0.  1.
</event>
<event>
 5   0  0.1866935E-05  0.2213393E+04  0.7818609E-02  0.8512874E-01
       -1   -1    0    0    0  501  0.00000000000E+00  0.00000000000E+00  0.39449776211E+03  0.39449776215E+03  0.50400001928E-02 0. -1.
        1   -1    0    0  501    0  0.00000000000E+00  0.00000000000E+00 -0.31046494757E+04  0.31046494757E+04  0.50400001928E-02 0.  1.
    10030    2    1    2    0    0  0.00000000000E+00  0.00000000000E+00 -0.27101517136E+04  0.34991472378E+04  0.22133931150E+04 0.  0.
        4    1    3    3  502    0 -0.10463576144E+04  0.36030734420E+03 -0.13400766523E+04  0.17379564685E+04  0.12699999809E+01 0. -1.
       -4    1    3    3    0  502  0.10463576144E+04 -0.36030734420E+03 -0.13700750613E+04  0.17611907693E+04  0.12699999809E+01 0.  1.
</event>
<event>
 5   0  0.1866935E-05  0.2195598E+04  0.7818609E-02  0.8520263E-01
        1   -1    0    0  501    0  0.00000000000E+00  0.00000000000E+00  0.78487512892E+03  0.78487512893E+03  0.50400001928E-02 0. -1.
       -1   -1    0    0    0  501  0.00000000000E+00  0.00000000000E+00 -0.15354826039E+04  0.15354826039E+04  0.50400001928E-02 0.  1.
    10030    2    1    2    0    0  0.00000000000E+00  0.00000000000E+00 -0.75060747494E+03  0.23203577328E+04  0.21955975102E+04 0.  0.
        4    1    3    3  502    0  0.71779212256E+03 -0.10060852046E+03 -0.12466623200E+04  0.14420527586E+04  0.12699999809E+01 0.  1.
       -4    1    3    3    0  502 -0.71779212256E+03  0.10060852046E+03  0.49605484502E+03  0.87830497423E+03  0.12699999809E+01 0. -1.
</event>
<event>
 5   0  0.1788413E-05  0.2182659E+04  0.7818609E-02  0.8525681E-01
        1   -1    0    0  501    0  0.00000000000E+00  0.00000000000E+00  0.70166330591E+03  0.70166330593E+03  0.50400001928E-02 0.  1.
       -1   -1    0    0    0  501  0.00000000000E+00  0.00000000000E+00 -0.16973954694E+04  0.16973954695E+04  0.50400001928E-02 0. -1.
    10030    2    1    2    0    0  0.00000000000E+00  0.00000000000E+00 -0.99573216353E+03  0.23990587754E+04  0.21826590357E+04 0.  0.
        1    1    3    3  502    0  0.14487782341E+03  0.22892439479E+03 -0.16598469943E+04  0.16818109307E+04  0.50400001928E-02 0. -1.
       -1    1    3    3    0  502 -0.14487782341E+03 -0.22892439479E+03  0.66411483074E+03  0.71724784467E+03  0.50400001928E-02 0.  1.
</event>
<event>
 5   0  0.4143281E-05  0.2215802E+04  0.7818609E-02  0.8511880E-01
       -2   -1    0    0    0  501  0.00000000000E+00  0.00000000000E+00  0.11877952927E+04  0.11877952927E+04  0.25500000920E-02 0.  1.
        2   -1    0    0  501    0  0.00000000000E+00  0.00000000000E+00 -0.10333806265E+04  0.10333806265E+04  0.25500000920E-02 0. -1.
    10030    2    1    2    0    0  0.00000000000E+00  0.00000000000E+00  0.15441466624E+03  0.22211759193E+04  0.22158020162E+04 0.  0.
        2    1    3    3  502    0 -0.64193893013E+03  0.89199382150E+03  0.21792611977E+03  0.11203706357E+04  0.25500000920E-02 0.  1.
       -2    1    3    3    0  502  0.64193893013E+03 -0.89199382150E+03 -0.63511453538E+02  0.11008052836E+04  0.25500000920E-02 0. -1.
</event>
<event>
 5   0  0.1788413E-05  0.1986126E+04  0.7818609E-02  0.8613135E-01
       -1   -1    0    0    0  501  0.00000000000E+00  0.00000000000E+00  0.77492171281E+03  0.77492171282E+03  0.50400001928E-02 0. -1.
        1   -1    0    0  501    0  0.00000000000E+00  0.00000000000E+00 -0.12726114086E+04  0.12726114086E+04  0.50400001928E-02 0.  1.
    10030    2    1    2    0    0  0.00000000000E+00  0.00000000000E+00 -0.49768969576E+03  0.20475331214E+04  0.19861260912E+04 0.  0.
        1    1    3    3  502    0 -0.26209526101E+03  0.76853031036E+03  0.34053147177E+03  0.88050806190E+03  0.50400001928E-02 0. -1.
       -1    1    3    3    0  502  0.26209526101E+03 -0.76853031036E+03 -0.83822116752E+03  0.11670250595E+04  0.50400001928E-02 0.  1.
</event>
<event>
 5   0  0.1866935E-05  0.2204642E+04  0.7818609E-02  0.8516498E-01
       -1   -1    0    0    0  501  0.00000000000E+00  0.00000000000E+00  0.93140010364E+03  0.93140010366E+03  0.50400001928E-02 0. -1.
        1   -1    0    0  501    0  0.00000000000E+00  0.00000000000E+00 -0.13046079955E+04  0.13046079956E+04  0.50400001928E-02 0.  1.
    10030    2    1    2    0    0  0.00000000000E+00  0.00000000000E+00 -0.37320789191E+03  0.22360080992E+04  0.22046423949E+04 0.  0.
        4    1    3    3  502    0  0.65002757720E+03 -0.98677952733E+02 -0.10839727149E+04  0.12677821773E+04  0.12699999809E+01 0.  1.
       -4    1    3    3    0  502 -0.65002757720E+03  0.98677952733E+02  0.71076482297E+03  0.96822592196E+03  0.12699999809E+01 0. -1.
</event>
<event>
 5   0  0.4027923E-05  0.2199628E+04  0.7818609E-02  0.8518583E-01
       -2   -1    0    0    0  501  0.00000000000E+00  0.00000000000E+00  0.76019216983E+03  0.76019216984E+03  0.25500000920E-02 0. -1.
        2   -1    0    0  501    0  0.00000000000E+00  0.00000000000E+00 -0.15911652105E+04  0.15911652105E+04  0.25500000920E-02 0.  1.
    10030    2    1    2    0    0  0.00000000000E+00  0.00000000000E+00 -0.83097304071E+03  0.23513573804E+04  0.21996284541E+04 0.  0.
        5    1    3    3  502    0  0.13102218066E+03  0.37907540296E+02  0.75110521285E+03  0.76340351335E+03  0.46999998093E+01 0. -1.
       -5    1    3    3    0  502 -0.13102218066E+03 -0.37907540296E+02 -0.15820782536E+04  0.15879538670E+04  0.46999998093E+01 0.  1.
</event>
<event>
 5   0  0.4027923E-05  0.2110148E+04  0.7818609E-02  0.8556786E-01
       -2   -1    0    0    0  501  0.00000000000E+00  0.00000000000E+00  0.76523091871E+03  0.76523091872E+03  0.25500000920E-02 0. -1.
        2   -1    0    0  501    0  0.00000000000E+00  0.00000000000E+00 -0.14546990881E+04  0.14546990881E+04  0.25500000920E-02 0.  1.
    10030    2    1    2    0    0  0.00000000000E+00  0.00000000000E+00 -0.68946816936E+03  0.22199300068E+04  0.21101475964E+04 0.  0.
        5    1    3    3  502    0  0.53517489351E+03  0.90924555633E+03 -0.34015067187E+03  0.11085414823E+04  0.46999998093E+01 0.  1.
       -5    1    3    3    0  502 -0.53517489351E+03 -0.90924555633E+03 -0.34931749749E+03  0.11113885245E+04  0.46999998093E+01 0. -1.
</event>
<event>
 5   0  0.1884407E-05  0.2210755E+04  0.7818609E-02  0.8513965E-01
        1   -1    0    0  501    0  0.00000000000E+00  0.00000000000E+00  0.68205205009E+03  0.68205205011E+03  0.50400001928E-02 0. -1.
       -1   -1    0    0    0  501  0.00000000000E+00  0.00000000000E+00 -0.17914463186E+04  0.17914463186E+04  0.50400001928E-02 0.  1.
    10030    2    1    2    0    0  0.00000000000E+00  0.00000000000E+00 -0.11093942685E+04  0.24734983687E+04  0.22107551961E+04 0.  0.
        3    1    3    3  502    0 -0.13216675008E+03  0.51468986606E+03  0.52976929064E+03  0.75035273009E+03  0.10100000352E+00 0. -1.
       -3    1    3    3    0  502  0.13216675008E+03 -0.51468986606E+03 -0.16391635591E+04  0.17231456386E+04  0.10100000352E+00 0.  1.
</event>
<event>
 5   0  0.1866935E-05  0.2163427E+04  0.7818609E-02  0.8533807E-01
       -1   -1    0    0    0  501  0.00000000000E+00  0.00000000000E+00  0.94213411453E+03  0.94213411454E+03  0.50400001928E-02 0.  1.
        1   -1    0    0  501    0  0.00000000000E+00  0.00000000000E+00 -0.12419716331E+04  0.12419716331E+04  0.50400001928E-02 0. -1.
    10030    2    1    2    0    0  0.00000000000E+00  0.00000000000E+00 -0.29983751859E+03  0.21841057477E+04  0.21634267678E+04 0.  0.
        4    1    3    3  502    0 -0.43028195009E+03 -0.60967391184E+03  0.64067405075E+03  0.98351903264E+03  0.12699999809E+01 0.  1.
       -4    1    3    3    0  502  0.43028195009E+03  0.60967391184E+03 -0.94051156934E+03  0.12005867150E+04  0.12699999809E+01 0. -1.
</event>
<event>
 5   0  0.1866935E-05  0.2192950E+04  0.7818609E-02  0.8521368E-01
        1   -1    0    0  501    0  0.00000000000E+00  0.00000000000E+00  0.14686636874E+04  0.14686636874E+04  0.50400001928E-02 0.  1.
       -1   -1    0    0    0  501  0.00000000000E+00  0.00000000000E+00 -0.81860612740E+03  0.81860612742E+03  0.50400001928E-02 0. -1.
    10030    2    1    2    0    0  0.00000000000E+00  0.00000000000E+00  0.65005755999E+03  0.22872698148E+04  0.21929496972E+04 0.  0.
        4    1    3    3  502    0 -0.84475131731E+03  0.68485250713E+03  0.47115354775E+03  0.11851645553E+04  0.12699999809E+01 0.  1.
       -4    1    3    3    0  502  0.84475131731E+03 -0.68485250713E+03  0.17890401224E+03  0.11021052595E+04  0.12699999809E+01 0. -1.
</event>
<event>
 5   0  0.4132460E-05  0.2187999E+04  0.7818609E-02  0.8523440E-01
        2   -1    0    0  501    0  0.00000000000E+00  0.00000000000E+00  0.58701788187E+03  0.58701788188E+03  0.25500000920E-02 0. -1.
       -2   -1    0    0    0  501  0.00000000000E+00  0.00000000000E+00 -0.20388389241E+04  0.20388389241E+04  0.25500000920E-02 0.  1.
    10030    2    1    2    0    0  0.00000000000E+00  0.00000000000E+00 -0.14518210422E+04  0.26258568060E+04  0.21879990007E+04 0.  0.
        4    1    3    3  502    0  0.62107133951E+03 -0.96999799002E+02  0.34864394311E+03  0.71881345406E+03  0.12699999809E+01 0. -1.
       -4    1    3    3    0  502 -0.62107133951E+03  0.96999799002E+02 -0.18004649854E+04  0.19070433519E+04  0.12699999809E+01 0.  1.
</event>
<event>
 5   0  0.1433375E-05  0.2193552E+04  0.7818609E-02  0.8521117E-01
       -3   -1    0    0    0  501  0.00000000000E+00  0.00000000000E+00  0.16464268933E+04  0.16464268964E+04  0.10100000352E+00 0.  1.
        3   -1    0    0  501    0  0.00000000000E+00  0.00000000000E+00 -0.73062290214E+03  0.73062290912E+03  0.10100000352E+00 0. -1.
    10030    2    1    2    0    0  0.00000000000E+00  0.00000000000E+00  0.91580399117E+03  0.23770498055E+04  0.21935516469E+04 0.  0.
        4    1    3    3  502    0  0.76274179267E+03  0.21069803322E+03 -0.36506619291E+03  0.87146063686E+03  0.12699999809E+01 0. -1.
       -4    1    3    3    0  502 -0.76274179267E+03 -0.21069803322E+03  0.12808701841E+04  0.15055891687E+04  0.12699999809E+01 0.  1.
</event>
<event>
 5   0  0.1884407E-05  0.2205132E+04  0.7818609E-02  0.8516295E-01
        1   -1    0    0  501    0  0.00000000000E+00  0.00000000000E+00  0.16962501885E+04  0.16962501885E+04  0.50400001928E-02 0. -1.
       -1   -1    0    0    0  501  0.00000000000E+00  0.00000000000E+00 -0.71667041215E+03  0.71667041217E+03  0.50400001928E-02 0.  1.
    10030    2    1    2    0    0  0.00000000000E+00  0.00000000000E+00  0.97957977635E+03  0.24129206007E+04  0.22051324874E+04 0.  0.
        3    1    3    3  502    0  0.82625895369E+03 -0.65331480760E+03  0.84626053476E+03  0.13511776342E+04  0.10100000352E+00 0. -1.
       -3    1    3    3    0  502 -0.82625895369E+03  0.65331480760E+03  0.13331924159E+03  0.10617429664E+04  0.10100000352E+00 0.  1.
</event>
<event>
 5   0  0.4143281E-05  0.2192406E+04  0.7818609E-02  0.8521596E-01
        2   -1    0    0  501    0  0.00000000000E+00  0.00000000000E+00  0.11183073087E+04  0.11183073087E+04  0.25500000920E-02 0. -1.
       -2   -1    0    0    0  501  0.00000000000E+00  0.00000000000E+00 -0.10745351495E+04  0.10745351495E+04  0.25500000920E-02 0.  1.
    10030    2    1    2    0    0  0.00000000000E+00  0.00000000000E+00  0.43772159140E+02  0.21928424582E+04  0.21924055383E+04 0.  0.
        2    1    3    3  502    0 -0.25126905482E+03  0.75854531523E+03  0.77245776276E+03  0.11114036748E+04  0.25500000920E-02 0. -1.
       -2    1    3    3    0  502  0.25126905482E+03 -0.75854531523E+03 -0.72868560362E+03  0.10814387833E+04  0.25500000920E-02 0.  1.
</event>
<event>
 5   0  0.4027923E-05  0.2187320E+04  0.7818609E-02  0.8523724E-01
        2   -1    0    0  501    0  0.00000000000E+00  0.00000000000E+00  0.60803726559E+03  0.60803726559E+03  0.25500000920E-02 0.  1.
       -2   -1    0    0    0  501  0.00000000000E+00  0.00000000000E+00 -0.19671360020E+04  0.19671360020E+04  0.25500000920E-02 0. -1.
    10030    2    1    2    0    0  0.00000000000E+00  0.00000000000E+00 -0.13590987364E+04  0.25751732676E+04  0.21873198172E+04 0.  0.
        5    1    3    3  502    0 -0.98246600550E+02  0.98333218081E+02  0.59758301942E+03  0.61355470123E+03  0.46999998093E+01 0.  1.
       -5    1    3    3    0  502  0.98246600550E+02 -0.98333218081E+02 -0.19566817559E+04  0.19616185664E+04  0.46999998093E+01 0. -1.
</event>
<event>
 5   0  0.4029532E-05  0.2195328E+04  0.7818609E-02  0.8520375E-01
        2   -1    0    0  501    0  0.00000000000E+00  0.00000000000E+00  0.21550967714E+04  0.21550967714E+04  0.25500000920E-02 0.  1.
       -2   -1    0    0    0  501  0.00000000000E+00  0.00000000000E+00 -0.55907735320E+03  0.55907735321E+03  0.25500000920E-02 0. -1.
    10030    2    1    2    0    0  0.00000000000E+00  0.00000000000E+00  0.15960194182E+04  0.27141741246E+04  0.21953275827E+04 0.  0.
        3    1    3    3  502    0 -0.99697284595E+03 -0.39625459808E+03  0.51099413403E+03  0.11883129122E+04  0.10100000352E+00 0. -1.
       -3    1    3    3    0  502  0.99697284595E+03  0.39625459808E+03  0.10850252842E+04  0.15258612124E+04  0.10100000352E+00 0.  1.
</event>
<event>
 5   0  0.1815681E-05  0.2199380E+04  0.7818609E-02  0.8518686E-01
       -1   -1    0    0    0  501  0.00000000000E+00  0.00000000000E+00  0.55045664824E+03  0.55045664827E+03  0.50400001928E-02 0. -1.
        1   -1    0    0  501    0  0.00000000000E+00  0.00000000000E+00 -0.21969357468E+04  0.21969357468E+04  0.50400001928E-02 0.  1.
    10030    2    1    2    0    0  0.00000000000E+00  0.00000000000E+00 -0.16464790986E+04  0.27473923951E+04  0.21993798104E+04 0.  0.
        2    1    3    3  502    0  0.77176624354E+03  0.46136006728E+03 -0.32366322815E+02  0.89973541956E+03  0.25500000920E-02 0. -1.
       -2    1    3    3    0  502 -0.77176624354E+03 -0.46136006728E+03 -0.16141127758E+04  0.18476569755E+04  0.25500000920E-02 0.  1.
</event>
<event>
 5   0  0.4029532E-05  0.2207902E+04  0.7818609E-02  0.8515146E-01
       -2   -1    0    0    0  501  0.00000000000E+00  0.00000000000E+00  0.64485293423E+03  0.64485293423E+03  0.25500000920E-02 0.  1.
        2   -1    0    0  501    0  0.00000000000E+00  0.00000000000E+00 -0.18899004689E+04  0.18899004689E+04  0.25500000920E-02 0. -1.
    10030    2    1    2    0    0  0.00000000000E+00  0.00000000000E+00 -0.12450475347E+04  0.25347534031E+04  0.22079020474E+04 0.  0.
        3    1    3    3  502    0 -0.70798050006E+03 -0.31348159074E+03  0.28085868770E+03  0.82364355691E+03  0.10100000352E+00 0.  1.
       -3    1    3    3    0  502  0.70798050006E+03  0.31348159074E+03 -0.15259062224E+04  0.17111098462E+04  0.10100000352E+00 0. -1.
</event>
<event>
 5   0  0.1786228E-05  0.2216551E+04  0.7818609E-02  0.8511571E-01
       -1   -1    0    0    0  501  0.00000000000E+00  0.00000000000E+00  0.61766092465E+03  0.61766092467E+03  0.50400001928E-02 0.  1.
        1   -1    0    0  501    0  0.00000000000E+00  0.00000000000E+00 -0.19885910269E+04  0.19885910269E+04  0.50400001928E-02 0. -1.
    10030    2    1    2    0    0  0.00000000000E+00  0.00000000000E+00 -0.13709301022E+04  0.26062519515E+04  0.22165513506E+04 0.  0.
        5    1    3    3  502    0  0.73089216147E+03  0.34043128072E+03  0.20858358865E+03  0.83284212912E+03  0.46999998093E+01 0.  1.
       -5    1    3    3    0  502 -0.73089216147E+03 -0.34043128072E+03 -0.15795136909E+04  0.17734098224E+04  0.46999998093E+01 0. -1.
</event>
<event>
 5   0  0.1884407E-05  0.2200063E+04  0.7818609E-02  0.8518402E-01
       -1   -1    0    0    0  501  0.00000000000E+00  0.00000000000E+00  0.12190430704E+04  0.12190430705E+04  0.50400001928E-02 0.  1.
        1   -1    0    0  501    0  0.00000000000E+00  0.00000000000E+00 -0.99263866998E+03  0.99263866999E+03  0.50400001928E-02 0. -1.
    10030    2    1    2    0    0  0.00000000000E+00  0.00000000000E+00  0.22640440046E+03  0.22116817404E+04  0.22000629919E+04 0.  0.
        3    1    3    3  502    0  0.17705727658E+03  0.66265784711E+03 -0.75134222122E+03  0.10173395918E+04  0.10100000352E+00 0. -1.
       -3    1    3    3    0  502 -0.17705727658E+03 -0.66265784711E+03  0.97774662168E+03  0.11943421486E+04  0.10100000352E+00 0.  1.
</event>
<event>
 5   0  0.1866935E-05  0.2209201E+04  0.7818609E-02  0.8514608E-01
        1   -1    0    0  501    0  0.00000000000E+00  0.00000000000E+00  0.11101649151E+04  0.11101649152E+04  0.50400001928E-02 0.  1.
       -1   -1    0    0    0  501  0.00000000000E+00  0.00000000000E+00 -0.10990640788E+04  0.10990640788E+04  0.50400001928E-02 0. -1.
    10030    2    1    2    0    0  0.00000000000E+00  0.00000000000E+00  0.11100836348E+02  0.22092289940E+04  0.22092011043E+04 0.  0.
        4    1    3    3  502    0 -0.33857590814E+02  0.66357592838E+02  0.11076492192E+04  0.11101522744E+04  0.12699999809E+01 0.  1.
       -4    1    3    3    0  502  0.33857590814E+02 -0.66357592838E+02 -0.10965483829E+04  0.10990767196E+04  0.12699999809E+01 0. -1.
</event>
<event>
 5   0  0.4132460E-05  0.2195790E+04  0.7818609E-02  0.8520182E-01
       -2   -1    0    0    0  501  0.00000000000E+00  0.00000000000E+00  0.70871818927E+03  0.70871818928E+03  0.25500000920E-02 0.  1.
        2   -1    0    0  501    0  0.00000000000E+00  0.00000000000E+00 -0.17007801230E+04  0.17007801230E+04  0.25500000920E-02 0. -1.
    10030    2    1    2    0    0  0.00000000000E+00  0.00000000000E+00 -0.99206193375E+03  0.24094983123E+04  0.21957903444E+04 0.  0.
        4    1    3    3  502    0  0.50175352598E+03 -0.87963568713E+03 -0.30660295726E+02  0.10131422455E+04  0.12699999809E+01 0.  1.
       -4    1    3    3    0  502 -0.50175352598E+03  0.87963568713E+03 -0.96140163802E+03  0.13963560668E+04  0.12699999809E+01 0. -1.
</event>
<event>
 5   0  0.1866935E-05  0.2199929E+04  0.7818609E-02  0.8518458E-01
       -1   -1    0    0    0  501  0.00000000000E+00  0.00000000000E+00  0.11842579995E+04  0.11842579995E+04  0.50400001928E-02 0.  1.
        1   -1    0    0  501    0  0.00000000000E+00  0.00000000000E+00 -0.10216704140E+04  0.10216704140E+04  0.50400001928E-02 0. -1.
    10030    2    1    2    0    0  0.00000000000E+00  0.00000000000E+00  0.16258758543E+03  0.22059284135E+04  0.21999285085E+04 0.  0.
        4    1    3    3  502    0  0.63209167755E+02  0.66610181800E+03  0.95673430405E+03  0.11674884035E+04  0.12699999809E+01 0.  1.
       -4    1    3    3    0  502 -0.63209167755E+02 -0.66610181800E+03 -0.79414671862E+03  0.10384400100E+04  0.12699999809E+01 0. -1.
</event>
<event>
 5   0  0.4027923E-05  0.2198500E+04  0.7818609E-02  0.8519053E-01
       -2   -1    0    0    0  501  0.00000000000E+00  0.00000000000E+00  0.68755793428E+03  0.68755793429E+03  0.25500000920E-02 0. -1.
        2   -1    0    0  501    0  0.00000000000E+00  0.00000000000E+00 -0.17574527519E+04  0.17574527519E+04  0.25500000920E-02 0.  1.
    10030    2    1    2    0    0  0.00000000000E+00  0.00000000000E+00 -0.10698948176E+04  0.24450106862E+04  0.21985000193E+04 0.  0.
        5    1    3    3  502    0  0.92635907129E+02 -0.10030841517E+04 -0.10242443384E+04  0.14366133027E+04  0.46999998093E+01 0.  1.
       -5    1    3    3    0  502 -0.92635907129E+02  0.10030841517E+04 -0.45650479209E+02  0.10083973835E+04  0.46999998093E+01 0. -1.
</event>
<event>
 5   0  0.1884407E-05  0.2198435E+04  0.7818609E-02  0.8519080E-01
        1   -1    0    0  501    0  0.00000000000E+00  0.00000000000E+00  0.94003017067E+03  0.94003017068E+03  0.50400001928E-02 0. -1.
       -1   -1    0    0    0  501  0.00000000000E+00  0.00000000000E+00 -0.12853621618E+04  0.12853621618E+04  0.50400001928E-02 0.  1.
    10030    2    1    2    0    0  0.00000000000E+00  0.00000000000E+00 -0.34533199117E+03  0.22253923325E+04  0.21984350910E+04 0.  0.
        3    1    3    3  502    0 -0.94847041397E+02 -0.28271964339E+03 -0.12436338694E+04  0.12788868478E+04  0.10100000352E+00 0.  1.
       -3    1    3    3    0  502  0.94847041397E+02  0.28271964339E+03  0.89830187825E+03  0.94650548476E+03  0.10100000352E+00 0. -1.
</event>
<event>
 5   0  0.4143281E-05  0.2202768E+04  0.7818609E-02  0.8517277E-01
        2   -1    0    0  501    0  0.00000000000E+00  0.00000000000E+00  0.11111589934E+04  0.11111589934E+04  0.25500000920E-02 0.  1.
       -2   -1    0    0    0  501  0.00000000000E+00  0.00000000000E+00 -0.10916949035E+04  0.10916949035E+04  0.25500000920E-02 0. -1.
    10030    2    1    2    0    0  0.00000000000E+00  0.00000000000E+00  0.19464089923E+02  0.22028538968E+04  0.22027679043E+04 0.  0.
        2    1    3    3  502    0 -0.14283381867E+03 -0.80923956430E+03  0.74309309282E+03  0.11079068177E+04  0.25500000920E-02 0.  1.
       -2    1    3    3    0  502  0.14283381867E+03  0.80923956430E+03 -0.72362900290E+03  0.10949470791E+04  0.25500000920E-02 0. -1.
</event>
<event>
 5   0  0.4132460E-05  0.2198097E+04  0.7818609E-02  0.8519221E-01
        2   -1    0    0  501    0  0.00000000000E+00  0.00000000000E+00  0.20591709649E+04  0.20591709649E+04  0.25500000920E-02 0.  1.
       -2   -1    0    0    0  501  0.00000000000E+00  0.00000000000E+00 -0.58659886971E+03  0.58659886971E+03  0.25500000920E-02 0. -1.
    10030    2    1    2    0    0  0.00000000000E+00  0.00000000000E+00  0.14725720952E+04  0.26457698346E+04  0.21980967773E+04 0.  0.
        4    1    3    3  502    0 -0.52624723730E+03  0.96259852974E+02 -0.41929630488E+03  0.67971546859E+03  0.12699999809E+01 0. -1.
       -4    1    3    3    0  502  0.52624723730E+03 -0.96259852974E+02  0.18918684001E+04  0.19660543660E+04  0.12699999809E+01 0.  1.
</event>
<event>
 5   0  0.4143281E-05  0.2190724E+04  0.7818609E-02  0.8522299E-01
        2   -1    0    0  501    0  0.00000000000E+00  0.00000000000E+00  0.16674246572E+04  0.16674246572E+04  0.25500000920E-02 0. -1.
       -2   -1    0    0    0  501  0.00000000000E+00  0.00000000000E+00 -0.71956376039E+03  0.71956376039E+03  0.25500000920E-02 0.  1.
    10030    2    1    2    0    0  0.00000000000E+00  0.00000000000E+00  0.94786089679E+03  0.23869884176E+04  0.21907244067E+04 0.  0.
        2    1    3    3  502    0 -0.17192874303E+03  0.16065685409E+03  0.16395602503E+04  0.16563598437E+04  0.25500000920E-02 0. -1.
       -2    1    3    3    0  502  0.17192874303E+03 -0.16065685409E+03 -0.69169935346E+03  0.73062857392E+03  0.25500000920E-02 0.  1.
</event>
<event>
 5   0  0.1866935E-05  0.2184526E+04  0.7818609E-02  0.8524896E-01
       -1   -1    0    0    0  501  0.00000000000E+00  0.00000000000E+00  0.62315547355E+03  0.62315547357E+03  0.50400001928E-02 0. -1.
        1   -1    0    0  501    0  0.00000000000E+00  0.00000000000E+00 -0.19145118241E+04  0.19145118241E+04  0.50400001928E-02 0.  1.
    10030    2    1    2    0    0  0.00000000000E+00  0.00000000000E+00 -0.12913563506E+04  0.25376672977E+04  0.21845260561E+04 0.  0.
        4    1    3    3  502    0 -0.87145585912E+03  0.82363423312E+02 -0.14046029786E+04  0.16550317786E+04  0.12699999809E+01 0.  1.
       -4    1    3    3    0  502  0.87145585912E+03 -0.82363423312E+02  0.11324662800E+03  0.88263551909E+03  0.12699999809E+01 0. -1.
</event>
<event>
 5   0  0.4027923E-05  0.2167264E+04  0.7818609E-02  0.8532178E-01
        2   -1    0    0  501    0  0.00000000000E+00  0.00000000000E+00  0.66107109927E+03  0.66107109927E+03  0.25500000920E-02 0.  1.
       -2   -1    0    0    0  501  0.00000000000E+00  0.00000000000E+00 -0.17762963785E+04  0.17762963785E+04  0.25500000920E-02 0. -1.
    10030    2    1    2    0    0  0.00000000000E+00  0.00000000000E+00 -0.11152252793E+04  0.24373674778E+04  0.21672638968E+04 0.  0.
        5    1    3    3  502    0 -0.59922328347E+03 -0.85172827782E+03 -0.22073700866E+03  0.10645452173E+04  0.46999998093E+01 0.  1.
       -5    1    3    3    0  502  0.59922328347E+03  0.85172827782E+03 -0.89448827060E+03  0.13728222605E+04  0.46999998093E+01 0. -1.
</event>
<event>
 5   0  0.1815681E-05  0.2205432E+04  0.7818609E-02  0.8516170E-01
       -1   -1    0    0    0  501  0.00000000000E+00  0.00000000000E+00  0.74271687731E+03  0.74271687732E+03  0.50400001928E-02 0. -1.
        1   -1    0    0  501    0  0.00000000000E+00  0.00000000000E+00 -0.16372092130E+04  0.16372092130E+04  0.50400001928E-02 0.  1.
    10030    2    1    2    0    0  0.00000000000E+00  0.00000000000E+00 -0.89449233566E+03  0.23799260903E+04  0.22054323061E+04 0.  0.
        2    1    3    3  502    0 -0.51260029629E+03 -0.20866006615E+02  0.60609239075E+03  0.79406702496E+03  0.25500000920E-02 0. -1.
       -2    1    3    3    0  502  0.51260029629E+03  0.20866006615E+02 -0.15005847264E+04  0.15858590653E+04  0.25500000920E-02 0.  1.
</event>
<event>
 5   0  0.1788413E-05  0.2183313E+04  0.7818609E-02  0.8525406E-01
        1   -1    0    0  501    0  0.00000000000E+00  0.00000000000E+00  0.86550585647E+03  0.86550585649E+03  0.50400001928E-02 0. -1.
       -1   -1    0    0    0  501  0.00000000000E+00  0.00000000000E+00 -0.13768981641E+04  0.13768981641E+04  0.50400001928E-02 0.  1.
    10030    2    1    2    0    0  0.00000000000E+00  0.00000000000E+00 -0.51139230760E+03  0.22424040206E+04  0.21833125519E+04 0.  0.
        1    1    3    3  502    0 -0.79865343790E+03 -0.26043524914E+03  0.46033806205E+03  0.95790655299E+03  0.50400001928E-02 0. -1.
       -1    1    3    3    0  502  0.79865343790E+03  0.26043524914E+03 -0.97173036965E+03  0.12844974676E+04  0.50400001928E-02 0.  1.
</event>
<event>
 5   0  0.1786228E-05  0.2292624E+04  0.7818609E-02  0.8480835E-01
        1   -1    0    0  501    0  0.00000000000E+00  0.00000000000E+00  0.10215611079E+04  0.10215611079E+04  0.50400001928E-02 0. -1.
       -1   -1    0    0    0  501  0.00000000000E+00  0.00000000000E+00 -0.12862967287E+04  0.12862967287E+04  0.50400001928E-02 0.  1.
    10030    2    1    2    0    0  0.00000000000E+00  0.00000000000E+00 -0.26473562077E+03  0.23078578367E+04  0.22926235725E+04 0.  0.
        5    1    3    3  502    0  0.75452042588E+03 -0.31488543678E+03  0.67643532559E+03  0.10611506731E+04  0.46999998093E+01 0. -1.
       -5    1    3    3    0  502 -0.75452042588E+03  0.31488543678E+03 -0.94117094636E+03  0.12467071635E+04  0.46999998093E+01 0.  1.
</event>
<event>
 5   0  0.1866935E-05  0.2201312E+04  0.7818609E-02  0.8517882E-01
       -1   -1    0    0    0  501  0.00000000000E+00  0.00000000000E+00  0.67011595182E+03  0.67011595184E+03  0.50400001928E-02 0.  1.
        1   -1    0    0  501    0  0.00000000000E+00  0.00000000000E+00 -0.18078126488E+04  0.18078126488E+04  0.50400001928E-02 0. -1.
    10030    2    1    2    0    0  0.00000000000E+00  0.00000000000E+00 -0.11376966969E+04  0.24779286006E+04  0.22013124211E+04 0.  0.
        4    1    3    3  502    0 -0.39978934732E+03 -0.56074720275E+03 -0.15353263459E+04  0.16827054255E+04  0.12699999809E+01 0. -1.
       -4    1    3    3    0  502  0.39978934732E+03  0.56074720275E+03  0.39762964897E+03  0.79522317512E+03  0.12699999809E+01 0.  1.
</event>
<event>
 5   0  0.3963414E-05  0.2212568E+04  0.7818609E-02  0.8513215E-01
       -2   -1    0    0    0  501  0.00000000000E+00  0.00000000000E+00  0.12185876124E+04  0.12185876124E+04  0.25500000920E-02 0. -1.
        2   -1    0    0  501    0  0.00000000000E+00  0.00000000000E+00 -0.10043305638E+04  0.10043305638E+04  0.25500000920E-02 0.  1.
    10030    2    1    2    0    0  0.00000000000E+00  0.00000000000E+00  0.21425704864E+03  0.22229181762E+04  0.22125684476E+04 0.  0.
        1    1    3    3  502    0 -0.44454806448E+03 -0.69329198736E+03  0.84922296113E+03  0.11829862210E+04  0.50400001928E-02 0. -1.
       -1    1    3    3    0  502  0.44454806448E+03  0.69329198736E+03 -0.63496591249E+03  0.10399319552E+04  0.50400001928E-02 0.  1.
</event>
<event>
 5   0  0.1788413E-05  0.2116699E+04  0.7818609E-02  0.8553923E-01
       -1   -1    0    0    0  501  0.00000000000E+00  0.00000000000E+00  0.14752321187E+04  0.14752321187E+04  0.50400001928E-02 0. -1.
        1   -1    0    0  501    0  0.00000000000E+00  0.00000000000E+00 -0.75927260001E+03  0.75927260003E+03  0.50400001928E-02 0.  1.
    10030    2    1    2    0    0  0.00000000000E+00  0.00000000000E+00  0.71595951872E+03  0.22345047188E+04  0.21166986809E+04 0.  0.
        1    1    3    3  502    0  0.60516154960E+03 -0.65575399433E+03 -0.24278891399E+03  0.92475956820E+03  0.50400001928E-02 0.  1.
       -1    1    3    3    0  502 -0.60516154960E+03  0.65575399433E+03  0.95874843271E+03  0.13097451506E+04  0.50400001928E-02 0. -1.
</event>
<event>
 5   0  0.4029532E-05  0.2205415E+04  0.7818609E-02  0.8516178E-01
       -2   -1    0    0    0  501  0.00000000000E+00  0.00000000000E+00  0.64865493773E+03  0.64865493773E+03  0.25500000920E-02 0.  1.
        2   -1    0    0  501    0  0.00000000000E+00  0.00000000000E+00 -0.18745926681E+04  0.18745926681E+04  0.25500000920E-02 0. -1.
    10030    2    1    2    0    0  0.00000000000E+00  0.00000000000E+00 -0.12259377304E+04  0.25232476058E+04  0.22054149636E+04 0.  0.
        3    1    3    3  502    0  0.30442048286E+02 -0.35662200818E+03  0.58034756150E+03  0.68184256054E+03  0.10100000352E+00 0.  1.
       -3    1    3    3    0  502 -0.30442048286E+02  0.35662200818E+03 -0.18062852919E+04  0.18414050453E+04  0.10100000352E+00 0. -1.
</event>
<event>
 5   0  0.3963414E-05  0.2215671E+04  0.7818609E-02  0.8511934E-01
        2   -1    0    0  501    0  0.00000000000E+00  0.00000000000E+00  0.26973698771E+04  0.26973698771E+04  0.25500000920E-02 0. -1.
       -2   -1    0    0    0  501  0.00000000000E+00  0.00000000000E+00 -0.45499864093E+03  0.45499864094E+03  0.25500000920E-02 0.  1.
    10030    2    1    2    0    0  0.00000000000E+00  0.00000000000E+00  0.22423712361E+04  0.31523685180E+04  0.22156711202E+04 0.  0.
        1    1    3    3  502    0 -0.11038238003E+04 -0.93010270078E+02  0.11423716439E+04  0.15912544942E+04  0.50400001928E-02 0.  1.
       -1    1    3    3    0  502  0.11038238003E+04  0.93010270078E+02  0.10999995922E+04  0.15611140238E+04  0.50400001928E-02 0. -1.
</event>
<event>
 5   0  0.3963414E-05  0.2203836E+04  0.7818609E-02  0.8516833E-01
       -2   -1    0    0    0  501  0.00000000000E+00  0.00000000000E+00  0.75126751682E+03  0.75126751682E+03  0.25500000920E-02 0.  1.
        2   -1    0    0  501    0  0.00000000000E+00  0.00000000000E+00 -0.16162322089E+04  0.16162322089E+04  0.25500000920E-02 0. -1.
    10030    2    1    2    0    0  0.00000000000E+00  0.00000000000E+00 -0.86496469207E+03  0.23674997257E+04  0.22038355276E+04 0.  0.
        1    1    3    3  502    0  0.49846472443E+03 -0.31709863612E+03  0.56675820392E+03  0.81867789042E+03  0.50400001928E-02 0.  1.
       -1    1    3    3    0  502 -0.49846472443E+03  0.31709863612E+03 -0.14317228960E+04  0.15488218353E+04  0.50400001928E-02 0. -1.
</event>
<event>
 5   0  0.4027923E-05  0.2198940E+04  0.7818609E-02  0.8518869E-01
       -2   -1    0    0    0  501  0.00000000000E+00  0.00000000000E+00  0.12832389669E+04  0.12832389669E+04  0.25500000920E-02 0. -1.
        2   -1    0    0  501    0  0.00000000000E+00  0.00000000000E+00 -0.94201816705E+03  0.94201816705E+03  0.25500000920E-02 0.  1.
    10030    2    1    2    0    0  0.00000000000E+00  0.00000000000E+00  0.34122079987E+03  0.22252571340E+04  0.21989401261E+04 0.  0.
        5    1    3    3  502    0  0.46397449987E+03  0.76762920914E+03 -0.47283369770E+03  0.10139628864E+04  0.46999998093E+01 0.  1.
       -5    1    3    3    0  502 -0.46397449987E+03 -0.76762920914E+03  0.81405449757E+03  0.12112942476E+04  0.46999998093E+01 0. -1.
</event>
<event>
 5   0  0.1786228E-05  0.2163148E+04  0.7818609E-02  0.8533925E-01
       -1   -1    0    0    0  501  0.00000000000E+00  0.00000000000E+00  0.62204842458E+03  0.62204842460E+03  0.50400001928E-02 0.  1.
        1   -1    0    0  501    0  0.00000000000E+00  0.00000000000E+00 -0.18805649612E+04  0.18805649613E+04  0.50400001928E-02 0. -1.
    10030    2    1    2    0    0  0.00000000000E+00  0.00000000000E+00 -0.12585165367E+04  0.25026133858E+04  0.21631481424E+04 0.  0.
        5    1    3    3  502    0  0.23186764614E+03 -0.92874380366E+03 -0.46811846975E+02  0.95840549726E+03  0.46999998093E+01 0.  1.
       -5    1    3    3    0  502 -0.23186764614E+03  0.92874380366E+03 -0.12117046897E+04  0.15442078886E+04  0.46999998093E+01 0. -1.
</event>
<event>
 5   0  0.4029532E-05  0.2192347E+04  0.7818609E-02  0.8521620E-01
       -2   -1    0    0    0  501  0.00000000000E+00  0.00000000000E+00  0.70632196916E+03  0.70632196916E+03  0.25500000920E-02 0.  1.
        2   -1    0    0  501    0  0.00000000000E+00  0.00000000000E+00 -0.17012021067E+04  0.17012021067E+04  0.25500000920E-02 0. -1.
    10030    2    1    2    0    0  0.00000000000E+00  0.00000000000E+00 -0.99488013752E+03  0.24075240758E+04  0.21923470728E+04 0.  0.
        3    1    3    3  502    0  0.66326045581E+03  0.87273538561E+03 -0.50168270457E+03  0.12055152557E+04  0.10100000352E+00 0. -1.
       -3    1    3    3    0  502 -0.66326045581E+03 -0.87273538561E+03 -0.49319743295E+03  0.12020088201E+04  0.10100000352E+00 0.  1.
</event>
<event>
 5   0  0.1815681E-05  0.2202127E+04  0.7818609E-02  0.8517543E-01
        1   -1    0    0  501    0  0.00000000000E+00  0.00000000000E+00  0.25364743689E+04  0.25364743689E+04  0.50400001928E-02 0. -1.
       -1   -1    0    0    0  501  0.00000000000E+00  0.00000000000E+00 -0.47796307007E+03  0.47796307009E+03  0.50400001928E-02 0.  1.
    10030    2    1    2    0    0  0.00000000000E+00  0.00000000000E+00  0.20585112988E+04  0.30144374390E+04  0.22021272230E+04 0.  0.
        2    1    3    3  502    0  0.35207404010E+03  0.12059726381E+03 -0.38925927683E+03  0.53853747720E+03  0.25500000920E-02 0.  1.
       -2    1    3    3    0  502 -0.35207404010E+03 -0.12059726381E+03  0.24477705757E+04  0.24758999618E+04  0.25500000920E-02 0. -1.
</event>
<event>
 5   0  0.1788413E-05  0.2190656E+04  0.7818609E-02  0.8522327E-01
        1   -1    0    0  501    0  0.00000000000E+00  0.00000000000E+00  0.23632024015E+04  0.23632024015E+04  0.50400001928E-02 0.  1.
       -1   -1    0    0    0  501  0.00000000000E+00  0.00000000000E+00 -0.50767701035E+03  0.50767701037E+03  0.50400001928E-02 0. -1.
    10030    2    1    2    0    0  0.00000000000E+00  0.00000000000E+00  0.18555253911E+04  0.28708794118E+04  0.21906560936E+04 0.  0.
        1    1    3    3  502    0 -0.10043988407E+03  0.88797692398E+03  0.17577957984E+04  0.19719120814E+04  0.50400001928E-02 0.  1.
       -1    1    3    3    0  502  0.10043988407E+03 -0.88797692398E+03  0.97729592661E+02  0.89896733040E+03  0.50400001928E-02 0. -1.
</event>
<event>
 5   0  0.1884407E-05  0.2197404E+04  0.7818609E-02  0.8519509E-01
        1   -1    0    0  501    0  0.00000000000E+00  0.00000000000E+00  0.11551543962E+04  0.11551543963E+04  0.50400001928E-02 0. -1.
       -1   -1    0    0    0  501  0.00000000000E+00  0.00000000000E+00 -0.10450088738E+04  0.10450088738E+04  0.50400001928E-02 0.  1.
    10030    2    1    2    0    0  0.00000000000E+00  0.00000000000E+00  0.11014552249E+03  0.22001632700E+04  0.21974044641E+04 0.  0.
        3    1    3    3  502    0 -0.95487260072E+03  0.24418199888E+03  0.54121302861E+03  0.11244189987E+04  0.10100000352E+00 0. -1.
       -3    1    3    3    0  502  0.95487260072E+03 -0.24418199888E+03 -0.43106750612E+03  0.10757442713E+04  0.10100000352E+00 0.  1.
</event>
<event>
 5   0  0.1884407E-05  0.2221706E+04  0.7818609E-02  0.8509447E-01
       -1   -1    0    0    0  501  0.00000000000E+00  0.00000000000E+00  0.10341724491E+04  0.10341724491E+04  0.50400001928E-02 0. -1.
        1   -1    0    0  501    0  0.00000000000E+00  0.00000000000E+00 -0.11932194470E+04  0.11932194470E+04  0.50400001928E-02 0.  1.
    10030    2    1    2    0    0  0.00000000000E+00  0.00000000000E+00 -0.15904699798E+03  0.22273918961E+04  0.22217062613E+04 0.  0.
        3    1    3    3  502    0 -0.10747113163E+04  0.16648954037E+03 -0.30653504877E+03  0.11299057159E+04  0.10100000352E+00 0.  1.
       -3    1    3    3    0  502  0.10747113163E+04 -0.16648954037E+03  0.14748805079E+03  0.10974861802E+04  0.10100000352E+00 0. -1.
</event>
<event>
 5   0  0.4143281E-05  0.2196708E+04  0.7818609E-02  0.8519800E-01
        2   -1    0    0  501    0  0.00000000000E+00  0.00000000000E+00  0.22299501057E+04  0.22299501057E+04  0.25500000920E-02 0.  1.
       -2   -1    0    0    0  501  0.00000000000E+00  0.00000000000E+00 -0.54099040900E+03  0.54099040901E+03  0.25500000920E-02 0. -1.
    10030    2    1    2    0    0  0.00000000000E+00  0.00000000000E+00  0.16889596967E+04  0.27709405147E+04  0.21967081005E+04 0.  0.
        2    1    3    3  502    0 -0.78983580875E+03 -0.75487645666E+03  0.98664734295E+03  0.14721250113E+04  0.25500000920E-02 0. -1.
       -2    1    3    3    0  502  0.78983580875E+03  0.75487645666E+03  0.70231235375E+03  0.12988155034E+04  0.25500000920E-02 0.  1.
</event>
<event>
 5   0  0.1786228E-05  0.2195294E+04  0.7818609E-02  0.8520390E-01
       -1   -1    0    0    0  501  0.00000000000E+00  0.00000000000E+00  0.91558479532E+03  0.91558479534E+03  0.50400001928E-02 0. -1.
        1   -1    0    0  501    0  0.00000000000E+00  0.00000000000E+00 -0.13159113118E+04  0.13159113118E+04  0.50400001928E-02 0.  1.
    10030    2    1    2    0    0  0.00000000000E+00  0.00000000000E+00 -0.40032651648E+03  0.22314961072E+04  0.21952935012E+04 0.  0.
        5    1    3    3  502    0 -0.67099707620E+03 -0.57052059005E+03  0.46567752099E+03  0.99629737704E+03  0.46999998093E+01 0. -1.
       -5    1    3    3    0  502  0.67099707620E+03  0.57052059005E+03 -0.86600403747E+03  0.12351987301E+04  0.46999998093E+01 0.  1.
</event>
<event>
 5   0  0.4027923E-05  0.2178977E+04  0.7818609E-02  0.8527229E-01
       -2   -1    0    0    0  501  0.00000000000E+00  0.00000000000E+00  0.71286850049E+03  0.71286850050E+03  0.25500000920E-02 0. -1.
        2   -1    0    0  501    0  0.00000000000E+00  0.00000000000E+00 -0.16650835224E+04  0.16650835224E+04  0.25500000920E-02 0.  1.
    10030    2    1    2    0    0  0.00000000000E+00  0.00000000000E+00 -0.95221502187E+03  0.23779520229E+04  0.21789773691E+04 0.  0.
        5    1    3    3  502    0  0.74003737653E+02  0.66797871710E+03  0.45968616729E+03  0.81425154718E+03  0.46999998093E+01 0. -1.
       -5    1    3    3    0  502 -0.74003737653E+02 -0.66797871710E+03 -0.14119011892E+04  0.15637004757E+04  0.46999998093E+01 0.  1.
</event>
<event>
 5   0  0.1815681E-05  0.2192922E+04  0.7818609E-02  0.8521380E-01
        1   -1    0    0  501    0  0.00000000000E+00  0.00000000000E+00  0.18549429508E+04  0.18549429508E+04  0.50400001928E-02 0.  1.
       -1   -1    0    0    0  501  0.00000000000E+00  0.00000000000E+00 -0.64812077764E+03  0.64812077766E+03  0.50400001928E-02 0. -1.
    10030    2    1    2    0    0  0.00000000000E+00  0.00000000000E+00  0.12068221731E+04  0.25030637284E+04  0.21929223131E+04 0.  0.
        2    1    3    3  502    0  0.53164107313E+03  0.94470385527E+03  0.79138137289E+03  0.13421594846E+04  0.25500000920E-02 0. -1.
       -2    1    3    3    0  502 -0.53164107313E+03 -0.94470385527E+03  0.41544080023E+03  0.11609042438E+04  0.25500000920E-02 0.  1.
</event>
<event>
 5   0  0.1433375E-05  0.2185837E+04  0.7818609E-02  0.8524346E-01
       -4   -1    0    0    0  501  0.00000000000E+00  0.00000000000E+00  0.96701884015E+03  0.96701967411E+03  0.12699999809E+01 0.  1.
        4   -1    0    0  501    0  0.00000000000E+00  0.00000000000E+00 -0.12352078981E+04  0.12352085510E+04  0.12699999809E+01 0. -1.
    10030    2    1    2    0    0  0.00000000000E+00  0.00000000000E+00 -0.26818905796E+03  0.22022282251E+04  0.21858370901E+04 0.  0.
        4    1    3    3  502    0  0.47629464787E+03  0.97310296594E+03  0.10801029209E+02  0.10834686193E+04  0.12699999809E+01 0.  1.
       -4    1    3    3    0  502 -0.47629464787E+03 -0.97310296594E+03 -0.27899008717E+03  0.11187596058E+04  0.12699999809E+01 0. -1.
</event>
<event>
 5   0  0.1788413E-05  0.2164100E+04  0.7818609E-02  0.8533521E-01
        1   -1    0    0  501    0  0.00000000000E+00  0.00000000000E+00  0.16474536580E+04  0.16474536580E+04  0.50400001928E-02 0. -1.
       -1   -1    0    0    0  501  0.00000000000E+00  0.00000000000E+00 -0.71069213386E+03  0.71069213388E+03  0.50400001928E-02 0.  1.
    10030    2    1    2    0    0  0.00000000000E+00  0.00000000000E+00  0.93676152411E+03  0.23581457919E+04  0.21641001415E+04 0.  0.
        1    1    3    3  502    0 -0.95290245291E+03 -0.89556109767E+02  0.10184072611E+04  0.13975681490E+04  0.50400001928E-02 0. -1.
       -1    1    3    3    0  502  0.95290245291E+03  0.89556109767E+02 -0.81645737031E+02  0.96057764285E+03  0.50400001928E-02 0.  1.
</event>
<event>
 5   0  0.1815681E-05  0.2211245E+04  0.7818609E-02  0.8513762E-01
        1   -1    0    0  501    0  0.00000000000E+00  0.00000000000E+00  0.85957377195E+03  0.85957377197E+03  0.50400001928E-02 0. -1.
       -1   -1    0    0    0  501  0.00000000000E+00  0.00000000000E+00 -0.14221015271E+04  0.14221015271E+04  0.50400001928E-02 0.  1.
    10030    2    1    2    0    0  0.00000000000E+00  0.00000000000E+00 -0.56252775511E+03  0.22816752990E+04  0.22112450554E+04 0.  0.
        2    1    3    3  502    0  0.23431660838E+03 -0.52653513054E+03  0.69232325393E+03  0.90080797321E+03  0.25500000920E-02 0. -1.
       -2    1    3    3    0  502 -0.23431660838E+03  0.52653513054E+03 -0.12548510090E+04  0.13808673258E+04  0.25500000920E-02 0.  1.
</event>
<event>
 5   0  0.3963414E-05  0.2194615E+04  0.7818609E-02  0.8520673E-01
        2   -1    0    0  501    0  0.00000000000E+00  0.00000000000E+00  0.20710243696E+04  0.20710243696E+04  0.25500000920E-02 0. -1.
       -2   -1    0    0    0  501  0.00000000000E+00  0.00000000000E+00 -0.58139515481E+03  0.58139515482E+03  0.25500000920E-02 0.  1.
    10030    2    1    2    0    0  0.00000000000E+00  0.00000000000E+00  0.14896292148E+04  0.26524195244E+04  0.21946148036E+04 0.  0.
        1    1    3    3  502    0 -0.24609037455E+03  0.86235626333E+03 -0.19444222032E+02  0.89699324141E+03  0.50400001928E-02 0.  1.
       -1    1    3    3    0  502  0.24609037455E+03 -0.86235626333E+03  0.15090734368E+04  0.17554262830E+04  0.50400001928E-02 0. -1.
</event>
<event>
 5   0  0.3963414E-05  0.2205965E+04  0.7818609E-02  0.8515949E-01
        2   -1    0    0  501    0  0.00000000000E+00  0.00000000000E+00  0.14273891021E+04  0.14273891021E+04  0.25500000920E-02 0. -1.
       -2   -1    0    0    0  501  0.00000000000E+00  0.00000000000E+00 -0.85230502017E+03  0.85230502017E+03  0.25500000920E-02 0.  1.
    10030    2    1    2    0    0  0.00000000000E+00  0.00000000000E+00  0.57508408193E+03  0.22796941223E+04  0.22059654553E+04 0.  0.
        1    1    3    3  502    0 -0.42530013865E+03 -0.94238372924E+03 -0.10949071818E+03  0.10396901069E+04  0.50400001928E-02 0.  1.
       -1    1    3    3    0  502  0.42530013865E+03  0.94238372924E+03  0.68457480012E+03  0.12400040153E+04  0.50400001928E-02 0. -1.
</event>
<event>
 5   0  0.1433375E-05  0.2218477E+04  0.7818609E-02  0.8510777E-01
       -3   -1    0    0    0  501  0.00000000000E+00  0.00000000000E+00  0.10108059393E+04  0.10108059443E+04  0.10100000352E+00 0. -1.
        3   -1    0    0  501    0  0.00000000000E+00  0.00000000000E+00 -0.12172562241E+04  0.12172562283E+04  0.10100000352E+00 0.  1.
    10030    2    1    2    0    0  0.00000000000E+00  0.00000000000E+00 -0.20645028480E+03  0.22280621726E+04  0.22184768029E+04 0.  0.
        4    1    3    3  502    0 -0.58997678775E+03 -0.90909044921E+03  0.13420732362E+03  0.10920308025E+04  0.12699999809E+01 0. -1.
       -4    1    3    3    0  502  0.58997678775E+03  0.90909044921E+03 -0.34065760842E+03  0.11360313702E+04  0.12699999809E+01 0.  1.
</event>
<event>
 5   0  0.1866935E-05  0.2204423E+04  0.7818609E-02  0.8516589E-01
        1   -1    0    0  501    0  0.00000000000E+00  0.00000000000E+00  0.27004303783E+04  0.27004303784E+04  0.50400001928E-02 0.  1.
       -1   -1    0    0    0  501  0.00000000000E+00  0.00000000000E+00 -0.44988032363E+03  0.44988032366E+03  0.50400001928E-02 0. -1.
    10030    2    1    2    0    0  0.00000000000E+00  0.00000000000E+00  0.22505500547E+04  0.31503107020E+04  0.22044232739E+04 0.  0.
        4    1    3    3  502    0 -0.13711866226E+03  0.31412443828E+03 -0.37178609187E+03  0.50567005179E+03  0.12699999809E+01 0. -1.
       -4    1    3    3    0  502  0.13711866226E+03 -0.31412443828E+03  0.26223361466E+04  0.26446406502E+04  0.12699999809E+01 0.  1.
</event>
<event>
 5   0  0.4027923E-05  0.2199629E+04  0.7818609E-02  0.8518582E-01
       -2   -1    0    0    0  501  0.00000000000E+00  0.00000000000E+00  0.10538394364E+04  0.10538394364E+04  0.25500000920E-02 0. -1.
        2   -1    0    0  501    0  0.00000000000E+00  0.00000000000E+00 -0.11477957742E+04  0.11477957742E+04  0.25500000920E-02 0.  1.
    10030    2    1    2    0    0  0.00000000000E+00  0.00000000000E+00 -0.93956337745E+02  0.22016352106E+04  0.21996294704E+04 0.  0.
        5    1    3    3  502    0  0.76061144384E+03  0.21099795421E+03 -0.81352274416E+03  0.11335304365E+04  0.46999998093E+01 0.  1.
       -5    1    3    3    0  502 -0.76061144384E+03 -0.21099795421E+03  0.71956640642E+03  0.10681047741E+04  0.46999998093E+01 0. -1.
</event>
<event>
 5   0  0.1786228E-05  0.2180082E+04  0.7818609E-02  0.8526764E-01
       -1   -1    0    0    0  501  0.00000000000E+00  0.00000000000E+00  0.12278210424E+04  0.12278210424E+04  0.50400001928E-02 0. -1.
        1   -1    0    0  501    0  0.00000000000E+00  0.00000000000E+00 -0.96772232247E+03  0.96772232248E+03  0.50400001928E-02 0.  1.
    10030    2    1    2    0    0  0.00000000000E+00  0.00000000000E+00  0.26009871993E+03  0.21955433649E+04  0.21800824120E+04 0.  0.
        5    1    3    3  502    0  0.20883552002E+03 -0.88957806711E+03  0.72857580879E+03  0.11686771201E+04  0.46999998093E+01 0. -1.
       -5    1    3    3    0  502 -0.20883552002E+03  0.88957806711E+03 -0.46847708886E+03  0.10268662448E+04  0.46999998093E+01 0.  1.
</event>
<event>
 5   0  0.1815681E-05  0.2203562E+04  0.7818609E-02  0.8516947E-01
        1   -1    0    0  501    0  0.00000000000E+00  0.00000000000E+00  0.16054853419E+04  0.16054853419E+04  0.50400001928E-02 0. -1.
       -1   -1    0    0    0  501  0.00000000000E+00  0.00000000000E+00 -0.75610887225E+03  0.75610887226E+03  0.50400001928E-02 0.  1.
    10030    2    1    2    0    0  0.00000000000E+00  0.00000000000E+00  0.84937646965E+03  0.23615942142E+04  0.22035623080E+04 0.  0.
        2    1    3    3  502    0 -0.10475222148E+04  0.11238798112E+03  0.79090198295E+02  0.10564985132E+04  0.25500000920E-02 0.  1.
       -2    1    3    3    0  502  0.10475222148E+04 -0.11238798112E+03  0.77028627136E+03  0.13050957010E+04  0.25500000920E-02 0. -1.
</event>
<event>
 5   0  0.4027923E-05  0.2192252E+04  0.7818609E-02  0.8521660E-01
       -2   -1    0    0    0  501  0.00000000000E+00  0.00000000000E+00  0.49612463833E+03  0.49612463834E+03  0.25500000920E-02 0.  1.
        2   -1    0    0  501    0  0.00000000000E+00  0.00000000000E+00 -0.24217557840E+04  0.24217557840E+04  0.25500000920E-02 0. -1.
    10030    2    1    2    0    0  0.00000000000E+00  0.00000000000E+00 -0.19256311456E+04  0.29178804223E+04  0.21922524603E+04 0.  0.
        5    1    3    3  502    0  0.65332882680E+02  0.61525127960E+03  0.24147381109E+03  0.66417935383E+03  0.46999998093E+01 0.  1.
       -5    1    3    3    0  502 -0.65332882680E+02 -0.61525127960E+03 -0.21671049567E+04  0.22537010685E+04  0.46999998093E+01 0. -1.
</event>
<event>
 5   0  0.3963414E-05  0.2196245E+04  0.7818609E-02  0.8519993E-01
       -2   -1    0    0    0  501  0.00000000000E+00  0.00000000000E+00  0.58733028684E+03  0.58733028685E+03  0.25500000920E-02 0.  1.
        2   -1    0    0  501    0  0.00000000000E+00  0.00000000000E+00 -0.20531423598E+04  0.20531423598E+04  0.25500000920E-02 0. -1.
    10030    2    1    2    0    0  0.00000000000E+00  0.00000000000E+00 -0.14658120729E+04  0.26404726466E+04  0.21962446959E+04 0.  0.
        1    1    3    3  502    0  0.15234287622E+03 -0.67570961107E+03  0.29155027339E+03  0.75152737300E+03  0.50400001928E-02 0.  1.
       -1    1    3    3    0  502 -0.15234287622E+03  0.67570961107E+03 -0.17573623463E+04  0.18889452736E+04  0.50400001928E-02 0. -1.
</event>
<event>
 5   0  0.1815681E-05  0.2202367E+04  0.7818609E-02  0.8517443E-01
       -1   -1    0    0    0  501  0.00000000000E+00  0.00000000000E+00  0.10587539214E+04  0.10587539214E+04  0.50400001928E-02 0.  1.
        1   -1    0    0  501    0  0.00000000000E+00  0.00000000000E+00 -0.11453137692E+04  0.11453137692E+04  0.50400001928E-02 0. -1.
    10030    2    1    2    0    0  0.00000000000E+00  0.00000000000E+00 -0.86559847805E+02  0.22040676906E+04  0.22023673121E+04 0.  0.
        2    1    3    3  502    0  0.26336014860E+03  0.17824698004E+03 -0.10983589838E+04  0.11434697246E+04  0.25500000920E-02 0. -1.
       -2    1    3    3    0  502 -0.26336014860E+03 -0.17824698004E+03  0.10117991360E+04  0.10605979660E+04  0.25500000920E-02 0.  1.
</event>
<event>
 5   0  0.1786228E-05  0.2203857E+04  0.7818609E-02  0.8516825E-01
       -1   -1    0    0    0  501  0.00000000000E+00  0.00000000000E+00  0.19238158883E+04  0.19238158883E+04  0.50400001928E-02 0. -1.
        1   -1    0    0  501    0  0.00000000000E+00  0.00000000000E+00 -0.63116532497E+03  0.63116532499E+03  0.50400001928E-02 0.  1.
    10030    2    1    2    0    0  0.00000000000E+00  0.00000000000E+00  0.12926505634E+04  0.25549812133E+04  0.22038565111E+04 0.  0.
        5    1    3    3  502    0  0.14633276223E+03  0.10907173699E+04  0.71135215602E+03  0.13103898802E+04  0.46999998093E+01 0.  1.
       -5    1    3    3    0  502 -0.14633276223E+03 -0.10907173699E+04  0.58129840734E+03  0.12445913332E+04  0.46999998093E+01 0. -1.
</event>
<event>
 5   0  0.1884407E-05  0.2193751E+04  0.7818609E-02  0.8521034E-01
       -1   -1    0    0    0  501  0.00000000000E+00  0.00000000000E+00  0.62993085227E+03  0.62993085229E+03  0.50400001928E-02 0.  1.
        1   -1    0    0  501    0  0.00000000000E+00  0.00000000000E+00 -0.19099484222E+04  0.19099484222E+04  0.50400001928E-02 0. -1.
    10030    2    1    2    0    0  0.00000000000E+00  0.00000000000E+00 -0.12800175699E+04  0.25398792745E+04  0.21937506125E+04 0.  0.
        3    1    3    3  502    0  0.27168557756E+03 -0.96519284922E+03 -0.12518718161E+03  0.10104860859E+04  0.10100000352E+00 0.  1.
       -3    1    3    3    0  502 -0.27168557756E+03  0.96519284922E+03 -0.11548303883E+04  0.15293931886E+04  0.10100000352E+00 0. -1.
</event>
<event>
 5   0  0.1884407E-05  0.2198768E+04  0.7818609E-02  0.8518941E-01
       -1   -1    0    0    0  501  0.00000000000E+00  0.00000000000E+00  0.12766286610E+04  0.12766286610E+04  0.50400001928E-02 0. -1.
        1   -1    0    0  501    0  0.00000000000E+00  0.00000000000E+00 -0.94674762635E+03  0.94674762636E+03  0.50400001928E-02 0.  1.
    10030    2    1    2    0    0  0.00000000000E+00  0.00000000000E+00  0.32988103461E+03  0.22233762873E+04  0.21987679773E+04 0.  0.
        3    1    3    3  502    0 -0.64161298569E+03  0.72237787163E+03  0.69535680320E+03  0.11903856966E+04  0.10100000352E+00 0. -1.
       -3    1    3    3    0  502  0.64161298569E+03 -0.72237787163E+03 -0.36547576859E+03  0.10329905907E+04  0.10100000352E+00 0.  1.
</event>
<event>
 5   0  0.1786228E-05  0.2200968E+04  0.7818609E-02  0.8518025E-01
        1   -1    0    0  501    0  0.00000000000E+00  0.00000000000E+00  0.18157277016E+04  0.18157277016E+04  0.50400001928E-02 0.  1.
       -1   -1    0    0    0  501  0.00000000000E+00  0.00000000000E+00 -0.66698606610E+03  0.66698606612E+03  0.50400001928E-02 0. -1.
    10030    2    1    2    0    0  0.00000000000E+00  0.00000000000E+00  0.11487416355E+04  0.24827137677E+04  0.22009680387E+04 0.  0.
        5    1    3    3  502    0 -0.92300827783E+03  0.49556091259E+02  0.12480136726E+04  0.15530487127E+04  0.46999998093E+01 0.  1.
       -5    1    3    3    0  502  0.92300827783E+03 -0.49556091259E+02 -0.99272037099E+02  0.92966505499E+03  0.46999998093E+01 0. -1.
</event>
<event>
 5   0  0.1866935E-05  0.2178046E+04  0.7818609E-02  0.8527622E-01
        1   -1    0    0  501    0  0.00000000000E+00  0.00000000000E+00  0.16571067917E+04  0.16571067917E+04  0.50400001928E-02 0.  1.
       -1   -1    0    0    0  501  0.00000000000E+00  0.00000000000E+00 -0.71568805519E+03  0.71568805521E+03  0.50400001928E-02 0. -1.
    10030    2    1    2    0    0  0.00000000000E+00  0.00000000000E+00  0.94141873646E+03  0.23727948469E+04  0.21780464063E+04 0.  0.
        4    1    3    3  502    0  0.27226431290E+03 -0.92108253687E+03 -0.88457411913E+02  0.96454508575E+03  0.12699999809E+01 0. -1.
       -4    1    3    3    0  502 -0.27226431290E+03  0.92108253687E+03  0.10298761484E+04  0.14082497611E+04  0.12699999809E+01 0.  1.
</event>
<event>
 5   0  0.1786228E-05  0.2205848E+04  0.7818609E-02  0.8515998E-01
       -1   -1    0    0    0  501  0.00000000000E+00  0.00000000000E+00  0.14225212552E+04  0.14225212552E+04  0.50400001928E-02 0.  1.
        1   -1    0    0  501    0  0.00000000000E+00  0.00000000000E+00 -0.85513082199E+03  0.85513082200E+03  0.50400001928E-02 0. -1.
    10030    2    1    2    0    0  0.00000000000E+00  0.00000000000E+00  0.56739043319E+03  0.22776520772E+04  0.22058483813E+04 0.  0.
        5    1    3    3  502    0 -0.94516179166E+02  0.51977211627E+03 -0.71597427224E+03  0.88979638653E+03  0.46999998093E+01 0. -1.
       -5    1    3    3    0  502  0.94516179166E+02 -0.51977211627E+03  0.12833647054E+04  0.13878556907E+04  0.46999998093E+01 0.  1.
</event>
<event>
 5   0  0.4132460E-05  0.2218889E+04  0.7818609E-02  0.8510607E-01
       -2   -1    0    0    0  501  0.00000000000E+00  0.00000000000E+00  0.10018996498E+04  0.10018996498E+04  0.25500000920E-02 0.  1.
        2   -1    0    0  501    0  0.00000000000E+00  0.00000000000E+00 -0.12285330220E+04  0.12285330220E+04  0.25500000920E-02 0. -1.
    10030    2    1    2    0    0  0.00000000000E+00  0.00000000000E+00 -0.22663337220E+03  0.22304326718E+04  0.22188887349E+04 0.  0.
        4    1    3    3  502    0  0.56958595949E+03 -0.18809406042E+03  0.82484359574E+03  0.10198902447E+04  0.12699999809E+01 0.  1.
       -4    1    3    3    0  502 -0.56958595949E+03  0.18809406042E+03 -0.10514769679E+04  0.12105424271E+04  0.12699999809E+01 0. -1.
</event>
<event>
 5   0  0.1786228E-05  0.2214210E+04  0.7818609E-02  0.8512537E-01
        1   -1    0    0  501    0  0.00000000000E+00  0.00000000000E+00  0.10111496881E+04  0.10111496881E+04  0.50400001928E-02 0. -1.
       -1   -1    0    0    0  501  0.00000000000E+00  0.00000000000E+00 -0.12121661332E+04  0.12121661332E+04  0.50400001928E-02 0.  1.
    10030    2    1    2    0    0  0.00000000000E+00  0.00000000000E+00 -0.20101644505E+03  0.22233158213E+04  0.22142099336E+04 0.  0.
        5    1    3    3  502    0  0.36940086337E+03 -0.98034407046E+03  0.25891330665E+03  0.10791615656E+04  0.46999998093E+01 0. -1.
       -5    1    3    3    0  502 -0.36940086337E+03  0.98034407046E+03 -0.45992975170E+03  0.11441542557E+04  0.46999998093E+01 0.  1.
</event>
<event>
 5   0  0.4029532E-05  0.2197751E+04  0.7818609E-02  0.8519365E-01
       -2   -1    0    0    0  501  0.00000000000E+00  0.00000000000E+00  0.85141175896E+03  0.85141175896E+03  0.25500000920E-02 0.  1.
        2   -1    0    0  501    0  0.00000000000E+00  0.00000000000E+00 -0.14182652351E+04  0.14182652351E+04  0.25500000920E-02 0. -1.
    10030    2    1    2    0    0  0.00000000000E+00  0.00000000000E+00 -0.56685347618E+03  0.22696769941E+04  0.21977513040E+04 0.  0.
        3    1    3    3  502    0  0.14634943031E+02  0.99420334165E+03  0.19972308512E+03  0.10141714781E+04  0.10100000352E+00 0. -1.
       -3    1    3    3    0  502 -0.14634943031E+02 -0.99420334165E+03 -0.76657656130E+03  0.12555055160E+04  0.10100000352E+00 0.  1.
</event>
<event>
 5   0  0.4029532E-05  0.2146437E+04  0.7818609E-02  0.8541059E-01
        2   -1    0    0  501    0  0.00000000000E+00  0.00000000000E+00  0.15452658665E+04  0.15452658665E+04  0.25500000920E-02 0.  1.
       -2   -1    0    0    0  501  0.00000000000E+00  0.00000000000E+00 -0.74537219393E+03  0.74537219394E+03  0.25500000920E-02 0. -1.
    10030    2    1    2    0    0  0.00000000000E+00  0.00000000000E+00  0.79989367258E+03  0.22906380605E+04  0.21464372426E+04 0.  0.
        3    1    3    3  502    0  0.37627582233E+03  0.56601609658E+03 -0.48641819894E+03  0.83579925252E+03  0.10100000352E+00 0. -1.
       -3    1    3    3    0  502 -0.37627582233E+03 -0.56601609658E+03  0.12863118715E+04  0.14548388079E+04  0.10100000352E+00 0.  1.
</event>
<event>
 5   0  0.1433375E-05  0.2201355E+04  0.7818609E-02  0.8517864E-01
       -4   -1    0    0    0  501  0.00000000000E+00  0.00000000000E+00  0.96001144388E+03  0.96001228392E+03  0.12699999809E+01 0.  1.
        4   -1    0    0  501    0  0.00000000000E+00  0.00000000000E+00 -0.12619533881E+04  0.12619540272E+04  0.12699999809E+01 0. -1.
    10030    2    1    2    0    0  0.00000000000E+00  0.00000000000E+00 -0.30194194424E+03  0.22219663111E+04  0.22013553439E+04 0.  0.
        1    1    3    3  502    0 -0.96368494448E+03 -0.21394780104E+03 -0.64238558113E+03  0.11777612528E+04  0.50400001928E-02 0. -1.
       -1    1    3    3    0  502  0.96368494448E+03  0.21394780104E+03  0.34044363689E+03  0.10442050583E+04  0.50400001928E-02 0.  1.
</event>
<event>
 5   0  0.4027923E-05  0.2222607E+04  0.7818609E-02  0.8509077E-01
        2   -1    0    0  501    0  0.00000000000E+00  0.00000000000E+00  0.90242539558E+03  0.90242539559E+03  0.25500000920E-02 0.  1.
       -2   -1    0    0    0  501  0.00000000000E+00  0.00000000000E+00 -0.13685290840E+04  0.13685290840E+04  0.25500000920E-02 0. -1.
    10030    2    1    2    0    0  0.00000000000E+00  0.00000000000E+00 -0.46610368841E+03  0.22709544796E+04  0.22226069378E+04 0.  0.
        5    1    3    3  502    0 -0.41916795165E+03  0.17611970582E+03  0.80303423327E+03  0.92282500631E+03  0.46999998093E+01 0.  1.
       -5    1    3    3    0  502  0.41916795165E+03 -0.17611970582E+03 -0.12691379217E+04  0.13481294733E+04  0.46999998093E+01 0. -1.
</event>
<event>
 5   0  0.1786228E-05  0.2192965E+04  0.7818609E-02  0.8521362E-01
       -1   -1    0    0    0  501  0.00000000000E+00  0.00000000000E+00  0.89531552302E+03  0.89531552304E+03  0.50400001928E-02 0. -1.
        1   -1    0    0  501    0  0.00000000000E+00  0.00000000000E+00 -0.13428488784E+04  0.13428488784E+04  0.50400001928E-02 0.  1.
    10030    2    1    2    0    0  0.00000000000E+00  0.00000000000E+00 -0.44753335535E+03  0.22381644014E+04  0.21929646107E+04 0.  0.
        5    1    3    3  502    0  0.29418682004E+03 -0.11058898349E+03  0.84834917476E+03  0.90470670423E+03  0.46999998093E+01 0. -1.
       -5    1    3    3    0  502 -0.29418682004E+03  0.11058898349E+03 -0.12958825301E+04  0.13334576972E+04  0.46999998093E+01 0.  1.
</event>
<event>
 5   0  0.1815681E-05  0.2196940E+04  0.7818609E-02  0.8519703E-01
        1   -1    0    0  501    0  0.00000000000E+00  0.00000000000E+00  0.75604669128E+03  0.75604669130E+03  0.50400001928E-02 0. -1.
       -1   -1    0    0    0  501  0.00000000000E+00  0.00000000000E+00 -0.15959806502E+04  0.15959806503E+04  0.50400001928E-02 0.  1.
    10030    2    1    2    0    0  0.00000000000E+00  0.00000000000E+00 -0.83993395897E+03  0.23520273416E+04  0.21969395895E+04 0.  0.
        2    1    3    3  502    0 -0.13091016790E+03 -0.24193913670E+03  0.71857386912E+03  0.76942863432E+03  0.25500000920E-02 0. -1.
       -2    1    3    3    0  502  0.13091016790E+03  0.24193913670E+03 -0.15585078281E+04  0.15825987072E+04  0.25500000920E-02 0.  1.
</event>
<event>
 5   0  0.4027923E-05  0.1964054E+04  0.7818609E-02  0.8623613E-01
        2   -1    0    0  501    0  0.00000000000E+00  0.00000000000E+00  0.10258949605E+04  0.10258949605E+04  0.25500000920E-02 0. -1.
       -2   -1    0    0    0  501  0.00000000000E+00  0.00000000000E+00 -0.94003514782E+03  0.94003514782E+03  0.25500000920E-02 0.  1.
    10030    2    1    2    0    0  0.00000000000E+00  0.00000000000E+00  0.85859812715E+02  0.19659301084E+04  0.19640542975E+04 0.  0.
        5    1    3    3  502    0  0.41994288478E+02  0.65365102949E+03 -0.68943277057E+03  0.95097992815E+03  0.46999998093E+01 0.  1.
       -5    1    3    3    0  502 -0.41994288478E+02 -0.65365102949E+03  0.77529258328E+03  0.10149501802E+04  0.46999998093E+01 0. -1.
</event>
<event>
 5   0  0.3963414E-05  0.2197823E+04  0.7818609E-02  0.8519335E-01
       -2   -1    0    0    0  501  0.00000000000E+00  0.00000000000E+00  0.99603809842E+03  0.99603809843E+03  0.25500000920E-02 0.  1.
        2   -1    0    0  501    0  0.00000000000E+00  0.00000000000E+00 -0.12124093830E+04  0.12124093830E+04  0.25500000920E-02 0. -1.
    10030    2    1    2    0    0  0.00000000000E+00  0.00000000000E+00 -0.21637128457E+03  0.22084474814E+04  0.21978225009E+04 0.  0.
        1    1    3    3  502    0 -0.27913024561E+03  0.75452549701E+03 -0.86039223715E+03  0.11779207195E+04  0.50400001928E-02 0. -1.
       -1    1    3    3    0  502  0.27913024561E+03 -0.75452549701E+03  0.64402095258E+03  0.10305267619E+04  0.50400001928E-02 0.  1.
</event>
<event>
 5   0  0.1815681E-05  0.2198440E+04  0.7818609E-02  0.8519078E-01
       -1   -1    0    0    0  501  0.00000000000E+00  0.00000000000E+00  0.70801931950E+03  0.70801931952E+03  0.50400001928E-02 0. -1.
        1   -1    0    0  501    0  0.00000000000E+00  0.00000000000E+00 -0.17065705273E+04  0.17065705273E+04  0.50400001928E-02 0.  1.
    10030    2    1    2    0    0  0.00000000000E+00  0.00000000000E+00 -0.99855120779E+03  0.24145898468E+04  0.21984402684E+04 0.  0.
        2    1    3    3  502    0  0.97981134432E+03 -0.34222492256E+03 -0.89700792403E+03  0.13717767252E+04  0.25500000920E-02 0.  1.
       -2    1    3    3    0  502 -0.97981134432E+03  0.34222492256E+03 -0.10154328376E+03  0.10428131216E+04  0.25500000920E-02 0. -1.
</event>
<event>
 5   0  0.3963414E-05  0.2206269E+04  0.7818609E-02  0.8515823E-01
        2   -1    0    0  501    0  0.00000000000E+00  0.00000000000E+00  0.98433387938E+03  0.98433387939E+03  0.25500000920E-02 0. -1.
       -2   -1    0    0    0  501  0.00000000000E+00  0.00000000000E+00 -0.12362734027E+04  0.12362734027E+04  0.25500000920E-02 0.  1.
    10030    2    1    2    0    0  0.00000000000E+00  0.00000000000E+00 -0.25193952329E+03  0.22206072821E+04  0.22062690629E+04 0.  0.
        1    1    3    3  502    0 -0.45735029882E+03 -0.10511950817E+03 -0.11307996578E+04  0.12243068541E+04  0.50400001928E-02 0.  1.
       -1    1    3    3    0  502  0.45735029882E+03  0.10511950817E+03  0.87886013449E+03  0.99630042801E+03  0.50400001928E-02 0. -1.
</event>
<event>
 5   0  0.1866935E-05  0.2187828E+04  0.7818609E-02  0.8523512E-01
       -1   -1    0    0    0  501  0.00000000000E+00  0.00000000000E+00  0.77966377055E+03  0.77966377057E+03  0.50400001928E-02 0.  1.
        1   -1    0    0  501    0  0.00000000000E+00  0.00000000000E+00 -0.15348254412E+04  0.15348254412E+04  0.50400001928E-02 0. -1.
    10030    2    1    2    0    0  0.00000000000E+00  0.00000000000E+00 -0.75516167061E+03  0.23144892117E+04  0.21878279554E+04 0.  0.
        4    1    3    3  502    0  0.32185478299E+02 -0.16597422631E+03  0.76575836875E+03  0.78420076577E+03  0.12699999809E+01 0.  1.
       -4    1    3    3    0  502 -0.32185478299E+02  0.16597422631E+03 -0.15209200394E+04  0.15302884460E+04  0.12699999809E+01 0. -1.
</event>
<event>
 5   0  0.4029532E-05  0.2202491E+04  0.7818609E-02  0.8517392E-01
        2   -1    0    0  501    0  0.00000000000E+00  0.00000000000E+00  0.93338921668E+03  0.93338921668E+03  0.25500000920E-02 0.  1.
       -2   -1    0    0    0  501  0.00000000000E+00  0.00000000000E+00 -0.12992878365E+04  0.12992878365E+04  0.25500000920E-02 0. -1.
    10030    2    1    2    0    0  0.00000000000E+00  0.00000000000E+00 -0.36589861982E+03  0.22326770532E+04  0.22024906410E+04 0.  0.
        3    1    3    3  502    0  0.87210774920E+03  0.58742378481E+03  0.14880141286E+03  0.10619701031E+04  0.10100000352E+00 0.  1.
       -3    1    3    3    0  502 -0.87210774920E+03 -0.58742378481E+03 -0.51470003268E+03  0.11707069501E+04  0.10100000352E+00 0. -1.
</event>
<event>
 5   0  0.1866935E-05  0.2221281E+04  0.7818609E-02  0.8509623E-01
       -1   -1    0    0    0  501  0.00000000000E+00  0.00000000000E+00  0.64468094157E+03  0.64468094159E+03  0.50400001928E-02 0. -1.
        1   -1    0    0  501    0  0.00000000000E+00  0.00000000000E+00 -0.19133835940E+04  0.19133835940E+04  0.50400001928E-02 0.  1.
    10030    2    1    2    0    0  0.00000000000E+00  0.00000000000E+00 -0.12687026524E+04  0.25580645356E+04  0.22212806549E+04 0.  0.
        4    1    3    3  502    0 -0.15298210521E+03  0.41222284919E+03  0.54017895036E+03  0.69650995199E+03  0.12699999809E+01 0. -1.
       -4    1    3    3    0  502  0.15298210521E+03 -0.41222284919E+03 -0.18088816028E+04  0.18615545836E+04  0.12699999809E+01 0.  1.
</event>
<event>
 5   0  0.4029532E-05  0.2193557E+04  0.7818609E-02  0.8521115E-01
       -2   -1    0    0    0  501  0.00000000000E+00  0.00000000000E+00  0.81488383671E+03  0.81488383671E+03  0.25500000920E-02 0.  1.
        2   -1    0    0  501    0  0.00000000000E+00  0.00000000000E+00 -0.14761897538E+04  0.14761897538E+04  0.25500000920E-02 0. -1.
    10030    2    1    2    0    0  0.00000000000E+00  0.00000000000E+00 -0.66130591710E+03  0.22910735905E+04  0.21935570841E+04 0.  0.
        3    1    3    3  502    0 -0.38182855560E+03  0.10905809469E+03 -0.13984712864E+04  0.14537567414E+04  0.10100000352E+00 0. -1.
       -3    1    3    3    0  502  0.38182855560E+03 -0.10905809469E+03  0.73716536935E+03  0.83731684914E+03  0.10100000352E+00 0.  1.
</event>
<event>
 5   0  0.4132460E-05  0.2197889E+04  0.7818609E-02  0.8519307E-01
       -2   -1    0    0    0  501  0.00000000000E+00  0.00000000000E+00  0.82757511179E+03  0.82757511180E+03  0.25500000920E-02 0.  1.
        2   -1    0    0  501    0  0.00000000000E+00  0.00000000000E+00 -0.14592977441E+04  0.14592977441E+04  0.25500000920E-02 0. -1.
    10030    2    1    2    0    0  0.00000000000E+00  0.00000000000E+00 -0.63172263231E+03  0.22868728559E+04  0.21978885265E+04 0.  0.
        4    1    3    3  502    0  0.72595780878E+03 -0.72566906840E+03  0.92543192462E+02  0.10306193246E+04  0.12699999809E+01 0.  1.
       -4    1    3    3    0  502 -0.72595780878E+03  0.72566906840E+03 -0.72426582477E+03  0.12562535313E+04  0.12699999809E+01 0. -1.
</event>
<event>
 5   0  0.4143281E-05  0.2204430E+04  0.7818609E-02  0.8516586E-01
       -2   -1    0    0    0  501  0.00000000000E+00  0.00000000000E+00  0.75672584170E+03  0.75672584170E+03  0.25500000920E-02 0.  1.
        2   -1    0    0  501    0  0.00000000000E+00  0.00000000000E+00 -0.16054405194E+04  0.16054405194E+04  0.25500000920E-02 0. -1.
    10030    2    1    2    0    0  0.00000000000E+00  0.00000000000E+00 -0.84871467773E+03  0.23621663611E+04  0.22044303830E+04 0.  0.
        2    1    3    3  502    0  0.76745711205E+02  0.19913017999E+03 -0.15830911445E+04  0.15974104997E+04  0.25500000920E-02 0. -1.
       -2    1    3    3    0  502 -0.76745711205E+02 -0.19913017999E+03  0.73437646672E+03  0.76475586147E+03  0.25500000920E-02 0.  1.
</event>
<event>
 5   0  0.4143281E-05  0.2200765E+04  0.7818609E-02  0.8518110E-01
       -2   -1    0    0    0  501  0.00000000000E+00  0.00000000000E+00  0.92444543940E+03  0.92444543940E+03  0.25500000920E-02 0. -1.
        2   -1    0    0  501    0  0.00000000000E+00  0.00000000000E+00 -0.13098032680E+04  0.13098032680E+04  0.25500000920E-02 0.  1.
    10030    2    1    2    0    0  0.00000000000E+00  0.00000000000E+00 -0.38535782861E+03  0.22342487074E+04  0.22007650103E+04 0.  0.
        2    1    3    3  502    0  0.49809642513E+03 -0.84548247106E+03  0.31279294450E+03  0.10299417866E+04  0.25500000920E-02 0.  1.
       -2    1    3    3    0  502 -0.49809642513E+03  0.84548247106E+03 -0.69815077311E+03  0.12043069208E+04  0.25500000920E-02 0. -1.
</event>
<event>
 5   0  0.1866935E-05  0.2193171E+04  0.7818609E-02  0.8521276E-01
        1   -1    0    0  501    0  0.00000000000E+00  0.00000000000E+00  0.94809688735E+03  0.94809688737E+03  0.50400001928E-02 0. -1.
       -1   -1    0    0    0  501  0.00000000000E+00  0.00000000000E+00 -0.12683295290E+04  0.12683295290E+04  0.50400001928E-02 0.  1.
    10030    2    1    2    0    0  0.00000000000E+00  0.00000000000E+00 -0.32023264168E+03  0.22164264164E+04  0.21931705621E+04 0.  0.
        4    1    3    3  502    0  0.99116627191E+03  0.23745710760E+03 -0.56900666361E+03  0.11672903035E+04  0.12699999809E+01 0.  1.
       -4    1    3    3    0  502 -0.99116627191E+03 -0.23745710760E+03  0.24877402194E+03  0.10491361129E+04  0.12699999809E+01 0. -1.
</event>
<event>
 5   0  0.4143281E-05  0.2123596E+04  0.7818609E-02  0.8550920E-01
       -2   -1    0    0    0  501  0.00000000000E+00  0.00000000000E+00  0.60705872106E+03  0.60705872106E+03  0.25500000920E-02 0. -1.
        2   -1    0    0  501    0  0.00000000000E+00  0.00000000000E+00 -0.18571759448E+04  0.18571759448E+04  0.25500000920E-02 0.  1.
    10030    2    1    2    0    0  0.00000000000E+00  0.00000000000E+00 -0.12501172237E+04  0.24642346658E+04  0.21235958691E+04 0.  0.
        2    1    3    3  502    0  0.45707403930E+03  0.19043657451E+03  0.46487893974E+03  0.67918715752E+03  0.25500000920E-02 0. -1.
       -2    1    3    3    0  502 -0.45707403930E+03 -0.19043657451E+03 -0.17149961634E+04  0.17850475083E+04  0.25500000920E-02 0.  1.
</event>
<event>
 5   0  0.4027923E-05  0.2239514E+04  0.7818609E-02  0.8502159E-01
       -2   -1    0    0    0  501  0.00000000000E+00  0.00000000000E+00  0.12664036969E+04  0.12664036969E+04  0.25500000920E-02 0.  1.
        2   -1    0    0  501    0  0.00000000000E+00  0.00000000000E+00 -0.99009190652E+03  0.99009190652E+03  0.25500000920E-02 0. -1.
    10030    2    1    2    0    0  0.00000000000E+00  0.00000000000E+00  0.27631179039E+03  0.22564956034E+04  0.22395142783E+04 0.  0.
        5    1    3    3  502    0  0.16032016043E+03  0.80527583647E+03 -0.62897267791E+03  0.10343115808E+04  0.46999998093E+01 0. -1.
       -5    1    3    3    0  502 -0.16032016043E+03 -0.80527583647E+03  0.90528446830E+03  0.12221840226E+04  0.46999998093E+01 0.  1.
</event>
<event>
 5   0  0.4027923E-05  0.2015366E+04  0.7818609E-02  0.8599470E-01
       -2   -1    0    0    0  501  0.00000000000E+00  0.00000000000E+00  0.91696224479E+03  0.91696224480E+03  0.25500000920E-02 0. -1.
        2   -1    0    0  501    0  0.00000000000E+00  0.00000000000E+00 -0.11073793579E+04  0.11073793579E+04  0.25500000920E-02 0.  1.
    10030    2    1    2    0    0  0.00000000000E+00  0.00000000000E+00 -0.19041711308E+03  0.20243416027E+04  0.20153660331E+04 0.  0.
        5    1    3    3  502    0  0.60880072190E+03 -0.51994602626E+03  0.51941590262E+03  0.95435693485E+03  0.46999998093E+01 0. -1.
       -5    1    3    3    0  502 -0.60880072190E+03  0.51994602626E+03 -0.70983301570E+03  0.10699846678E+04  0.46999998093E+01 0.  1.
</event>
<event>
 5   0  0.4029532E-05  0.2189134E+04  0.7818609E-02  0.8522965E-01
        2   -1    0    0  501    0  0.00000000000E+00  0.00000000000E+00  0.20052513035E+04  0.20052513035E+04  0.25500000920E-02 0. -1.
       -2   -1    0    0    0  501  0.00000000000E+00  0.00000000000E+00 -0.59746947942E+03  0.59746947943E+03  0.25500000920E-02 0.  1.
    10030    2    1    2    0    0  0.00000000000E+00  0.00000000000E+00  0.14077818241E+04  0.26027207829E+04  0.21891335751E+04 0.  0.
        3    1    3    3  502    0 -0.94873437128E+03  0.17009827631E+03  0.87198396315E+02  0.96779848180E+03  0.10100000352E+00 0.  1.
       -3    1    3    3    0  502  0.94873437128E+03 -0.17009827631E+03  0.13205834278E+04  0.16349223011E+04  0.10100000352E+00 0. -1.
</event>
<event>
 5   0  0.1786228E-05  0.2228261E+04  0.7818609E-02  0.8506757E-01
       -1   -1    0    0    0  501  0.00000000000E+00  0.00000000000E+00  0.52724471993E+03  0.52724471996E+03  0.50400001928E-02 0. -1.
        1   -1    0    0  501    0  0.00000000000E+00  0.00000000000E+00 -0.23542895848E+04  0.23542895848E+04  0.50400001928E-02 0.  1.
    10030    2    1    2    0    0  0.00000000000E+00  0.00000000000E+00 -0.18270448648E+04  0.28815343047E+04  0.22282609836E+04 0.  0.
        5    1    3    3  502    0  0.63118804762E+03 -0.70359379630E+03 -0.15085304810E+03  0.95719450154E+03  0.46999998093E+01 0. -1.
       -5    1    3    3    0  502 -0.63118804762E+03  0.70359379630E+03 -0.16761918167E+04  0.19243398032E+04  0.46999998093E+01 0.  1.
</event>
<event>
 5   0  0.1788413E-05  0.2190710E+04  0.7818609E-02  0.8522305E-01
        1   -1    0    0  501    0  0.00000000000E+00  0.00000000000E+00  0.13108683481E+04  0.13108683481E+04  0.50400001928E-02 0. -1.
       -1   -1    0    0    0  501  0.00000000000E+00  0.00000000000E+00 -0.91527275678E+03  0.91527275680E+03  0.50400001928E-02 0.  1.
    10030    2    1    2    0    0  0.00000000000E+00  0.00000000000E+00  0.39559559133E+03  0.22261411049E+04  0.21907095533E+04 0.  0.
        1    1    3    3  502    0  0.16781462861E+03 -0.71908091882E+03 -0.62433808536E+03  0.96697319624E+03  0.50400001928E-02 0.  1.
       -1    1    3    3    0  502 -0.16781462861E+03  0.71908091882E+03  0.10199336767E+04  0.12591679087E+04  0.50400001928E-02 0. -1.
</event>
<event>
 5   0  0.4029532E-05  0.2185070E+04  0.7818609E-02  0.8524668E-01
       -2   -1    0    0    0  501  0.00000000000E+00  0.00000000000E+00  0.10684240488E+04  0.10684240488E+04  0.25500000920E-02 0.  1.
        2   -1    0    0  501    0  0.00000000000E+00  0.00000000000E+00 -0.11171898725E+04  0.11171898725E+04  0.25500000920E-02 0. -1.
    10030    2    1    2    0    0  0.00000000000E+00  0.00000000000E+00 -0.48765823679E+02  0.21856139213E+04  0.21850698175E+04 0.  0.
        3    1    3    3  502    0  0.56796484413E+03 -0.78948665630E+03  0.47349526235E+03  0.10816982104E+04  0.10100000352E+00 0.  1.
       -3    1    3    3    0  502 -0.56796484413E+03  0.78948665630E+03 -0.52226108603E+03  0.11039157109E+04  0.10100000352E+00 0. -1.
</event>
<event>
 5   0  0.1815681E-05  0.2193620E+04  0.7818609E-02  0.8521088E-01
        1   -1    0    0  501    0  0.00000000000E+00  0.00000000000E+00  0.16654800728E+04  0.16654800728E+04  0.50400001928E-02 0.  1.
       -1   -1    0    0    0  501  0.00000000000E+00  0.00000000000E+00 -0.72230972540E+03  0.72230972542E+03  0.50400001928E-02 0. -1.
    10030    2    1    2    0    0  0.00000000000E+00  0.00000000000E+00  0.94317034744E+03  0.23877897983E+04  0.21936202535E+04 0.  0.
        2    1    3    3  502    0 -0.92894559650E+03 -0.32379731053E+03 -0.56325614109E+02  0.98537160218E+03  0.25500000920E-02 0. -1.
       -2    1    3    3    0  502  0.92894559650E+03  0.32379731053E+03  0.99949596155E+03  0.14024181961E+04  0.25500000920E-02 0.  1.
</event>
<event>
 5   0  0.4132460E-05  0.2164473E+04  0.7818609E-02  0.8533363E-01
       -2   -1    0    0    0  501  0.00000000000E+00  0.00000000000E+00  0.43284842314E+03  0.43284842315E+03  0.25500000920E-02 0.  1.
        2   -1    0    0  501    0  0.00000000000E+00  0.00000000000E+00 -0.27058787074E+04  0.27058787074E+04  0.25500000920E-02 0. -1.
    10030    2    1    2    0    0  0.00000000000E+00  0.00000000000E+00 -0.22730302843E+04  0.31387271306E+04  0.21644725286E+04 0.  0.
        4    1    3    3  502    0 -0.22693386735E+03 -0.90798572656E+03 -0.19245233660E+04  0.21400301071E+04  0.12699999809E+01 0. -1.
       -4    1    3    3    0  502  0.22693386735E+03  0.90798572656E+03 -0.34850691823E+03  0.99869702350E+03  0.12699999809E+01 0.  1.
</event>
<event>
 5   0  0.1866935E-05  0.2201065E+04  0.7818609E-02  0.8517985E-01
       -1   -1    0    0    0  501  0.00000000000E+00  0.00000000000E+00  0.11490026116E+04  0.11490026116E+04  0.50400001928E-02 0.  1.
        1   -1    0    0  501    0  0.00000000000E+00  0.00000000000E+00 -0.10541068493E+04  0.10541068493E+04  0.50400001928E-02 0. -1.
    10030    2    1    2    0    0  0.00000000000E+00  0.00000000000E+00  0.94895762325E+02  0.22031094609E+04  0.22010647630E+04 0.  0.
        4    1    3    3  502    0 -0.77208501984E+03  0.76257141043E+03  0.23075586922E+03  0.11094504576E+04  0.12699999809E+01 0.  1.
       -4    1    3    3    0  502  0.77208501984E+03 -0.76257141043E+03 -0.13586010690E+03  0.10936590033E+04  0.12699999809E+01 0. -1.
</event>
<event>
 5   0  0.4132460E-05  0.2152630E+04  0.7818609E-02  0.8538408E-01
        2   -1    0    0  501    0  0.00000000000E+00  0.00000000000E+00  0.27461234997E+04  0.27461234997E+04  0.25500000920E-02 0. -1.
       -2   -1    0    0    0  501  0.00000000000E+00  0.00000000000E+00 -0.42185047332E+03  0.42185047333E+03  0.25500000920E-02 0.  1.
    10030    2    1    2    0    0  0.00000000000E+00  0.00000000000E+00  0.23242730263E+04  0.31679739730E+04  0.21526295530E+04 0.  0.
        4    1    3    3  502    0  0.35299892419E+03  0.51809359655E+03  0.24496831447E+04  0.25286317126E+04  0.12699999809E+01 0. -1.
       -4    1    3    3    0  502 -0.35299892419E+03 -0.51809359655E+03 -0.12541011840E+03  0.63934226042E+03  0.12699999809E+01 0.  1.
</event>
<event>
 5   0  0.3963414E-05  0.2201179E+04  0.7818609E-02  0.8517938E-01
       -2   -1    0    0    0  501  0.00000000000E+00  0.00000000000E+00  0.66470862791E+03  0.66470862792E+03  0.25500000920E-02 0.  1.
        2   -1    0    0  501    0  0.00000000000E+00  0.00000000000E+00 -0.18222976096E+04  0.18222976096E+04  0.25500000920E-02 0. -1.
    10030    2    1    2    0    0  0.00000000000E+00  0.00000000000E+00 -0.11575889817E+04  0.24870062375E+04  0.22011787240E+04 0.  0.
        1    1    3    3  502    0  0.10235868820E+04  0.25779329903E+03 -0.22670559909E+03  0.10796216554E+04  0.50400001928E-02 0.  1.
       -1    1    3    3    0  502 -0.10235868820E+04 -0.25779329903E+03 -0.93088338259E+03  0.14073845821E+04  0.50400001928E-02 0. -1.
</event>
<event>
 5   0  0.4143281E-05  0.2199486E+04  0.7818609E-02  0.8518642E-01
       -2   -1    0    0    0  501  0.00000000000E+00  0.00000000000E+00  0.70869239474E+03  0.70869239475E+03  0.25500000920E-02 0. -1.
        2   -1    0    0  501    0  0.00000000000E+00  0.00000000000E+00 -0.17065721893E+04  0.17065721893E+04  0.25500000920E-02 0.  1.
    10030    2    1    2    0    0  0.00000000000E+00  0.00000000000E+00 -0.99787979455E+03  0.24152645840E+04  0.21994860596E+04 0.  0.
        2    1    3    3  502    0  0.27874560344E+03  0.80019684452E+03 -0.12687262222E+04  0.15256737293E+04  0.25500000920E-02 0.  1.
       -2    1    3    3    0  502 -0.27874560344E+03 -0.80019684452E+03  0.27084642766E+03  0.88959085472E+03  0.25500000920E-02 0. -1.
</event>
<event>
 5   0  0.1884407E-05  0.2200677E+04  0.7818609E-02  0.8518147E-01
        1   -1    0    0  501    0  0.00000000000E+00  0.00000000000E+00  0.95986675536E+03  0.95986675537E+03  0.50400001928E-02 0. -1.
       -1   -1    0    0    0  501  0.00000000000E+00  0.00000000000E+00 -0.12613670820E+04  0.12613670820E+04  0.50400001928E-02 0.  1.
    10030    2    1    2    0    0  0.00000000000E+00  0.00000000000E+00 -0.30150032661E+03  0.22212338374E+04  0.22006765581E+04 0.  0.
        3    1    3    3  502    0 -0.50630360011E+03  0.56271126939E+03  0.65530670676E+03  0.10012063715E+04  0.10100000352E+00 0. -1.
       -3    1    3    3    0  502  0.50630360011E+03 -0.56271126939E+03 -0.95680703337E+03  0.12200274659E+04  0.10100000352E+00 0.  1.
</event>
<event>
 5   0  0.1788413E-05  0.2203319E+04  0.7818609E-02  0.8517048E-01
       -1   -1    0    0    0  501  0.00000000000E+00  0.00000000000E+00  0.67271196822E+03  0.67271196824E+03  0.50400001928E-02 0. -1.
        1   -1    0    0  501    0  0.00000000000E+00  0.00000000000E+00 -0.18041208236E+04  0.18041208236E+04  0.50400001928E-02 0.  1.
    10030    2    1    2    0    0  0.00000000000E+00  0.00000000000E+00 -0.11314088554E+04  0.24768327918E+04  0.22033190147E+04 0.  0.
        1    1    3    3  502    0  0.42114989486E+03  0.53723184807E+02  0.57705177889E+03  0.71640921970E+03  0.50400001928E-02 0. -1.
       -1    1    3    3    0  502 -0.42114989486E+03 -0.53723184807E+02 -0.17084606342E+04  0.17604235721E+04  0.50400001928E-02 0.  1.
</event>
<event>
 5   0  0.1815681E-05  0.2164927E+04  0.7818609E-02  0.8533170E-01
        1   -1    0    0  501    0  0.00000000000E+00  0.00000000000E+00  0.18626245514E+04  0.18626245514E+04  0.50400001928E-02 0.  1.
       -1   -1    0    0    0  501  0.00000000000E+00  0.00000000000E+00 -0.62907302437E+03  0.62907302439E+03  0.50400001928E-02 0. -1.
    10030    2    1    2    0    0  0.00000000000E+00  0.00000000000E+00  0.12335515270E+04  0.24916975758E+04  0.21649266591E+04 0.  0.
        2    1    3    3  502    0 -0.29529140243E+03 -0.36619085571E+03 -0.50527665757E+03  0.69036023629E+03  0.25500000920E-02 0. -1.
       -2    1    3    3    0  502  0.29529140243E+03  0.36619085571E+03  0.17388281846E+04  0.18013373395E+04  0.25500000920E-02 0.  1.
</event>
<event>
 5   0  0.4143281E-05  0.2201016E+04  0.7818609E-02  0.8518005E-01
        2   -1    0    0  501    0  0.00000000000E+00  0.00000000000E+00  0.19386309098E+04  0.19386309098E+04  0.25500000920E-02 0.  1.
       -2   -1    0    0    0  501  0.00000000000E+00  0.00000000000E+00 -0.62472869207E+03  0.62472869208E+03  0.25500000920E-02 0. -1.
    10030    2    1    2    0    0  0.00000000000E+00  0.00000000000E+00  0.13139022177E+04  0.25633596018E+04  0.22010164494E+04 0.  0.
        2    1    3    3  502    0 -0.70064866552E+03  0.55917703178E+03 -0.86524099119E+02  0.90059642743E+03  0.25500000920E-02 0. -1.
       -2    1    3    3    0  502  0.70064866552E+03 -0.55917703178E+03  0.14004263168E+04  0.16627631744E+04  0.25500000920E-02 0.  1.
</event>
<event>
 5   0  0.4027923E-05  0.2215329E+04  0.7818609E-02  0.8512075E-01
       -2   -1    0    0    0  501  0.00000000000E+00  0.00000000000E+00  0.88147435495E+03  0.88147435496E+03  0.25500000920E-02 0.  1.
        2   -1    0    0  501    0  0.00000000000E+00  0.00000000000E+00 -0.13918961895E+04  0.13918961895E+04  0.25500000920E-02 0. -1.
    10030    2    1    2    0    0  0.00000000000E+00  0.00000000000E+00 -0.51042183456E+03  0.22733705445E+04  0.22153291366E+04 0.  0.
        5    1    3    3  502    0 -0.52333466216E+03 -0.77096945903E+03 -0.86975442011E+03  0.12746638446E+04  0.46999998093E+01 0. -1.
       -5    1    3    3    0  502  0.52333466216E+03  0.77096945903E+03  0.35933258555E+03  0.99870669989E+03  0.46999998093E+01 0.  1.
</event>
<event>
 5   0  0.1788413E-05  0.2199588E+04  0.7818609E-02  0.8518600E-01
        1   -1    0    0  501    0  0.00000000000E+00  0.00000000000E+00  0.15570259588E+04  0.15570259588E+04  0.50400001928E-02 0.  1.
       -1   -1    0    0    0  501  0.00000000000E+00  0.00000000000E+00 -0.77683133631E+03  0.77683133633E+03  0.50400001928E-02 0. -1.
    10030    2    1    2    0    0  0.00000000000E+00  0.00000000000E+00  0.78019462248E+03  0.23338572951E+04  0.21995877398E+04 0.  0.
        1    1    3    3  502    0  0.99866993055E+03  0.43995532367E+03  0.53497627820E+03  0.12153608251E+04  0.50400001928E-02 0. -1.
       -1    1    3    3    0  502 -0.99866993055E+03 -0.43995532367E+03  0.24521834428E+03  0.11184964700E+04  0.50400001928E-02 0.  1.
</event>
<event>
 5   0  0.3963414E-05  0.2202296E+04  0.7818609E-02  0.8517473E-01
        2   -1    0    0  501    0  0.00000000000E+00  0.00000000000E+00  0.25578075442E+04  0.25578075442E+04  0.25500000920E-02 0. -1.
       -2   -1    0    0    0  501  0.00000000000E+00  0.00000000000E+00 -0.47404912911E+03  0.47404912912E+03  0.25500000920E-02 0.  1.
    10030    2    1    2    0    0  0.00000000000E+00  0.00000000000E+00  0.20837584151E+04  0.30318566733E+04  0.22022955649E+04 0.  0.
        1    1    3    3  502    0 -0.49075019088E+03 -0.16606298629E+02 -0.31498206590E+03  0.58337399742E+03  0.50400001928E-02 0.  1.
       -1    1    3    3    0  502  0.49075019088E+03  0.16606298629E+02  0.23987404810E+04  0.24484826759E+04  0.50400001928E-02 0. -1.
</event>
<event>
 5   0  0.1788413E-05  0.2194851E+04  0.7818609E-02  0.8520574E-01
        1   -1    0    0  501    0  0.00000000000E+00  0.00000000000E+00  0.11321913960E+04  0.11321913960E+04  0.50400001928E-02 0. -1.
       -1   -1    0    0    0  501  0.00000000000E+00  0.00000000000E+00 -0.10637270994E+04  0.10637270994E+04  0.50400001928E-02 0.  1.
    10030    2    1    2    0    0  0.00000000000E+00  0.00000000000E+00  0.68464296570E+02  0.21959184955E+04  0.21948509468E+04 0.  0.
        1    1    3    3  502    0 -0.67191525003E+03 -0.86102006751E+03 -0.73137381765E+02  0.10946116830E+04  0.50400001928E-02 0.  1.
       -1    1    3    3    0  502  0.67191525003E+03  0.86102006751E+03  0.14160167833E+03  0.11013068125E+04  0.50400001928E-02 0. -1.
</event>
<event>
 5   0  0.4027923E-05  0.2207113E+04  0.7818609E-02  0.8515473E-01
       -2   -1    0    0    0  501  0.00000000000E+00  0.00000000000E+00  0.12538627493E+04  0.12538627493E+04  0.25500000920E-02 0. -1.
        2   -1    0    0  501    0  0.00000000000E+00  0.00000000000E+00 -0.97126844849E+03  0.97126844849E+03  0.25500000920E-02 0.  1.
    10030    2    1    2    0    0  0.00000000000E+00  0.00000000000E+00  0.28259430085E+03  0.22251311978E+04  0.22071133430E+04 0.  0.
        5    1    3    3  502    0  0.73991288518E+03  0.72272133787E+03 -0.24657472723E+03  0.10633054105E+04  0.46999998093E+01 0.  1.
       -5    1    3    3    0  502 -0.73991288518E+03 -0.72272133787E+03  0.52916902808E+03  0.11618257873E+04  0.46999998093E+01 0. -1.
</event>
<event>
 5   0  0.3963414E-05  0.2172538E+04  0.7818609E-02  0.8529946E-01
       -2   -1    0    0    0  501  0.00000000000E+00  0.00000000000E+00  0.80053886973E+03  0.80053886973E+03  0.25500000920E-02 0. -1.
        2   -1    0    0  501    0  0.00000000000E+00  0.00000000000E+00 -0.14739828849E+04  0.14739828849E+04  0.25500000920E-02 0.  1.
    10030    2    1    2    0    0  0.00000000000E+00  0.00000000000E+00 -0.67344401513E+03  0.22745217546E+04  0.21725382322E+04 0.  0.
        1    1    3    3  502    0  0.71542433173E+03  0.64520837867E+03 -0.86213130568E+03  0.12928248971E+04  0.50400001928E-02 0.  1.
       -1    1    3    3    0  502 -0.71542433173E+03 -0.64520837867E+03  0.18868729055E+03  0.98169685747E+03  0.50400001928E-02 0. -1.
</event>
<event>
 5   0  0.4027923E-05  0.2160073E+04  0.7818609E-02  0.8535233E-01
        2   -1    0    0  501    0  0.00000000000E+00  0.00000000000E+00  0.18792732644E+04  0.18792732644E+04  0.25500000920E-02 0.  1.
       -2   -1    0    0    0  501  0.00000000000E+00  0.00000000000E+00 -0.62070767096E+03  0.62070767097E+03  0.25500000920E-02 0. -1.
    10030    2    1    2    0    0  0.00000000000E+00  0.00000000000E+00  0.12585655934E+04  0.24999809354E+04  0.21600734534E+04 0.  0.
        5    1    3    3  502    0 -0.71061238354E+03  0.14897462417E+03  0.15546592363E+04  0.17158527994E+04  0.46999998093E+01 0.  1.
       -5    1    3    3    0  502  0.71061238354E+03 -0.14897462417E+03 -0.29609364284E+03  0.78412813597E+03  0.46999998093E+01 0. -1.
</event>
<event>
 5   0  0.4027923E-05  0.2184847E+04  0.7818609E-02  0.8524762E-01
       -2   -1    0    0    0  501  0.00000000000E+00  0.00000000000E+00  0.72769643746E+03  0.72769643746E+03  0.25500000920E-02 0.  1.
        2   -1    0    0  501    0  0.00000000000E+00  0.00000000000E+00 -0.16399547448E+04  0.16399547448E+04  0.25500000920E-02 0. -1.
    10030    2    1    2    0    0  0.00000000000E+00  0.00000000000E+00 -0.91225830738E+03  0.23676511823E+04  0.21848471117E+04 0.  0.
        5    1    3    3  502    0 -0.47288619680E+03  0.18090688667E+03 -0.15051176984E+04  0.15880018995E+04  0.46999998093E+01 0. -1.
       -5    1    3    3    0  502  0.47288619680E+03 -0.18090688667E+03  0.59285939098E+03  0.77964928285E+03  0.46999998093E+01 0.  1.
</event>
<event>
 5   0  0.1433375E-05  0.2202494E+04  0.7818609E-02  0.8517391E-01
        4   -1    0    0  501    0  0.00000000000E+00  0.00000000000E+00  0.77380569595E+03  0.77380673813E+03  0.12699999809E+01 0. -1.
       -4   -1    0    0    0  501  0.00000000000E+00  0.00000000000E+00 -0.15672454428E+04  0.15672459573E+04  0.12699999809E+01 0.  1.
    10030    2    1    2    0    0  0.00000000000E+00  0.00000000000E+00 -0.79343974681E+03  0.23410526955E+04  0.22024942886E+04 0.  0.
        1    1    3    3  502    0 -0.86812331319E+03  0.67083662712E+03 -0.49803366243E+03  0.12048640571E+04  0.50400001928E-02 0. -1.
       -1    1    3    3    0  502  0.86812331319E+03 -0.67083662712E+03 -0.29540608439E+03  0.11361886383E+04  0.50400001928E-02 0.  1.
</event>
<event>
 5   0  0.3963414E-05  0.2198999E+04  0.7818609E-02  0.8518845E-01
       -2   -1    0    0    0  501  0.00000000000E+00  0.00000000000E+00  0.52093900591E+03  0.52093900592E+03  0.25500000920E-02 0. -1.
        2   -1    0    0  501    0  0.00000000000E+00  0.00000000000E+00 -0.23206158610E+04  0.23206158610E+04  0.25500000920E-02 0.  1.
    10030    2    1    2    0    0  0.00000000000E+00  0.00000000000E+00 -0.17996768550E+04  0.28415548669E+04  0.21989991539E+04 0.  0.
        1    1    3    3  502    0  0.90526193038E+03  0.61095198179E+03 -0.73568362499E+03  0.13168112556E+04  0.50400001928E-02 0. -1.
       -1    1    3    3    0  502 -0.90526193038E+03 -0.61095198179E+03 -0.10639932301E+04  0.15247436113E+04  0.50400001928E-02 0.  1.
</event>
<event>
 5   0  0.1815681E-05  0.2215588E+04  0.7818609E-02  0.8511968E-01
       -1   -1    0    0    0  501  0.00000000000E+00  0.00000000000E+00  0.96094807195E+03  0.96094807196E+03  0.50400001928E-02 0.  1.
        1   -1    0    0  501    0  0.00000000000E+00  0.00000000000E+00 -0.12770805414E+04  0.12770805414E+04  0.50400001928E-02 0. -1.
    10030    2    1    2    0    0  0.00000000000E+00  0.00000000000E+00 -0.31613246948E+03  0.22380286134E+04  0.22155884853E+04 0.  0.
        2    1    3    3  502    0 -0.93711912076E+03 -0.58501727084E+03 -0.24118346972E+03  0.11307550220E+04  0.25500000920E-02 0.  1.
       -2    1    3    3    0  502  0.93711912076E+03  0.58501727084E+03 -0.74948999758E+02  0.11072735914E+04  0.25500000920E-02 0. -1.
</event>
<event>
 5   0  0.4132460E-05  0.2206296E+04  0.7818609E-02  0.8515812E-01
       -2   -1    0    0    0  501  0.00000000000E+00  0.00000000000E+00  0.49331116172E+03  0.49331116173E+03  0.25500000920E-02 0.  1.
        2   -1    0    0  501    0  0.00000000000E+00  0.00000000000E+00 -0.24668728015E+04  0.24668728015E+04  0.25500000920E-02 0. -1.
    10030    2    1    2    0    0  0.00000000000E+00  0.00000000000E+00 -0.19735616398E+04  0.29601839633E+04  0.22062963423E+04 0.  0.
        4    1    3    3  502    0  0.50524063664E+03 -0.63331144792E+02 -0.22997649408E+04  0.23554615961E+04  0.12699999809E+01 0. -1.
       -4    1    3    3    0  502 -0.50524063664E+03  0.63331144792E+02  0.32620330103E+03  0.60472236713E+03  0.12699999809E+01 0.  1.
</event>
<event>
 5   0  0.1884407E-05  0.2199655E+04  0.7818609E-02  0.8518572E-01
       -1   -1    0    0    0  501  0.00000000000E+00  0.00000000000E+00  0.13529679817E+04  0.13529679817E+04  0.50400001928E-02 0. -1.
        1   -1    0    0  501    0  0.00000000000E+00  0.00000000000E+00 -0.89404943205E+03  0.89404943206E+03  0.50400001928E-02 0.  1.
    10030    2    1    2    0    0  0.00000000000E+00  0.00000000000E+00  0.45891854964E+03  0.22470174138E+04  0.21996547508E+04 0.  0.
        3    1    3    3  502    0 -0.86685053022E+03 -0.15208627563E+03  0.90325240534E+03  0.12611205315E+04  0.10100000352E+00 0. -1.
       -3    1    3    3    0  502  0.86685053022E+03  0.15208627563E+03 -0.44433385569E+03  0.98589688228E+03  0.10100000352E+00 0.  1.
</event>
<event>
 5   0  0.4029532E-05  0.2201146E+04  0.7818609E-02  0.8517951E-01
       -2   -1    0    0    0  501  0.00000000000E+00  0.00000000000E+00  0.80825526443E+03  0.80825526443E+03  0.25500000920E-02 0. -1.
        2   -1    0    0  501    0  0.00000000000E+00  0.00000000000E+00 -0.14986119559E+04  0.14986119559E+04  0.25500000920E-02 0.  1.
    10030    2    1    2    0    0  0.00000000000E+00  0.00000000000E+00 -0.69035669143E+03  0.23068672203E+04  0.22011460675E+04 0.  0.
        3    1    3    3  502    0 -0.24821113461E+03  0.10583561347E+04 -0.52528869721E+03  0.12073337156E+04  0.10100000352E+00 0.  1.
       -3    1    3    3    0  502  0.24821113461E+03 -0.10583561347E+04 -0.16506799422E+03  0.10995335047E+04  0.10100000352E+00 0. -1.
</event>
<event>
 5   0  0.1866935E-05  0.2195460E+04  0.7818609E-02  0.8520320E-01
        1   -1    0    0  501    0  0.00000000000E+00  0.00000000000E+00  0.17499704946E+04  0.17499704946E+04  0.50400001928E-02 0. -1.
       -1   -1    0    0    0  501  0.00000000000E+00  0.00000000000E+00 -0.68858952295E+03  0.68858952297E+03  0.50400001928E-02 0.  1.
    10030    2    1    2    0    0  0.00000000000E+00  0.00000000000E+00  0.10613809716E+04  0.24385600176E+04  0.21954601778E+04 0.  0.
        4    1    3    3  502    0  0.49125138027E+03 -0.85044583950E+03 -0.13933186896E+02  0.98223306356E+03  0.12699999809E+01 0.  1.
       -4    1    3    3    0  502 -0.49125138027E+03  0.85044583950E+03  0.10753141585E+04  0.14563269540E+04  0.12699999809E+01 0. -1.
</event>
<event>
 5   0  0.3963414E-05  0.2216889E+04  0.7818609E-02  0.8511431E-01
       -2   -1    0    0    0  501  0.00000000000E+00  0.00000000000E+00  0.91602622822E+03  0.91602622822E+03  0.25500000920E-02 0. -1.
        2   -1    0    0  501    0  0.00000000000E+00  0.00000000000E+00 -0.13412819405E+04  0.13412819405E+04  0.25500000920E-02 0.  1.
    10030    2    1    2    0    0  0.00000000000E+00  0.00000000000E+00 -0.42525571228E+03  0.22573081687E+04  0.22168892051E+04 0.  0.
        1    1    3    3  502    0 -0.94827452361E+02  0.86481776721E+03  0.48673350069E+03  0.99690095643E+03  0.50400001928E-02 0. -1.
       -1    1    3    3    0  502  0.94827452361E+02 -0.86481776721E+03 -0.91198921297E+03  0.12604072123E+04  0.50400001928E-02 0.  1.
</event>
<event>
 5   0  0.1786228E-05  0.2178453E+04  0.7818609E-02  0.8527450E-01
       -1   -1    0    0    0  501  0.00000000000E+00  0.00000000000E+00  0.10149448822E+04  0.10149448822E+04  0.50400001928E-02 0. -1.
        1   -1    0    0  501    0  0.00000000000E+00  0.00000000000E+00 -0.11689447652E+04  0.11689447652E+04  0.50400001928E-02 0.  1.
    10030    2    1    2    0    0  0.00000000000E+00  0.00000000000E+00 -0.15399988296E+03  0.21838896475E+04  0.21784531274E+04 0.  0.
        5    1    3    3  502    0  0.55151091849E+02 -0.17771118594E+02  0.10133885505E+04  0.10150546290E+04  0.46999998093E+01 0. -1.
       -5    1    3    3    0  502 -0.55151091849E+02  0.17771118594E+02 -0.11673884335E+04  0.11688350184E+04  0.46999998093E+01 0.  1.
</event>
<event>
 5   0  0.1866935E-05  0.2205517E+04  0.7818609E-02  0.8516135E-01
        1   -1    0    0  501    0  0.00000000000E+00  0.00000000000E+00  0.12102154393E+04  0.12102154393E+04  0.50400001928E-02 0. -1.
       -1   -1    0    0    0  501  0.00000000000E+00  0.00000000000E+00 -0.10048425603E+04  0.10048425603E+04  0.50400001928E-02 0.  1.
    10030    2    1    2    0    0  0.00000000000E+00  0.00000000000E+00  0.20537287897E+03  0.22150579996E+04  0.22055167019E+04 0.  0.
        4    1    3    3  502    0  0.84024444937E+03 -0.68549950732E+03 -0.98565222136E+02  0.10888696089E+04  0.12699999809E+01 0.  1.
       -4    1    3    3    0  502 -0.84024444937E+03  0.68549950732E+03  0.30393810111E+03  0.11261883907E+04  0.12699999809E+01 0. -1.
</event>
<event>
 5   0  0.4029532E-05  0.2199528E+04  0.7818609E-02  0.8518625E-01
        2   -1    0    0  501    0  0.00000000000E+00  0.00000000000E+00  0.11608743369E+04  0.11608743369E+04  0.25500000920E-02 0. -1.
       -2   -1    0    0    0  501  0.00000000000E+00  0.00000000000E+00 -0.10418703670E+04  0.10418703670E+04  0.25500000920E-02 0.  1.
    10030    2    1    2    0    0  0.00000000000E+00  0.00000000000E+00  0.11900396989E+03  0.22027447040E+04  0.21995277416E+04 0.  0.
        3    1    3    3  502    0  0.48799717399E+03  0.71404150449E+03 -0.62081774987E+03  0.10646178660E+04  0.10100000352E+00 0.  1.
       -3    1    3    3    0  502 -0.48799717399E+03 -0.71404150449E+03  0.73982171975E+03  0.11381268379E+04  0.10100000352E+00 0. -1.
</event>
<event>
 5   0  0.1786228E-05  0.2220700E+04  0.7818609E-02  0.8509862E-01
       -1   -1    0    0    0  501  0.00000000000E+00  0.00000000000E+00  0.72352310485E+03  0.72352310487E+03  0.50400001928E-02 0.  1.
        1   -1    0    0  501    0  0.00000000000E+00  0.00000000000E+00 -0.17039908511E+04  0.17039908511E+04  0.50400001928E-02 0. -1.
    10030    2    1    2    0    0  0.00000000000E+00  0.00000000000E+00 -0.98046774626E+03  0.24275139560E+04  0.22206996657E+04 0.  0.
        5    1    3    3  502    0 -0.65814864205E+03 -0.22000504524E+02  0.48700927851E+03  0.81905053848E+03  0.46999998093E+01 0.  1.
       -5    1    3    3    0  502  0.65814864205E+03  0.22000504524E+02 -0.14674770248E+04  0.16084634175E+04  0.46999998093E+01 0. -1.
</event>
<event>
 5   0  0.1884407E-05  0.2186473E+04  0.7818609E-02  0.8524079E-01
        1   -1    0    0  501    0  0.00000000000E+00  0.00000000000E+00  0.17289741978E+04  0.17289741978E+04  0.50400001928E-02 0. -1.
       -1   -1    0    0    0  501  0.00000000000E+00  0.00000000000E+00 -0.69125760915E+03  0.69125760917E+03  0.50400001928E-02 0.  1.
    10030    2    1    2    0    0  0.00000000000E+00  0.00000000000E+00  0.10377165887E+04  0.24202318070E+04  0.21864734805E+04 0.  0.
        3    1    3    3  502    0  0.12396804508E+01 -0.86161297682E+03 -0.22597700888E+03  0.89075477960E+03  0.10100000352E+00 0. -1.
       -3    1    3    3    0  502 -0.12396804508E+01  0.86161297682E+03  0.12636935975E+04  0.15294770274E+04  0.10100000352E+00 0.  1.
</event>
<event>
 5   0  0.1815681E-05  0.2186124E+04  0.7818609E-02  0.8524226E-01
        1   -1    0    0  501    0  0.00000000000E+00  0.00000000000E+00  0.15109290826E+04  0.15109290826E+04  0.50400001928E-02 0. -1.
       -1   -1    0    0    0  501  0.00000000000E+00  0.00000000000E+00 -0.79076123343E+03  0.79076123344E+03  0.50400001928E-02 0.  1.
    10030    2    1    2    0    0  0.00000000000E+00  0.00000000000E+00  0.72016784919E+03  0.23016903161E+04  0.21861236424E+04 0.  0.
        2    1    3    3  502    0 -0.41518753115E+03 -0.60649367123E+03  0.12119078779E+04  0.14173693816E+04  0.25500000920E-02 0. -1.
       -2    1    3    3    0  502  0.41518753115E+03  0.60649367123E+03 -0.49174002875E+03  0.88432093447E+03  0.25500000920E-02 0.  1.
</event>
<event>
 5   0  0.4143281E-05  0.2189745E+04  0.7818609E-02  0.8522708E-01
       -2   -1    0    0    0  501  0.00000000000E+00  0.00000000000E+00  0.47503370108E+03  0.47503370109E+03  0.25500000920E-02 0.  1.
        2   -1    0    0  501    0  0.00000000000E+00  0.00000000000E+00 -0.25234972190E+04  0.25234972190E+04  0.25500000920E-02 0. -1.
    10030    2    1    2    0    0  0.00000000000E+00  0.00000000000E+00 -0.20484635179E+04  0.29985309201E+04  0.21897453949E+04 0.  0.
        2    1    3    3  502    0  0.41359003960E+03 -0.98806543629E+03 -0.13347341027E+04  0.17113869089E+04  0.25500000920E-02 0. -1.
       -2    1    3    3    0  502 -0.41359003960E+03  0.98806543629E+03 -0.71372941524E+03  0.12871440111E+04  0.25500000920E-02 0.  1.
</event>
<event>
 5   0  0.1815681E-05  0.2197393E+04  0.7818609E-02  0.8519514E-01
        1   -1    0    0  501    0  0.00000000000E+00  0.00000000000E+00  0.17776840130E+04  0.17776840130E+04  0.50400001928E-02 0. -1.
       -1   -1    0    0    0  501  0.00000000000E+00  0.00000000000E+00 -0.67904850260E+03  0.67904850262E+03  0.50400001928E-02 0.  1.
    10030    2    1    2    0    0  0.00000000000E+00  0.00000000000E+00  0.10986355104E+04  0.24567325156E+04  0.21973926979E+04 0.  0.
        2    1    3    3  502    0  0.62597605998E+03  0.56768371605E+03 -0.23570765695E+03  0.87730777307E+03  0.25500000920E-02 0.  1.
       -2    1    3    3    0  502 -0.62597605998E+03 -0.56768371605E+03  0.13343431674E+04  0.15794247426E+04  0.25500000920E-02 0. -1.
</event>
<event>
 5   0  0.1815681E-05  0.2182365E+04  0.7818609E-02  0.8525804E-01
        1   -1    0    0  501    0  0.00000000000E+00  0.00000000000E+00  0.79151350168E+03  0.79151350169E+03  0.50400001928E-02 0. -1.
       -1   -1    0    0    0  501  0.00000000000E+00  0.00000000000E+00 -0.15043068386E+04  0.15043068386E+04  0.50400001928E-02 0.  1.
    10030    2    1    2    0    0  0.00000000000E+00  0.00000000000E+00 -0.71279333695E+03  0.22958203403E+04  0.21823649314E+04 0.  0.
        2    1    3    3  502    0 -0.64696430080E+03 -0.80211603531E+03 -0.73383330633E+03  0.12650945665E+04  0.25500000920E-02 0.  1.
       -2    1    3    3    0  502  0.64696430080E+03  0.80211603531E+03  0.21039969373E+02  0.10307257739E+04  0.25500000920E-02 0. -1.
</event>
<event>
 5   0  0.1884407E-05  0.2163674E+04  0.7818609E-02  0.8533702E-01
        1   -1    0    0  501    0  0.00000000000E+00  0.00000000000E+00  0.11454732720E+04  0.11454732720E+04  0.50400001928E-02 0. -1.
       -1   -1    0    0    0  501  0.00000000000E+00  0.00000000000E+00 -0.10217358993E+04  0.10217358993E+04  0.50400001928E-02 0.  1.
    10030    2    1    2    0    0  0.00000000000E+00  0.00000000000E+00  0.12373737273E+03  0.21672091713E+04  0.21636738791E+04 0.  0.
        3    1    3    3  502    0  0.20694873375E+03  0.28555596569E+03  0.10862817593E+04  0.11420937172E+04  0.10100000352E+00 0. -1.
       -3    1    3    3    0  502 -0.20694873375E+03 -0.28555596569E+03 -0.96254438662E+03  0.10251154542E+04  0.10100000352E+00 0.  1.
</event>
<event>
 5   0  0.3963414E-05  0.1975877E+04  0.7818609E-02  0.8617983E-01
       -2   -1    0    0    0  501  0.00000000000E+00  0.00000000000E+00  0.61119940063E+03  0.61119940064E+03  0.25500000920E-02 0. -1.
        2   -1    0    0  501    0  0.00000000000E+00  0.00000000000E+00 -0.15968968458E+04  0.15968968458E+04  0.25500000920E-02 0.  1.
    10030    2    1    2    0    0  0.00000000000E+00  0.00000000000E+00 -0.98569744519E+03  0.22080962465E+04  0.19758769142E+04 0.  0.
        1    1    3    3  502    0 -0.74679260002E+03 -0.32443475176E+03  0.13243277618E+03  0.82492153314E+03  0.50400001928E-02 0. -1.
       -1    1    3    3    0  502  0.74679260002E+03  0.32443475176E+03 -0.11181302214E+04  0.13831747133E+04  0.50400001928E-02 0.  1.
</event>
<event>
 5   0  0.4132460E-05  0.2191383E+04  0.7818609E-02  0.8522023E-01
        2   -1    0    0  501    0  0.00000000000E+00  0.00000000000E+00  0.85732210027E+03  0.85732210028E+03  0.25500000920E-02 0. -1.
       -2   -1    0    0    0  501  0.00000000000E+00  0.00000000000E+00 -0.14003364283E+04  0.14003364283E+04  0.25500000920E-02 0.  1.
    10030    2    1    2    0    0  0.00000000000E+00  0.00000000000E+00 -0.54301432801E+03  0.22576585286E+04  0.21913825479E+04 0.  0.
        4    1    3    3  502    0 -0.52661937742E+02 -0.88027129478E+03 -0.94147227106E+03  0.12899699540E+04  0.12699999809E+01 0.  1.
       -4    1    3    3    0  502  0.52661937742E+02  0.88027129478E+03  0.39845794305E+03  0.96768857458E+03  0.12699999809E+01 0. -1.
</event>
<event>
 5   0  0.1788413E-05  0.2144868E+04  0.7818609E-02  0.8541732E-01
       -1   -1    0    0    0  501  0.00000000000E+00  0.00000000000E+00  0.11947270332E+04  0.11947270332E+04  0.50400001928E-02 0.  1.
        1   -1    0    0  501    0  0.00000000000E+00  0.00000000000E+00 -0.96265866646E+03  0.96265866647E+03  0.50400001928E-02 0. -1.
    10030    2    1    2    0    0  0.00000000000E+00  0.00000000000E+00  0.23206836677E+03  0.21573856997E+04  0.21448676720E+04 0.  0.
        1    1    3    3  502    0 -0.75678434339E+03  0.55959448443E+03 -0.40101438673E+03  0.10230743217E+04  0.50400001928E-02 0. -1.
       -1    1    3    3    0  502  0.75678434339E+03 -0.55959448443E+03  0.63308275350E+03  0.11343113780E+04  0.50400001928E-02 0.  1.
</event>
<event>
 5   0  0.3963414E-05  0.2182079E+04  0.7818609E-02  0.8525924E-01
       -2   -1    0    0    0  501  0.00000000000E+00  0.00000000000E+00  0.96341183660E+03  0.96341183660E+03  0.25500000920E-02 0.  1.
        2   -1    0    0  501    0  0.00000000000E+00  0.00000000000E+00 -0.12355751583E+04  0.12355751583E+04  0.25500000920E-02 0. -1.
    10030    2    1    2    0    0  0.00000000000E+00  0.00000000000E+00 -0.27216332168E+03  0.21989869949E+04  0.21820794967E+04 0.  0.
        1    1    3    3  502    0  0.65667508132E+03 -0.11145312549E+03  0.73474572967E+03  0.99171328967E+03  0.50400001928E-02 0.  1.
       -1    1    3    3    0  502 -0.65667508132E+03  0.11145312549E+03 -0.10069090513E+04  0.12072737052E+04  0.50400001928E-02 0. -1.
</event>
<event>
 5   0  0.4132460E-05  0.2203365E+04  0.7818609E-02  0.8517029E-01
        2   -1    0    0  501    0  0.00000000000E+00  0.00000000000E+00  0.11835213364E+04  0.11835213364E+04  0.25500000920E-02 0.  1.
       -2   -1    0    0    0  501  0.00000000000E+00  0.00000000000E+00 -0.10255030270E+04  0.10255030270E+04  0.25500000920E-02 0. -1.
    10030    2    1    2    0    0  0.00000000000E+00  0.00000000000E+00  0.15801830944E+03  0.22090243634E+04  0.22033653470E+04 0.  0.
        4    1    3    3  502    0  0.44015879984E+03  0.41686081097E+03  0.10012578228E+04  0.11704834665E+04  0.12699999809E+01 0.  1.
       -4    1    3    3    0  502 -0.44015879984E+03 -0.41686081097E+03 -0.84323951335E+03  0.10385408969E+04  0.12699999809E+01 0. -1.
</event>
<event>
 5   0  0.4027923E-05  0.2204876E+04  0.7818609E-02  0.8516401E-01
       -2   -1    0    0    0  501  0.00000000000E+00  0.00000000000E+00  0.11225203953E+04  0.11225203953E+04  0.25500000920E-02 0. -1.
        2   -1    0    0  501    0  0.00000000000E+00  0.00000000000E+00 -0.10827145931E+04  0.10827145931E+04  0.25500000920E-02 0.  1.
    10030    2    1    2    0    0  0.00000000000E+00  0.00000000000E+00  0.39805802265E+02  0.22052349884E+04  0.22048757000E+04 0.  0.
        5    1    3    3  502    0 -0.39922687298E+03 -0.25252730340E+03 -0.97634926287E+03  0.10846345505E+04  0.46999998093E+01 0.  1.
       -5    1    3    3    0  502  0.39922687298E+03  0.25252730340E+03  0.10161550651E+04  0.11206004379E+04  0.46999998093E+01 0. -1.
</event>
<event>
 5   0  0.3963414E-05  0.2283485E+04  0.7818609E-02  0.8484461E-01
        2   -1    0    0  501    0  0.00000000000E+00  0.00000000000E+00  0.17971505724E+04  0.17971505724E+04  0.25500000920E-02 0. -1.
       -2   -1    0    0    0  501  0.00000000000E+00  0.00000000000E+00 -0.72535687499E+03  0.72535687500E+03  0.25500000920E-02 0.  1.
    10030    2    1    2    0    0  0.00000000000E+00  0.00000000000E+00  0.10717936974E+04  0.25225074474E+04  0.22834846381E+04 0.  0.
        1    1    3    3  502    0 -0.30617409445E+03 -0.46130297466E+03 -0.56713746560E+03  0.79258306534E+03  0.50400001928E-02 0.  1.
       -1    1    3    3    0  502  0.30617409445E+03  0.46130297466E+03  0.16389311630E+04  0.17299243821E+04  0.50400001928E-02 0. -1.
</event>
<event>
 5   0  0.4027923E-05  0.2194159E+04  0.7818609E-02  0.8520863E-01
        2   -1    0    0  501    0  0.00000000000E+00  0.00000000000E+00  0.15345827616E+04  0.15345827616E+04  0.25500000920E-02 0.  1.
       -2   -1    0    0    0  501  0.00000000000E+00  0.00000000000E+00 -0.78430633435E+03  0.78430633435E+03  0.25500000920E-02 0. -1.
    10030    2    1    2    0    0  0.00000000000E+00  0.00000000000E+00  0.75027642727E+03  0.23188890960E+04  0.21941585909E+04 0.  0.
        5    1    3    3  502    0 -0.43269252382E+02 -0.31449847544E+03  0.14849677548E+04  0.15185298291E+04  0.46999998093E+01 0.  1.
       -5    1    3    3    0  502  0.43269252382E+02  0.31449847544E+03 -0.73469132752E+03  0.80035926682E+03  0.46999998093E+01 0. -1.
</event>
<event>
 5   0  0.3963414E-05  0.2195483E+04  0.7818609E-02  0.8520311E-01
        2   -1    0    0  501    0  0.00000000000E+00  0.00000000000E+00  0.15342238458E+04  0.15342238458E+04  0.25500000920E-02 0. -1.
       -2   -1    0    0    0  501  0.00000000000E+00  0.00000000000E+00 -0.78543692403E+03  0.78543692403E+03  0.25500000920E-02 0.  1.
    10030    2    1    2    0    0  0.00000000000E+00  0.00000000000E+00  0.74878692179E+03  0.23196607699E+04  0.21954826879E+04 0.  0.
        1    1    3    3  502    0  0.83454735009E+03 -0.13743148773E+03  0.11137439465E+04  0.13984928572E+04  0.50400001928E-02 0. -1.
       -1    1    3    3    0  502 -0.83454735009E+03  0.13743148773E+03 -0.36495702468E+03  0.92116791263E+03  0.50400001928E-02 0.  1.
</event>
<event>
 5   0  0.1866935E-05  0.2192826E+04  0.7818609E-02  0.8521420E-01
       -1   -1    0    0    0  501  0.00000000000E+00  0.00000000000E+00  0.15853298947E+04  0.15853298947E+04  0.50400001928E-02 0.  1.
        1   -1    0    0  501    0  0.00000000000E+00  0.00000000000E+00 -0.75827847934E+03  0.75827847936E+03  0.50400001928E-02 0. -1.
    10030    2    1    2    0    0  0.00000000000E+00  0.00000000000E+00  0.82705141531E+03  0.23436083740E+04  0.21928260686E+04 0.  0.
        4    1    3    3  502    0  0.10062880059E+04 -0.43444555163E+03  0.38403406925E+03  0.11613966882E+04  0.12699999809E+01 0.  1.
       -4    1    3    3    0  502 -0.10062880059E+04  0.43444555163E+03  0.44301734605E+03  0.11822116858E+04  0.12699999809E+01 0. -1.
</event>
<event>
 5   0  0.1884407E-05  0.2199482E+04  0.7818609E-02  0.8518644E-01
        1   -1    0    0  501    0  0.00000000000E+00  0.00000000000E+00  0.11741068929E+04  0.11741068929E+04  0.50400001928E-02 0.  1.
       -1   -1    0    0    0  501  0.00000000000E+00  0.00000000000E+00 -0.10300855506E+04  0.10300855506E+04  0.50400001928E-02 0. -1.
    10030    2    1    2    0    0  0.00000000000E+00  0.00000000000E+00  0.14402134229E+03  0.22041924435E+04  0.21994822529E+04 0.  0.
        3    1    3    3  502    0 -0.21853298775E+03  0.64948671643E+00 -0.10081070172E+04  0.10315216221E+04  0.10100000352E+00 0. -1.
       -3    1    3    3    0  502  0.21853298775E+03 -0.64948671643E+00  0.11521283595E+04  0.11726708214E+04  0.10100000352E+00 0.  1.
</event>
<event>
 5   0  0.3963414E-05  0.2189259E+04  0.7818609E-02  0.8522912E-01
       -2   -1    0    0    0  501  0.00000000000E+00  0.00000000000E+00  0.11093319844E+04  0.11093319844E+04  0.25500000920E-02 0.  1.
        2   -1    0    0  501    0  0.00000000000E+00  0.00000000000E+00 -0.10801218011E+04  0.10801218011E+04  0.25500000920E-02 0. -1.
    10030    2    1    2    0    0  0.00000000000E+00  0.00000000000E+00  0.29210183324E+02  0.21894537855E+04  0.21892589258E+04 0.  0.
        1    1    3    3  502    0  0.18161585608E+03 -0.89925902094E+03 -0.58257664884E+03  0.10867597056E+04  0.50400001928E-02 0. -1.
       -1    1    3    3    0  502 -0.18161585608E+03  0.89925902094E+03  0.61178683216E+03  0.11026940799E+04  0.50400001928E-02 0.  1.
</event>
<event>
 5   0  0.1815681E-05  0.2198935E+04  0.7818609E-02  0.8518871E-01
        1   -1    0    0  501    0  0.00000000000E+00  0.00000000000E+00  0.13698386482E+04  0.13698386483E+04  0.50400001928E-02 0.  1.
       -1   -1    0    0    0  501  0.00000000000E+00  0.00000000000E+00 -0.88246099169E+03  0.88246099171E+03  0.50400001928E-02 0. -1.
    10030    2    1    2    0    0  0.00000000000E+00  0.00000000000E+00  0.48737765655E+03  0.22522996400E+04  0.21989353533E+04 0.  0.
        2    1    3    3  502    0 -0.57670394218E+03 -0.21180062326E+03  0.11776182877E+04  0.13282438679E+04  0.25500000920E-02 0.  1.
       -2    1    3    3    0  502  0.57670394218E+03  0.21180062326E+03 -0.69024063120E+03  0.92405577207E+03  0.25500000920E-02 0. -1.
</event>
<event>
 5   0  0.4143281E-05  0.2196736E+04  0.7818609E-02  0.8519788E-01
        2   -1    0    0  501    0  0.00000000000E+00  0.00000000000E+00  0.18225164064E+04  0.18225164064E+04  0.25500000920E-02 0. -1.
       -2   -1    0    0    0  501  0.00000000000E+00  0.00000000000E+00 -0.66194883466E+03  0.66194883467E+03  0.25500000920E-02 0.  1.
    10030    2    1    2    0    0  0.00000000000E+00  0.00000000000E+00  0.11605675718E+04  0.24844652411E+04  0.21967363168E+04 0.  0.
        2    1    3    3  502    0  0.39845592406E+02  0.72337537674E+03 -0.35341074198E+03  0.80607614992E+03  0.25500000920E-02 0.  1.
       -2    1    3    3    0  502 -0.39845592406E+02 -0.72337537674E+03  0.15139783138E+04  0.16783890912E+04  0.25500000920E-02 0. -1.
</event>
<event>
 5   0  0.1866935E-05  0.2229413E+04  0.7818609E-02  0.8506285E-01
        1   -1    0    0  501    0  0.00000000000E+00  0.00000000000E+00  0.19807726940E+04  0.19807726940E+04  0.50400001928E-02 0. -1.
       -1   -1    0    0    0  501  0.00000000000E+00  0.00000000000E+00 -0.62731585521E+03  0.62731585523E+03  0.50400001928E-02 0.  1.
    10030    2    1    2    0    0  0.00000000000E+00  0.00000000000E+00  0.13534568388E+04  0.26080885492E+04  0.22294125832E+04 0.  0.
        4    1    3    3  502    0 -0.22812406135E+03  0.17317829424E+02  0.19530113691E+04  0.19663660685E+04  0.12699999809E+01 0. -1.
       -4    1    3    3    0  502  0.22812406135E+03 -0.17317829424E+02 -0.59955453031E+03  0.64172248075E+03  0.12699999809E+01 0.  1.
</event>
<event>
 5   0  0.4027923E-05  0.2193254E+04  0.7818609E-02  0.8521241E-01
        2   -1    0    0  501    0  0.00000000000E+00  0.00000000000E+00  0.31900191760E+04  0.31900191760E+04  0.25500000920E-02 0.  1.
       -2   -1    0    0    0  501  0.00000000000E+00  0.00000000000E+00 -0.37698553987E+03  0.37698553988E+03  0.25500000920E-02 0. -1.
    10030    2    1    2    0    0  0.00000000000E+00  0.00000000000E+00  0.28130336362E+04  0.35670047159E+04  0.21932542956E+04 0.  0.
        5    1    3    3  502    0 -0.65955027793E+03  0.42606104590E+03  0.26515366228E+04  0.27653576868E+04  0.46999998093E+01 0.  1.
       -5    1    3    3    0  502  0.65955027793E+03 -0.42606104590E+03  0.16149701335E+03  0.80164702910E+03  0.46999998093E+01 0. -1.
</event>
<event>
 5   0  0.1866935E-05  0.2210613E+04  0.7818609E-02  0.8514024E-01
       -1   -1    0    0    0  501  0.00000000000E+00  0.00000000000E+00  0.13653052406E+04  0.13653052406E+04  0.50400001928E-02 0. -1.
        1   -1    0    0  501    0  0.00000000000E+00  0.00000000000E+00 -0.89481976527E+03  0.89481976528E+03  0.50400001928E-02 0.  1.
    10030    2    1    2    0    0  0.00000000000E+00  0.00000000000E+00  0.47048547536E+03  0.22601250059E+04  0.22106126888E+04 0.  0.
        4    1    3    3  502    0 -0.10236877564E+04  0.50805973860E+02 -0.18776630572E+03  0.10420055989E+04  0.12699999809E+01 0.  1.
       -4    1    3    3    0  502  0.10236877564E+04 -0.50805973860E+02  0.65825178107E+03  0.12181194070E+04  0.12699999809E+01 0. -1.
</event>
<event>
 5   0  0.3963414E-05  0.2196286E+04  0.7818609E-02  0.8519975E-01
        2   -1    0    0  501    0  0.00000000000E+00  0.00000000000E+00  0.16023657082E+04  0.16023657082E+04  0.25500000920E-02 0.  1.
       -2   -1    0    0    0  501  0.00000000000E+00  0.00000000000E+00 -0.75258618301E+03  0.75258618301E+03  0.25500000920E-02 0. -1.
    10030    2    1    2    0    0  0.00000000000E+00  0.00000000000E+00  0.84977952522E+03  0.23549518912E+04  0.21962862219E+04 0.  0.
        1    1    3    3  502    0  0.46379702521E+03 -0.45850581547E+03 -0.52244321262E+03  0.83563279845E+03  0.50400001928E-02 0. -1.
       -1    1    3    3    0  502 -0.46379702521E+03  0.45850581547E+03  0.13722227378E+04  0.15193190928E+04  0.50400001928E-02 0.  1.
</event>
<event>
 5   0  0.1815681E-05  0.2196531E+04  0.7818609E-02  0.8519873E-01
       -1   -1    0    0    0  501  0.00000000000E+00  0.00000000000E+00  0.81687391213E+03  0.81687391215E+03  0.50400001928E-02 0.  1.
        1   -1    0    0  501    0  0.00000000000E+00  0.00000000000E+00 -0.14765891615E+04  0.14765891615E+04  0.50400001928E-02 0. -1.
    10030    2    1    2    0    0  0.00000000000E+00  0.00000000000E+00 -0.65971524941E+03  0.22934630737E+04  0.21965310515E+04 0.  0.
        2    1    3    3  502    0 -0.72946761949E+03  0.77886639032E+03 -0.58722875403E+02  0.10687395557E+04  0.25500000920E-02 0.  1.
       -2    1    3    3    0  502  0.72946761949E+03 -0.77886639032E+03 -0.60099237401E+03  0.12247235180E+04  0.25500000920E-02 0. -1.
</event>
<event>
 5   0  0.1815681E-05  0.2201215E+04  0.7818609E-02  0.8517922E-01
        1   -1    0    0  501    0  0.00000000000E+00  0.00000000000E+00  0.10737231984E+04  0.10737231985E+04  0.50400001928E-02 0. -1.
       -1   -1    0    0    0  501  0.00000000000E+00  0.00000000000E+00 -0.11281652477E+04  0.11281652477E+04  0.50400001928E-02 0.  1.
    10030    2    1    2    0    0  0.00000000000E+00  0.00000000000E+00 -0.54442049265E+02  0.22018884462E+04  0.22012152990E+04 0.  0.
        2    1    3    3  502    0 -0.66114733879E+03  0.63652334691E+03 -0.63490941507E+03  0.11159694172E+04  0.25500000920E-02 0.  1.
       -2    1    3    3    0  502  0.66114733879E+03 -0.63652334691E+03  0.58046736581E+03  0.10859190290E+04  0.25500000920E-02 0. -1.
</event>
<event>
 5   0  0.1884407E-05  0.2049364E+04  0.7818609E-02  0.8583883E-01
        1   -1    0    0  501    0  0.00000000000E+00  0.00000000000E+00  0.12489685055E+04  0.12489685055E+04  0.50400001928E-02 0.  1.
       -1   -1    0    0    0  501  0.00000000000E+00  0.00000000000E+00 -0.84067204250E+03  0.84067204252E+03  0.50400001928E-02 0. -1.
    10030    2    1    2    0    0  0.00000000000E+00  0.00000000000E+00  0.40829646298E+03  0.20896405480E+04  0.20493637106E+04 0.  0.
        3    1    3    3  502    0 -0.45567936925E+03  0.69530397291E+03 -0.40669270833E+03  0.92546759614E+03  0.10100000352E+00 0. -1.
       -3    1    3    3    0  502  0.45567936925E+03 -0.69530397291E+03  0.81498917131E+03  0.11641729519E+04  0.10100000352E+00 0.  1.
</event>
<event>
 5   0  0.1786228E-05  0.2177436E+04  0.7818609E-02  0.8527879E-01
       -1   -1    0    0    0  501  0.00000000000E+00  0.00000000000E+00  0.74153102248E+03  0.74153102249E+03  0.50400001928E-02 0.  1.
        1   -1    0    0  501    0  0.00000000000E+00  0.00000000000E+00 -0.15984590363E+04  0.15984590363E+04  0.50400001928E-02 0. -1.
    10030    2    1    2    0    0  0.00000000000E+00  0.00000000000E+00 -0.85692801378E+03  0.23399900588E+04  0.21774360735E+04 0.  0.
        5    1    3    3  502    0 -0.10295470265E+04 -0.27427028889E+03 -0.66898873415E+03  0.12580776159E+04  0.46999998093E+01 0. -1.
       -5    1    3    3    0  502  0.10295470265E+04  0.27427028889E+03 -0.18793927963E+03  0.10819124429E+04  0.46999998093E+01 0.  1.
</event>
<event>
 5   0  0.1866935E-05  0.2191158E+04  0.7818609E-02  0.8522117E-01
        1   -1    0    0  501    0  0.00000000000E+00  0.00000000000E+00  0.14017860623E+04  0.14017860623E+04  0.50400001928E-02 0. -1.
       -1   -1    0    0    0  501  0.00000000000E+00  0.00000000000E+00 -0.85626007256E+03  0.85626007257E+03  0.50400001928E-02 0.  1.
    10030    2    1    2    0    0  0.00000000000E+00  0.00000000000E+00  0.54552598974E+03  0.22580461349E+04  0.21911580823E+04 0.  0.
        4    1    3    3  502    0  0.52028687433E+03  0.85604869119E+03  0.72989643204E+03  0.12394628706E+04  0.12699999809E+01 0. -1.
       -4    1    3    3    0  502 -0.52028687433E+03 -0.85604869119E+03 -0.18437044230E+03  0.10185832642E+04  0.12699999809E+01 0.  1.
</event>
<event>
 5   0  0.4132460E-05  0.2199415E+04  0.7818609E-02  0.8518671E-01
        2   -1    0    0  501    0  0.00000000000E+00  0.00000000000E+00  0.17789575734E+04  0.17789575734E+04  0.25500000920E-02 0.  1.
       -2   -1    0    0    0  501  0.00000000000E+00  0.00000000000E+00 -0.67981215522E+03  0.67981215523E+03  0.25500000920E-02 0. -1.
    10030    2    1    2    0    0  0.00000000000E+00  0.00000000000E+00  0.10991454182E+04  0.24587697286E+04  0.21994153605E+04 0.  0.
        4    1    3    3  502    0  0.74922119350E+03 -0.44073972177E+03 -0.20348662741E+03  0.89274426325E+03  0.12699999809E+01 0. -1.
       -4    1    3    3    0  502 -0.74922119350E+03  0.44073972177E+03  0.13026320456E+04  0.15660254654E+04  0.12699999809E+01 0.  1.
</event>
<event>
 5   0  0.3963414E-05  0.2194699E+04  0.7818609E-02  0.8520638E-01
        2   -1    0    0  501    0  0.00000000000E+00  0.00000000000E+00  0.18807868679E+04  0.18807868679E+04  0.25500000920E-02 0.  1.
       -2   -1    0    0    0  501  0.00000000000E+00  0.00000000000E+00 -0.64025139887E+03  0.64025139887E+03  0.25500000920E-02 0. -1.
    10030    2    1    2    0    0  0.00000000000E+00  0.00000000000E+00  0.12405354690E+04  0.25210382668E+04  0.21946994538E+04 0.  0.
        1    1    3    3  502    0  0.14383672577E+03 -0.29338245220E+03 -0.58307589002E+03  0.66838593678E+03  0.50400001928E-02 0. -1.
       -1    1    3    3    0  502 -0.14383672577E+03  0.29338245220E+03  0.18236113590E+04  0.18526523300E+04  0.50400001928E-02 0.  1.
</event>
<event>
 5   0  0.4027923E-05  0.2205798E+04  0.7818609E-02  0.8516019E-01
       -2   -1    0    0    0  501  0.00000000000E+00  0.00000000000E+00  0.60112453015E+03  0.60112453015E+03  0.25500000920E-02 0. -1.
        2   -1    0    0  501    0  0.00000000000E+00  0.00000000000E+00 -0.20235171844E+04  0.20235171844E+04  0.25500000920E-02 0.  1.
    10030    2    1    2    0    0  0.00000000000E+00  0.00000000000E+00 -0.14223926542E+04  0.26246417145E+04  0.22057976486E+04 0.  0.
        5    1    3    3  502    0 -0.78527532073E+02  0.39224189115E+03  0.51174868443E+03  0.64956068268E+03  0.46999998093E+01 0. -1.
       -5    1    3    3    0  502  0.78527532073E+02 -0.39224189115E+03 -0.19341413386E+04  0.19750810318E+04  0.46999998093E+01 0.  1.
</event>
<event>
 5   0  0.4143281E-05  0.2190896E+04  0.7818609E-02  0.8522227E-01
       -2   -1    0    0    0  501  0.00000000000E+00  0.00000000000E+00  0.75820343173E+03  0.75820343173E+03  0.25500000920E-02 0.  1.
        2   -1    0    0  501    0  0.00000000000E+00  0.00000000000E+00 -0.15826964606E+04  0.15826964606E+04  0.25500000920E-02 0. -1.
    10030    2    1    2    0    0  0.00000000000E+00  0.00000000000E+00 -0.82449302888E+03  0.23408998923E+04  0.21908956048E+04 0.  0.
        2    1    3    3  502    0  0.43871475780E+03  0.14967892602E+03 -0.14727406068E+04  0.15439686896E+04  0.25500000920E-02 0. -1.
       -2    1    3    3    0  502 -0.43871475780E+03 -0.14967892602E+03  0.64824757792E+03  0.79693120273E+03  0.25500000920E-02 0.  1.
</event>
<event>
 5   0  0.1815681E-05  0.2019452E+04  0.7818609E-02  0.8597580E-01
        1   -1    0    0  501    0  0.00000000000E+00  0.00000000000E+00  0.11130496933E+04  0.11130496933E+04  0.50400001928E-02 0. -1.
       -1   -1    0    0    0  501  0.00000000000E+00  0.00000000000E+00 -0.91599363796E+03  0.91599363798E+03  0.50400001928E-02 0.  1.
    10030    2    1    2    0    0  0.00000000000E+00  0.00000000000E+00  0.19705605530E+03  0.20290433313E+04  0.20194518442E+04 0.  0.
        2    1    3    3  502    0 -0.57355280013E+03  0.82984461790E+03  0.54255914292E+02  0.10102220591E+04  0.25500000920E-02 0.  1.
       -2    1    3    3    0  502  0.57355280013E+03 -0.82984461790E+03  0.14280014101E+03  0.10188212722E+04  0.25500000920E-02 0. -1.
</event>
<event>
 5   0  0.1788413E-05  0.2177893E+04  0.7818609E-02  0.8527686E-01
       -1   -1    0    0    0  501  0.00000000000E+00  0.00000000000E+00  0.46304290359E+03  0.46304290361E+03  0.50400001928E-02 0. -1.
        1   -1    0    0  501    0  0.00000000000E+00  0.00000000000E+00 -0.25608960961E+04  0.25608960961E+04  0.50400001928E-02 0.  1.
    10030    2    1    2    0    0  0.00000000000E+00  0.00000000000E+00 -0.20978531925E+04  0.30239389997E+04  0.21778932611E+04 0.  0.
        1    1    3    3  502    0 -0.88850329423E+03  0.23939193818E+03 -0.18574145168E+04  0.20728567947E+04  0.50400001928E-02 0.  1.
       -1    1    3    3    0  502  0.88850329423E+03 -0.23939193818E+03 -0.24043867568E+03  0.95108220503E+03  0.50400001928E-02 0. -1.
</event>
<event>
 5   0  0.4027923E-05  0.2205970E+04  0.7818609E-02  0.8515948E-01
       -2   -1    0    0    0  501  0.00000000000E+00  0.00000000000E+00  0.17597868636E+04  0.17597868636E+04  0.25500000920E-02 0. -1.
        2   -1    0    0  501    0  0.00000000000E+00  0.00000000000E+00 -0.69131973878E+03  0.69131973878E+03  0.25500000920E-02 0.  1.
    10030    2    1    2    0    0  0.00000000000E+00  0.00000000000E+00  0.10684671249E+04  0.24511066024E+04  0.22059695328E+04 0.  0.
        5    1    3    3  502    0 -0.11750390970E+03  0.23093549413E+03  0.17254786082E+04  0.17448314786E+04  0.46999998093E+01 0. -1.
       -5    1    3    3    0  502  0.11750390970E+03 -0.23093549413E+03 -0.65701148338E+03  0.70627512382E+03  0.46999998093E+01 0.  1.
</event>
<event>
 5   0  0.3963414E-05  0.2205328E+04  0.7818609E-02  0.8516214E-01
       -2   -1    0    0    0  501  0.00000000000E+00  0.00000000000E+00  0.70484521190E+03  0.70484521190E+03  0.25500000920E-02 0.  1.
        2   -1    0    0  501    0  0.00000000000E+00  0.00000000000E+00 -0.17250144846E+04  0.17250144846E+04  0.25500000920E-02 0. -1.
    10030    2    1    2    0    0  0.00000000000E+00  0.00000000000E+00 -0.10201692727E+04  0.24298596965E+04  0.22053282748E+04 0.  0.
        1    1    3    3  502    0 -0.82096299748E+03  0.64910038767E+03 -0.89264813079E+03  0.13755479788E+04  0.50400001928E-02 0.  1.
       -1    1    3    3    0  502  0.82096299748E+03 -0.64910038767E+03 -0.12752114194E+03  0.10543117177E+04  0.50400001928E-02 0. -1.
</event>
<event>
 5   0  0.1786228E-05  0.2190504E+04  0.7818609E-02  0.8522391E-01
        1   -1    0    0  501    0  0.00000000000E+00  0.00000000000E+00  0.10748918627E+04  0.10748918627E+04  0.50400001928E-02 0.  1.
       -1   -1    0    0    0  501  0.00000000000E+00  0.00000000000E+00 -0.11159977653E+04  0.11159977653E+04  0.50400001928E-02 0. -1.
    10030    2    1    2    0    0  0.00000000000E+00  0.00000000000E+00 -0.41105902609E+02  0.21908896279E+04  0.21905039755E+04 0.  0.
        5    1    3    3  502    0  0.78537513867E+03  0.50945109580E+03 -0.58916011996E+03  0.11061131336E+04  0.46999998093E+01 0. -1.
       -5    1    3    3    0  502 -0.78537513867E+03 -0.50945109580E+03  0.54805421735E+03  0.10847764943E+04  0.46999998093E+01 0.  1.
</event>
<event>
 5   0  0.1884407E-05  0.2203279E+04  0.7818609E-02  0.8517065E-01
        1   -1    0    0  501    0  0.00000000000E+00  0.00000000000E+00  0.13638226685E+04  0.13638226685E+04  0.50400001928E-02 0. -1.
       -1   -1    0    0    0  501  0.00000000000E+00  0.00000000000E+00 -0.88985856231E+03  0.88985856233E+03  0.50400001928E-02 0.  1.
    10030    2    1    2    0    0  0.00000000000E+00  0.00000000000E+00  0.47396410618E+03  0.22536812308E+04  0.22032787196E+04 0.  0.
        3    1    3    3  502    0  0.75348540105E+03 -0.72760948971E+01  0.10589927599E+04  0.12997149175E+04  0.10100000352E+00 0. -1.
       -3    1    3    3    0  502 -0.75348540105E+03  0.72760948971E+01 -0.58502865367E+03  0.95396631333E+03  0.10100000352E+00 0.  1.
</event>
<event>
 5   0  0.4027923E-05  0.2251663E+04  0.7818609E-02  0.8497227E-01
       -2   -1    0    0    0  501  0.00000000000E+00  0.00000000000E+00  0.58262878110E+03  0.58262878111E+03  0.25500000920E-02 0.  1.
        2   -1    0    0  501    0  0.00000000000E+00  0.00000000000E+00 -0.21754779898E+04  0.21754779898E+04  0.25500000920E-02 0. -1.
    10030    2    1    2    0    0  0.00000000000E+00  0.00000000000E+00 -0.15928492087E+04  0.27581067709E+04  0.22516625764E+04 0.  0.
        5    1    3    3  502    0 -0.98580173616E+03  0.43878013219E+03 -0.40303462722E+03  0.11518646050E+04  0.46999998093E+01 0.  1.
       -5    1    3    3    0  502  0.98580173616E+03 -0.43878013219E+03 -0.11898145815E+04  0.16062421660E+04  0.46999998093E+01 0. -1.
</event>
<event>
 5   0  0.1884407E-05  0.2206585E+04  0.7818609E-02  0.8515692E-01
        1   -1    0    0  501    0  0.00000000000E+00  0.00000000000E+00  0.15491958093E+04  0.15491958093E+04  0.50400001928E-02 0.  1.
       -1   -1    0    0    0  501  0.00000000000E+00  0.00000000000E+00 -0.78573271174E+03  0.78573271175E+03  0.50400001928E-02 0. -1.
    10030    2    1    2    0    0  0.00000000000E+00  0.00000000000E+00  0.76346309753E+03  0.23349285210E+04  0.22065845320E+04 0.  0.
        3    1    3    3  502    0 -0.10196263704E+04  0.50598044088E+02 -0.61000712583E+02  0.10227019089E+04  0.10100000352E+00 0. -1.
       -3    1    3    3    0  502  0.10196263704E+04 -0.50598044088E+02  0.82446381012E+03  0.13122266122E+04  0.10100000352E+00 0.  1.
</event>
<event>
 5   0  0.4029532E-05  0.2236545E+04  0.7818609E-02  0.8503370E-01
        2   -1    0    0  501    0  0.00000000000E+00  0.00000000000E+00  0.16889108823E+04  0.16889108823E+04  0.25500000920E-02 0. -1.
       -2   -1    0    0    0  501  0.00000000000E+00  0.00000000000E+00 -0.74043744291E+03  0.74043744292E+03  0.25500000920E-02 0.  1.
    10030    2    1    2    0    0  0.00000000000E+00  0.00000000000E+00  0.94847343943E+03  0.24293483253E+04  0.22365445268E+04 0.  0.
        3    1    3    3  502    0  0.59034945437E+03 -0.81534682419E+03  0.10032870311E+04  0.14212275676E+04  0.10100000352E+00 0. -1.
       -3    1    3    3    0  502 -0.59034945437E+03  0.81534682419E+03 -0.54813591638E+02  0.10081207577E+04  0.10100000352E+00 0.  1.
</event>
<event>
 5   0  0.1815681E-05  0.2196787E+04  0.7818609E-02  0.8519766E-01
       -1   -1    0    0    0  501  0.00000000000E+00  0.00000000000E+00  0.14935508921E+04  0.14935508921E+04  0.50400001928E-02 0. -1.
        1   -1    0    0  501    0  0.00000000000E+00  0.00000000000E+00 -0.80778550058E+03  0.80778550059E+03  0.50400001928E-02 0.  1.
    10030    2    1    2    0    0  0.00000000000E+00  0.00000000000E+00  0.68576539156E+03  0.23013363927E+04  0.21967874317E+04 0.  0.
        2    1    3    3  502    0  0.10028141091E+04  0.44814351888E+03  0.34281581875E+03  0.11506482680E+04  0.25500000920E-02 0. -1.
       -2    1    3    3    0  502 -0.10028141091E+04 -0.44814351888E+03  0.34294957281E+03  0.11506881248E+04  0.25500000920E-02 0.  1.
</event>
<event>
 5   0  0.3963414E-05  0.2200843E+04  0.7818609E-02  0.8518077E-01
        2   -1    0    0  501    0  0.00000000000E+00  0.00000000000E+00  0.85950445604E+03  0.85950445605E+03  0.25500000920E-02 0.  1.
       -2   -1    0    0    0  501  0.00000000000E+00  0.00000000000E+00 -0.14088674460E+04  0.14088674460E+04  0.25500000920E-02 0. -1.
    10030    2    1    2    0    0  0.00000000000E+00  0.00000000000E+00 -0.54936298997E+03  0.22683719021E+04  0.22008433364E+04 0.  0.
        1    1    3    3  502    0  0.79462048883E+03 -0.66898431412E+03  0.99736181754E+02  0.10435080449E+04  0.50400001928E-02 0.  1.
       -1    1    3    3    0  502 -0.79462048883E+03  0.66898431412E+03 -0.64909917172E+03  0.12248638572E+04  0.50400001928E-02 0. -1.
</event>
<event>
 5   0  0.1815681E-05  0.2190691E+04  0.7818609E-02  0.8522313E-01
        1   -1    0    0  501    0  0.00000000000E+00  0.00000000000E+00  0.14580972636E+04  0.14580972636E+04  0.50400001928E-02 0. -1.
       -1   -1    0    0    0  501  0.00000000000E+00  0.00000000000E+00 -0.82284105484E+03  0.82284105486E+03  0.50400001928E-02 0.  1.
    10030    2    1    2    0    0  0.00000000000E+00  0.00000000000E+00  0.63525620878E+03  0.22809383185E+04  0.21906914803E+04 0.  0.
        2    1    3    3  502    0  0.48607632784E+03 -0.98130738031E+03  0.29325613412E+03  0.11336814065E+04  0.25500000920E-02 0.  1.
       -2    1    3    3    0  502 -0.48607632784E+03  0.98130738031E+03  0.34200007466E+03  0.11472569120E+04  0.25500000920E-02 0. -1.
</event>
<event>
 5   0  0.4132460E-05  0.2262409E+04  0.7818609E-02  0.8492892E-01
        2   -1    0    0  501    0  0.00000000000E+00  0.00000000000E+00  0.10788092373E+04  0.10788092373E+04  0.25500000920E-02 0.  1.
       -2   -1    0    0    0  501  0.00000000000E+00  0.00000000000E+00 -0.11861450011E+04  0.11861450011E+04  0.25500000920E-02 0. -1.
    10030    2    1    2    0    0  0.00000000000E+00  0.00000000000E+00 -0.10733576383E+03  0.22649542384E+04  0.22624094979E+04 0.  0.
        4    1    3    3  502    0  0.44195681387E+03  0.27861833507E+03  0.95078939874E+03  0.10848760739E+04  0.12699999809E+01 0.  1.
       -4    1    3    3    0  502 -0.44195681387E+03 -0.27861833507E+03 -0.10581251626E+04  0.11800781646E+04  0.12699999809E+01 0. -1.
</event>
<event>
 5   0  0.1866935E-05  0.2197096E+04  0.7818609E-02  0.8519638E-01
       -1   -1    0    0    0  501  0.00000000000E+00  0.00000000000E+00  0.79528447389E+03  0.79528447391E+03  0.50400001928E-02 0.  1.
        1   -1    0    0  501    0  0.00000000000E+00  0.00000000000E+00 -0.15174539544E+04  0.15174539544E+04  0.50400001928E-02 0. -1.
    10030    2    1    2    0    0  0.00000000000E+00  0.00000000000E+00 -0.72216948055E+03  0.23127384284E+04  0.21970958740E+04 0.  0.
        4    1    3    3  502    0 -0.58367251419E+02 -0.42297206116E+03 -0.14265325658E+04  0.14890630862E+04  0.12699999809E+01 0. -1.
       -4    1    3    3    0  502  0.58367251419E+02  0.42297206116E+03  0.70436308522E+03  0.82367534216E+03  0.12699999809E+01 0.  1.
</event>
<event>
 5   0  0.1433375E-05  0.2175078E+04  0.7818609E-02  0.8528873E-01
        4   -1    0    0  501    0  0.00000000000E+00  0.00000000000E+00  0.16583315636E+04  0.16583320499E+04  0.12699999809E+01 0.  1.
       -4   -1    0    0    0  501  0.00000000000E+00  0.00000000000E+00 -0.71321008582E+03  0.71321121655E+03  0.12699999809E+01 0. -1.
    10030    2    1    2    0    0  0.00000000000E+00  0.00000000000E+00  0.94512147777E+03  0.23715432664E+04  0.21750776669E+04 0.  0.
        3    1    3    3  502    0 -0.58957986567E+03  0.24492197756E+03 -0.48739016486E+03  0.80320630980E+03  0.10100000352E+00 0. -1.
       -3    1    3    3    0  502  0.58957986567E+03 -0.24492197756E+03  0.14325116426E+04  0.15683369566E+04  0.10100000352E+00 0.  1.
</event>
<event>
 5   0  0.1786228E-05  0.2205526E+04  0.7818609E-02  0.8516132E-01
       -1   -1    0    0    0  501  0.00000000000E+00  0.00000000000E+00  0.94642070104E+03  0.94642070105E+03  0.50400001928E-02 0.  1.
        1   -1    0    0  501    0  0.00000000000E+00  0.00000000000E+00 -0.12849316530E+04  0.12849316530E+04  0.50400001928E-02 0. -1.
    10030    2    1    2    0    0  0.00000000000E+00  0.00000000000E+00 -0.33851095199E+03  0.22313523541E+04  0.22055257114E+04 0.  0.
        5    1    3    3  502    0  0.10012958325E+04  0.43161960993E+03 -0.24767091952E+01  0.10903747319E+04  0.46999998093E+01 0.  1.
       -5    1    3    3    0  502 -0.10012958325E+04 -0.43161960993E+03 -0.33603424279E+03  0.11409776222E+04  0.46999998093E+01 0. -1.
</event>
<event>
 5   0  0.1815681E-05  0.2082225E+04  0.7818609E-02  0.8569114E-01
        1   -1    0    0  501    0  0.00000000000E+00  0.00000000000E+00  0.11550041025E+04  0.11550041025E+04  0.50400001928E-02 0.  1.
       -1   -1    0    0    0  501  0.00000000000E+00  0.00000000000E+00 -0.93845155858E+03  0.93845155860E+03  0.50400001928E-02 0. -1.
    10030    2    1    2    0    0  0.00000000000E+00  0.00000000000E+00  0.21655254393E+03  0.20934556611E+04  0.20822251561E+04 0.  0.
        2    1    3    3  502    0  0.72303672576E+03 -0.25844365745E+03  0.81516169993E+03  0.11198499131E+04  0.25500000920E-02 0.  1.
       -2    1    3    3    0  502 -0.72303672576E+03  0.25844365745E+03 -0.59860915600E+03  0.97360574800E+03  0.25500000920E-02 0. -1.
</event>
<event>
 5   0  0.1884407E-05  0.2195094E+04  0.7818609E-02  0.8520473E-01
        1   -1    0    0  501    0  0.00000000000E+00  0.00000000000E+00  0.21296814494E+04  0.21296814494E+04  0.50400001928E-02 0. -1.
       -1   -1    0    0    0  501  0.00000000000E+00  0.00000000000E+00 -0.56562916064E+03  0.56562916066E+03  0.50400001928E-02 0.  1.
    10030    2    1    2    0    0  0.00000000000E+00  0.00000000000E+00  0.15640522887E+04  0.26953106100E+04  0.21950944678E+04 0.  0.
        3    1    3    3  502    0  0.15654774400E+03 -0.10126843382E+04  0.12647765440E+04  0.16277888320E+04  0.10100000352E+00 0. -1.
       -3    1    3    3    0  502 -0.15654774400E+03  0.10126843382E+04  0.29927574473E+03  0.10675217781E+04  0.10100000352E+00 0.  1.
</event>
<event>
 5   0  0.1786228E-05  0.2197665E+04  0.7818609E-02  0.8519401E-01
       -1   -1    0    0    0  501  0.00000000000E+00  0.00000000000E+00  0.10690161493E+04  0.10690161493E+04  0.50400001928E-02 0. -1.
        1   -1    0    0  501    0  0.00000000000E+00  0.00000000000E+00 -0.11294801399E+04  0.11294801399E+04  0.50400001928E-02 0.  1.
    10030    2    1    2    0    0  0.00000000000E+00  0.00000000000E+00 -0.60463990596E+02  0.21984962893E+04  0.21976646786E+04 0.  0.
        5    1    3    3  502    0 -0.27446740204E+02  0.78957864526E+03 -0.79421113988E+03  0.11202594277E+04  0.46999998093E+01 0.  1.
       -5    1    3    3    0  502  0.27446740204E+02 -0.78957864526E+03  0.73374714929E+03  0.10782368616E+04  0.46999998093E+01 0. -1.
</event>
<event>
 5   0  0.1786228E-05  0.2207525E+04  0.7818609E-02  0.8515303E-01
       -1   -1    0    0    0  501  0.00000000000E+00  0.00000000000E+00  0.97915432644E+03  0.97915432646E+03  0.50400001928E-02 0. -1.
        1   -1    0    0  501    0  0.00000000000E+00  0.00000000000E+00 -0.12442278938E+04  0.12442278938E+04  0.50400001928E-02 0.  1.
    10030    2    1    2    0    0  0.00000000000E+00  0.00000000000E+00 -0.26507356736E+03  0.22233822203E+04  0.22075245188E+04 0.  0.
        5    1    3    3  502    0 -0.63858096373E+03  0.72120546460E+03 -0.67524521091E+03  0.11763932821E+04  0.46999998093E+01 0.  1.
       -5    1    3    3    0  502  0.63858096373E+03 -0.72120546460E+03  0.41017164355E+03  0.10469889381E+04  0.46999998093E+01 0. -1.
</event>
<event>
 5   0  0.1786228E-05  0.2197086E+04  0.7818609E-02  0.8519642E-01
        1   -1    0    0  501    0  0.00000000000E+00  0.00000000000E+00  0.84429093305E+03  0.84429093307E+03  0.50400001928E-02 0.  1.
       -1   -1    0    0    0  501  0.00000000000E+00  0.00000000000E+00 -0.14293618527E+04  0.14293618527E+04  0.50400001928E-02 0. -1.
    10030    2    1    2    0    0  0.00000000000E+00  0.00000000000E+00 -0.58507091962E+03  0.22736527858E+04  0.21970864820E+04 0.  0.
        5    1    3    3  502    0 -0.52651831907E+03  0.44304798487E+03 -0.11786841748E+04  0.13648558646E+04  0.46999998093E+01 0. -1.
       -5    1    3    3    0  502  0.52651831907E+03 -0.44304798487E+03  0.59361325516E+03  0.90879692117E+03  0.46999998093E+01 0.  1.
</event>
<event>
 5   0  0.4132460E-05  0.2192326E+04  0.7818609E-02  0.8521629E-01
       -2   -1    0    0    0  501  0.00000000000E+00  0.00000000000E+00  0.88683413061E+03  0.88683413061E+03  0.25500000920E-02 0. -1.
        2   -1    0    0  501    0  0.00000000000E+00  0.00000000000E+00 -0.13549025042E+04  0.13549025042E+04  0.25500000920E-02 0.  1.
    10030    2    1    2    0    0  0.00000000000E+00  0.00000000000E+00 -0.46806837360E+03  0.22417366348E+04  0.21923264213E+04 0.  0.
        4    1    3    3  502    0  0.99644295082E+02  0.10633558924E+04 -0.48641141432E+03  0.11735639805E+04  0.12699999809E+01 0.  1.
       -4    1    3    3    0  502 -0.99644295082E+02 -0.10633558924E+04  0.18343040721E+02  0.10681726543E+04  0.12699999809E+01 0. -1.
</event>
<event>
 5   0  0.1866935E-05  0.2115329E+04  0.7818609E-02  0.8554521E-01
       -1   -1    0    0    0  501  0.00000000000E+00  0.00000000000E+00  0.13290701499E+04  0.13290701499E+04  0.50400001928E-02 0. -1.
        1   -1    0    0  501    0  0.00000000000E+00  0.00000000000E+00 -0.84168203863E+03  0.84168203865E+03  0.50400001928E-02 0.  1.
    10030    2    1    2    0    0  0.00000000000E+00  0.00000000000E+00  0.48738811123E+03  0.21707521885E+04  0.21153292635E+04 0.  0.
        4    1    3    3  502    0  0.64861957088E+03  0.13133625560E+03 -0.60296579425E+03  0.89527980079E+03  0.12699999809E+01 0.  1.
       -4    1    3    3    0  502 -0.64861957088E+03 -0.13133625560E+03  0.10903539055E+04  0.12754723877E+04  0.12699999809E+01 0. -1.
</event>
<event>
 5   0  0.4029532E-05  0.2200478E+04  0.7818609E-02  0.8518229E-01
       -2   -1    0    0    0  501  0.00000000000E+00  0.00000000000E+00  0.90883487028E+03  0.90883487028E+03  0.25500000920E-02 0.  1.
        2   -1    0    0  501    0  0.00000000000E+00  0.00000000000E+00 -0.13319537333E+04  0.13319537333E+04  0.25500000920E-02 0. -1.
    10030    2    1    2    0    0  0.00000000000E+00  0.00000000000E+00 -0.42311886306E+03  0.22407886036E+04  0.22004781285E+04 0.  0.
        3    1    3    3  502    0  0.18901831822E+03  0.17789540423E+03 -0.13003282787E+04  0.13259820293E+04  0.10100000352E+00 0. -1.
       -3    1    3    3    0  502 -0.18901831822E+03 -0.17789540423E+03  0.87720941559E+03  0.91480657435E+03  0.10100000352E+00 0.  1.
</event>
<event>
 5   0  0.3963414E-05  0.2205196E+04  0.7818609E-02  0.8516269E-01
        2   -1    0    0  501    0  0.00000000000E+00  0.00000000000E+00  0.18977053559E+04  0.18977053559E+04  0.25500000920E-02 0.  1.
       -2   -1    0    0    0  501  0.00000000000E+00  0.00000000000E+00 -0.64062730321E+03  0.64062730321E+03  0.25500000920E-02 0. -1.
    10030    2    1    2    0    0  0.00000000000E+00  0.00000000000E+00  0.12570780527E+04  0.25383326592E+04  0.22051955600E+04 0.  0.
        1    1    3    3  502    0 -0.10303100982E+04 -0.36224899639E+03  0.45412780680E+03  0.11827913166E+04  0.50400001928E-02 0. -1.
       -1    1    3    3    0  502  0.10303100982E+04  0.36224899639E+03  0.80295024593E+03  0.13555413425E+04  0.50400001928E-02 0.  1.
</event>
<event>
 5   0  0.1866935E-05  0.2177585E+04  0.7818609E-02  0.8527816E-01
        1   -1    0    0  501    0  0.00000000000E+00  0.00000000000E+00  0.18358690347E+04  0.18358690348E+04  0.50400001928E-02 0.  1.
       -1   -1    0    0    0  501  0.00000000000E+00  0.00000000000E+00 -0.64572611767E+03  0.64572611769E+03  0.50400001928E-02 0. -1.
    10030    2    1    2    0    0  0.00000000000E+00  0.00000000000E+00  0.11901429171E+04  0.24815951524E+04  0.21775845190E+04 0.  0.
        4    1    3    3  502    0  0.55603568642E+03  0.24598577412E+03 -0.43423108764E+03  0.74715656727E+03  0.12699999809E+01 0. -1.
       -4    1    3    3    0  502 -0.55603568642E+03 -0.24598577412E+03  0.16243740047E+04  0.17344385852E+04  0.12699999809E+01 0.  1.
</event>
<event>
 5   0  0.3963414E-05  0.2196337E+04  0.7818609E-02  0.8519954E-01
       -2   -1    0    0    0  501  0.00000000000E+00  0.00000000000E+00  0.74365950085E+03  0.74365950085E+03  0.25500000920E-02 0.  1.
        2   -1    0    0  501    0  0.00000000000E+00  0.00000000000E+00 -0.16216753738E+04  0.16216753738E+04  0.25500000920E-02 0. -1.
    10030    2    1    2    0    0  0.00000000000E+00  0.00000000000E+00 -0.87801587299E+03  0.23653348747E+04  0.21963372228E+04 0.  0.
        1    1    3    3  502    0  0.26413205644E+03 -0.55328680622E+03 -0.14202003485E+04  0.15468875406E+04  0.50400001928E-02 0. -1.
       -1    1    3    3    0  502 -0.26413205644E+03  0.55328680622E+03  0.54218447554E+03  0.81844733412E+03  0.50400001928E-02 0.  1.
</event>
<event>
 5   0  0.4029532E-05  0.2212594E+04  0.7818609E-02  0.8513204E-01
        2   -1    0    0  501    0  0.00000000000E+00  0.00000000000E+00  0.82582265532E+03  0.82582265533E+03  0.25500000920E-02 0.  1.
       -2   -1    0    0    0  501  0.00000000000E+00  0.00000000000E+00 -0.14820294071E+04  0.14820294071E+04  0.25500000920E-02 0. -1.
    10030    2    1    2    0    0  0.00000000000E+00  0.00000000000E+00 -0.65620675173E+03  0.23078520624E+04  0.22125943688E+04 0.  0.
        3    1    3    3  502    0  0.93445773033E+03 -0.54321826178E+03 -0.57404294423E+03  0.12238556458E+04  0.10100000352E+00 0.  1.
       -3    1    3    3    0  502 -0.93445773033E+03  0.54321826178E+03 -0.82163807497E+02  0.10839964166E+04  0.10100000352E+00 0. -1.
</event>
<event>
 5   0  0.1815681E-05  0.1980305E+04  0.7818609E-02  0.8615884E-01
        1   -1    0    0  501    0  0.00000000000E+00  0.00000000000E+00  0.10632151841E+04  0.10632151841E+04  0.50400001928E-02 0.  1.
       -1   -1    0    0    0  501  0.00000000000E+00  0.00000000000E+00 -0.92211077508E+03  0.92211077510E+03  0.50400001928E-02 0. -1.
    10030    2    1    2    0    0  0.00000000000E+00  0.00000000000E+00  0.14110440904E+03  0.19853259592E+04  0.19803052063E+04 0.  0.
        2    1    3    3  502    0 -0.16734823288E+03 -0.58308588482E+03 -0.71399662159E+03  0.93690221250E+03  0.25500000920E-02 0. -1.
       -2    1    3    3    0  502  0.16734823288E+03  0.58308588482E+03  0.85510103064E+03  0.10484237467E+04  0.25500000920E-02 0.  1.
</event>
<event>
 5   0  0.4029532E-05  0.2208537E+04  0.7818609E-02  0.8514883E-01
       -2   -1    0    0    0  501  0.00000000000E+00  0.00000000000E+00  0.54435839815E+03  0.54435839816E+03  0.25500000920E-02 0.  1.
        2   -1    0    0  501    0  0.00000000000E+00  0.00000000000E+00 -0.22400852899E+04  0.22400852899E+04  0.25500000920E-02 0. -1.
    10030    2    1    2    0    0  0.00000000000E+00  0.00000000000E+00 -0.16957268917E+04  0.27844436880E+04  0.22085372898E+04 0.  0.
        3    1    3    3  502    0  0.61863438002E+03  0.89247650945E+03 -0.59512382534E+03  0.12383033529E+04  0.10100000352E+00 0. -1.
       -3    1    3    3    0  502 -0.61863438002E+03 -0.89247650945E+03 -0.11006030664E+04  0.15461403352E+04  0.10100000352E+00 0.  1.
</event>
<event>
 5   0  0.1866935E-05  0.2168692E+04  0.7818609E-02  0.8531573E-01
       -1   -1    0    0    0  501  0.00000000000E+00  0.00000000000E+00  0.60020824103E+03  0.60020824105E+03  0.50400001928E-02 0.  1.
        1   -1    0    0  501    0  0.00000000000E+00  0.00000000000E+00 -0.19589977126E+04  0.19589977127E+04  0.50400001928E-02 0. -1.
    10030    2    1    2    0    0  0.00000000000E+00  0.00000000000E+00 -0.13587894716E+04  0.25592059537E+04  0.21686922984E+04 0.  0.
        4    1    3    3  502    0  0.50811408274E+03 -0.10442852005E+03  0.44428831761E+03  0.68299264926E+03  0.12699999809E+01 0.  1.
       -4    1    3    3    0  502 -0.50811408274E+03  0.10442852005E+03 -0.18030777892E+04  0.18762133044E+04  0.12699999809E+01 0. -1.
</event>
<event>
 5   0  0.1815681E-05  0.2209800E+04  0.7818609E-02  0.8514360E-01
        1   -1    0    0  501    0  0.00000000000E+00  0.00000000000E+00  0.10365474417E+04  0.10365474417E+04  0.50400001928E-02 0. -1.
       -1   -1    0    0    0  501  0.00000000000E+00  0.00000000000E+00 -0.11777602722E+04  0.11777602723E+04  0.50400001928E-02 0.  1.
    10030    2    1    2    0    0  0.00000000000E+00  0.00000000000E+00 -0.14121283052E+03  0.22143077140E+04  0.22098003504E+04 0.  0.
        2    1    3    3  502    0 -0.62599677452E+03 -0.71960224108E+03  0.48829919026E+03  0.10715108242E+04  0.25500000920E-02 0. -1.
       -2    1    3    3    0  502  0.62599677452E+03  0.71960224108E+03 -0.62951202078E+03  0.11427968898E+04  0.25500000920E-02 0.  1.
</event>
<event>
 5   0  0.1866935E-05  0.2196828E+04  0.7818609E-02  0.8519750E-01
        1   -1    0    0  501    0  0.00000000000E+00  0.00000000000E+00  0.13692226267E+04  0.13692226267E+04  0.50400001928E-02 0. -1.
       -1   -1    0    0    0  501  0.00000000000E+00  0.00000000000E+00 -0.88116639739E+03  0.88116639740E+03  0.50400001928E-02 0.  1.
    10030    2    1    2    0    0  0.00000000000E+00  0.00000000000E+00  0.48805622929E+03  0.22503890241E+04  0.21968276848E+04 0.  0.
        4    1    3    3  502    0 -0.81629104887E+03  0.25458482320E+03 -0.46225049470E+03  0.97201936268E+03  0.12699999809E+01 0.  1.
       -4    1    3    3    0  502  0.81629104887E+03 -0.25458482320E+03  0.95030672399E+03  0.12783696614E+04  0.12699999809E+01 0. -1.
</event>
<event>
 5   0  0.3963414E-05  0.2209566E+04  0.7818609E-02  0.8514457E-01
       -2   -1    0    0    0  501  0.00000000000E+00  0.00000000000E+00  0.13038620592E+04  0.13038620592E+04  0.25500000920E-02 0. -1.
        2   -1    0    0  501    0  0.00000000000E+00  0.00000000000E+00 -0.93609996025E+03  0.93609996025E+03  0.25500000920E-02 0.  1.
    10030    2    1    2    0    0  0.00000000000E+00  0.00000000000E+00  0.36776209894E+03  0.22399620194E+04  0.22095657689E+04 0.  0.
        1    1    3    3  502    0  0.10215693532E+04  0.42026715058E+03  0.16583730612E+03  0.11170185466E+04  0.50400001928E-02 0.  1.
       -1    1    3    3    0  502 -0.10215693532E+04 -0.42026715058E+03  0.20192479282E+03  0.11229434729E+04  0.50400001928E-02 0. -1.
</event>
<event>
 5   0  0.1788413E-05  0.2202106E+04  0.7818609E-02  0.8517552E-01
        1   -1    0    0  501    0  0.00000000000E+00  0.00000000000E+00  0.16421081175E+04  0.16421081175E+04  0.50400001928E-02 0.  1.
       -1   -1    0    0    0  501  0.00000000000E+00  0.00000000000E+00 -0.73826941682E+03  0.73826941683E+03  0.50400001928E-02 0. -1.
    10030    2    1    2    0    0  0.00000000000E+00  0.00000000000E+00  0.90383870072E+03  0.23803775344E+04  0.22021064482E+04 0.  0.
        1    1    3    3  502    0 -0.22260214092E+03 -0.78988620924E+03 -0.34156793639E+03  0.88889852733E+03  0.50400001928E-02 0. -1.
       -1    1    3    3    0  502  0.22260214092E+03  0.78988620924E+03  0.12454066371E+04  0.14914790070E+04  0.50400001928E-02 0.  1.
</event>
<event>
 5   0  0.1866935E-05  0.2184246E+04  0.7818609E-02  0.8525014E-01
        1   -1    0    0  501    0  0.00000000000E+00  0.00000000000E+00  0.10170943588E+04  0.10170943588E+04  0.50400001928E-02 0. -1.
       -1   -1    0    0    0  501  0.00000000000E+00  0.00000000000E+00 -0.11726862491E+04  0.11726862491E+04  0.50400001928E-02 0.  1.
    10030    2    1    2    0    0  0.00000000000E+00  0.00000000000E+00 -0.15559189028E+03  0.21897806079E+04  0.21842459281E+04 0.  0.
        4    1    3    3  502    0 -0.80991286043E+03 -0.71862359934E+03  0.65226811011E+02  0.10847280160E+04  0.12699999809E+01 0.  1.
       -4    1    3    3    0  502  0.80991286043E+03  0.71862359934E+03 -0.22081870129E+03  0.11050525918E+04  0.12699999809E+01 0. -1.
</event>
<event>
 5   0  0.4143281E-05  0.2202213E+04  0.7818609E-02  0.8517508E-01
        2   -1    0    0  501    0  0.00000000000E+00  0.00000000000E+00  0.15227120214E+04  0.15227120214E+04  0.25500000920E-02 0.  1.
       -2   -1    0    0    0  501  0.00000000000E+00  0.00000000000E+00 -0.79623420014E+03  0.79623420014E+03  0.25500000920E-02 0. -1.
    10030    2    1    2    0    0  0.00000000000E+00  0.00000000000E+00  0.72647782122E+03  0.23189462215E+04  0.22022128765E+04 0.  0.
        2    1    3    3  502    0 -0.34496241316E+03  0.85786843800E+03  0.99284399585E+03  0.13567153436E+04  0.25500000920E-02 0.  1.
       -2    1    3    3    0  502  0.34496241316E+03 -0.85786843800E+03 -0.26636617463E+03  0.96223087791E+03  0.25500000920E-02 0. -1.
</event>
<event>
 5   0  0.4143281E-05  0.2215788E+04  0.7818609E-02  0.8511885E-01
       -2   -1    0    0    0  501  0.00000000000E+00  0.00000000000E+00  0.55936211112E+03  0.55936211112E+03  0.25500000920E-02 0.  1.
        2   -1    0    0  501    0  0.00000000000E+00  0.00000000000E+00 -0.21943371867E+04  0.21943371867E+04  0.25500000920E-02 0. -1.
    10030    2    1    2    0    0  0.00000000000E+00  0.00000000000E+00 -0.16349750756E+04  0.27536992978E+04  0.22157879693E+04 0.  0.
        2    1    3    3  502    0 -0.22244460607E+03  0.73430527248E+03  0.17574622509E+03  0.78712932330E+03  0.25500000920E-02 0.  1.
       -2    1    3    3    0  502  0.22244460607E+03 -0.73430527248E+03 -0.18107213007E+04  0.19665699745E+04  0.25500000920E-02 0. -1.
</event>
<event>
 5   0  0.4027923E-05  0.2196921E+04  0.7818609E-02  0.8519711E-01
        2   -1    0    0  501    0  0.00000000000E+00  0.00000000000E+00  0.10832134760E+04  0.10832134760E+04  0.25500000920E-02 0. -1.
       -2   -1    0    0    0  501  0.00000000000E+00  0.00000000000E+00 -0.11139221462E+04  0.11139221462E+04  0.25500000920E-02 0.  1.
    10030    2    1    2    0    0  0.00000000000E+00  0.00000000000E+00 -0.30708670227E+02  0.21971356222E+04  0.21969210090E+04 0.  0.
        5    1    3    3  502    0  0.92704251985E+03 -0.17331442840E+03  0.54785932899E+03  0.10906959517E+04  0.46999998093E+01 0. -1.
       -5    1    3    3    0  502 -0.92704251985E+03  0.17331442840E+03 -0.57856799922E+03  0.11064396705E+04  0.46999998093E+01 0.  1.
</event>
<event>
 5   0  0.3963414E-05  0.2201342E+04  0.7818609E-02  0.8517870E-01
        2   -1    0    0  501    0  0.00000000000E+00  0.00000000000E+00  0.17692614902E+04  0.17692614902E+04  0.25500000920E-02 0.  1.
       -2   -1    0    0    0  501  0.00000000000E+00  0.00000000000E+00 -0.68473602429E+03  0.68473602430E+03  0.25500000920E-02 0. -1.
    10030    2    1    2    0    0  0.00000000000E+00  0.00000000000E+00  0.10845254659E+04  0.24539975145E+04  0.22013423893E+04 0.  0.
        1    1    3    3  502    0 -0.70689716341E+03 -0.72614305680E+03  0.10210831180E+04  0.14386097707E+04  0.50400001928E-02 0.  1.
       -1    1    3    3    0  502  0.70689716341E+03  0.72614305680E+03  0.63442347874E+02  0.10153877437E+04  0.50400001928E-02 0. -1.
</event>
<event>
 5   0  0.1884407E-05  0.2206817E+04  0.7818609E-02  0.8515596E-01
        1   -1    0    0  501    0  0.00000000000E+00  0.00000000000E+00  0.20393188868E+04  0.20393188868E+04  0.50400001928E-02 0. -1.
       -1   -1    0    0    0  501  0.00000000000E+00  0.00000000000E+00 -0.59701788387E+03  0.59701788389E+03  0.50400001928E-02 0.  1.
    10030    2    1    2    0    0  0.00000000000E+00  0.00000000000E+00  0.14423010030E+04  0.26363367707E+04  0.22068165727E+04 0.  0.
        3    1    3    3  502    0 -0.50425000773E+03  0.13110641905E+03 -0.44081264716E+03  0.68247546733E+03  0.10100000352E+00 0.  1.
       -3    1    3    3    0  502  0.50425000773E+03 -0.13110641905E+03  0.18831136501E+04  0.19538613034E+04  0.10100000352E+00 0. -1.
</event>
<event>
 5   0  0.4132460E-05  0.2196007E+04  0.7818609E-02  0.8520092E-01
        2   -1    0    0  501    0  0.00000000000E+00  0.00000000000E+00  0.85236293088E+03  0.85236293088E+03  0.25500000920E-02 0. -1.
       -2   -1    0    0    0  501  0.00000000000E+00  0.00000000000E+00 -0.14144349689E+04  0.14144349689E+04  0.25500000920E-02 0.  1.
    10030    2    1    2    0    0  0.00000000000E+00  0.00000000000E+00 -0.56207203800E+03  0.22667978998E+04  0.21960072273E+04 0.  0.
        4    1    3    3  502    0  0.17724631093E+03  0.31695830279E+03 -0.13506495396E+04  0.13986188230E+04  0.12699999809E+01 0.  1.
       -4    1    3    3    0  502 -0.17724631093E+03 -0.31695830279E+03  0.78857750157E+03  0.86817907676E+03  0.12699999809E+01 0. -1.
</event>
<event>
 5   0  0.4027923E-05  0.2193792E+04  0.7818609E-02  0.8521016E-01
        2   -1    0    0  501    0  0.00000000000E+00  0.00000000000E+00  0.11144200029E+04  0.11144200029E+04  0.25500000920E-02 0.  1.
       -2   -1    0    0    0  501  0.00000000000E+00  0.00000000000E+00 -0.10796476469E+04  0.10796476469E+04  0.25500000920E-02 0. -1.
    10030    2    1    2    0    0  0.00000000000E+00  0.00000000000E+00  0.34772356028E+02  0.21940676498E+04  0.21937920902E+04 0.  0.
        5    1    3    3  502    0  0.26649694312E+03  0.54516744758E+03 -0.89647400803E+03  0.10825506472E+04  0.46999998093E+01 0. -1.
       -5    1    3    3    0  502 -0.26649694312E+03 -0.54516744758E+03  0.93124636406E+03  0.11115170026E+04  0.46999998093E+01 0.  1.
</event>
<event>
 5   0  0.3963414E-05  0.2209222E+04  0.7818609E-02  0.8514600E-01
        2   -1    0    0  501    0  0.00000000000E+00  0.00000000000E+00  0.16337199354E+04  0.16337199354E+04  0.25500000920E-02 0.  1.
       -2   -1    0    0    0  501  0.00000000000E+00  0.00000000000E+00 -0.74686322899E+03  0.74686322899E+03  0.25500000920E-02 0. -1.
    10030    2    1    2    0    0  0.00000000000E+00  0.00000000000E+00  0.88685670644E+03  0.23805831644E+04  0.22092218958E+04 0.  0.
        1    1    3    3  502    0 -0.12463281419E+03 -0.99088394295E+03  0.95203626595E+03  0.13797671465E+04  0.50400001928E-02 0. -1.
       -1    1    3    3    0  502  0.12463281419E+03  0.99088394295E+03 -0.65179559507E+02  0.10008160179E+04  0.50400001928E-02 0.  1.
</event>
<event>
 5   0  0.1788413E-05  0.2195540E+04  0.7818609E-02  0.8520287E-01
        1   -1    0    0  501    0  0.00000000000E+00  0.00000000000E+00  0.12031823986E+04  0.12031823986E+04  0.50400001928E-02 0. -1.
       -1   -1    0    0    0  501  0.00000000000E+00  0.00000000000E+00 -0.10015933393E+04  0.10015933393E+04  0.50400001928E-02 0.  1.
    10030    2    1    2    0    0  0.00000000000E+00  0.00000000000E+00  0.20158905924E+03  0.22047757379E+04  0.21955404587E+04 0.  0.
        1    1    3    3  502    0 -0.79722932608E+03 -0.57585050365E+03 -0.38902876348E+03  0.10576019004E+04  0.50400001928E-02 0.  1.
       -1    1    3    3    0  502  0.79722932608E+03  0.57585050365E+03  0.59061782271E+03  0.11471738375E+04  0.50400001928E-02 0. -1.
</event>
<event>
 5   0  0.1433375E-05  0.2227820E+04  0.7818609E-02  0.8506937E-01
       -4   -1    0    0    0  501  0.00000000000E+00  0.00000000000E+00  0.11287384379E+04  0.11287391524E+04  0.12699999809E+01 0. -1.
        4   -1    0    0  501    0  0.00000000000E+00  0.00000000000E+00 -0.10992744948E+04  0.10992752284E+04  0.12699999809E+01 0.  1.
    10030    2    1    2    0    0  0.00000000000E+00  0.00000000000E+00  0.29463943147E+02  0.22280143808E+04  0.22278195522E+04 0.  0.
        5    1    3    3  502    0  0.11116270188E+04 -0.52010041872E+02 -0.33782331700E+02  0.11133656224E+04  0.46999998093E+01 0.  1.
       -5    1    3    3    0  502 -0.11116270188E+04  0.52010041872E+02  0.63246274847E+02  0.11146487584E+04  0.46999998093E+01 0. -1.
</event>
<event>
 5   0  0.1815681E-05  0.2204739E+04  0.7818609E-02  0.8516458E-01
        1   -1    0    0  501    0  0.00000000000E+00  0.00000000000E+00  0.25126996309E+04  0.25126996309E+04  0.50400001928E-02 0.  1.
       -1   -1    0    0    0  501  0.00000000000E+00  0.00000000000E+00 -0.48363046133E+03  0.48363046136E+03  0.50400001928E-02 0. -1.
    10030    2    1    2    0    0  0.00000000000E+00  0.00000000000E+00  0.20290691696E+04  0.29963300923E+04  0.22047386074E+04 0.  0.
        2    1    3    3  502    0  0.43548399141E+03 -0.11038030150E+03  0.23826427023E+04  0.24246270568E+04  0.25500000920E-02 0.  1.
       -2    1    3    3    0  502 -0.43548399141E+03  0.11038030150E+03 -0.35357353271E+03  0.57170303548E+03  0.25500000920E-02 0. -1.
</event>
<event>
 5   0  0.4143281E-05  0.2186199E+04  0.7818609E-02  0.8524194E-01
        2   -1    0    0  501    0  0.00000000000E+00  0.00000000000E+00  0.14233822963E+04  0.14233822963E+04  0.25500000920E-02 0.  1.
       -2   -1    0    0    0  501  0.00000000000E+00  0.00000000000E+00 -0.83945566380E+03  0.83945566381E+03  0.25500000920E-02 0. -1.
    10030    2    1    2    0    0  0.00000000000E+00  0.00000000000E+00  0.58392663246E+03  0.22628379601E+04  0.21861988293E+04 0.  0.
        2    1    3    3  502    0  0.21406131078E+03  0.10563238896E+04  0.48062741812E+03  0.11801038597E+04  0.25500000920E-02 0.  1.
       -2    1    3    3    0  502 -0.21406131078E+03 -0.10563238896E+04  0.10329921433E+03  0.10827341004E+04  0.25500000920E-02 0. -1.
</event>
<event>
 5   0  0.4132460E-05  0.2203241E+04  0.7818609E-02  0.8517080E-01
       -2   -1    0    0    0  501  0.00000000000E+00  0.00000000000E+00  0.80460747769E+03  0.80460747769E+03  0.25500000920E-02 0.  1.
        2   -1    0    0  501    0  0.00000000000E+00  0.00000000000E+00 -0.15082735347E+04  0.15082735347E+04  0.25500000920E-02 0. -1.
    10030    2    1    2    0    0  0.00000000000E+00  0.00000000000E+00 -0.70366605706E+03  0.23128810124E+04  0.22032413980E+04 0.  0.
        4    1    3    3  502    0 -0.99778830788E+03  0.20427716016E+03 -0.79255329523E+03  0.12905243137E+04  0.12699999809E+01 0. -1.
       -4    1    3    3    0  502  0.99778830788E+03 -0.20427716016E+03  0.88887238173E+02  0.10223566988E+04  0.12699999809E+01 0.  1.
</event>
<event>
 5   0  0.4027923E-05  0.2083343E+04  0.7818609E-02  0.8568617E-01
       -2   -1    0    0    0  501  0.00000000000E+00  0.00000000000E+00  0.53527620899E+03  0.53527620900E+03  0.25500000920E-02 0.  1.
        2   -1    0    0  501    0  0.00000000000E+00  0.00000000000E+00 -0.20271386930E+04  0.20271386930E+04  0.25500000920E-02 0. -1.
    10030    2    1    2    0    0  0.00000000000E+00  0.00000000000E+00 -0.14918624841E+04  0.25624149020E+04  0.20833426168E+04 0.  0.
        5    1    3    3  502    0  0.34602261669E+03  0.16659405456E+03  0.44501187931E+03  0.58782896577E+03  0.46999998093E+01 0.  1.
       -5    1    3    3    0  502 -0.34602261669E+03 -0.16659405456E+03 -0.19368743634E+04  0.19745859363E+04  0.46999998093E+01 0. -1.
</event>
<event>
 5   0  0.1788413E-05  0.2212572E+04  0.7818609E-02  0.8513213E-01
       -1   -1    0    0    0  501  0.00000000000E+00  0.00000000000E+00  0.90692640500E+03  0.90692640501E+03  0.50400001928E-02 0. -1.
        1   -1    0    0  501    0  0.00000000000E+00  0.00000000000E+00 -0.13494691573E+04  0.13494691573E+04  0.50400001928E-02 0.  1.
    10030    2    1    2    0    0  0.00000000000E+00  0.00000000000E+00 -0.44254275228E+03  0.22563955623E+04  0.22125724499E+04 0.  0.
        1    1    3    3  502    0  0.87445073269E+02  0.94294576433E+03  0.36196147755E+03  0.10138093837E+04  0.50400001928E-02 0. -1.
       -1    1    3    3    0  502 -0.87445073269E+02 -0.94294576433E+03 -0.80450422983E+03  0.12425861786E+04  0.50400001928E-02 0.  1.
</event>
<event>
 5   0  0.1866935E-05  0.2199723E+04  0.7818609E-02  0.8518543E-01
        1   -1    0    0  501    0  0.00000000000E+00  0.00000000000E+00  0.16672495064E+04  0.16672495064E+04  0.50400001928E-02 0. -1.
       -1   -1    0    0    0  501  0.00000000000E+00  0.00000000000E+00 -0.72556335673E+03  0.72556335675E+03  0.50400001928E-02 0.  1.
    10030    2    1    2    0    0  0.00000000000E+00  0.00000000000E+00  0.94168614967E+03  0.23928128632E+04  0.21997228447E+04 0.  0.
        4    1    3    3  502    0 -0.97328990517E+03  0.47261152291E+03  0.68576866799E+03  0.12809899180E+04  0.12699999809E+01 0.  1.
       -4    1    3    3    0  502  0.97328990517E+03 -0.47261152291E+03  0.25591748168E+03  0.11118229452E+04  0.12699999809E+01 0. -1.
</event>
<event>
 5   0  0.4143281E-05  0.2196261E+04  0.7818609E-02  0.8519986E-01
        2   -1    0    0  501    0  0.00000000000E+00  0.00000000000E+00  0.13180182773E+04  0.13180182773E+04  0.25500000920E-02 0. -1.
       -2   -1    0    0    0  501  0.00000000000E+00  0.00000000000E+00 -0.91492688541E+03  0.91492688542E+03  0.25500000920E-02 0.  1.
    10030    2    1    2    0    0  0.00000000000E+00  0.00000000000E+00  0.40309139188E+03  0.22329451627E+04  0.21962607836E+04 0.  0.
        2    1    3    3  502    0  0.59939599566E+03 -0.51123874492E+03 -0.57624862315E+03  0.97606510521E+03  0.25500000920E-02 0.  1.
       -2    1    3    3    0  502 -0.59939599566E+03  0.51123874492E+03  0.97934001503E+03  0.12568800575E+04  0.25500000920E-02 0. -1.
</event>
<event>
 5   0  0.3963414E-05  0.2204629E+04  0.7818609E-02  0.8516504E-01
        2   -1    0    0  501    0  0.00000000000E+00  0.00000000000E+00  0.16919816942E+04  0.16919816942E+04  0.25500000920E-02 0.  1.
       -2   -1    0    0    0  501  0.00000000000E+00  0.00000000000E+00 -0.71815062927E+03  0.71815062927E+03  0.25500000920E-02 0. -1.
    10030    2    1    2    0    0  0.00000000000E+00  0.00000000000E+00  0.97383106489E+03  0.24101323234E+04  0.22046294186E+04 0.  0.
        1    1    3    3  502    0  0.44061450978E+03 -0.98140904196E+03  0.74972584292E+03  0.13112565323E+04  0.50400001928E-02 0.  1.
       -1    1    3    3    0  502 -0.44061450978E+03  0.98140904196E+03  0.22410522197E+03  0.10988757912E+04  0.50400001928E-02 0. -1.
</event>
<event>
 5   0  0.3963414E-05  0.2150815E+04  0.7818609E-02  0.8539183E-01
        2   -1    0    0  501    0  0.00000000000E+00  0.00000000000E+00  0.11746300607E+04  0.11746300607E+04  0.25500000920E-02 0. -1.
       -2   -1    0    0    0  501  0.00000000000E+00  0.00000000000E+00 -0.98456681395E+03  0.98456681395E+03  0.25500000920E-02 0.  1.
    10030    2    1    2    0    0  0.00000000000E+00  0.00000000000E+00  0.19006324676E+03  0.21591968747E+04  0.21508154514E+04 0.  0.
        1    1    3    3  502    0  0.17685307198E+03  0.10129743990E+04 -0.22100881089E+03  0.10517789866E+04  0.50400001928E-02 0.  1.
       -1    1    3    3    0  502 -0.17685307198E+03 -0.10129743990E+04  0.41107205765E+03  0.11074178880E+04  0.50400001928E-02 0. -1.
</event>
<event>
 5   0  0.1815681E-05  0.2226963E+04  0.7818609E-02  0.8507289E-01
       -1   -1    0    0    0  501  0.00000000000E+00  0.00000000000E+00  0.12684153809E+04  0.12684153809E+04  0.50400001928E-02 0. -1.
        1   -1    0    0  501    0  0.00000000000E+00  0.00000000000E+00 -0.97747260060E+03  0.97747260061E+03  0.50400001928E-02 0.  1.
    10030    2    1    2    0    0  0.00000000000E+00  0.00000000000E+00  0.29094278028E+03  0.22458879815E+04  0.22269632067E+04 0.  0.
        2    1    3    3  502    0 -0.14264995356E+03  0.36538775204E+03 -0.90549003339E+03  0.98679755734E+03  0.25500000920E-02 0.  1.
       -2    1    3    3    0  502  0.14264995356E+03 -0.36538775204E+03  0.11964328137E+04  0.12590904242E+04  0.25500000920E-02 0. -1.
</event>
<event>
 5   0  0.4027923E-05  0.2193180E+04  0.7818609E-02  0.8521272E-01
        2   -1    0    0  501    0  0.00000000000E+00  0.00000000000E+00  0.12293045594E+04  0.12293045594E+04  0.25500000920E-02 0.  1.
       -2   -1    0    0    0  501  0.00000000000E+00  0.00000000000E+00 -0.97820280570E+03  0.97820280571E+03  0.25500000920E-02 0. -1.
    10030    2    1    2    0    0  0.00000000000E+00  0.00000000000E+00  0.25110175372E+03  0.22075073651E+04  0.21931795814E+04 0.  0.
        5    1    3    3  502    0  0.39401658457E+02  0.24085304200E+03 -0.95050969751E+03  0.98135286905E+03  0.46999998093E+01 0. -1.
       -5    1    3    3    0  502 -0.39401658457E+02 -0.24085304200E+03  0.12016114512E+04  0.12261544961E+04  0.46999998093E+01 0.  1.
</event>
<event>
 5   0  0.1866935E-05  0.2182404E+04  0.7818609E-02  0.8525788E-01
        1   -1    0    0  501    0  0.00000000000E+00  0.00000000000E+00  0.10603616895E+04  0.10603616895E+04  0.50400001928E-02 0. -1.
       -1   -1    0    0    0  501  0.00000000000E+00  0.00000000000E+00 -0.11229390851E+04  0.11229390851E+04  0.50400001928E-02 0.  1.
    10030    2    1    2    0    0  0.00000000000E+00  0.00000000000E+00 -0.62577395637E+02  0.21833007746E+04  0.21824037990E+04 0.  0.
        4    1    3    3  502    0  0.59323448326E+03 -0.46248408831E+03  0.75954318525E+03  0.10689836983E+04  0.12699999809E+01 0. -1.
       -4    1    3    3    0  502 -0.59323448326E+03  0.46248408831E+03 -0.82212058088E+03  0.11143170763E+04  0.12699999809E+01 0.  1.
</event>
<event>
 5   0  0.1788413E-05  0.2168447E+04  0.7818609E-02  0.8531677E-01
       -1   -1    0    0    0  501  0.00000000000E+00  0.00000000000E+00  0.16785351644E+04  0.16785351644E+04  0.50400001928E-02 0.  1.
        1   -1    0    0  501    0  0.00000000000E+00  0.00000000000E+00 -0.70033743817E+03  0.70033743819E+03  0.50400001928E-02 0. -1.
    10030    2    1    2    0    0  0.00000000000E+00  0.00000000000E+00  0.97819772625E+03  0.23788726026E+04  0.21684473865E+04 0.  0.
        1    1    3    3  502    0  0.32103875943E+03  0.90105188316E+03  0.10491057462E+04  0.14197123821E+04  0.50400001928E-02 0.  1.
       -1    1    3    3    0  502 -0.32103875943E+03 -0.90105188316E+03 -0.70908019987E+02  0.95916022047E+03  0.50400001928E-02 0. -1.
</event>
<event>
 5   0  0.1788413E-05  0.2195154E+04  0.7818609E-02  0.8520448E-01
       -1   -1    0    0    0  501  0.00000000000E+00  0.00000000000E+00  0.13559459718E+04  0.13559459718E+04  0.50400001928E-02 0.  1.
        1   -1    0    0  501    0  0.00000000000E+00  0.00000000000E+00 -0.88843872277E+03  0.88843872279E+03  0.50400001928E-02 0. -1.
    10030    2    1    2    0    0  0.00000000000E+00  0.00000000000E+00  0.46750724906E+03  0.22443846946E+04  0.21951536688E+04 0.  0.
        1    1    3    3  502    0  0.94402738646E+03 -0.37350150138E+03 -0.19271473282E+03  0.10333586242E+04  0.50400001928E-02 0. -1.
       -1    1    3    3    0  502 -0.94402738646E+03  0.37350150138E+03  0.66022198187E+03  0.12110260704E+04  0.50400001928E-02 0.  1.
</event>
<event>
 5   0  0.1815681E-05  0.2202507E+04  0.7818609E-02  0.8517385E-01
        1   -1    0    0  501    0  0.00000000000E+00  0.00000000000E+00  0.12862509032E+04  0.12862509032E+04  0.50400001928E-02 0.  1.
       -1   -1    0    0    0  501  0.00000000000E+00  0.00000000000E+00 -0.94286381241E+03  0.94286381242E+03  0.50400001928E-02 0. -1.
    10030    2    1    2    0    0  0.00000000000E+00  0.00000000000E+00  0.34338709077E+03  0.22291147156E+04  0.22025071444E+04 0.  0.
        2    1    3    3  502    0 -0.25175452556E+03  0.55492027945E+03 -0.75668978464E+03  0.97154325064E+03  0.25500000920E-02 0. -1.
       -2    1    3    3    0  502  0.25175452556E+03 -0.55492027945E+03  0.11000768754E+04  0.12575714650E+04  0.25500000920E-02 0.  1.
</event>
<event>
 5   0  0.1788413E-05  0.2206888E+04  0.7818609E-02  0.8515567E-01
       -1   -1    0    0    0  501  0.00000000000E+00  0.00000000000E+00  0.95634107968E+03  0.95634107969E+03  0.50400001928E-02 0.  1.
        1   -1    0    0  501    0  0.00000000000E+00  0.00000000000E+00 -0.12731736004E+04  0.12731736004E+04  0.50400001928E-02 0. -1.
    10030    2    1    2    0    0  0.00000000000E+00  0.00000000000E+00 -0.31683252067E+03  0.22295146801E+04  0.22068875962E+04 0.  0.
        1    1    3    3  502    0  0.92435541204E+03  0.59785225904E+03 -0.23487555181E+03  0.11256228393E+04  0.50400001928E-02 0. -1.
       -1    1    3    3    0  502 -0.92435541204E+03 -0.59785225904E+03 -0.81956968865E+02  0.11038918408E+04  0.50400001928E-02 0.  1.
</event>
<event>
 5   0  0.4029532E-05  0.2157342E+04  0.7818609E-02  0.8536396E-01
       -2   -1    0    0    0  501  0.00000000000E+00  0.00000000000E+00  0.83954789624E+03  0.83954789624E+03  0.25500000920E-02 0. -1.
        2   -1    0    0  501    0  0.00000000000E+00  0.00000000000E+00 -0.13859016054E+04  0.13859016054E+04  0.25500000920E-02 0.  1.
    10030    2    1    2    0    0  0.00000000000E+00  0.00000000000E+00 -0.54635370913E+03  0.22254495016E+04  0.21573416764E+04 0.  0.
        3    1    3    3  502    0  0.83115963401E+03  0.51068650503E+03  0.20168589677E+03  0.99614469571E+03  0.10100000352E+00 0. -1.
       -3    1    3    3    0  502 -0.83115963401E+03 -0.51068650503E+03 -0.74803960589E+03  0.12293048059E+04  0.10100000352E+00 0.  1.
</event>
<event>
 5   0  0.1884407E-05  0.2195025E+04  0.7818609E-02  0.8520501E-01
        1   -1    0    0  501    0  0.00000000000E+00  0.00000000000E+00  0.10565653097E+04  0.10565653097E+04  0.50400001928E-02 0.  1.
       -1   -1    0    0    0  501  0.00000000000E+00  0.00000000000E+00 -0.11400470417E+04  0.11400470418E+04  0.50400001928E-02 0. -1.
    10030    2    1    2    0    0  0.00000000000E+00  0.00000000000E+00 -0.83481732038E+02  0.21966123515E+04  0.21950254265E+04 0.  0.
        3    1    3    3  502    0  0.64565350169E+03  0.14053724256E+02 -0.92977646692E+03  0.11320557584E+04  0.10100000352E+00 0. -1.
       -3    1    3    3    0  502 -0.64565350169E+03 -0.14053724256E+02  0.84629473489E+03  0.10645565931E+04  0.10100000352E+00 0.  1.
</event>
<event>
 5   0  0.4132460E-05  0.2203915E+04  0.7818609E-02  0.8516800E-01
       -2   -1    0    0    0  501  0.00000000000E+00  0.00000000000E+00  0.10705237932E+04  0.10705237932E+04  0.25500000920E-02 0. -1.
        2   -1    0    0  501    0  0.00000000000E+00  0.00000000000E+00 -0.11343144965E+04  0.11343144965E+04  0.25500000920E-02 0.  1.
    10030    2    1    2    0    0  0.00000000000E+00  0.00000000000E+00 -0.63790703245E+02  0.22048382897E+04  0.22039152956E+04 0.  0.
        4    1    3    3  502    0 -0.67332031317E+03 -0.86877920500E+03 -0.11048710516E+03  0.11046929729E+04  0.12699999809E+01 0.  1.
       -4    1    3    3    0  502  0.67332031317E+03  0.86877920500E+03  0.46696401912E+02  0.11001453168E+04  0.12699999809E+01 0. -1.
</event>
<event>
 5   0  0.4029532E-05  0.2176367E+04  0.7818609E-02  0.8528329E-01
       -2   -1    0    0    0  501  0.00000000000E+00  0.00000000000E+00  0.10251532007E+04  0.10251532007E+04  0.25500000920E-02 0.  1.
        2   -1    0    0  501    0  0.00000000000E+00  0.00000000000E+00 -0.11550895843E+04  0.11550895843E+04  0.25500000920E-02 0. -1.
    10030    2    1    2    0    0  0.00000000000E+00  0.00000000000E+00 -0.12993638360E+03  0.21802427849E+04  0.21763674178E+04 0.  0.
        3    1    3    3  502    0 -0.76052258243E+03 -0.67317504141E+03  0.32634808067E+03  0.10668000350E+04  0.10100000352E+00 0.  1.
       -3    1    3    3    0  502  0.76052258243E+03  0.67317504141E+03 -0.45628446427E+03  0.11134427499E+04  0.10100000352E+00 0. -1.
</event>
<event>
 5   0  0.4143281E-05  0.2199032E+04  0.7818609E-02  0.8518831E-01
       -2   -1    0    0    0  501  0.00000000000E+00  0.00000000000E+00  0.61689728747E+03  0.61689728747E+03  0.25500000920E-02 0.  1.
        2   -1    0    0  501    0  0.00000000000E+00  0.00000000000E+00 -0.19597031551E+04  0.19597031551E+04  0.25500000920E-02 0. -1.
    10030    2    1    2    0    0  0.00000000000E+00  0.00000000000E+00 -0.13428058676E+04  0.25766004426E+04  0.21990321149E+04 0.  0.
        2    1    3    3  502    0  0.61403123682E+03  0.31695367010E+03 -0.16734896963E+04  0.18105418395E+04  0.25500000920E-02 0. -1.
       -2    1    3    3    0  502 -0.61403123682E+03 -0.31695367010E+03  0.33068382871E+03  0.76605860308E+03  0.25500000920E-02 0.  1.
</event>
<event>
 5   0  0.1786228E-05  0.2186712E+04  0.7818609E-02  0.8523979E-01
        1   -1    0    0  501    0  0.00000000000E+00  0.00000000000E+00  0.14636167339E+04  0.14636167340E+04  0.50400001928E-02 0.  1.
       -1   -1    0    0    0  501  0.00000000000E+00  0.00000000000E+00 -0.81676261565E+03  0.81676261566E+03  0.50400001928E-02 0. -1.
    10030    2    1    2    0    0  0.00000000000E+00  0.00000000000E+00  0.64685411830E+03  0.22803793496E+04  0.21867120816E+04 0.  0.
        5    1    3    3  502    0  0.10264281025E+04  0.16586536597E+03  0.67605230151E+03  0.12402156158E+04  0.46999998093E+01 0.  1.
       -5    1    3    3    0  502 -0.10264281025E+04 -0.16586536597E+03 -0.29198183215E+02  0.10401637338E+04  0.46999998093E+01 0. -1.
</event>
<event>
 5   0  0.1788413E-05  0.2192516E+04  0.7818609E-02  0.8521550E-01
       -1   -1    0    0    0  501  0.00000000000E+00  0.00000000000E+00  0.71614241412E+03  0.71614241414E+03  0.50400001928E-02 0.  1.
        1   -1    0    0  501    0  0.00000000000E+00  0.00000000000E+00 -0.16781318927E+04  0.16781318928E+04  0.50400001928E-02 0. -1.
    10030    2    1    2    0    0  0.00000000000E+00  0.00000000000E+00 -0.96198947863E+03  0.23942743069E+04  0.21925158379E+04 0.  0.
        1    1    3    3  502    0 -0.36443245233E+03 -0.42385300994E+03 -0.15108115116E+04  0.16109046558E+04  0.50400001928E-02 0. -1.
       -1    1    3    3    0  502  0.36443245233E+03  0.42385300994E+03  0.54882203299E+03  0.78336965111E+03  0.50400001928E-02 0.  1.
</event>
<event>
 5   0  0.3963414E-05  0.2202421E+04  0.7818609E-02  0.8517421E-01
        2   -1    0    0  501    0  0.00000000000E+00  0.00000000000E+00  0.26748943421E+04  0.26748943421E+04  0.25500000920E-02 0.  1.
       -2   -1    0    0    0  501  0.00000000000E+00  0.00000000000E+00 -0.45335045803E+03  0.45335045803E+03  0.25500000920E-02 0. -1.
    10030    2    1    2    0    0  0.00000000000E+00  0.00000000000E+00  0.22215438841E+04  0.31282448001E+04  0.22024210090E+04 0.  0.
        1    1    3    3  502    0 -0.23320863940E+03 -0.16901880435E+03  0.26204490137E+04  0.26362296295E+04  0.50400001928E-02 0.  1.
       -1    1    3    3    0  502  0.23320863940E+03  0.16901880435E+03 -0.39890512963E+03  0.49201517069E+03  0.50400001928E-02 0. -1.
</event>
<event>
 5   0  0.4132460E-05  0.2187259E+04  0.7818609E-02  0.8523750E-01
        2   -1    0    0  501    0  0.00000000000E+00  0.00000000000E+00  0.13607212367E+04  0.13607212367E+04  0.25500000920E-02 0. -1.
       -2   -1    0    0    0  501  0.00000000000E+00  0.00000000000E+00 -0.87896417344E+03  0.87896417344E+03  0.25500000920E-02 0.  1.
    10030    2    1    2    0    0  0.00000000000E+00  0.00000000000E+00  0.48175706321E+03  0.22396854101E+04  0.21872587566E+04 0.  0.
        4    1    3    3  502    0  0.13318994683E+03  0.53357103674E+03 -0.72707616814E+03  0.91163533299E+03  0.12699999809E+01 0.  1.
       -4    1    3    3    0  502 -0.13318994683E+03 -0.53357103674E+03  0.12088332314E+04  0.13280500771E+04  0.12699999809E+01 0. -1.
</event>
<event>
 5   0  0.4027923E-05  0.2123223E+04  0.7818609E-02  0.8551082E-01
        2   -1    0    0  501    0  0.00000000000E+00  0.00000000000E+00  0.21580280467E+04  0.21580280467E+04  0.25500000920E-02 0. -1.
       -2   -1    0    0    0  501  0.00000000000E+00  0.00000000000E+00 -0.52224472949E+03  0.52224472949E+03  0.25500000920E-02 0.  1.
    10030    2    1    2    0    0  0.00000000000E+00  0.00000000000E+00  0.16357833172E+04  0.26802727762E+04  0.21232228084E+04 0.  0.
        5    1    3    3  502    0 -0.84795658372E+03 -0.52687428675E+03  0.12736891458E+04  0.16183117784E+04  0.46999998093E+01 0.  1.
       -5    1    3    3    0  502  0.84795658372E+03  0.52687428675E+03  0.36209417142E+03  0.10619609978E+04  0.46999998093E+01 0. -1.
</event>
<event>
 5   0  0.4029532E-05  0.2214729E+04  0.7818609E-02  0.8512322E-01
       -2   -1    0    0    0  501  0.00000000000E+00  0.00000000000E+00  0.79978902899E+03  0.79978902899E+03  0.25500000920E-02 0.  1.
        2   -1    0    0  501    0  0.00000000000E+00  0.00000000000E+00 -0.15332249336E+04  0.15332249336E+04  0.25500000920E-02 0. -1.
    10030    2    1    2    0    0  0.00000000000E+00  0.00000000000E+00 -0.73343590461E+03  0.23330139626E+04  0.22147293116E+04 0.  0.
        3    1    3    3  502    0  0.77646980996E+03 -0.52232463653E+03 -0.99039260063E+03  0.13625732660E+04  0.10100000352E+00 0. -1.
       -3    1    3    3    0  502 -0.77646980996E+03  0.52232463653E+03  0.25695669603E+03  0.97044069656E+03  0.10100000352E+00 0.  1.
</event>
<event>
 5   0  0.4132460E-05  0.2202393E+04  0.7818609E-02  0.8517433E-01
       -2   -1    0    0    0  501  0.00000000000E+00  0.00000000000E+00  0.50580092771E+03  0.50580092771E+03  0.25500000920E-02 0. -1.
        2   -1    0    0  501    0  0.00000000000E+00  0.00000000000E+00 -0.23974524974E+04  0.23974524974E+04  0.25500000920E-02 0.  1.
    10030    2    1    2    0    0  0.00000000000E+00  0.00000000000E+00 -0.18916515697E+04  0.29032534251E+04  0.22023929689E+04 0.  0.
        4    1    3    3  502    0  0.43890516445E+02  0.27987656526E+03  0.45694023157E+03  0.53763673362E+03  0.12699999809E+01 0. -1.
       -4    1    3    3    0  502 -0.43890516445E+02 -0.27987656526E+03 -0.23485918013E+04  0.23656166915E+04  0.12699999809E+01 0.  1.
</event>
<event>
 5   0  0.1786228E-05  0.2178477E+04  0.7818609E-02  0.8527440E-01
        1   -1    0    0  501    0  0.00000000000E+00  0.00000000000E+00  0.11295674084E+04  0.11295674084E+04  0.50400001928E-02 0.  1.
       -1   -1    0    0    0  501  0.00000000000E+00  0.00000000000E+00 -0.10503498943E+04  0.10503498943E+04  0.50400001928E-02 0. -1.
    10030    2    1    2    0    0  0.00000000000E+00  0.00000000000E+00  0.79217514080E+02  0.21799173028E+04  0.21784774574E+04 0.  0.
        5    1    3    3  502    0 -0.83416882046E+03  0.68625286778E+03  0.17983809288E+03  0.10950545417E+04  0.46999998093E+01 0. -1.
       -5    1    3    3    0  502  0.83416882046E+03 -0.68625286778E+03 -0.10062057880E+03  0.10848627611E+04  0.46999998093E+01 0.  1.
</event>
<event>
 5   0  0.1815681E-05  0.2113523E+04  0.7818609E-02  0.8555310E-01
       -1   -1    0    0    0  501  0.00000000000E+00  0.00000000000E+00  0.59069635571E+03  0.59069635574E+03  0.50400001928E-02 0.  1.
        1   -1    0    0  501    0  0.00000000000E+00  0.00000000000E+00 -0.18905565684E+04  0.18905565685E+04  0.50400001928E-02 0. -1.
    10030    2    1    2    0    0  0.00000000000E+00  0.00000000000E+00 -0.12998602127E+04  0.24812529242E+04  0.21135230070E+04 0.  0.
        2    1    3    3  502    0 -0.43134026776E+02  0.71759208519E+02  0.58679645287E+03  0.59273940765E+03  0.25500000920E-02 0.  1.
       -2    1    3    3    0  502  0.43134026776E+02 -0.71759208519E+02 -0.18866566656E+04  0.18885135165E+04  0.25500000920E-02 0. -1.
</event>
<event>
 5   0  0.4132460E-05  0.2215641E+04  0.7818609E-02  0.8511946E-01
       -2   -1    0    0    0  501  0.00000000000E+00  0.00000000000E+00  0.61685065147E+03  0.61685065148E+03  0.25500000920E-02 0.  1.
        2   -1    0    0  501    0  0.00000000000E+00  0.00000000000E+00 -0.19895685543E+04  0.19895685543E+04  0.25500000920E-02 0. -1.
    10030    2    1    2    0    0  0.00000000000E+00  0.00000000000E+00 -0.13727179028E+04  0.26064192057E+04  0.22156413598E+04 0.  0.
        4    1    3    3  502    0 -0.84628550345E+03 -0.57997569295E+03 -0.19467740630E+03  0.10442566079E+04  0.12699999809E+01 0.  1.
       -4    1    3    3    0  502  0.84628550345E+03  0.57997569295E+03 -0.11780404965E+04  0.15621625978E+04  0.12699999809E+01 0. -1.
</event>
<event>
 5   0  0.4029532E-05  0.2192917E+04  0.7818609E-02  0.8521382E-01
       -2   -1    0    0    0  501  0.00000000000E+00  0.00000000000E+00  0.15195169652E+04  0.15195169652E+04  0.25500000920E-02 0. -1.
        2   -1    0    0  501    0  0.00000000000E+00  0.00000000000E+00 -0.79118635750E+03  0.79118635751E+03  0.25500000920E-02 0.  1.
    10030    2    1    2    0    0  0.00000000000E+00  0.00000000000E+00  0.72833060767E+03  0.23107033227E+04  0.21929168638E+04 0.  0.
        3    1    3    3  502    0 -0.61856651332E+03 -0.20317196388E+03 -0.56544403122E+03  0.86234003789E+03  0.10100000352E+00 0.  1.
       -3    1    3    3    0  502  0.61856651332E+03  0.20317196388E+03  0.12937746389E+04  0.14483632848E+04  0.10100000352E+00 0. -1.
</event>
<event>
 5   0  0.1433375E-05  0.2206474E+04  0.7818609E-02  0.8515739E-01
       -3   -1    0    0    0  501  0.00000000000E+00  0.00000000000E+00  0.90122328465E+03  0.90122329030E+03  0.10100000352E+00 0. -1.
        3   -1    0    0  501    0  0.00000000000E+00  0.00000000000E+00 -0.13505324939E+04  0.13505324977E+04  0.10100000352E+00 0.  1.
    10030    2    1    2    0    0  0.00000000000E+00  0.00000000000E+00 -0.44930920929E+03  0.22517557880E+04  0.22064735129E+04 0.  0.
        2    1    3    3  502    0 -0.53344892899E+03 -0.93384371509E+03  0.26359687819E+02  0.10757911866E+04  0.25500000920E-02 0. -1.
       -2    1    3    3    0  502  0.53344892899E+03  0.93384371509E+03 -0.47566889711E+03  0.11759646014E+04  0.25500000920E-02 0.  1.
</event>
<event>
 5   0  0.4143281E-05  0.2195001E+04  0.7818609E-02  0.8520512E-01
        2   -1    0    0  501    0  0.00000000000E+00  0.00000000000E+00  0.86999113844E+03  0.86999113844E+03  0.25500000920E-02 0. -1.
       -2   -1    0    0    0  501  0.00000000000E+00  0.00000000000E+00 -0.13845051450E+04  0.13845051450E+04  0.25500000920E-02 0.  1.
    10030    2    1    2    0    0  0.00000000000E+00  0.00000000000E+00 -0.51451400655E+03  0.22544962834E+04  0.21950008722E+04 0.  0.
        2    1    3    3  502    0 -0.33740640842E+03  0.26860020620E+03  0.77931432480E+03  0.89068511387E+03  0.25500000920E-02 0. -1.
       -2    1    3    3    0  502  0.33740640842E+03 -0.26860020620E+03 -0.12938283314E+04  0.13638111696E+04  0.25500000920E-02 0.  1.
</event>
<event>
 5   0  0.4132460E-05  0.2200203E+04  0.7818609E-02  0.8518343E-01
        2   -1    0    0  501    0  0.00000000000E+00  0.00000000000E+00  0.16013197647E+04  0.16013197647E+04  0.25500000920E-02 0.  1.
       -2   -1    0    0    0  501  0.00000000000E+00  0.00000000000E+00 -0.75576640862E+03  0.75576640862E+03  0.25500000920E-02 0. -1.
    10030    2    1    2    0    0  0.00000000000E+00  0.00000000000E+00  0.84555335605E+03  0.23570861733E+04  0.22002033430E+04 0.  0.
        4    1    3    3  502    0  0.27622932143E+03 -0.17746248455E+03  0.15476081597E+04  0.15820518956E+04  0.12699999809E+01 0.  1.
       -4    1    3    3    0  502 -0.27622932143E+03  0.17746248455E+03 -0.70205480364E+03  0.77503427773E+03  0.12699999809E+01 0. -1.
</event>
<event>
 5   0  0.1788413E-05  0.2076362E+04  0.7818609E-02  0.8571728E-01
        1   -1    0    0  501    0  0.00000000000E+00  0.00000000000E+00  0.58002226807E+03  0.58002226810E+03  0.50400001928E-02 0.  1.
       -1   -1    0    0    0  501  0.00000000000E+00  0.00000000000E+00 -0.18582387641E+04  0.18582387641E+04  0.50400001928E-02 0. -1.
    10030    2    1    2    0    0  0.00000000000E+00  0.00000000000E+00 -0.12782164960E+04  0.24382610322E+04  0.20763620711E+04 0.  0.
        1    1    3    3  502    0 -0.39648414802E+03 -0.88799401370E+03 -0.10658909851E+04  0.14428640408E+04  0.50400001928E-02 0. -1.
       -1    1    3    3    0  502  0.39648414802E+03  0.88799401370E+03 -0.21232551096E+03  0.99539699147E+03  0.50400001928E-02 0.  1.
</event>
<event>
 5   0  0.4143281E-05  0.2190279E+04  0.7818609E-02  0.8522485E-01
        2   -1    0    0  501    0  0.00000000000E+00  0.00000000000E+00  0.72154618114E+03  0.72154618114E+03  0.25500000920E-02 0. -1.
       -2   -1    0    0    0  501  0.00000000000E+00  0.00000000000E+00 -0.16621680829E+04  0.16621680829E+04  0.25500000920E-02 0.  1.
    10030    2    1    2    0    0  0.00000000000E+00  0.00000000000E+00 -0.94062190174E+03  0.23837142640E+04  0.21902794640E+04 0.  0.
        2    1    3    3  502    0  0.41894164906E+03  0.73422657231E+03  0.28740204057E+03  0.89286096215E+03  0.25500000920E-02 0. -1.
       -2    1    3    3    0  502 -0.41894164906E+03 -0.73422657231E+03 -0.12280239423E+04  0.14908533019E+04  0.25500000920E-02 0.  1.
</event>
<event>
 5   0  0.1786228E-05  0.2191572E+04  0.7818609E-02  0.8521944E-01
        1   -1    0    0  501    0  0.00000000000E+00  0.00000000000E+00  0.22641375159E+04  0.22641375159E+04  0.50400001928E-02 0. -1.
       -1   -1    0    0    0  501  0.00000000000E+00  0.00000000000E+00 -0.53033284255E+03  0.53033284257E+03  0.50400001928E-02 0.  1.
    10030    2    1    2    0    0  0.00000000000E+00  0.00000000000E+00  0.17338046733E+04  0.27944703584E+04  0.21915715683E+04 0.  0.
        5    1    3    3  502    0  0.96808386107E+03 -0.43165752254E+03  0.51259503032E+03  0.11774083123E+04  0.46999998093E+01 0. -1.
       -5    1    3    3    0  502 -0.96808386107E+03  0.43165752254E+03  0.12212096430E+04  0.16170620461E+04  0.46999998093E+01 0.  1.
</event>
<event>
 5   0  0.1884407E-05  0.2168611E+04  0.7818609E-02  0.8531608E-01
       -1   -1    0    0    0  501  0.00000000000E+00  0.00000000000E+00  0.14709573191E+04  0.14709573191E+04  0.50400001928E-02 0.  1.
        1   -1    0    0  501    0  0.00000000000E+00  0.00000000000E+00 -0.79928775479E+03  0.79928775481E+03  0.50400001928E-02 0. -1.
    10030    2    1    2    0    0  0.00000000000E+00  0.00000000000E+00  0.67166956431E+03  0.22702450739E+04  0.21686107747E+04 0.  0.
        3    1    3    3  502    0 -0.82263949602E+03  0.68622932563E+03  0.16043632908E+03  0.10832295480E+04  0.10100000352E+00 0. -1.
       -3    1    3    3    0  502  0.82263949602E+03 -0.68622932563E+03  0.51123323523E+03  0.11870155259E+04  0.10100000352E+00 0.  1.
</event>
<event>
 5   0  0.4027923E-05  0.2208976E+04  0.7818609E-02  0.8514701E-01
       -2   -1    0    0    0  501  0.00000000000E+00  0.00000000000E+00  0.93882801337E+03  0.93882801337E+03  0.25500000920E-02 0. -1.
        2   -1    0    0  501    0  0.00000000000E+00  0.00000000000E+00 -0.12993794877E+04  0.12993794877E+04  0.25500000920E-02 0.  1.
    10030    2    1    2    0    0  0.00000000000E+00  0.00000000000E+00 -0.36055147431E+03  0.22382075011E+04  0.22089761095E+04 0.  0.
        5    1    3    3  502    0 -0.97889226386E+01 -0.96909869442E+03 -0.71702502685E+03  0.12055683646E+04  0.46999998093E+01 0.  1.
       -5    1    3    3    0  502  0.97889226386E+01  0.96909869442E+03  0.35647355255E+03  0.10326391365E+04  0.46999998093E+01 0. -1.
</event>
<event>
 5   0  0.1786228E-05  0.2222749E+04  0.7818609E-02  0.8509019E-01
       -1   -1    0    0    0  501  0.00000000000E+00  0.00000000000E+00  0.73559366803E+03  0.73559366805E+03  0.50400001928E-02 0. -1.
        1   -1    0    0  501    0  0.00000000000E+00  0.00000000000E+00 -0.16791239309E+04  0.16791239309E+04  0.50400001928E-02 0.  1.
    10030    2    1    2    0    0  0.00000000000E+00  0.00000000000E+00 -0.94353026288E+03  0.24147175990E+04  0.22227486870E+04 0.  0.
        5    1    3    3  502    0 -0.13056057600E+03 -0.10268464941E+04 -0.91126821432E+03  0.13790908726E+04  0.46999998093E+01 0.  1.
       -5    1    3    3    0  502  0.13056057600E+03  0.10268464941E+04 -0.32262048561E+02  0.10356267263E+04  0.46999998093E+01 0. -1.
</event>
<event>
 5   0  0.4029532E-05  0.2255175E+04  0.7818609E-02  0.8495808E-01
        2   -1    0    0  501    0  0.00000000000E+00  0.00000000000E+00  0.12972886288E+04  0.12972886288E+04  0.25500000920E-02 0.  1.
       -2   -1    0    0    0  501  0.00000000000E+00  0.00000000000E+00 -0.98008560111E+03  0.98008560111E+03  0.25500000920E-02 0. -1.
    10030    2    1    2    0    0  0.00000000000E+00  0.00000000000E+00  0.31720302771E+03  0.22773742299E+04  0.22551752975E+04 0.  0.
        3    1    3    3  502    0  0.65138656959E+03  0.73128434482E+03 -0.40580314481E+03  0.10600742703E+04  0.10100000352E+00 0. -1.
       -3    1    3    3    0  502 -0.65138656959E+03 -0.73128434482E+03  0.72300617252E+03  0.12172999596E+04  0.10100000352E+00 0.  1.
</event>
<event>
 5   0  0.1788413E-05  0.2202534E+04  0.7818609E-02  0.8517374E-01
        1   -1    0    0  501    0  0.00000000000E+00  0.00000000000E+00  0.68795680211E+03  0.68795680213E+03  0.50400001928E-02 0. -1.
       -1   -1    0    0    0  501  0.00000000000E+00  0.00000000000E+00 -0.17628854569E+04  0.17628854569E+04  0.50400001928E-02 0.  1.
    10030    2    1    2    0    0  0.00000000000E+00  0.00000000000E+00 -0.10749286547E+04  0.24508422590E+04  0.22025340328E+04 0.  0.
        1    1    3    3  502    0 -0.50809067876E+03  0.95738860126E+03 -0.32043780384E+03  0.11302342491E+04  0.50400001928E-02 0.  1.
       -1    1    3    3    0  502  0.50809067876E+03 -0.95738860126E+03 -0.75449085090E+03  0.13206080099E+04  0.50400001928E-02 0. -1.
</event>
<event>
 5   0  0.1786228E-05  0.2247924E+04  0.7818609E-02  0.8498742E-01
       -1   -1    0    0    0  501  0.00000000000E+00  0.00000000000E+00  0.11384958249E+04  0.11384958249E+04  0.50400001928E-02 0.  1.
        1   -1    0    0  501    0  0.00000000000E+00  0.00000000000E+00 -0.11096137736E+04  0.11096137736E+04  0.50400001928E-02 0. -1.
    10030    2    1    2    0    0  0.00000000000E+00  0.00000000000E+00  0.28882051280E+02  0.22481095985E+04  0.22479240632E+04 0.  0.
        5    1    3    3  502    0  0.83160056801E+03 -0.33325285107E+03 -0.66432818043E+03  0.11153344739E+04  0.46999998093E+01 0. -1.
       -5    1    3    3    0  502 -0.83160056801E+03  0.33325285107E+03  0.69321023171E+03  0.11327751246E+04  0.46999998093E+01 0.  1.
</event>
<event>
 5   0  0.4029532E-05  0.2173924E+04  0.7818609E-02  0.8529361E-01
        2   -1    0    0  501    0  0.00000000000E+00  0.00000000000E+00  0.22113728247E+04  0.22113728247E+04  0.25500000920E-02 0. -1.
       -2   -1    0    0    0  501  0.00000000000E+00  0.00000000000E+00 -0.53427737751E+03  0.53427737752E+03  0.25500000920E-02 0.  1.
    10030    2    1    2    0    0  0.00000000000E+00  0.00000000000E+00  0.16770954472E+04  0.27456502023E+04  0.21739240773E+04 0.  0.
        3    1    3    3  502    0  0.81643965218E+02  0.50755448044E+03  0.20481289281E+04  0.21116603429E+04  0.10100000352E+00 0. -1.
       -3    1    3    3    0  502 -0.81643965218E+02 -0.50755448044E+03 -0.37103348082E+03  0.63398985936E+03  0.10100000352E+00 0.  1.
</event>
<event>
 5   0  0.4027923E-05  0.2198809E+04  0.7818609E-02  0.8518924E-01
       -2   -1    0    0    0  501  0.00000000000E+00  0.00000000000E+00  0.62160388436E+03  0.62160388437E+03  0.25500000920E-02 0.  1.
        2   -1    0    0  501    0  0.00000000000E+00  0.00000000000E+00 -0.19444700307E+04  0.19444700307E+04  0.25500000920E-02 0. -1.
    10030    2    1    2    0    0  0.00000000000E+00  0.00000000000E+00 -0.13228661464E+04  0.25660739151E+04  0.21988088813E+04 0.  0.
        5    1    3    3  502    0  0.90275162759E+03 -0.60788953483E+03 -0.84289707627E+03  0.13765855436E+04  0.46999998093E+01 0. -1.
       -5    1    3    3    0  502 -0.90275162759E+03  0.60788953483E+03 -0.47996907009E+03  0.11894883715E+04  0.46999998093E+01 0.  1.
</event>
<event>
 5   0  0.4027923E-05  0.2202154E+04  0.7818609E-02  0.8517532E-01
       -2   -1    0    0    0  501  0.00000000000E+00  0.00000000000E+00  0.63194927825E+03  0.63194927825E+03  0.25500000920E-02 0. -1.
        2   -1    0    0  501    0  0.00000000000E+00  0.00000000000E+00 -0.19184611146E+04  0.19184611146E+04  0.25500000920E-02 0.  1.
    10030    2    1    2    0    0  0.00000000000E+00  0.00000000000E+00 -0.12865118363E+04  0.25504103928E+04  0.22021535975E+04 0.  0.
        5    1    3    3  502    0  0.86842889549E+03  0.53528621114E+03 -0.11230797070E+04  0.15172442759E+04  0.46999998093E+01 0.  1.
       -5    1    3    3    0  502 -0.86842889549E+03 -0.53528621114E+03 -0.16343212934E+03  0.10331661170E+04  0.46999998093E+01 0. -1.
</event>
<event>
 5   0  0.1866935E-05  0.2209189E+04  0.7818609E-02  0.8514613E-01
       -1   -1    0    0    0  501  0.00000000000E+00  0.00000000000E+00  0.81144427462E+03  0.81144427464E+03  0.50400001928E-02 0.  1.
        1   -1    0    0  501    0  0.00000000000E+00  0.00000000000E+00 -0.15036516709E+04  0.15036516709E+04  0.50400001928E-02 0. -1.
    10030    2    1    2    0    0  0.00000000000E+00  0.00000000000E+00 -0.69220739624E+03  0.23150959455E+04  0.22091894798E+04 0.  0.
        4    1    3    3  502    0 -0.28874506539E+03  0.84021737380E+03 -0.10339134353E+04  0.13632012150E+04  0.12699999809E+01 0. -1.
       -4    1    3    3    0  502  0.28874506539E+03 -0.84021737380E+03  0.34170603901E+03  0.95189473053E+03  0.12699999809E+01 0.  1.
</event>
<event>
 5   0  0.1786228E-05  0.2208519E+04  0.7818609E-02  0.8514891E-01
       -1   -1    0    0    0  501  0.00000000000E+00  0.00000000000E+00  0.13079621270E+04  0.13079621270E+04  0.50400001928E-02 0. -1.
        1   -1    0    0  501    0  0.00000000000E+00  0.00000000000E+00 -0.93228141632E+03  0.93228141633E+03  0.50400001928E-02 0.  1.
    10030    2    1    2    0    0  0.00000000000E+00  0.00000000000E+00  0.37568071068E+03  0.22402435433E+04  0.22085187654E+04 0.  0.
        5    1    3    3  502    0  0.89235378611E+02 -0.29803477883E+03  0.12625783431E+04  0.13003514312E+04  0.46999998093E+01 0. -1.
       -5    1    3    3    0  502 -0.89235378611E+02  0.29803477883E+03 -0.88689763238E+03  0.93989211217E+03  0.46999998093E+01 0.  1.
</event>
<event>
 5   0  0.1866935E-05  0.2199092E+04  0.7818609E-02  0.8518806E-01
       -1   -1    0    0    0  501  0.00000000000E+00  0.00000000000E+00  0.81655398099E+03  0.81655398101E+03  0.50400001928E-02 0. -1.
        1   -1    0    0  501    0  0.00000000000E+00  0.00000000000E+00 -0.14806145608E+04  0.14806145608E+04  0.50400001928E-02 0.  1.
    10030    2    1    2    0    0  0.00000000000E+00  0.00000000000E+00 -0.66406057985E+03  0.22971685419E+04  0.21990922800E+04 0.  0.
        4    1    3    3  502    0  0.16431206161E+03 -0.30110155952E+03  0.75923249094E+03  0.83312435502E+03  0.12699999809E+01 0. -1.
       -4    1    3    3    0  502 -0.16431206161E+03  0.30110155952E+03 -0.14232930708E+04  0.14640441868E+04  0.12699999809E+01 0.  1.
</event>
<event>
 5   0  0.1884407E-05  0.2127585E+04  0.7818609E-02  0.8549188E-01
       -1   -1    0    0    0  501  0.00000000000E+00  0.00000000000E+00  0.71721875726E+03  0.71721875728E+03  0.50400001928E-02 0. -1.
        1   -1    0    0  501    0  0.00000000000E+00  0.00000000000E+00 -0.15778373942E+04  0.15778373942E+04  0.50400001928E-02 0.  1.
    10030    2    1    2    0    0  0.00000000000E+00  0.00000000000E+00 -0.86061863691E+03  0.22950561515E+04  0.21275850865E+04 0.  0.
        3    1    3    3  502    0  0.76376348836E+03 -0.40494583781E+03 -0.10990588249E+04  0.13983011508E+04  0.10100000352E+00 0.  1.
       -3    1    3    3    0  502 -0.76376348836E+03  0.40494583781E+03  0.23844018795E+03  0.89675500063E+03  0.10100000352E+00 0. -1.
</event>
<event>
 5   0  0.1866935E-05  0.2188820E+04  0.7818609E-02  0.8523096E-01
       -1   -1    0    0    0  501  0.00000000000E+00  0.00000000000E+00  0.15773585525E+04  0.15773585525E+04  0.50400001928E-02 0.  1.
        1   -1    0    0  501    0  0.00000000000E+00  0.00000000000E+00 -0.75932878928E+03  0.75932878929E+03  0.50400001928E-02 0. -1.
    10030    2    1    2    0    0  0.00000000000E+00  0.00000000000E+00  0.81802976322E+03  0.23366873418E+04  0.21888204677E+04 0.  0.
        4    1    3    3  502    0  0.94410656189E+03 -0.42516858960E+03  0.78739760408E+03  0.13008082601E+04  0.12699999809E+01 0.  1.
       -4    1    3    3    0  502 -0.94410656189E+03  0.42516858960E+03  0.30632159142E+02  0.10358790817E+04  0.12699999809E+01 0. -1.
</event>
<event>
 5   0  0.4029532E-05  0.2212169E+04  0.7818609E-02  0.8513380E-01
        2   -1    0    0  501    0  0.00000000000E+00  0.00000000000E+00  0.17258717553E+04  0.17258717553E+04  0.25500000920E-02 0. -1.
       -2   -1    0    0    0  501  0.00000000000E+00  0.00000000000E+00 -0.70887255768E+03  0.70887255768E+03  0.25500000920E-02 0.  1.
    10030    2    1    2    0    0  0.00000000000E+00  0.00000000000E+00  0.10169991976E+04  0.24347443130E+04  0.22121691847E+04 0.  0.
        3    1    3    3  502    0  0.36481702363E+03 -0.81750854799E+03 -0.20648572587E+03  0.91872087815E+03  0.10100000352E+00 0.  1.
       -3    1    3    3    0  502 -0.36481702363E+03  0.81750854799E+03  0.12234849235E+04  0.15160234349E+04  0.10100000352E+00 0. -1.
</event>
<event>
 5   0  0.4027923E-05  0.2228053E+04  0.7818609E-02  0.8506842E-01
        2   -1    0    0  501    0  0.00000000000E+00  0.00000000000E+00  0.14148423413E+04  0.14148423413E+04  0.25500000920E-02 0. -1.
       -2   -1    0    0    0  501  0.00000000000E+00  0.00000000000E+00 -0.87716855776E+03  0.87716855776E+03  0.25500000920E-02 0.  1.
    10030    2    1    2    0    0  0.00000000000E+00  0.00000000000E+00  0.53767378356E+03  0.22920108991E+04  0.22280531556E+04 0.  0.
        5    1    3    3  502    0 -0.89374054507E+03  0.37037284804E+03 -0.29936346188E+03  0.10127135729E+04  0.46999998093E+01 0.  1.
       -5    1    3    3    0  502  0.89374054507E+03 -0.37037284804E+03  0.83703724544E+03  0.12792973262E+04  0.46999998093E+01 0. -1.
</event>
<event>
 5   0  0.4027923E-05  0.2189189E+04  0.7818609E-02  0.8522941E-01
        2   -1    0    0  501    0  0.00000000000E+00  0.00000000000E+00  0.10953576884E+04  0.10953576884E+04  0.25500000920E-02 0. -1.
       -2   -1    0    0    0  501  0.00000000000E+00  0.00000000000E+00 -0.10938316321E+04  0.10938316321E+04  0.25500000920E-02 0.  1.
    10030    2    1    2    0    0  0.00000000000E+00  0.00000000000E+00  0.15260562522E+01  0.21891893205E+04  0.21891887886E+04 0.  0.
        5    1    3    3  502    0 -0.11157515058E+01  0.41316973346E+02  0.10945669604E+04  0.10953571372E+04  0.46999998093E+01 0. -1.
       -5    1    3    3    0  502  0.11157515058E+01 -0.41316973346E+02 -0.10930409041E+04  0.10938321833E+04  0.46999998093E+01 0.  1.
</event>
<event>
 5   0  0.1788413E-05  0.2204557E+04  0.7818609E-02  0.8516534E-01
       -1   -1    0    0    0  501  0.00000000000E+00  0.00000000000E+00  0.86653982231E+03  0.86653982233E+03  0.50400001928E-02 0.  1.
        1   -1    0    0  501    0  0.00000000000E+00  0.00000000000E+00 -0.14021492327E+04  0.14021492327E+04  0.50400001928E-02 0. -1.
    10030    2    1    2    0    0  0.00000000000E+00  0.00000000000E+00 -0.53560941043E+03  0.22686890551E+04  0.22045572318E+04 0.  0.
        1    1    3    3  502    0  0.70370138095E+03 -0.81990182832E+03 -0.49228685571E+03  0.11873419853E+04  0.50400001928E-02 0. -1.
       -1    1    3    3    0  502 -0.70370138095E+03  0.81990182832E+03 -0.43322554721E+02  0.10813470698E+04  0.50400001928E-02 0.  1.
</event>
<event>
 5   0  0.3963414E-05  0.2158767E+04  0.7818609E-02  0.8535789E-01
        2   -1    0    0  501    0  0.00000000000E+00  0.00000000000E+00  0.97947634766E+03  0.97947634766E+03  0.25500000920E-02 0.  1.
       -2   -1    0    0    0  501  0.00000000000E+00  0.00000000000E+00 -0.11894811028E+04  0.11894811028E+04  0.25500000920E-02 0. -1.
    10030    2    1    2    0    0  0.00000000000E+00  0.00000000000E+00 -0.21000475516E+03  0.21689574505E+04  0.21587668760E+04 0.  0.
        1    1    3    3  502    0 -0.20181766419E+03 -0.44131803502E+03  0.86369446627E+03  0.99068668544E+03  0.50400001928E-02 0.  1.
       -1    1    3    3    0  502  0.20181766419E+03  0.44131803502E+03 -0.10736992214E+04  0.11782707650E+04  0.50400001928E-02 0. -1.
</event>
<event>
 5   0  0.3963414E-05  0.2316075E+04  0.7818609E-02  0.8471610E-01
       -2   -1    0    0    0  501  0.00000000000E+00  0.00000000000E+00  0.10886839795E+04  0.10886839795E+04  0.25500000920E-02 0.  1.
        2   -1    0    0  501    0  0.00000000000E+00  0.00000000000E+00 -0.12318090541E+04  0.12318090541E+04  0.25500000920E-02 0. -1.
    10030    2    1    2    0    0  0.00000000000E+00  0.00000000000E+00 -0.14312507451E+03  0.23204930336E+04  0.23160749409E+04 0.  0.
        1    1    3    3  502    0  0.47547722529E+03 -0.97727058635E+03 -0.47221834016E+03  0.11849584598E+04  0.50400001928E-02 0. -1.
       -1    1    3    3    0  502 -0.47547722529E+03  0.97727058635E+03  0.32909326565E+03  0.11355345738E+04  0.50400001928E-02 0.  1.
</event>
<event>
 5   0  0.1884407E-05  0.2201837E+04  0.7818609E-02  0.8517664E-01
        1   -1    0    0  501    0  0.00000000000E+00  0.00000000000E+00  0.18725188071E+04  0.18725188071E+04  0.50400001928E-02 0.  1.
       -1   -1    0    0    0  501  0.00000000000E+00  0.00000000000E+00 -0.64726792709E+03  0.64726792711E+03  0.50400001928E-02 0. -1.
    10030    2    1    2    0    0  0.00000000000E+00  0.00000000000E+00  0.12252508800E+04  0.25197867342E+04  0.22018368393E+04 0.  0.
        3    1    3    3  502    0  0.49116689593E+03  0.49345456389E+03 -0.36332819132E+03  0.78533413978E+03  0.10100000352E+00 0. -1.
       -3    1    3    3    0  502 -0.49116689593E+03 -0.49345456389E+03  0.15885790713E+04  0.17344525944E+04  0.10100000352E+00 0.  1.
</event>
<event>
 5   0  0.4132460E-05  0.2192409E+04  0.7818609E-02  0.8521594E-01
       -2   -1    0    0    0  501  0.00000000000E+00  0.00000000000E+00  0.71503300205E+03  0.71503300206E+03  0.25500000920E-02 0.  1.
        2   -1    0    0  501    0  0.00000000000E+00  0.00000000000E+00 -0.16805712105E+04  0.16805712105E+04  0.25500000920E-02 0. -1.
    10030    2    1    2    0    0  0.00000000000E+00  0.00000000000E+00 -0.96553820849E+03  0.23956042126E+04  0.21924086096E+04 0.  0.
        4    1    3    3  502    0  0.89506905360E+03  0.41711739125E+03  0.37290717801E+02  0.98819418098E+03  0.12699999809E+01 0.  1.
       -4    1    3    3    0  502 -0.89506905360E+03 -0.41711739125E+03 -0.10028289263E+04  0.14074100316E+04  0.12699999809E+01 0. -1.
</event>
<event>
 5   0  0.1815681E-05  0.2193575E+04  0.7818609E-02  0.8521107E-01
        1   -1    0    0  501    0  0.00000000000E+00  0.00000000000E+00  0.19810829754E+04  0.19810829755E+04  0.50400001928E-02 0. -1.
       -1   -1    0    0    0  501  0.00000000000E+00  0.00000000000E+00 -0.60721479248E+03  0.60721479250E+03  0.50400001928E-02 0.  1.
    10030    2    1    2    0    0  0.00000000000E+00  0.00000000000E+00  0.13738681830E+04  0.25882977680E+04  0.21935750617E+04 0.  0.
        2    1    3    3  502    0  0.50232186417E+03  0.70162603749E+03  0.14857633750E+04  0.17181673836E+04  0.25500000920E-02 0. -1.
       -2    1    3    3    0  502 -0.50232186417E+03 -0.70162603749E+03 -0.11189519203E+03  0.87013038432E+03  0.25500000920E-02 0.  1.
</event>
<event>
 5   0  0.4143281E-05  0.2197772E+04  0.7818609E-02  0.8519356E-01
       -2   -1    0    0    0  501  0.00000000000E+00  0.00000000000E+00  0.48948996338E+03  0.48948996339E+03  0.25500000920E-02 0.  1.
        2   -1    0    0  501    0  0.00000000000E+00  0.00000000000E+00 -0.24669557244E+04  0.24669557244E+04  0.25500000920E-02 0. -1.
    10030    2    1    2    0    0  0.00000000000E+00  0.00000000000E+00 -0.19774657611E+04  0.29564456878E+04  0.21977716599E+04 0.  0.
        2    1    3    3  502    0 -0.23588658210E+03 -0.10143939322E+04 -0.51712024830E+03  0.11627772274E+04  0.25500000920E-02 0.  1.
       -2    1    3    3    0  502  0.23588658210E+03  0.10143939322E+04 -0.14603455128E+04  0.17936684604E+04  0.25500000920E-02 0. -1.
</event>
<event>
 5   0  0.1788413E-05  0.2198857E+04  0.7818609E-02  0.8518904E-01
       -1   -1    0    0    0  501  0.00000000000E+00  0.00000000000E+00  0.67664237784E+03  0.67664237786E+03  0.50400001928E-02 0.  1.
        1   -1    0    0  501    0  0.00000000000E+00  0.00000000000E+00 -0.17863834887E+04  0.17863834887E+04  0.50400001928E-02 0. -1.
    10030    2    1    2    0    0  0.00000000000E+00  0.00000000000E+00 -0.11097411109E+04  0.24630258666E+04  0.21988567680E+04 0.  0.
        1    1    3    3  502    0  0.64491532124E+03 -0.87898966580E+03 -0.71408868259E+03  0.13032502641E+04  0.50400001928E-02 0. -1.
       -1    1    3    3    0  502 -0.64491532124E+03  0.87898966580E+03 -0.39565242829E+03  0.11597756025E+04  0.50400001928E-02 0.  1.
</event>
<event>
 5   0  0.4143281E-05  0.2191105E+04  0.7818609E-02  0.8522139E-01
       -2   -1    0    0    0  501  0.00000000000E+00  0.00000000000E+00  0.14354411356E+04  0.14354411356E+04  0.25500000920E-02 0.  1.
        2   -1    0    0  501    0  0.00000000000E+00  0.00000000000E+00 -0.83614398945E+03  0.83614398945E+03  0.25500000920E-02 0. -1.
    10030    2    1    2    0    0  0.00000000000E+00  0.00000000000E+00  0.59929714613E+03  0.22715851250E+04  0.21911051802E+04 0.  0.
        2    1    3    3  502    0 -0.43100457831E+03  0.18534439245E+02 -0.74437898997E+03  0.86035373695E+03  0.25500000920E-02 0. -1.
       -2    1    3    3    0  502  0.43100457831E+03 -0.18534439245E+02  0.13436761361E+04  0.14112313881E+04  0.25500000920E-02 0.  1.
</event>
<event>
 5   0  0.4027923E-05  0.2205052E+04  0.7818609E-02  0.8516328E-01
       -2   -1    0    0    0  501  0.00000000000E+00  0.00000000000E+00  0.84787708889E+03  0.84787708889E+03  0.25500000920E-02 0.  1.
        2   -1    0    0  501    0  0.00000000000E+00  0.00000000000E+00 -0.14336558684E+04  0.14336558684E+04  0.25500000920E-02 0. -1.
    10030    2    1    2    0    0  0.00000000000E+00  0.00000000000E+00 -0.58577877954E+03  0.22815329573E+04  0.22050523479E+04 0.  0.
        5    1    3    3  502    0 -0.33263614634E+03 -0.92522589243E+03  0.22326367669E+03  0.10082452664E+04  0.46999998093E+01 0.  1.
       -5    1    3    3    0  502  0.33263614634E+03  0.92522589243E+03 -0.80904245623E+03  0.12732876909E+04  0.46999998093E+01 0. -1.
</event>
<event>
 5   0  0.4027923E-05  0.2165905E+04  0.7818609E-02  0.8532755E-01
        2   -1    0    0  501    0  0.00000000000E+00  0.00000000000E+00  0.41622922302E+03  0.41622922303E+03  0.25500000920E-02 0. -1.
       -2   -1    0    0    0  501  0.00000000000E+00  0.00000000000E+00 -0.28176447759E+04  0.28176447759E+04  0.25500000920E-02 0.  1.
    10030    2    1    2    0    0  0.00000000000E+00  0.00000000000E+00 -0.24014155528E+04  0.32338739989E+04  0.21659049802E+04 0.  0.
        5    1    3    3  502    0 -0.84974129505E+03  0.29372030531E+03 -0.29936077536E+03  0.94761323866E+03  0.46999998093E+01 0. -1.
       -5    1    3    3    0  502  0.84974129505E+03 -0.29372030531E+03 -0.21020547775E+04  0.22862607602E+04  0.46999998093E+01 0.  1.
</event>
<event>
 5   0  0.4027923E-05  0.2192514E+04  0.7818609E-02  0.8521550E-01
       -2   -1    0    0    0  501  0.00000000000E+00  0.00000000000E+00  0.13967474081E+04  0.13967474081E+04  0.25500000920E-02 0.  1.
        2   -1    0    0  501    0  0.00000000000E+00  0.00000000000E+00 -0.86041298571E+03  0.86041298571E+03  0.25500000920E-02 0. -1.
    10030    2    1    2    0    0  0.00000000000E+00  0.00000000000E+00  0.53633442242E+03  0.22571603938E+04  0.21925141803E+04 0.  0.
        5    1    3    3  502    0  0.61804146792E+03  0.90536230232E+03  0.25780242971E+03  0.11261173728E+04  0.46999998093E+01 0.  1.
       -5    1    3    3    0  502 -0.61804146792E+03 -0.90536230232E+03  0.27853199272E+03  0.11310430211E+04  0.46999998093E+01 0. -1.
</event>
<event>
 5   0  0.1788413E-05  0.2202447E+04  0.7818609E-02  0.8517410E-01
       -1   -1    0    0    0  501  0.00000000000E+00  0.00000000000E+00  0.11085850114E+04  0.11085850114E+04  0.50400001928E-02 0. -1.
        1   -1    0    0  501    0  0.00000000000E+00  0.00000000000E+00 -0.10939106133E+04  0.10939106133E+04  0.50400001928E-02 0.  1.
    10030    2    1    2    0    0  0.00000000000E+00  0.00000000000E+00  0.14674398046E+02  0.22024956247E+04  0.22024467392E+04 0.  0.
        1    1    3    3  502    0 -0.66416936213E+03  0.61102150588E+03 -0.62372727125E+03  0.10970432677E+04  0.50400001928E-02 0.  1.
       -1    1    3    3    0  502  0.66416936213E+03 -0.61102150588E+03  0.63840166929E+03  0.11054523570E+04  0.50400001928E-02 0. -1.
</event>
<event>
 5   0  0.1884407E-05  0.2228657E+04  0.7818609E-02  0.8506594E-01
        1   -1    0    0  501    0  0.00000000000E+00  0.00000000000E+00  0.16891996773E+04  0.16891996773E+04  0.50400001928E-02 0. -1.
       -1   -1    0    0    0  501  0.00000000000E+00  0.00000000000E+00 -0.73509835988E+03  0.73509835990E+03  0.50400001928E-02 0.  1.
    10030    2    1    2    0    0  0.00000000000E+00  0.00000000000E+00  0.95410131746E+03  0.24242980372E+04  0.22286569160E+04 0.  0.
        3    1    3    3  502    0 -0.86529784385E+02 -0.10035648853E+04 -0.41330807664E+02  0.10081359672E+04  0.10100000352E+00 0.  1.
       -3    1    3    3    0  502  0.86529784385E+02  0.10035648853E+04  0.99543212512E+03  0.14161620700E+04  0.10100000352E+00 0. -1.
</event>
<event>
 5   0  0.1884407E-05  0.2218443E+04  0.7818609E-02  0.8510791E-01
        1   -1    0    0  501    0  0.00000000000E+00  0.00000000000E+00  0.82651679499E+03  0.82651679500E+03  0.50400001928E-02 0. -1.
       -1   -1    0    0    0  501  0.00000000000E+00  0.00000000000E+00 -0.14886236438E+04  0.14886236438E+04  0.50400001928E-02 0.  1.
    10030    2    1    2    0    0  0.00000000000E+00  0.00000000000E+00 -0.66210684885E+03  0.23151404388E+04  0.22184430965E+04 0.  0.
        3    1    3    3  502    0  0.12776915550E+03 -0.98377249938E+03  0.18680088532E+03  0.10094691023E+04  0.10100000352E+00 0. -1.
       -3    1    3    3    0  502 -0.12776915550E+03  0.98377249938E+03 -0.84890773416E+03  0.13056713365E+04  0.10100000352E+00 0.  1.
</event>
<event>
 5   0  0.3963414E-05  0.2195219E+04  0.7818609E-02  0.8520421E-01
        2   -1    0    0  501    0  0.00000000000E+00  0.00000000000E+00  0.15074504451E+04  0.15074504451E+04  0.25500000920E-02 0. -1.
       -2   -1    0    0    0  501  0.00000000000E+00  0.00000000000E+00 -0.79919461958E+03  0.79919461958E+03  0.25500000920E-02 0.  1.
    10030    2    1    2    0    0  0.00000000000E+00  0.00000000000E+00  0.70825582555E+03  0.23066450647E+04  0.21952186998E+04 0.  0.
        1    1    3    3  502    0  0.25875907252E+03  0.10283266191E+04  0.56307998536E+02  0.10618768685E+04  0.50400001928E-02 0.  1.
       -1    1    3    3    0  502 -0.25875907252E+03 -0.10283266191E+04  0.65194782701E+03  0.12447681962E+04  0.50400001928E-02 0. -1.
</event>
<event>
 5   0  0.1786228E-05  0.2192886E+04  0.7818609E-02  0.8521395E-01
       -1   -1    0    0    0  501  0.00000000000E+00  0.00000000000E+00  0.11584522364E+04  0.11584522364E+04  0.50400001928E-02 0.  1.
        1   -1    0    0  501    0  0.00000000000E+00  0.00000000000E+00 -0.10377532636E+04  0.10377532636E+04  0.50400001928E-02 0. -1.
    10030    2    1    2    0    0  0.00000000000E+00  0.00000000000E+00  0.12069897280E+03  0.21962055000E+04  0.21928863072E+04 0.  0.
        5    1    3    3  502    0 -0.31495181291E+03  0.21019454951E+03 -0.97018277257E+03  0.10414667999E+04  0.46999998093E+01 0. -1.
       -5    1    3    3    0  502  0.31495181291E+03 -0.21019454951E+03  0.10908817454E+04  0.11547387001E+04  0.46999998093E+01 0.  1.
</event>
<event>
 5   0  0.3963414E-05  0.2179160E+04  0.7818609E-02  0.8527153E-01
        2   -1    0    0  501    0  0.00000000000E+00  0.00000000000E+00  0.15954927932E+04  0.15954927932E+04  0.25500000920E-02 0.  1.
       -2   -1    0    0    0  501  0.00000000000E+00  0.00000000000E+00 -0.74408617327E+03  0.74408617328E+03  0.25500000920E-02 0. -1.
    10030    2    1    2    0    0  0.00000000000E+00  0.00000000000E+00  0.85140661988E+03  0.23395789664E+04  0.21791595875E+04 0.  0.
        1    1    3    3  502    0  0.10593049890E+04  0.13570982593E+03  0.65756421442E+03  0.12541670194E+04  0.50400001928E-02 0.  1.
       -1    1    3    3    0  502 -0.10593049890E+04 -0.13570982593E+03  0.19384240546E+03  0.10854119470E+04  0.50400001928E-02 0. -1.
</event>
<event>
 5   0  0.4029532E-05  0.2155956E+04  0.7818609E-02  0.8536987E-01
        2   -1    0    0  501    0  0.00000000000E+00  0.00000000000E+00  0.85271831674E+03  0.85271831674E+03  0.25500000920E-02 0.  1.
       -2   -1    0    0    0  501  0.00000000000E+00  0.00000000000E+00 -0.13627434625E+04  0.13627434625E+04  0.25500000920E-02 0. -1.
    10030    2    1    2    0    0  0.00000000000E+00  0.00000000000E+00 -0.51002514574E+03  0.22154617792E+04  0.21559557616E+04 0.  0.
        3    1    3    3  502    0 -0.50066486662E+03  0.73855513376E+03 -0.87661107307E+03  0.12508301155E+04  0.10100000352E+00 0. -1.
       -3    1    3    3    0  502  0.50066486662E+03 -0.73855513376E+03  0.36658592733E+03  0.96463166369E+03  0.10100000352E+00 0.  1.
</event>
<event>
 5   0  0.4143281E-05  0.2185832E+04  0.7818609E-02  0.8524348E-01
       -2   -1    0    0    0  501  0.00000000000E+00  0.00000000000E+00  0.11190257623E+04  0.11190257623E+04  0.25500000920E-02 0.  1.
        2   -1    0    0  501    0  0.00000000000E+00  0.00000000000E+00 -0.10674152040E+04  0.10674152040E+04  0.25500000920E-02 0. -1.
    10030    2    1    2    0    0  0.00000000000E+00  0.00000000000E+00  0.51610558309E+02  0.21864409663E+04  0.21858317523E+04 0.  0.
        2    1    3    3  502    0  0.77984419962E+03  0.42762871839E+03  0.66115300600E+03  0.11082177556E+04  0.25500000920E-02 0. -1.
       -2    1    3    3    0  502 -0.77984419962E+03 -0.42762871839E+03 -0.60954244770E+03  0.10782232107E+04  0.25500000920E-02 0.  1.
</event>
<event>
 5   0  0.1815681E-05  0.2206210E+04  0.7818609E-02  0.8515848E-01
        1   -1    0    0  501    0  0.00000000000E+00  0.00000000000E+00  0.13673923556E+04  0.13673923556E+04  0.50400001928E-02 0. -1.
       -1   -1    0    0    0  501  0.00000000000E+00  0.00000000000E+00 -0.88989835129E+03  0.88989835130E+03  0.50400001928E-02 0.  1.
    10030    2    1    2    0    0  0.00000000000E+00  0.00000000000E+00  0.47749400427E+03  0.22572907069E+04  0.22062096027E+04 0.  0.
        2    1    3    3  502    0 -0.35701461738E+03 -0.12091866534E+03  0.12994562558E+04  0.13530215525E+04  0.25500000920E-02 0. -1.
       -2    1    3    3    0  502  0.35701461738E+03  0.12091866534E+03 -0.82196225154E+03  0.90426915441E+03  0.25500000920E-02 0.  1.
</event>
<event>
 5   0  0.4027923E-05  0.2196989E+04  0.7818609E-02  0.8519683E-01
       -2   -1    0    0    0  501  0.00000000000E+00  0.00000000000E+00  0.13915412859E+04  0.13915412859E+04  0.25500000920E-02 0. -1.
        2   -1    0    0  501    0  0.00000000000E+00  0.00000000000E+00 -0.86716051274E+03  0.86716051275E+03  0.25500000920E-02 0.  1.
    10030    2    1    2    0    0  0.00000000000E+00  0.00000000000E+00  0.52438077320E+03  0.22587017987E+04  0.21969885344E+04 0.  0.
        5    1    3    3  502    0 -0.49349300211E+03  0.53522568313E+03  0.11078939986E+04  0.13256896609E+04  0.46999998093E+01 0.  1.
       -5    1    3    3    0  502  0.49349300211E+03 -0.53522568313E+03 -0.58351322538E+03  0.93301213776E+03  0.46999998093E+01 0. -1.
</event>
<event>
 5   0  0.1433375E-05  0.2190919E+04  0.7818609E-02  0.8522217E-01
       -3   -1    0    0    0  501  0.00000000000E+00  0.00000000000E+00  0.11050372299E+04  0.11050372345E+04  0.10100000352E+00 0. -1.
        3   -1    0    0  501    0  0.00000000000E+00  0.00000000000E+00 -0.10859648984E+04  0.10859649031E+04  0.10100000352E+00 0.  1.
    10030    2    1    2    0    0  0.00000000000E+00  0.00000000000E+00  0.19072331555E+02  0.21910021376E+04  0.21909191252E+04 0.  0.
        1    1    3    3  502    0 -0.88272962743E+03 -0.44867044962E+03 -0.45900574336E+03  0.10914224846E+04  0.50400001928E-02 0.  1.
       -1    1    3    3    0  502  0.88272962743E+03  0.44867044962E+03  0.47807807491E+03  0.10995796530E+04  0.50400001928E-02 0. -1.
</event>
<event>
 5   0  0.4027923E-05  0.2281436E+04  0.7818609E-02  0.8485277E-01
        2   -1    0    0  501    0  0.00000000000E+00  0.00000000000E+00  0.57487312354E+03  0.57487312355E+03  0.25500000920E-02 0.  1.
       -2   -1    0    0    0  501  0.00000000000E+00  0.00000000000E+00 -0.22635214114E+04  0.22635214115E+04  0.25500000920E-02 0. -1.
    10030    2    1    2    0    0  0.00000000000E+00  0.00000000000E+00 -0.16886482879E+04  0.28383945350E+04  0.22814360600E+04 0.  0.
        5    1    3    3  502    0  0.81075062566E+03  0.56794836739E+03 -0.13907505115E+03  0.99962287133E+03  0.46999998093E+01 0.  1.
       -5    1    3    3    0  502 -0.81075062566E+03 -0.56794836739E+03 -0.15495732368E+04  0.18387716637E+04  0.46999998093E+01 0. -1.
</event>
<event>
 5   0  0.3963414E-05  0.2289602E+04  0.7818609E-02  0.8482032E-01
        2   -1    0    0  501    0  0.00000000000E+00  0.00000000000E+00  0.80493195642E+03  0.80493195643E+03  0.25500000920E-02 0. -1.
       -2   -1    0    0    0  501  0.00000000000E+00  0.00000000000E+00 -0.16281743092E+04  0.16281743092E+04  0.25500000920E-02 0.  1.
    10030    2    1    2    0    0  0.00000000000E+00  0.00000000000E+00 -0.82324235281E+03  0.24331062657E+04  0.22896021769E+04 0.  0.
        1    1    3    3  502    0 -0.15559397058E+02 -0.84137481629E+03 -0.12364223018E+04  0.14956248810E+04  0.50400001928E-02 0.  1.
       -1    1    3    3    0  502  0.15559397058E+02  0.84137481629E+03  0.41317994897E+03  0.93748138466E+03  0.50400001928E-02 0. -1.
</event>
<event>
 5   0  0.4132460E-05  0.2227999E+04  0.7818609E-02  0.8506864E-01
        2   -1    0    0  501    0  0.00000000000E+00  0.00000000000E+00  0.91618036186E+03  0.91618036187E+03  0.25500000920E-02 0.  1.
       -2   -1    0    0    0  501  0.00000000000E+00  0.00000000000E+00 -0.13545313053E+04  0.13545313054E+04  0.25500000920E-02 0. -1.
    10030    2    1    2    0    0  0.00000000000E+00  0.00000000000E+00 -0.43835094349E+03  0.22707116672E+04  0.22279990857E+04 0.  0.
        4    1    3    3  502    0 -0.58143685640E+03 -0.35068979680E+03 -0.11192488550E+04  0.13091110587E+04  0.12699999809E+01 0. -1.
       -4    1    3    3    0  502  0.58143685640E+03  0.35068979680E+03  0.68089791153E+03  0.96160060856E+03  0.12699999809E+01 0.  1.
</event>
<event>
 5   0  0.1815681E-05  0.2198269E+04  0.7818609E-02  0.8519149E-01
       -1   -1    0    0    0  501  0.00000000000E+00  0.00000000000E+00  0.16953200202E+04  0.16953200202E+04  0.50400001928E-02 0. -1.
        1   -1    0    0  501    0  0.00000000000E+00  0.00000000000E+00 -0.71260668850E+03  0.71260668852E+03  0.50400001928E-02 0.  1.
    10030    2    1    2    0    0  0.00000000000E+00  0.00000000000E+00  0.98271333171E+03  0.24079267087E+04  0.21982687603E+04 0.  0.
        2    1    3    3  502    0  0.48734993045E+03 -0.62764394789E+03  0.13231557499E+04  0.15434338400E+04  0.25500000920E-02 0. -1.
       -2    1    3    3    0  502 -0.48734993045E+03  0.62764394789E+03 -0.34044241815E+03  0.86449286875E+03  0.25500000920E-02 0.  1.
</event>
<event>
 5   0  0.1815681E-05  0.2224188E+04  0.7818609E-02  0.8508427E-01
        1   -1    0    0  501    0  0.00000000000E+00  0.00000000000E+00  0.13203828508E+04  0.13203828508E+04  0.50400001928E-02 0.  1.
       -1   -1    0    0    0  501  0.00000000000E+00  0.00000000000E+00 -0.93666277858E+03  0.93666277859E+03  0.50400001928E-02 0. -1.
    10030    2    1    2    0    0  0.00000000000E+00  0.00000000000E+00  0.38372007217E+03  0.22570456294E+04  0.22241883641E+04 0.  0.
        2    1    3    3  502    0 -0.72235867916E+03  0.60673306961E+03 -0.40575957810E+03  0.10269215717E+04  0.25500000920E-02 0. -1.
       -2    1    3    3    0  502  0.72235867916E+03 -0.60673306961E+03  0.78947965027E+03  0.12301240577E+04  0.25500000920E-02 0.  1.
</event>
<event>
 5   0  0.4027923E-05  0.2110882E+04  0.7818609E-02  0.8556465E-01
       -2   -1    0    0    0  501  0.00000000000E+00  0.00000000000E+00  0.85836909329E+03  0.85836909329E+03  0.25500000920E-02 0. -1.
        2   -1    0    0  501    0  0.00000000000E+00  0.00000000000E+00 -0.12977580351E+04  0.12977580351E+04  0.25500000920E-02 0.  1.
    10030    2    1    2    0    0  0.00000000000E+00  0.00000000000E+00 -0.43938894179E+03  0.21561271284E+04  0.21108817000E+04 0.  0.
        5    1    3    3  502    0  0.51839849712E+03 -0.82875204327E+03 -0.62617703210E+03  0.11608990984E+04  0.46999998093E+01 0. -1.
       -5    1    3    3    0  502 -0.51839849712E+03  0.82875204327E+03  0.18678809031E+03  0.99522803001E+03  0.46999998093E+01 0.  1.
</event>
<event>
 5   0  0.4029532E-05  0.2201707E+04  0.7818609E-02  0.8517718E-01
        2   -1    0    0  501    0  0.00000000000E+00  0.00000000000E+00  0.74614511702E+03  0.74614511702E+03  0.25500000920E-02 0.  1.
       -2   -1    0    0    0  501  0.00000000000E+00  0.00000000000E+00 -0.16241853592E+04  0.16241853592E+04  0.25500000920E-02 0. -1.
    10030    2    1    2    0    0  0.00000000000E+00  0.00000000000E+00 -0.87804024218E+03  0.23703304762E+04  0.22017065880E+04 0.  0.
        3    1    3    3  502    0  0.96554683541E+03  0.29024817318E+03 -0.91485886737E+03  0.13614299287E+04  0.10100000352E+00 0. -1.
       -3    1    3    3    0  502 -0.96554683541E+03 -0.29024817318E+03  0.36818625186E+02  0.10089005475E+04  0.10100000352E+00 0.  1.
</event>
<event>
 5   0  0.1815681E-05  0.2204394E+04  0.7818609E-02  0.8516601E-01
        1   -1    0    0  501    0  0.00000000000E+00  0.00000000000E+00  0.15687287108E+04  0.15687287108E+04  0.50400001928E-02 0. -1.
       -1   -1    0    0    0  501  0.00000000000E+00  0.00000000000E+00 -0.77440968382E+03  0.77440968384E+03  0.50400001928E-02 0.  1.
    10030    2    1    2    0    0  0.00000000000E+00  0.00000000000E+00  0.79431902700E+03  0.23431383947E+04  0.22043944338E+04 0.  0.
        2    1    3    3  502    0  0.13852639918E+03 -0.99418623209E+03  0.88105151298E+03  0.13356075756E+04  0.25500000920E-02 0.  1.
       -2    1    3    3    0  502 -0.13852639918E+03  0.99418623209E+03 -0.86732485976E+02  0.10075308191E+04  0.25500000920E-02 0. -1.
</event>
<event>
 5   0  0.4132460E-05  0.2198626E+04  0.7818609E-02  0.8519000E-01
       -2   -1    0    0    0  501  0.00000000000E+00  0.00000000000E+00  0.10002533959E+04  0.10002533959E+04  0.25500000920E-02 0. -1.
        2   -1    0    0  501    0  0.00000000000E+00  0.00000000000E+00 -0.12081825504E+04  0.12081825504E+04  0.25500000920E-02 0.  1.
    10030    2    1    2    0    0  0.00000000000E+00  0.00000000000E+00 -0.20792915454E+03  0.22084359463E+04  0.21986256606E+04 0.  0.
        4    1    3    3  502    0 -0.10535755807E+04  0.29928189428E+03 -0.19870366113E+03  0.11131378685E+04  0.12699999809E+01 0. -1.
       -4    1    3    3    0  502  0.10535755807E+04 -0.29928189428E+03 -0.92254934090E+01  0.10952980778E+04  0.12699999809E+01 0.  1.
</event>
<event>
 5   0  0.1866935E-05  0.2230923E+04  0.7818609E-02  0.8505666E-01
       -1   -1    0    0    0  501  0.00000000000E+00  0.00000000000E+00  0.72317832887E+03  0.72317832889E+03  0.50400001928E-02 0. -1.
        1   -1    0    0  501    0  0.00000000000E+00  0.00000000000E+00 -0.17205359038E+04  0.17205359038E+04  0.50400001928E-02 0.  1.
    10030    2    1    2    0    0  0.00000000000E+00  0.00000000000E+00 -0.99735757489E+03  0.24437142327E+04  0.22309229298E+04 0.  0.
        4    1    3    3  502    0  0.80779959585E+01 -0.67275221536E+03  0.47589901054E+03  0.82410089092E+03  0.12699999809E+01 0. -1.
       -4    1    3    3    0  502 -0.80779959585E+01  0.67275221536E+03 -0.14732565854E+04  0.16196133417E+04  0.12699999809E+01 0.  1.
</event>
<event>
 5   0  0.1884407E-05  0.2312156E+04  0.7818609E-02  0.8473144E-01
       -1   -1    0    0    0  501  0.00000000000E+00  0.00000000000E+00  0.86992521146E+03  0.86992521147E+03  0.50400001928E-02 0. -1.
        1   -1    0    0  501    0  0.00000000000E+00  0.00000000000E+00 -0.15363572741E+04  0.15363572741E+04  0.50400001928E-02 0.  1.
    10030    2    1    2    0    0  0.00000000000E+00  0.00000000000E+00 -0.66643206263E+03  0.24062824856E+04  0.23121556406E+04 0.  0.
        3    1    3    3  502    0  0.10517140397E+03 -0.89999533742E+03  0.41396943136E+03  0.99620446290E+03  0.10100000352E+00 0. -1.
       -3    1    3    3    0  502 -0.10517140397E+03  0.89999533742E+03 -0.10804014940E+04  0.14100780227E+04  0.10100000352E+00 0.  1.
</event>
<event>
 5   0  0.3963414E-05  0.2193716E+04  0.7818609E-02  0.8521048E-01
        2   -1    0    0  501    0  0.00000000000E+00  0.00000000000E+00  0.14962354274E+04  0.14962354274E+04  0.25500000920E-02 0.  1.
       -2   -1    0    0    0  501  0.00000000000E+00  0.00000000000E+00 -0.80408322099E+03  0.80408322099E+03  0.25500000920E-02 0. -1.
    10030    2    1    2    0    0  0.00000000000E+00  0.00000000000E+00  0.69215220637E+03  0.23003186484E+04  0.21937163005E+04 0.  0.
        1    1    3    3  502    0  0.83067999101E+03 -0.28844833237E+03  0.10335783844E+04  0.13570246735E+04  0.50400001928E-02 0.  1.
       -1    1    3    3    0  502 -0.83067999101E+03  0.28844833237E+03 -0.34142617798E+03  0.94329397483E+03  0.50400001928E-02 0. -1.
</event>
<event>
 5   0  0.1815681E-05  0.2140275E+04  0.7818609E-02  0.8543706E-01
        1   -1    0    0  501    0  0.00000000000E+00  0.00000000000E+00  0.13089743609E+04  0.13089743609E+04  0.50400001928E-02 0. -1.
       -1   -1    0    0    0  501  0.00000000000E+00  0.00000000000E+00 -0.87487929346E+03  0.87487929348E+03  0.50400001928E-02 0.  1.
    10030    2    1    2    0    0  0.00000000000E+00  0.00000000000E+00  0.43409506740E+03  0.21838536543E+04  0.21402752758E+04 0.  0.
        2    1    3    3  502    0  0.55380658346E+03  0.90167120579E+03  0.37992819901E+03  0.11243033984E+04  0.25500000920E-02 0.  1.
       -2    1    3    3    0  502 -0.55380658346E+03 -0.90167120579E+03  0.54166868386E+02  0.10595502559E+04  0.25500000920E-02 0. -1.
</event>
<event>
 5   0  0.3963414E-05  0.2222988E+04  0.7818609E-02  0.8508921E-01
       -2   -1    0    0    0  501  0.00000000000E+00  0.00000000000E+00  0.75169604791E+03  0.75169604792E+03  0.25500000920E-02 0. -1.
        2   -1    0    0  501    0  0.00000000000E+00  0.00000000000E+00 -0.16435084389E+04  0.16435084389E+04  0.25500000920E-02 0.  1.
    10030    2    1    2    0    0  0.00000000000E+00  0.00000000000E+00 -0.89181239098E+03  0.23952044868E+04  0.22229878976E+04 0.  0.
        1    1    3    3  502    0  0.25015125702E+03  0.58264220978E+03  0.53770789781E+03  0.83137078335E+03  0.50400001928E-02 0. -1.
       -1    1    3    3    0  502 -0.25015125702E+03 -0.58264220978E+03 -0.14295202888E+04  0.15638337035E+04  0.50400001928E-02 0.  1.
</event>
<event>
 5   0  0.4029532E-05  0.2179415E+04  0.7818609E-02  0.8527045E-01
       -2   -1    0    0    0  501  0.00000000000E+00  0.00000000000E+00  0.17117611634E+04  0.17117611634E+04  0.25500000920E-02 0.  1.
        2   -1    0    0  501    0  0.00000000000E+00  0.00000000000E+00 -0.69370810489E+03  0.69370810489E+03  0.25500000920E-02 0. -1.
    10030    2    1    2    0    0  0.00000000000E+00  0.00000000000E+00  0.10180530585E+04  0.24054692683E+04  0.21794151442E+04 0.  0.
        3    1    3    3  502    0  0.43685927523E+02 -0.97090266589E+03 -0.34944179737E+02  0.97251300906E+03  0.10100000352E+00 0.  1.
       -3    1    3    3    0  502 -0.43685927523E+02  0.97090266589E+03  0.10529972382E+04  0.14329562592E+04  0.10100000352E+00 0. -1.
</event>
<event>
 5   0  0.1788413E-05  0.2208686E+04  0.7818609E-02  0.8514821E-01
       -1   -1    0    0    0  501  0.00000000000E+00  0.00000000000E+00  0.96421188203E+03  0.96421188205E+03  0.50400001928E-02 0.  1.
        1   -1    0    0  501    0  0.00000000000E+00  0.00000000000E+00 -0.12648402613E+04  0.12648402613E+04  0.50400001928E-02 0. -1.
    10030    2    1    2    0    0  0.00000000000E+00  0.00000000000E+00 -0.30062837925E+03  0.22290521433E+04  0.22086864955E+04 0.  0.
        1    1    3    3  502    0  0.67846391199E+03  0.22205640999E+03 -0.10006697339E+04  0.12292120425E+04  0.50400001928E-02 0. -1.
       -1    1    3    3    0  502 -0.67846391199E+03 -0.22205640999E+03  0.70004135461E+03  0.99984010086E+03  0.50400001928E-02 0.  1.
</event>
<event>
 5   0  0.1788413E-05  0.2212898E+04  0.7818609E-02  0.8513079E-01
        1   -1    0    0  501    0  0.00000000000E+00  0.00000000000E+00  0.94299290650E+03  0.94299290651E+03  0.50400001928E-02 0.  1.
       -1   -1    0    0    0  501  0.00000000000E+00  0.00000000000E+00 -0.12982378595E+04  0.12982378595E+04  0.50400001928E-02 0. -1.
    10030    2    1    2    0    0  0.00000000000E+00  0.00000000000E+00 -0.35524495302E+03  0.22412307660E+04  0.22128977315E+04 0.  0.
        1    1    3    3  502    0  0.87873098426E+02  0.10304160505E+04  0.22079722414E+03  0.10574641047E+04  0.50400001928E-02 0.  1.
       -1    1    3    3    0  502 -0.87873098426E+02 -0.10304160505E+04 -0.57604217716E+03  0.11837666613E+04  0.50400001928E-02 0. -1.
</event>
<event>
 5   0  0.3963414E-05  0.2195810E+04  0.7818609E-02  0.8520174E-01
        2   -1    0    0  501    0  0.00000000000E+00  0.00000000000E+00  0.95706125497E+03  0.95706125497E+03  0.25500000920E-02 0. -1.
       -2   -1    0    0    0  501  0.00000000000E+00  0.00000000000E+00 -0.12594760701E+04  0.12594760701E+04  0.25500000920E-02 0.  1.
    10030    2    1    2    0    0  0.00000000000E+00  0.00000000000E+00 -0.30241481516E+03  0.22165373251E+04  0.21958103272E+04 0.  0.
        1    1    3    3  502    0 -0.60338889676E+03 -0.91010560272E+03 -0.36001322872E+02  0.10925504401E+04  0.50400001928E-02 0.  1.
       -1    1    3    3    0  502  0.60338889676E+03  0.91010560272E+03 -0.26641349228E+03  0.11239868850E+04  0.50400001928E-02 0. -1.
</event>
<event>
 5   0  0.1815681E-05  0.2198831E+04  0.7818609E-02  0.8518915E-01
       -1   -1    0    0    0  501  0.00000000000E+00  0.00000000000E+00  0.83958787653E+03  0.83958787654E+03  0.50400001928E-02 0. -1.
        1   -1    0    0  501    0  0.00000000000E+00  0.00000000000E+00 -0.14396525963E+04  0.14396525963E+04  0.50400001928E-02 0.  1.
    10030    2    1    2    0    0  0.00000000000E+00  0.00000000000E+00 -0.60006471977E+03  0.22792404728E+04  0.21988313863E+04 0.  0.
        2    1    3    3  502    0  0.29387694817E+03  0.12651485245E+02 -0.13981064382E+04  0.14287145737E+04  0.25500000920E-02 0.  1.
       -2    1    3    3    0  502 -0.29387694817E+03 -0.12651485245E+02  0.79804171840E+03  0.85052589911E+03  0.25500000920E-02 0. -1.
</event>
<event>
 5   0  0.1788413E-05  0.2197807E+04  0.7818609E-02  0.8519341E-01
        1   -1    0    0  501    0  0.00000000000E+00  0.00000000000E+00  0.14861866379E+04  0.14861866379E+04  0.50400001928E-02 0. -1.
       -1   -1    0    0    0  501  0.00000000000E+00  0.00000000000E+00 -0.81254220803E+03  0.81254220805E+03  0.50400001928E-02 0.  1.
    10030    2    1    2    0    0  0.00000000000E+00  0.00000000000E+00  0.67364442982E+03  0.22987288459E+04  0.21978074277E+04 0.  0.
        1    1    3    3  502    0  0.10069380192E+04 -0.42813438159E+03  0.23033270378E+03  0.11181575818E+04  0.50400001928E-02 0.  1.
       -1    1    3    3    0  502 -0.10069380192E+04  0.42813438159E+03  0.44331172605E+03  0.11805712641E+04  0.50400001928E-02 0. -1.
</event>
<event>
 5   0  0.4029532E-05  0.2195433E+04  0.7818609E-02  0.8520332E-01
       -2   -1    0    0    0  501  0.00000000000E+00  0.00000000000E+00  0.61165851678E+03  0.61165851679E+03  0.25500000920E-02 0. -1.
        2   -1    0    0  501    0  0.00000000000E+00  0.00000000000E+00 -0.19700227679E+04  0.19700227679E+04  0.25500000920E-02 0.  1.
    10030    2    1    2    0    0  0.00000000000E+00  0.00000000000E+00 -0.13583642511E+04  0.25816812847E+04  0.21954327175E+04 0.  0.
        3    1    3    3  502    0  0.86182125144E+03  0.23471757523E+03  0.71163414910E+02  0.89604266158E+03  0.10100000352E+00 0. -1.
       -3    1    3    3    0  502 -0.86182125144E+03 -0.23471757523E+03 -0.14295276660E+04  0.16856386231E+04  0.10100000352E+00 0.  1.
</event>
<event>
 5   0  0.1866935E-05  0.2194782E+04  0.7818609E-02  0.8520603E-01
        1   -1    0    0  501    0  0.00000000000E+00  0.00000000000E+00  0.13375450232E+04  0.13375450232E+04  0.50400001928E-02 0.  1.
       -1   -1    0    0    0  501  0.00000000000E+00  0.00000000000E+00 -0.90035601732E+03  0.90035601733E+03  0.50400001928E-02 0. -1.
    10030    2    1    2    0    0  0.00000000000E+00  0.00000000000E+00  0.43718900587E+03  0.22379010405E+04  0.21947817295E+04 0.  0.
        4    1    3    3  502    0 -0.92496889943E+03 -0.54328732987E+03  0.45451983125E+03  0.11650401185E+04  0.12699999809E+01 0.  1.
       -4    1    3    3    0  502  0.92496889943E+03  0.54328732987E+03 -0.17330825388E+02  0.10728609221E+04  0.12699999809E+01 0. -1.
</event>
<event>
 5   0  0.1788413E-05  0.2216007E+04  0.7818609E-02  0.8511795E-01
        1   -1    0    0  501    0  0.00000000000E+00  0.00000000000E+00  0.20467380942E+04  0.20467380942E+04  0.50400001928E-02 0.  1.
       -1   -1    0    0    0  501  0.00000000000E+00  0.00000000000E+00 -0.59981875282E+03  0.59981875284E+03  0.50400001928E-02 0. -1.
    10030    2    1    2    0    0  0.00000000000E+00  0.00000000000E+00  0.14469193413E+04  0.26465568470E+04  0.22160071218E+04 0.  0.
        1    1    3    3  502    0  0.61595626195E+03  0.67621207654E+03  0.14702562884E+04  0.17315653158E+04  0.50400001928E-02 0.  1.
       -1    1    3    3    0  502 -0.61595626195E+03 -0.67621207654E+03 -0.23336947091E+02  0.91499153123E+03  0.50400001928E-02 0. -1.
</event>
<event>
 5   0  0.1866935E-05  0.2208389E+04  0.7818609E-02  0.8514944E-01
        1   -1    0    0  501    0  0.00000000000E+00  0.00000000000E+00  0.14804142753E+04  0.14804142754E+04  0.50400001928E-02 0.  1.
       -1   -1    0    0    0  501  0.00000000000E+00  0.00000000000E+00 -0.82358418747E+03  0.82358418748E+03  0.50400001928E-02 0. -1.
    10030    2    1    2    0    0  0.00000000000E+00  0.00000000000E+00  0.65683008788E+03  0.23039984628E+04  0.22083892665E+04 0.  0.
        4    1    3    3  502    0  0.57565191303E+03 -0.34373473514E+03  0.12437323387E+04  0.14129403513E+04  0.12699999809E+01 0.  1.
       -4    1    3    3    0  502 -0.57565191303E+03  0.34373473514E+03 -0.58690225085E+03  0.89105811150E+03  0.12699999809E+01 0. -1.
</event>
<event>
 5   0  0.4143281E-05  0.2199859E+04  0.7818609E-02  0.8518487E-01
        2   -1    0    0  501    0  0.00000000000E+00  0.00000000000E+00  0.16099690462E+04  0.16099690462E+04  0.25500000920E-02 0. -1.
       -2   -1    0    0    0  501  0.00000000000E+00  0.00000000000E+00 -0.75147103441E+03  0.75147103441E+03  0.25500000920E-02 0.  1.
    10030    2    1    2    0    0  0.00000000000E+00  0.00000000000E+00  0.85849801176E+03  0.23614400806E+04  0.21998591814E+04 0.  0.
        2    1    3    3  502    0  0.90655674699E+03  0.44828056976E+03 -0.35003781265E+02  0.10119416334E+04  0.25500000920E-02 0. -1.
       -2    1    3    3    0  502 -0.90655674699E+03 -0.44828056976E+03  0.89350179303E+03  0.13494984472E+04  0.25500000920E-02 0.  1.
</event>
<event>
 5   0  0.4132460E-05  0.2222893E+04  0.7818609E-02  0.8508960E-01
       -2   -1    0    0    0  501  0.00000000000E+00  0.00000000000E+00  0.74032133208E+03  0.74032133209E+03  0.25500000920E-02 0.  1.
        2   -1    0    0  501    0  0.00000000000E+00  0.00000000000E+00 -0.16686178782E+04  0.16686178782E+04  0.25500000920E-02 0. -1.
    10030    2    1    2    0    0  0.00000000000E+00  0.00000000000E+00 -0.92829654613E+03  0.24089392103E+04  0.22228930792E+04 0.  0.
        4    1    3    3  502    0 -0.45435835721E+03  0.94286993352E+03 -0.86943672371E+03  0.13606494985E+04  0.12699999809E+01 0. -1.
       -4    1    3    3    0  502  0.45435835721E+03 -0.94286993352E+03 -0.58859822413E+02  0.10482897118E+04  0.12699999809E+01 0.  1.
</event>
<event>
 5   0  0.4029532E-05  0.2368684E+04  0.7818609E-02  0.8451322E-01
        2   -1    0    0  501    0  0.00000000000E+00  0.00000000000E+00  0.23113779133E+04  0.23113779133E+04  0.25500000920E-02 0.  1.
       -2   -1    0    0    0  501  0.00000000000E+00  0.00000000000E+00 -0.60685247097E+03  0.60685247098E+03  0.25500000920E-02 0. -1.
    10030    2    1    2    0    0  0.00000000000E+00  0.00000000000E+00  0.17045254423E+04  0.29182303842E+04  0.23686835145E+04 0.  0.
        3    1    3    3  502    0 -0.31388041124E+02 -0.11099219520E+04  0.34466247004E+03  0.11626281337E+04  0.10100000352E+00 0. -1.
       -3    1    3    3    0  502  0.31388041124E+02  0.11099219520E+04  0.13598629722E+04  0.17556022506E+04  0.10100000352E+00 0.  1.
</event>
<event>
 5   0  0.1884407E-05  0.2202256E+04  0.7818609E-02  0.8517490E-01
        1   -1    0    0  501    0  0.00000000000E+00  0.00000000000E+00  0.10459830706E+04  0.10459830706E+04  0.50400001928E-02 0.  1.
       -1   -1    0    0    0  501  0.00000000000E+00  0.00000000000E+00 -0.11591799367E+04  0.11591799367E+04  0.50400001928E-02 0. -1.
    10030    2    1    2    0    0  0.00000000000E+00  0.00000000000E+00 -0.11319686603E+03  0.22051630073E+04  0.22022557432E+04 0.  0.
        3    1    3    3  502    0 -0.99099169636E+03 -0.32650041348E+03 -0.40893724455E+03  0.11206679894E+04  0.10100000352E+00 0. -1.
       -3    1    3    3    0  502  0.99099169636E+03  0.32650041348E+03  0.29574037852E+03  0.10844950179E+04  0.10100000352E+00 0.  1.
</event>
<event>
 5   0  0.4029532E-05  0.2196898E+04  0.7818609E-02  0.8519720E-01
       -2   -1    0    0    0  501  0.00000000000E+00  0.00000000000E+00  0.56270923846E+03  0.56270923846E+03  0.25500000920E-02 0.  1.
        2   -1    0    0  501    0  0.00000000000E+00  0.00000000000E+00 -0.21442516131E+04  0.21442516131E+04  0.25500000920E-02 0. -1.
    10030    2    1    2    0    0  0.00000000000E+00  0.00000000000E+00 -0.15815423747E+04  0.27069608516E+04  0.21968979879E+04 0.  0.
        3    1    3    3  502    0 -0.54658568445E+03 -0.63734248511E+03 -0.16634678748E+04  0.18633536257E+04  0.10100000352E+00 0. -1.
       -3    1    3    3    0  502  0.54658568445E+03  0.63734248511E+03  0.81925500132E+02  0.84360722587E+03  0.10100000352E+00 0.  1.
</event>
<event>
 5   0  0.4143281E-05  0.2223522E+04  0.7818609E-02  0.8508701E-01
        2   -1    0    0  501    0  0.00000000000E+00  0.00000000000E+00  0.11545139808E+04  0.11545139808E+04  0.25500000920E-02 0.  1.
       -2   -1    0    0    0  501  0.00000000000E+00  0.00000000000E+00 -0.10705913613E+04  0.10705913613E+04  0.25500000920E-02 0. -1.
    10030    2    1    2    0    0  0.00000000000E+00  0.00000000000E+00  0.83922619551E+02  0.22251053421E+04  0.22235221558E+04 0.  0.
        2    1    3    3  502    0  0.81586450442E+03  0.68570286551E+03  0.35871375085E+03  0.11244993839E+04  0.25500000920E-02 0.  1.
       -2    1    3    3    0  502 -0.81586450442E+03 -0.68570286551E+03 -0.27479113130E+03  0.11006059582E+04  0.25500000920E-02 0. -1.
</event>
<event>
 5   0  0.1884407E-05  0.2209959E+04  0.7818609E-02  0.8514294E-01
        1   -1    0    0  501    0  0.00000000000E+00  0.00000000000E+00  0.83609602668E+03  0.83609602669E+03  0.50400001928E-02 0.  1.
       -1   -1    0    0    0  501  0.00000000000E+00  0.00000000000E+00 -0.14603339667E+04  0.14603339667E+04  0.50400001928E-02 0. -1.
    10030    2    1    2    0    0  0.00000000000E+00  0.00000000000E+00 -0.62423793998E+03  0.22964299934E+04  0.22099587572E+04 0.  0.
        3    1    3    3  502    0  0.36697858099E+03 -0.72942326379E+03  0.46148919778E+03  0.93792529902E+03  0.10100000352E+00 0.  1.
       -3    1    3    3    0  502 -0.36697858099E+03  0.72942326379E+03 -0.10857271378E+04  0.13585046943E+04  0.10100000352E+00 0. -1.
</event>
<event>
 5   0  0.4027923E-05  0.2203868E+04  0.7818609E-02  0.8516820E-01
       -2   -1    0    0    0  501  0.00000000000E+00  0.00000000000E+00  0.41652001266E+03  0.41652001266E+03  0.25500000920E-02 0. -1.
        2   -1    0    0  501    0  0.00000000000E+00  0.00000000000E+00 -0.29152453255E+04  0.29152453255E+04  0.25500000920E-02 0.  1.
    10030    2    1    2    0    0  0.00000000000E+00  0.00000000000E+00 -0.24987253128E+04  0.33317653382E+04  0.22038675277E+04 0.  0.
        5    1    3    3  502    0  0.10946953151E+04 -0.10674989971E+02 -0.14391748388E+04  0.18082361834E+04  0.46999998093E+01 0.  1.
       -5    1    3    3    0  502 -0.10946953151E+04  0.10674989971E+02 -0.10595504740E+04  0.15235291547E+04  0.46999998093E+01 0. -1.
</event>
<event>
 5   0  0.1786228E-05  0.2200113E+04  0.7818609E-02  0.8518381E-01
       -1   -1    0    0    0  501  0.00000000000E+00  0.00000000000E+00  0.61422454203E+03  0.61422454205E+03  0.50400001928E-02 0. -1.
        1   -1    0    0  501    0  0.00000000000E+00  0.00000000000E+00 -0.19701653003E+04  0.19701653003E+04  0.50400001928E-02 0.  1.
    10030    2    1    2    0    0  0.00000000000E+00  0.00000000000E+00 -0.13559407582E+04  0.25843898423E+04  0.22001126147E+04 0.  0.
        5    1    3    3  502    0 -0.92785834090E+02  0.16456683254E+03 -0.19509546769E+04  0.19600861447E+04  0.46999998093E+01 0.  1.
       -5    1    3    3    0  502  0.92785834090E+02 -0.16456683254E+03  0.59501391869E+03  0.62430369759E+03  0.46999998093E+01 0. -1.
</event>
<event>
 5   0  0.4027923E-05  0.2202508E+04  0.7818609E-02  0.8517385E-01
       -2   -1    0    0    0  501  0.00000000000E+00  0.00000000000E+00  0.99230125971E+03  0.99230125971E+03  0.25500000920E-02 0. -1.
        2   -1    0    0  501    0  0.00000000000E+00  0.00000000000E+00 -0.12221690910E+04  0.12221690911E+04  0.25500000920E-02 0.  1.
    10030    2    1    2    0    0  0.00000000000E+00  0.00000000000E+00 -0.22986783134E+03  0.22144703508E+04  0.22025075969E+04 0.  0.
        5    1    3    3  502    0 -0.62534087932E+03 -0.83051542482E+03 -0.48012946368E+03  0.11451434312E+04  0.46999998093E+01 0.  1.
       -5    1    3    3    0  502  0.62534087932E+03  0.83051542482E+03  0.25026163235E+03  0.10693269195E+04  0.46999998093E+01 0. -1.
</event>
<event>
 5   0  0.3963414E-05  0.2202996E+04  0.7818609E-02  0.8517182E-01
       -2   -1    0    0    0  501  0.00000000000E+00  0.00000000000E+00  0.96850757013E+03  0.96850757013E+03  0.25500000920E-02 0.  1.
        2   -1    0    0  501    0  0.00000000000E+00  0.00000000000E+00 -0.12527505089E+04  0.12527505089E+04  0.25500000920E-02 0. -1.
    10030    2    1    2    0    0  0.00000000000E+00  0.00000000000E+00 -0.28424293874E+03  0.22212580790E+04  0.22029964606E+04 0.  0.
        1    1    3    3  502    0 -0.13165753729E+03  0.10576380224E+04  0.13833249121E+03  0.10747407928E+04  0.50400001928E-02 0. -1.
       -1    1    3    3    0  502  0.13165753729E+03 -0.10576380224E+04 -0.42257542995E+03  0.11465172862E+04  0.50400001928E-02 0.  1.
</event>
<event>
 5   0  0.4132460E-05  0.2214708E+04  0.7818609E-02  0.8512331E-01
       -2   -1    0    0    0  501  0.00000000000E+00  0.00000000000E+00  0.87300535924E+03  0.87300535924E+03  0.25500000920E-02 0. -1.
        2   -1    0    0  501    0  0.00000000000E+00  0.00000000000E+00 -0.14046107345E+04  0.14046107345E+04  0.25500000920E-02 0.  1.
    10030    2    1    2    0    0  0.00000000000E+00  0.00000000000E+00 -0.53160537523E+03  0.22776160937E+04  0.22147078352E+04 0.  0.
        4    1    3    3  502    0  0.32535939743E+03 -0.90638064662E+03  0.29639382499E+03  0.10075889670E+04  0.12699999809E+01 0. -1.
       -4    1    3    3    0  502 -0.32535939743E+03  0.90638064662E+03 -0.82799920022E+03  0.12700271267E+04  0.12699999809E+01 0.  1.
</event>
<event>
 5   0  0.1884407E-05  0.2224791E+04  0.7818609E-02  0.8508180E-01
        1   -1    0    0  501    0  0.00000000000E+00  0.00000000000E+00  0.11317673892E+04  0.11317673892E+04  0.50400001928E-02 0.  1.
       -1   -1    0    0    0  501  0.00000000000E+00  0.00000000000E+00 -0.10933552146E+04  0.10933552146E+04  0.50400001928E-02 0. -1.
    10030    2    1    2    0    0  0.00000000000E+00  0.00000000000E+00  0.38412174590E+02  0.22251226038E+04  0.22247910254E+04 0.  0.
        3    1    3    3  502    0 -0.10628161221E+04 -0.32149019506E+03 -0.47809209401E+02  0.11114044204E+04  0.10100000352E+00 0.  1.
       -3    1    3    3    0  502  0.10628161221E+04  0.32149019506E+03  0.86221383991E+02  0.11137181834E+04  0.10100000352E+00 0. -1.
</event>
<event>
 5   0  0.1866935E-05  0.2198506E+04  0.7818609E-02  0.8519050E-01
       -1   -1    0    0    0  501  0.00000000000E+00  0.00000000000E+00  0.87390214892E+03  0.87390214894E+03  0.50400001928E-02 0. -1.
        1   -1    0    0  501    0  0.00000000000E+00  0.00000000000E+00 -0.13827149241E+04  0.13827149241E+04  0.50400001928E-02 0.  1.
    10030    2    1    2    0    0  0.00000000000E+00  0.00000000000E+00 -0.50881277516E+03  0.22566170730E+04  0.21985063507E+04 0.  0.
        4    1    3    3  502    0 -0.42151303093E+03  0.24497903371E+03  0.75685981805E+03  0.90029237433E+03  0.12699999809E+01 0. -1.
       -4    1    3    3    0  502  0.42151303093E+03 -0.24497903371E+03 -0.12656725932E+04  0.13563246987E+04  0.12699999809E+01 0.  1.
</event>
<event>
 5   0  0.3963414E-05  0.2250772E+04  0.7818609E-02  0.8497588E-01
        2   -1    0    0  501    0  0.00000000000E+00  0.00000000000E+00  0.11705920283E+04  0.11705920283E+04  0.25500000920E-02 0.  1.
       -2   -1    0    0    0  501  0.00000000000E+00  0.00000000000E+00 -0.10819261200E+04  0.10819261200E+04  0.25500000920E-02 0. -1.
    10030    2    1    2    0    0  0.00000000000E+00  0.00000000000E+00  0.88665908299E+02  0.22525181484E+04  0.22507723931E+04 0.  0.
        1    1    3    3  502    0  0.36809870934E+03  0.21164691019E+03 -0.99868604988E+03  0.10852027003E+04  0.50400001928E-02 0. -1.
       -1    1    3    3    0  502 -0.36809870934E+03 -0.21164691019E+03  0.10873519582E+04  0.11673154481E+04  0.50400001928E-02 0.  1.
</event>
<event>
 5   0  0.1788413E-05  0.2186807E+04  0.7818609E-02  0.8523940E-01
       -1   -1    0    0    0  501  0.00000000000E+00  0.00000000000E+00  0.12211305185E+04  0.12211305185E+04  0.50400001928E-02 0.  1.
        1   -1    0    0  501    0  0.00000000000E+00  0.00000000000E+00 -0.97903609620E+03  0.97903609621E+03  0.50400001928E-02 0. -1.
    10030    2    1    2    0    0  0.00000000000E+00  0.00000000000E+00  0.24209442232E+03  0.22001666147E+04  0.21868066726E+04 0.  0.
        1    1    3    3  502    0 -0.45895355727E+03 -0.43808288044E+03 -0.77488503575E+03  0.10014997736E+04  0.50400001928E-02 0. -1.
       -1    1    3    3    0  502  0.45895355727E+03  0.43808288044E+03  0.10169794581E+04  0.11986668411E+04  0.50400001928E-02 0.  1.
</event>
<event>
 5   0  0.4132460E-05  0.2199927E+04  0.7818609E-02  0.8518458E-01
        2   -1    0    0  501    0  0.00000000000E+00  0.00000000000E+00  0.86975052480E+03  0.86975052480E+03  0.25500000920E-02 0.  1.
       -2   -1    0    0    0  501  0.00000000000E+00  0.00000000000E+00 -0.13911112286E+04  0.13911112286E+04  0.25500000920E-02 0. -1.
    10030    2    1    2    0    0  0.00000000000E+00  0.00000000000E+00 -0.52136070385E+03  0.22608617534E+04  0.21999270180E+04 0.  0.
        4    1    3    3  502    0  0.21939859083E+03  0.19618752907E+03  0.82853116570E+03  0.87925581810E+03  0.12699999809E+01 0.  1.
       -4    1    3    3    0  502 -0.21939859083E+03 -0.19618752907E+03 -0.13498918695E+04  0.13816059353E+04  0.12699999809E+01 0. -1.
</event>
<event>
 5   0  0.4027923E-05  0.2181209E+04  0.7818609E-02  0.8526290E-01
       -2   -1    0    0    0  501  0.00000000000E+00  0.00000000000E+00  0.25358034304E+04  0.25358034304E+04  0.25500000920E-02 0.  1.
        2   -1    0    0  501    0  0.00000000000E+00  0.00000000000E+00 -0.46904995048E+03  0.46904995048E+03  0.25500000920E-02 0. -1.
    10030    2    1    2    0    0  0.00000000000E+00  0.00000000000E+00  0.20667534799E+04  0.30048533809E+04  0.21812092733E+04 0.  0.
        5    1    3    3  502    0  0.52343995731E+03 -0.70003863275E+03  0.13491279607E+03  0.88445860773E+03  0.46999998093E+01 0. -1.
       -5    1    3    3    0  502 -0.52343995731E+03  0.70003863275E+03  0.19318406839E+04  0.21203947732E+04  0.46999998093E+01 0.  1.
</event>
<event>
 5   0  0.4027923E-05  0.2200573E+04  0.7818609E-02  0.8518190E-01
       -2   -1    0    0    0  501  0.00000000000E+00  0.00000000000E+00  0.70386853959E+03  0.70386853959E+03  0.25500000920E-02 0.  1.
        2   -1    0    0  501    0  0.00000000000E+00  0.00000000000E+00 -0.17199669331E+04  0.17199669332E+04  0.25500000920E-02 0. -1.
    10030    2    1    2    0    0  0.00000000000E+00  0.00000000000E+00 -0.10160983936E+04  0.24238354727E+04  0.22005732102E+04 0.  0.
        5    1    3    3  502    0  0.24745477970E+03  0.60707338294E+03  0.46525228851E+03  0.80389908709E+03  0.46999998093E+01 0.  1.
       -5    1    3    3    0  502 -0.24745477970E+03 -0.60707338294E+03 -0.14813506821E+04  0.16199363856E+04  0.46999998093E+01 0. -1.
</event>
<event>
 5   0  0.1866935E-05  0.2205784E+04  0.7818609E-02  0.8516024E-01
       -1   -1    0    0    0  501  0.00000000000E+00  0.00000000000E+00  0.92316262485E+03  0.92316262487E+03  0.50400001928E-02 0. -1.
        1   -1    0    0  501    0  0.00000000000E+00  0.00000000000E+00 -0.13176129037E+04  0.13176129037E+04  0.50400001928E-02 0.  1.
    10030    2    1    2    0    0  0.00000000000E+00  0.00000000000E+00 -0.39445027884E+03  0.22407755286E+04  0.22057842023E+04 0.  0.
        4    1    3    3  502    0 -0.15385174786E+03  0.28719617387E+03  0.87315819860E+03  0.93196505047E+03  0.12699999809E+01 0. -1.
       -4    1    3    3    0  502  0.15385174786E+03 -0.28719617387E+03 -0.12676084774E+04  0.13088104781E+04  0.12699999809E+01 0.  1.
</event>
<event>
 5   0  0.1866935E-05  0.2206216E+04  0.7818609E-02  0.8515845E-01
       -1   -1    0    0    0  501  0.00000000000E+00  0.00000000000E+00  0.11235543997E+04  0.11235543997E+04  0.50400001928E-02 0.  1.
        1   -1    0    0  501    0  0.00000000000E+00  0.00000000000E+00 -0.10830335652E+04  0.10830335652E+04  0.50400001928E-02 0. -1.
    10030    2    1    2    0    0  0.00000000000E+00  0.00000000000E+00  0.40520834513E+02  0.22065879648E+04  0.22062158799E+04 0.  0.
        4    1    3    3  502    0 -0.23610585223E+03 -0.26636265586E+03  0.10645392218E+04  0.11224706703E+04  0.12699999809E+01 0.  1.
       -4    1    3    3    0  502  0.23610585223E+03  0.26636265586E+03 -0.10240183873E+04  0.10841172946E+04  0.12699999809E+01 0. -1.
</event>
<event>
 5   0  0.1788413E-05  0.2195394E+04  0.7818609E-02  0.8520348E-01
        1   -1    0    0  501    0  0.00000000000E+00  0.00000000000E+00  0.23875148101E+04  0.23875148101E+04  0.50400001928E-02 0.  1.
       -1   -1    0    0    0  501  0.00000000000E+00  0.00000000000E+00 -0.50468306435E+03  0.50468306438E+03  0.50400001928E-02 0. -1.
    10030    2    1    2    0    0  0.00000000000E+00  0.00000000000E+00  0.18828317458E+04  0.28921978745E+04  0.21953936236E+04 0.  0.
        1    1    3    3  502    0 -0.77905689837E+03 -0.51700516935E+03  0.16990195739E+04  0.19393018096E+04  0.50400001928E-02 0.  1.
       -1    1    3    3    0  502  0.77905689837E+03  0.51700516935E+03  0.18381217186E+03  0.95289606494E+03  0.50400001928E-02 0. -1.
</event>
<event>
 5   0  0.4027923E-05  0.2211364E+04  0.7818609E-02  0.8513713E-01
        2   -1    0    0  501    0  0.00000000000E+00  0.00000000000E+00  0.12674432213E+04  0.12674432213E+04  0.25500000920E-02 0. -1.
       -2   -1    0    0    0  501  0.00000000000E+00  0.00000000000E+00 -0.96456634757E+03  0.96456634757E+03  0.25500000920E-02 0.  1.
    10030    2    1    2    0    0  0.00000000000E+00  0.00000000000E+00  0.30287687369E+03  0.22320095688E+04  0.22113643560E+04 0.  0.
        5    1    3    3  502    0 -0.22066158348E+03 -0.79758412231E+03  0.89155017693E+03  0.12164356845E+04  0.46999998093E+01 0. -1.
       -5    1    3    3    0  502  0.22066158348E+03  0.79758412231E+03 -0.58867330324E+03  0.10155738843E+04  0.46999998093E+01 0.  1.
</event>
<event>
 5   0  0.4132460E-05  0.2353631E+04  0.7818609E-02  0.8457070E-01
        2   -1    0    0  501    0  0.00000000000E+00  0.00000000000E+00  0.23297693600E+04  0.23297693600E+04  0.25500000920E-02 0.  1.
       -2   -1    0    0    0  501  0.00000000000E+00  0.00000000000E+00 -0.59443414755E+03  0.59443414755E+03  0.25500000920E-02 0. -1.
    10030    2    1    2    0    0  0.00000000000E+00  0.00000000000E+00  0.17353352124E+04  0.29242035075E+04  0.23536307811E+04 0.  0.
        4    1    3    3  502    0  0.32598231493E+03  0.18267268187E+03  0.22541013366E+04  0.22848650347E+04  0.12699999809E+01 0.  1.
       -4    1    3    3    0  502 -0.32598231493E+03 -0.18267268187E+03 -0.51876612416E+03  0.63933847282E+03  0.12699999809E+01 0. -1.
</event>
<event>
 5   0  0.3963414E-05  0.2156065E+04  0.7818609E-02  0.8536940E-01
        2   -1    0    0  501    0  0.00000000000E+00  0.00000000000E+00  0.16548631180E+04  0.16548631180E+04  0.25500000920E-02 0.  1.
       -2   -1    0    0    0  501  0.00000000000E+00  0.00000000000E+00 -0.70226625719E+03  0.70226625719E+03  0.25500000920E-02 0. -1.
    10030    2    1    2    0    0  0.00000000000E+00  0.00000000000E+00  0.95259686078E+03  0.23571293752E+04  0.21560654239E+04 0.  0.
        1    1    3    3  502    0 -0.10492785673E+04  0.13071555151E+03  0.70583632859E+03  0.12713288284E+04  0.50400001928E-02 0.  1.
       -1    1    3    3    0  502  0.10492785673E+04 -0.13071555151E+03  0.24676053219E+03  0.10858005468E+04  0.50400001928E-02 0. -1.
</event>
<event>
 5   0  0.3963414E-05  0.2196598E+04  0.7818609E-02  0.8519845E-01
       -2   -1    0    0    0  501  0.00000000000E+00  0.00000000000E+00  0.48487440656E+03  0.48487440657E+03  0.25500000920E-02 0. -1.
        2   -1    0    0  501    0  0.00000000000E+00  0.00000000000E+00 -0.24877794069E+04  0.24877794069E+04  0.25500000920E-02 0.  1.
    10030    2    1    2    0    0  0.00000000000E+00  0.00000000000E+00 -0.20029050003E+04  0.29726538134E+04  0.21965978818E+04 0.  0.
        1    1    3    3  502    0  0.35671680266E+02 -0.57591726888E+03 -0.22661228704E+04  0.23384323880E+04  0.50400001928E-02 0.  1.
       -1    1    3    3    0  502 -0.35671680266E+02  0.57591726888E+03  0.26321787008E+03  0.63422142547E+03  0.50400001928E-02 0. -1.
</event>
<event>
 5   0  0.1815681E-05  0.2203567E+04  0.7818609E-02  0.8516945E-01
       -1   -1    0    0    0  501  0.00000000000E+00  0.00000000000E+00  0.12911131395E+04  0.12911131395E+04  0.50400001928E-02 0. -1.
        1   -1    0    0  501    0  0.00000000000E+00  0.00000000000E+00 -0.94021729667E+03  0.94021729668E+03  0.50400001928E-02 0.  1.
    10030    2    1    2    0    0  0.00000000000E+00  0.00000000000E+00  0.35089584281E+03  0.22313304362E+04  0.22035670225E+04 0.  0.
        2    1    3    3  502    0  0.27320729329E+03 -0.47892543963E+02 -0.90428448371E+03  0.94586803961E+03  0.25500000920E-02 0.  1.
       -2    1    3    3    0  502 -0.27320729329E+03  0.47892543963E+02  0.12551803265E+04  0.12854623966E+04  0.25500000920E-02 0. -1.
</event>
<event>
 5   0  0.1786228E-05  0.2235437E+04  0.7818609E-02  0.8503822E-01
        1   -1    0    0  501    0  0.00000000000E+00  0.00000000000E+00  0.11760642298E+04  0.11760642298E+04  0.50400001928E-02 0.  1.
       -1   -1    0    0    0  501  0.00000000000E+00  0.00000000000E+00 -0.10622671916E+04  0.10622671916E+04  0.50400001928E-02 0. -1.
    10030    2    1    2    0    0  0.00000000000E+00  0.00000000000E+00  0.11379703819E+03  0.22383314215E+04  0.22354368223E+04 0.  0.
        5    1    3    3  502    0 -0.20192570192E+03  0.60143197682E+03  0.97829544693E+03  0.11660096412E+04  0.46999998093E+01 0.  1.
       -5    1    3    3    0  502  0.20192570192E+03 -0.60143197682E+03 -0.86449840873E+03  0.10723217803E+04  0.46999998093E+01 0. -1.
</event>
<event>
 5   0  0.4027923E-05  0.2181236E+04  0.7818609E-02  0.8526279E-01
        2   -1    0    0  501    0  0.00000000000E+00  0.00000000000E+00  0.78446101293E+03  0.78446101294E+03  0.25500000920E-02 0. -1.
       -2   -1    0    0    0  501  0.00000000000E+00  0.00000000000E+00 -0.15162605857E+04  0.15162605857E+04  0.25500000920E-02 0.  1.
    10030    2    1    2    0    0  0.00000000000E+00  0.00000000000E+00 -0.73179957273E+03  0.23007215986E+04  0.21812357185E+04 0.  0.
        5    1    3    3  502    0  0.78595795636E+02 -0.99754082203E+01  0.78141101499E+03  0.78543113778E+03  0.46999998093E+01 0. -1.
       -5    1    3    3    0  502 -0.78595795636E+02  0.99754082203E+01 -0.15132105877E+04  0.15152904608E+04  0.46999998093E+01 0.  1.
</event>
<event>
 5   0  0.1866935E-05  0.2219987E+04  0.7818609E-02  0.8510155E-01
        1   -1    0    0  501    0  0.00000000000E+00  0.00000000000E+00  0.11381484674E+04  0.11381484674E+04  0.50400001928E-02 0. -1.
       -1   -1    0    0    0  501  0.00000000000E+00  0.00000000000E+00 -0.10825346621E+04  0.10825346621E+04  0.50400001928E-02 0.  1.
    10030    2    1    2    0    0  0.00000000000E+00  0.00000000000E+00  0.55613805284E+02  0.22206831295E+04  0.22199866366E+04 0.  0.
        4    1    3    3  502    0 -0.60301064403E+03  0.17381023601E+03 -0.88804121971E+03  0.10874054698E+04  0.12699999809E+01 0.  1.
       -4    1    3    3    0  502  0.60301064403E+03 -0.17381023601E+03  0.94365502500E+03  0.11332776597E+04  0.12699999809E+01 0. -1.
</event>
<event>
 5   0  0.4143281E-05  0.2171859E+04  0.7818609E-02  0.8530233E-01
       -2   -1    0    0    0  501  0.00000000000E+00  0.00000000000E+00  0.86336082278E+03  0.86336082279E+03  0.25500000920E-02 0.  1.
        2   -1    0    0  501    0  0.00000000000E+00  0.00000000000E+00 -0.13658747865E+04  0.13658747865E+04  0.25500000920E-02 0. -1.
    10030    2    1    2    0    0  0.00000000000E+00  0.00000000000E+00 -0.50251396367E+03  0.22292356092E+04  0.21718589084E+04 0.  0.
        2    1    3    3  502    0 -0.48457898840E+03 -0.92513226965E+03  0.54188717018E+02  0.10457642800E+04  0.25500000920E-02 0.  1.
       -2    1    3    3    0  502  0.48457898840E+03  0.92513226965E+03 -0.55670268069E+03  0.11834713292E+04  0.25500000920E-02 0. -1.
</event>
<event>
 5   0  0.1788413E-05  0.2203287E+04  0.7818609E-02  0.8517061E-01
       -1   -1    0    0    0  501  0.00000000000E+00  0.00000000000E+00  0.90250214936E+03  0.90250214938E+03  0.50400001928E-02 0. -1.
        1   -1    0    0  501    0  0.00000000000E+00  0.00000000000E+00 -0.13447260144E+04  0.13447260144E+04  0.50400001928E-02 0.  1.
    10030    2    1    2    0    0  0.00000000000E+00  0.00000000000E+00 -0.44222386503E+03  0.22472281638E+04  0.22032867433E+04 0.  0.
        1    1    3    3  502    0 -0.50842962499E+02 -0.32277637036E+03 -0.12941626351E+04  0.13347758307E+04  0.50400001928E-02 0.  1.
       -1    1    3    3    0  502  0.50842962499E+02  0.32277637036E+03  0.85193877009E+03  0.91245233306E+03  0.50400001928E-02 0. -1.
</event>
<event>
 5   0  0.4029532E-05  0.2203790E+04  0.7818609E-02  0.8516852E-01
        2   -1    0    0  501    0  0.00000000000E+00  0.00000000000E+00  0.19986606177E+04  0.19986606177E+04  0.25500000920E-02 0. -1.
       -2   -1    0    0    0  501  0.00000000000E+00  0.00000000000E+00 -0.60749333190E+03  0.60749333191E+03  0.25500000920E-02 0.  1.
    10030    2    1    2    0    0  0.00000000000E+00  0.00000000000E+00  0.13911672858E+04  0.26061539496E+04  0.22037903693E+04 0.  0.
        3    1    3    3  502    0 -0.90560771571E+03 -0.62726878455E+03  0.72410130792E+03  0.13182997296E+04  0.10100000352E+00 0.  1.
       -3    1    3    3    0  502  0.90560771571E+03  0.62726878455E+03  0.66706597786E+03  0.12878542200E+04  0.10100000352E+00 0. -1.
</event>
<event>
 5   0  0.4027923E-05  0.2224400E+04  0.7818609E-02  0.8508340E-01
        2   -1    0    0  501    0  0.00000000000E+00  0.00000000000E+00  0.20647908778E+04  0.20647908778E+04  0.25500000920E-02 0.  1.
       -2   -1    0    0    0  501  0.00000000000E+00  0.00000000000E+00 -0.59908668991E+03  0.59908668991E+03  0.25500000920E-02 0. -1.
    10030    2    1    2    0    0  0.00000000000E+00  0.00000000000E+00  0.14657041879E+04  0.26638775677E+04  0.22243999032E+04 0.  0.
        5    1    3    3  502    0 -0.11947257223E+03 -0.66503594506E+03  0.17908032734E+04  0.19140389123E+04  0.46999998093E+01 0.  1.
       -5    1    3    3    0  502  0.11947257223E+03  0.66503594506E+03 -0.32509908552E+03  0.74983865541E+03  0.46999998093E+01 0. -1.
</event>
<event>
 5   0  0.1788413E-05  0.2190255E+04  0.7818609E-02  0.8522495E-01
       -1   -1    0    0    0  501  0.00000000000E+00  0.00000000000E+00  0.92453898976E+03  0.92453898977E+03  0.50400001928E-02 0.  1.
        1   -1    0    0  501    0  0.00000000000E+00  0.00000000000E+00 -0.12971912652E+04  0.12971912652E+04  0.50400001928E-02 0. -1.
    10030    2    1    2    0    0  0.00000000000E+00  0.00000000000E+00 -0.37265227540E+03  0.22217302549E+04  0.21902546901E+04 0.  0.
        1    1    3    3  502    0 -0.58597062390E+02  0.10896731780E+04 -0.27975101086E+03  0.11265353428E+04  0.50400001928E-02 0.  1.
       -1    1    3    3    0  502  0.58597062390E+02 -0.10896731780E+04 -0.92901264533E+02  0.10951949121E+04  0.50400001928E-02 0. -1.
</event>
<event>
 5   0  0.1866935E-05  0.2203925E+04  0.7818609E-02  0.8516796E-01
       -1   -1    0    0    0  501  0.00000000000E+00  0.00000000000E+00  0.10369133143E+04  0.10369133143E+04  0.50400001928E-02 0. -1.
        1   -1    0    0  501    0  0.00000000000E+00  0.00000000000E+00 -0.11710925029E+04  0.11710925030E+04  0.50400001928E-02 0.  1.
    10030    2    1    2    0    0  0.00000000000E+00  0.00000000000E+00 -0.13417918866E+03  0.22080058173E+04  0.22039250519E+04 0.  0.
        4    1    3    3  502    0 -0.15473107856E+03 -0.48230881933E+03 -0.10475518930E+04  0.11635850142E+04  0.12699999809E+01 0.  1.
       -4    1    3    3    0  502  0.15473107856E+03  0.48230881933E+03  0.91337270434E+03  0.10444208030E+04  0.12699999809E+01 0. -1.
</event>
<event>
 5   0  0.1786228E-05  0.2196450E+04  0.7818609E-02  0.8519907E-01
        1   -1    0    0  501    0  0.00000000000E+00  0.00000000000E+00  0.13447959004E+04  0.13447959004E+04  0.50400001928E-02 0. -1.
       -1   -1    0    0    0  501  0.00000000000E+00  0.00000000000E+00 -0.89686356009E+03  0.89686356010E+03  0.50400001928E-02 0.  1.
    10030    2    1    2    0    0  0.00000000000E+00  0.00000000000E+00  0.44793234030E+03  0.22416594605E+04  0.21964502624E+04 0.  0.
        5    1    3    3  502    0  0.52638171708E+03  0.20361384979E+03 -0.73751822737E+03  0.92870422504E+03  0.46999998093E+01 0.  1.
       -5    1    3    3    0  502 -0.52638171708E+03 -0.20361384979E+03  0.11854505677E+04  0.13129552355E+04  0.46999998093E+01 0. -1.
</event>
<event>
 5   0  0.1786228E-05  0.2170718E+04  0.7818609E-02  0.8530716E-01
       -1   -1    0    0    0  501  0.00000000000E+00  0.00000000000E+00  0.17743004268E+04  0.17743004268E+04  0.50400001928E-02 0.  1.
        1   -1    0    0  501    0  0.00000000000E+00  0.00000000000E+00 -0.66392582367E+03  0.66392582369E+03  0.50400001928E-02 0. -1.
    10030    2    1    2    0    0  0.00000000000E+00  0.00000000000E+00  0.11103746032E+04  0.24382262505E+04  0.21707177360E+04 0.  0.
        5    1    3    3  502    0 -0.30887848027E+03  0.27888313456E+03  0.16811149271E+04  0.17318635069E+04  0.46999998093E+01 0.  1.
       -5    1    3    3    0  502  0.30887848027E+03 -0.27888313456E+03 -0.57074032391E+03  0.70636274368E+03  0.46999998093E+01 0. -1.
</event>
<event>
 5   0  0.4027923E-05  0.2218602E+04  0.7818609E-02  0.8510725E-01
       -2   -1    0    0    0  501  0.00000000000E+00  0.00000000000E+00  0.90306990415E+03  0.90306990415E+03  0.25500000920E-02 0. -1.
        2   -1    0    0  501    0  0.00000000000E+00  0.00000000000E+00 -0.13626286481E+04  0.13626286481E+04  0.25500000920E-02 0.  1.
    10030    2    1    2    0    0  0.00000000000E+00  0.00000000000E+00 -0.45955874394E+03  0.22656985522E+04  0.22186021929E+04 0.  0.
        5    1    3    3  502    0  0.14629487255E+03  0.98804676937E+03  0.26304985340E+03  0.10328871785E+04  0.46999998093E+01 0. -1.
       -5    1    3    3    0  502 -0.14629487255E+03 -0.98804676937E+03 -0.72260859734E+03  0.12328113737E+04  0.46999998093E+01 0.  1.
</event>
<event>
 5   0  0.4027923E-05  0.2196156E+04  0.7818609E-02  0.8520030E-01
        2   -1    0    0  501    0  0.00000000000E+00  0.00000000000E+00  0.19149411637E+04  0.19149411637E+04  0.25500000920E-02 0. -1.
       -2   -1    0    0    0  501  0.00000000000E+00  0.00000000000E+00 -0.62966714647E+03  0.62966714648E+03  0.25500000920E-02 0.  1.
    10030    2    1    2    0    0  0.00000000000E+00  0.00000000000E+00  0.12852740172E+04  0.25446083102E+04  0.21961562223E+04 0.  0.
        5    1    3    3  502    0 -0.68834659749E+03 -0.29264042021E+03 -0.28884135415E+03  0.80181723085E+03  0.46999998093E+01 0.  1.
       -5    1    3    3    0  502  0.68834659749E+03  0.29264042021E+03  0.15741153714E+04  0.17427910793E+04  0.46999998093E+01 0. -1.
</event>
<event>
 5   0  0.4029532E-05  0.2205940E+04  0.7818609E-02  0.8515960E-01
        2   -1    0    0  501    0  0.00000000000E+00  0.00000000000E+00  0.18118174358E+04  0.18118174358E+04  0.25500000920E-02 0. -1.
       -2   -1    0    0    0  501  0.00000000000E+00  0.00000000000E+00 -0.67144918294E+03  0.67144918294E+03  0.25500000920E-02 0.  1.
    10030    2    1    2    0    0  0.00000000000E+00  0.00000000000E+00  0.11403682528E+04  0.24832666187E+04  0.22059404678E+04 0.  0.
        3    1    3    3  502    0  0.42179062930E+03 -0.12494510947E+03 -0.56841966298E+03  0.71876250515E+03  0.10100000352E+00 0.  1.
       -3    1    3    3    0  502 -0.42179062930E+03  0.12494510947E+03  0.17087879158E+04  0.17645041136E+04  0.10100000352E+00 0. -1.
</event>
<event>
 5   0  0.4027923E-05  0.2196625E+04  0.7818609E-02  0.8519834E-01
       -2   -1    0    0    0  501  0.00000000000E+00  0.00000000000E+00  0.39565087943E+03  0.39565087944E+03  0.25500000920E-02 0. -1.
        2   -1    0    0  501    0  0.00000000000E+00  0.00000000000E+00 -0.30488757356E+04  0.30488757356E+04  0.25500000920E-02 0.  1.
    10030    2    1    2    0    0  0.00000000000E+00  0.00000000000E+00 -0.26532248562E+04  0.34445266150E+04  0.21966250168E+04 0.  0.
        5    1    3    3  502    0 -0.27561806176E+03  0.28243290496E+03  0.28062043097E+03  0.48425569490E+03  0.46999998093E+01 0. -1.
       -5    1    3    3    0  502  0.27561806176E+03 -0.28243290496E+03 -0.29338452871E+04  0.29602709201E+04  0.46999998093E+01 0.  1.
</event>
<event>
 5   0  0.1815681E-05  0.2207641E+04  0.7818609E-02  0.8515255E-01
        1   -1    0    0  501    0  0.00000000000E+00  0.00000000000E+00  0.19713272604E+04  0.19713272604E+04  0.50400001928E-02 0.  1.
       -1   -1    0    0    0  501  0.00000000000E+00  0.00000000000E+00 -0.61807067845E+03  0.61807067848E+03  0.50400001928E-02 0. -1.
    10030    2    1    2    0    0  0.00000000000E+00  0.00000000000E+00  0.13532565819E+04  0.25893979389E+04  0.22076408923E+04 0.  0.
        2    1    3    3  502    0  0.79251083134E+03 -0.51350824837E+03  0.62571428799E+01  0.94435337177E+03  0.25500000920E-02 0. -1.
       -2    1    3    3    0  502 -0.79251083134E+03  0.51350824837E+03  0.13469994391E+04  0.16450445671E+04  0.25500000920E-02 0.  1.
</event>
<event>
 5   0  0.4029532E-05  0.2195505E+04  0.7818609E-02  0.8520301E-01
        2   -1    0    0  501    0  0.00000000000E+00  0.00000000000E+00  0.16899465096E+04  0.16899465096E+04  0.25500000920E-02 0. -1.
       -2   -1    0    0    0  501  0.00000000000E+00  0.00000000000E+00 -0.71307610393E+03  0.71307610394E+03  0.25500000920E-02 0.  1.
    10030    2    1    2    0    0  0.00000000000E+00  0.00000000000E+00  0.97687040571E+03  0.24030226136E+04  0.21955049287E+04 0.  0.
        3    1    3    3  502    0 -0.17956389111E+03 -0.89732769930E+03  0.11520608583E+04  0.14712866554E+04  0.10100000352E+00 0. -1.
       -3    1    3    3    0  502  0.17956389111E+03  0.89732769930E+03 -0.17519045257E+03  0.93173595820E+03  0.10100000352E+00 0.  1.
</event>
<event>
 5   0  0.4132460E-05  0.2179016E+04  0.7818609E-02  0.8527213E-01
        2   -1    0    0  501    0  0.00000000000E+00  0.00000000000E+00  0.13357553361E+04  0.13357553361E+04  0.25500000920E-02 0. -1.
       -2   -1    0    0    0  501  0.00000000000E+00  0.00000000000E+00 -0.88865636142E+03  0.88865636142E+03  0.25500000920E-02 0.  1.
    10030    2    1    2    0    0  0.00000000000E+00  0.00000000000E+00  0.44709897464E+03  0.22244116975E+04  0.21790158115E+04 0.  0.
        4    1    3    3  502    0 -0.68302966371E+03  0.38137537848E+03  0.99766768434E+03  0.12678009000E+04  0.12699999809E+01 0. -1.
       -4    1    3    3    0  502  0.68302966371E+03 -0.38137537848E+03 -0.55056870970E+03  0.95661079746E+03  0.12699999809E+01 0.  1.
</event>
<event>
 5   0  0.4029532E-05  0.2254349E+04  0.7818609E-02  0.8496141E-01
       -2   -1    0    0    0  501  0.00000000000E+00  0.00000000000E+00  0.79698492339E+03  0.79698492339E+03  0.25500000920E-02 0. -1.
        2   -1    0    0  501    0  0.00000000000E+00  0.00000000000E+00 -0.15941613619E+04  0.15941613619E+04  0.25500000920E-02 0.  1.
    10030    2    1    2    0    0  0.00000000000E+00  0.00000000000E+00 -0.79717643846E+03  0.23911462852E+04  0.22543491929E+04 0.  0.
        3    1    3    3  502    0 -0.15454857600E+03  0.42669719531E+03 -0.14929764590E+04  0.15604276581E+04  0.10100000352E+00 0.  1.
       -3    1    3    3    0  502  0.15454857600E+03 -0.42669719531E+03  0.69580002049E+03  0.83071862719E+03  0.10100000352E+00 0. -1.
</event>
<event>
 5   0  0.1815681E-05  0.2247861E+04  0.7818609E-02  0.8498767E-01
       -1   -1    0    0    0  501  0.00000000000E+00  0.00000000000E+00  0.14360623563E+04  0.14360623563E+04  0.50400001928E-02 0.  1.
        1   -1    0    0  501    0  0.00000000000E+00  0.00000000000E+00 -0.87964169150E+03  0.87964169152E+03  0.50400001928E-02 0. -1.
    10030    2    1    2    0    0  0.00000000000E+00  0.00000000000E+00  0.55642066477E+03  0.23157040478E+04  0.22478614906E+04 0.  0.
        2    1    3    3  502    0 -0.79611648709E+01  0.56145053659E+03  0.12812120931E+04  0.13988547146E+04  0.25500000920E-02 0.  1.
       -2    1    3    3    0  502  0.79611648709E+01 -0.56145053659E+03 -0.72479142831E+03  0.91684933317E+03  0.25500000920E-02 0. -1.
</event>
<event>
 5   0  0.4143281E-05  0.2197747E+04  0.7818609E-02  0.8519366E-01
       -2   -1    0    0    0  501  0.00000000000E+00  0.00000000000E+00  0.68275573423E+03  0.68275573423E+03  0.25500000920E-02 0. -1.
        2   -1    0    0  501    0  0.00000000000E+00  0.00000000000E+00 -0.17686018145E+04  0.17686018145E+04  0.25500000920E-02 0.  1.
    10030    2    1    2    0    0  0.00000000000E+00  0.00000000000E+00 -0.10858460802E+04  0.24513575487E+04  0.21977470559E+04 0.  0.
        2    1    3    3  502    0  0.69563346839E+03 -0.53788312324E+03 -0.12779838954E+04  0.15512791540E+04  0.25500000920E-02 0.  1.
       -2    1    3    3    0  502 -0.69563346839E+03  0.53788312324E+03  0.19213781519E+03  0.90007839472E+03  0.25500000920E-02 0. -1.
</event>
<event>
 5   0  0.1866935E-05  0.2203886E+04  0.7818609E-02  0.8516813E-01
        1   -1    0    0  501    0  0.00000000000E+00  0.00000000000E+00  0.11762531010E+04  0.11762531010E+04  0.50400001928E-02 0. -1.
       -1   -1    0    0    0  501  0.00000000000E+00  0.00000000000E+00 -0.10323271427E+04  0.10323271428E+04  0.50400001928E-02 0.  1.
    10030    2    1    2    0    0  0.00000000000E+00  0.00000000000E+00  0.14392595828E+03  0.22085802438E+04  0.22038856621E+04 0.  0.
        4    1    3    3  502    0  0.48988500206E+03 -0.70766112676E+03 -0.61761965883E+03  0.10593522745E+04  0.12699999809E+01 0.  1.
       -4    1    3    3    0  502 -0.48988500206E+03  0.70766112676E+03  0.76154561711E+03  0.11492279693E+04  0.12699999809E+01 0. -1.
</event>
<event>
 5   0  0.1866935E-05  0.2183438E+04  0.7818609E-02  0.8525354E-01
        1   -1    0    0  501    0  0.00000000000E+00  0.00000000000E+00  0.11017820841E+04  0.11017820841E+04  0.50400001928E-02 0. -1.
       -1   -1    0    0    0  501  0.00000000000E+00  0.00000000000E+00 -0.10817473702E+04  0.10817473703E+04  0.50400001928E-02 0.  1.
    10030    2    1    2    0    0  0.00000000000E+00  0.00000000000E+00  0.20034713846E+02  0.21835294543E+04  0.21834375394E+04 0.  0.
        4    1    3    3  502    0 -0.12173463935E+03 -0.48649309728E+02  0.10938813160E+04  0.11017095915E+04  0.12699999809E+01 0. -1.
       -4    1    3    3    0  502  0.12173463935E+03  0.48649309728E+02 -0.10738466021E+04  0.10818198628E+04  0.12699999809E+01 0.  1.
</event>
<event>
 5   0  0.4132460E-05  0.2199112E+04  0.7818609E-02  0.8518798E-01
       -2   -1    0    0    0  501  0.00000000000E+00  0.00000000000E+00  0.15509823186E+04  0.15509823186E+04  0.25500000920E-02 0. -1.
        2   -1    0    0  501    0  0.00000000000E+00  0.00000000000E+00 -0.77952084771E+03  0.77952084772E+03  0.25500000920E-02 0.  1.
    10030    2    1    2    0    0  0.00000000000E+00  0.00000000000E+00  0.77146147092E+03  0.23305031664E+04  0.21991116859E+04 0.  0.
        4    1    3    3  502    0  0.79557713492E+03 -0.46014608344E+03  0.10254040709E+04  0.13770012772E+04  0.12699999809E+01 0.  1.
       -4    1    3    3    0  502 -0.79557713492E+03  0.46014608344E+03 -0.25394260001E+03  0.95350188920E+03  0.12699999809E+01 0. -1.
</event>
<event>
 5   0  0.1884407E-05  0.2202616E+04  0.7818609E-02  0.8517340E-01
        1   -1    0    0  501    0  0.00000000000E+00  0.00000000000E+00  0.17316580738E+04  0.17316580738E+04  0.50400001928E-02 0. -1.
       -1   -1    0    0    0  501  0.00000000000E+00  0.00000000000E+00 -0.70041511457E+03  0.70041511458E+03  0.50400001928E-02 0.  1.
    10030    2    1    2    0    0  0.00000000000E+00  0.00000000000E+00  0.10312429592E+04  0.24320731884E+04  0.22026161610E+04 0.  0.
        3    1    3    3  502    0 -0.65365156176E+03  0.18685945209E+03 -0.44106975674E+03  0.81038223052E+03  0.10100000352E+00 0.  1.
       -3    1    3    3    0  502  0.65365156176E+03 -0.18685945209E+03  0.14723127160E+04  0.16216909579E+04  0.10100000352E+00 0. -1.
</event>
<event>
 5   0  0.1433375E-05  0.2198320E+04  0.7818609E-02  0.8519128E-01
        4   -1    0    0  501    0  0.00000000000E+00  0.00000000000E+00  0.11003930737E+04  0.11003938065E+04  0.12699999809E+01 0.  1.
       -4   -1    0    0    0  501  0.00000000000E+00  0.00000000000E+00 -0.10979270259E+04  0.10979277604E+04  0.12699999809E+01 0. -1.
    10030    2    1    2    0    0  0.00000000000E+00  0.00000000000E+00  0.24660477575E+01  0.21983215669E+04  0.21983201837E+04 0.  0.
        5    1    3    3  502    0  0.59933243763E+03  0.20092576362E+03  0.90043339187E+03  0.11001694944E+04  0.46999998093E+01 0.  1.
       -5    1    3    3    0  502 -0.59933243763E+03 -0.20092576362E+03 -0.89796734411E+03  0.10981520725E+04  0.46999998093E+01 0. -1.
</event>
<event>
 5   0  0.3963414E-05  0.2212581E+04  0.7818609E-02  0.8513210E-01
       -2   -1    0    0    0  501  0.00000000000E+00  0.00000000000E+00  0.10551817652E+04  0.10551817652E+04  0.25500000920E-02 0. -1.
        2   -1    0    0  501    0  0.00000000000E+00  0.00000000000E+00 -0.11598743346E+04  0.11598743346E+04  0.25500000920E-02 0.  1.
    10030    2    1    2    0    0  0.00000000000E+00  0.00000000000E+00 -0.10469256942E+03  0.22150560998E+04  0.22125806180E+04 0.  0.
        1    1    3    3  502    0 -0.77095377450E+03 -0.57067376762E+03  0.49948724254E+03  0.10814461507E+04  0.50400001928E-02 0. -1.
       -1    1    3    3    0  502  0.77095377450E+03  0.57067376762E+03 -0.60417981196E+03  0.11336099491E+04  0.50400001928E-02 0.  1.
</event>
<event>
 5   0  0.4029532E-05  0.2208046E+04  0.7818609E-02  0.8515087E-01
        2   -1    0    0  501    0  0.00000000000E+00  0.00000000000E+00  0.19014397806E+04  0.19014397806E+04  0.25500000920E-02 0.  1.
       -2   -1    0    0    0  501  0.00000000000E+00  0.00000000000E+00 -0.64102288947E+03  0.64102288947E+03  0.25500000920E-02 0. -1.
    10030    2    1    2    0    0  0.00000000000E+00  0.00000000000E+00  0.12604168911E+04  0.25424626701E+04  0.22080456719E+04 0.  0.
        3    1    3    3  502    0 -0.58468094601E+03 -0.23597950387E+03  0.16737384012E+04  0.17885576258E+04  0.10100000352E+00 0.  1.
       -3    1    3    3    0  502  0.58468094601E+03  0.23597950387E+03 -0.41332151009E+03  0.75390504428E+03  0.10100000352E+00 0. -1.
</event>
<event>
 5   0  0.4132460E-05  0.2195975E+04  0.7818609E-02  0.8520105E-01
       -2   -1    0    0    0  501  0.00000000000E+00  0.00000000000E+00  0.58809532589E+03  0.58809532590E+03  0.25500000920E-02 0.  1.
        2   -1    0    0  501    0  0.00000000000E+00  0.00000000000E+00 -0.20499684659E+04  0.20499684659E+04  0.25500000920E-02 0. -1.
    10030    2    1    2    0    0  0.00000000000E+00  0.00000000000E+00 -0.14618731400E+04  0.26380637918E+04  0.21959752941E+04 0.  0.
        4    1    3    3  502    0 -0.64313353392E+03 -0.84936813270E+02 -0.17951305777E+04  0.19087510075E+04  0.12699999809E+01 0. -1.
       -4    1    3    3    0  502  0.64313353392E+03  0.84936813270E+02  0.33325743768E+03  0.72931278432E+03  0.12699999809E+01 0.  1.
</event>
<event>
 5   0  0.1788413E-05  0.2172188E+04  0.7818609E-02  0.8530094E-01
       -1   -1    0    0    0  501  0.00000000000E+00  0.00000000000E+00  0.12077084917E+04  0.12077084917E+04  0.50400001928E-02 0.  1.
        1   -1    0    0  501    0  0.00000000000E+00  0.00000000000E+00 -0.97672609074E+03  0.97672609075E+03  0.50400001928E-02 0. -1.
    10030    2    1    2    0    0  0.00000000000E+00  0.00000000000E+00  0.23098240098E+03  0.21844345825E+04  0.21721881998E+04 0.  0.
        1    1    3    3  502    0  0.83277127506E+03 -0.77960484005E+02 -0.58124567844E+03  0.10185442417E+04  0.50400001928E-02 0. -1.
       -1    1    3    3    0  502 -0.83277127506E+03  0.77960484005E+02  0.81222807942E+03  0.11658903407E+04  0.50400001928E-02 0.  1.
</event>
<event>
 5   0  0.4132460E-05  0.2207212E+04  0.7818609E-02  0.8515432E-01
        2   -1    0    0  501    0  0.00000000000E+00  0.00000000000E+00  0.16186502426E+04  0.16186502427E+04  0.25500000920E-02 0.  1.
       -2   -1    0    0    0  501  0.00000000000E+00  0.00000000000E+00 -0.75244581598E+03  0.75244581598E+03  0.25500000920E-02 0. -1.
    10030    2    1    2    0    0  0.00000000000E+00  0.00000000000E+00  0.86620442667E+03  0.23710960586E+04  0.22072123619E+04 0.  0.
        4    1    3    3  502    0 -0.36171503634E+03 -0.79119917228E+03  0.11625728474E+04  0.14520368922E+04  0.12699999809E+01 0.  1.
       -4    1    3    3    0  502  0.36171503634E+03  0.79119917228E+03 -0.29636842077E+03  0.91905916646E+03  0.12699999809E+01 0. -1.
</event>
<event>
 5   0  0.1884407E-05  0.2193096E+04  0.7818609E-02  0.8521307E-01
        1   -1    0    0  501    0  0.00000000000E+00  0.00000000000E+00  0.19496806668E+04  0.19496806668E+04  0.50400001928E-02 0.  1.
       -1   -1    0    0    0  501  0.00000000000E+00  0.00000000000E+00 -0.61672536732E+03  0.61672536734E+03  0.50400001928E-02 0. -1.
    10030    2    1    2    0    0  0.00000000000E+00  0.00000000000E+00  0.13329552995E+04  0.25664060341E+04  0.21930960083E+04 0.  0.
        3    1    3    3  502    0  0.71085432485E+03  0.68208764386E+03  0.10299477254E+03  0.99053791368E+03  0.10100000352E+00 0. -1.
       -3    1    3    3    0  502 -0.71085432485E+03 -0.68208764386E+03  0.12299605269E+04  0.15758681205E+04  0.10100000352E+00 0.  1.
</event>
<event>
 5   0  0.4029532E-05  0.2198214E+04  0.7818609E-02  0.8519172E-01
        2   -1    0    0  501    0  0.00000000000E+00  0.00000000000E+00  0.95055932645E+03  0.95055932645E+03  0.25500000920E-02 0.  1.
       -2   -1    0    0    0  501  0.00000000000E+00  0.00000000000E+00 -0.12708686740E+04  0.12708686740E+04  0.25500000920E-02 0. -1.
    10030    2    1    2    0    0  0.00000000000E+00  0.00000000000E+00 -0.32030934758E+03  0.22214280005E+04  0.21982138848E+04 0.  0.
        3    1    3    3  502    0 -0.90756061340E+03 -0.12726236956E+03  0.45302662624E+03  0.10222989347E+04  0.10100000352E+00 0.  1.
       -3    1    3    3    0  502  0.90756061340E+03  0.12726236956E+03 -0.77333597382E+03  0.11991290657E+04  0.10100000352E+00 0. -1.
</event>
<event>
 5   0  0.4029532E-05  0.2310975E+04  0.7818609E-02  0.8473606E-01
       -2   -1    0    0    0  501  0.00000000000E+00  0.00000000000E+00  0.15000387698E+04  0.15000387698E+04  0.25500000920E-02 0. -1.
        2   -1    0    0  501    0  0.00000000000E+00  0.00000000000E+00 -0.89007778615E+03  0.89007778615E+03  0.25500000920E-02 0.  1.
    10030    2    1    2    0    0  0.00000000000E+00  0.00000000000E+00  0.60996098367E+03  0.23901165560E+04  0.23109748483E+04 0.  0.
        3    1    3    3  502    0 -0.98227758167E+00  0.34069285770E+03  0.14469110982E+04  0.14864805160E+04  0.10100000352E+00 0. -1.
       -3    1    3    3    0  502  0.98227758167E+00 -0.34069285770E+03 -0.83695011458E+03  0.90363603993E+03  0.10100000352E+00 0.  1.
</event>
<event>
 5   0  0.1866935E-05  0.2203534E+04  0.7818609E-02  0.8516959E-01
       -1   -1    0    0    0  501  0.00000000000E+00  0.00000000000E+00  0.10837431238E+04  0.10837431238E+04  0.50400001928E-02 0.  1.
        1   -1    0    0  501    0  0.00000000000E+00  0.00000000000E+00 -0.11200901475E+04  0.11200901475E+04  0.50400001928E-02 0. -1.
    10030    2    1    2    0    0  0.00000000000E+00  0.00000000000E+00 -0.36347023694E+02  0.22038332713E+04  0.22035335218E+04 0.  0.
        4    1    3    3  502    0  0.10482172179E+04  0.19550550201E+03  0.25918468619E+03  0.10973422674E+04  0.12699999809E+01 0.  1.
       -4    1    3    3    0  502 -0.10482172179E+04 -0.19550550201E+03 -0.29553170988E+03  0.11064910039E+04  0.12699999809E+01 0. -1.
</event>
<event>
 5   0  0.1788413E-05  0.2210311E+04  0.7818609E-02  0.8514149E-01
       -1   -1    0    0    0  501  0.00000000000E+00  0.00000000000E+00  0.54952391055E+03  0.54952391058E+03  0.50400001928E-02 0.  1.
        1   -1    0    0  501    0  0.00000000000E+00  0.00000000000E+00 -0.22225949365E+04  0.22225949365E+04  0.50400001928E-02 0. -1.
    10030    2    1    2    0    0  0.00000000000E+00  0.00000000000E+00 -0.16730710260E+04  0.27721188471E+04  0.22103113456E+04 0.  0.
        1    1    3    3  502    0 -0.86639380302E+03  0.22760613568E+03 -0.16482946739E+04  0.18759845700E+04  0.50400001928E-02 0. -1.
       -1    1    3    3    0  502  0.86639380302E+03 -0.22760613568E+03 -0.24776352059E+02  0.89613427708E+03  0.50400001928E-02 0.  1.
</event>
<event>
 5   0  0.3963414E-05  0.2202210E+04  0.7818609E-02  0.8517509E-01
       -2   -1    0    0    0  501  0.00000000000E+00  0.00000000000E+00  0.42816874194E+03  0.42816874195E+03  0.25500000920E-02 0.  1.
        2   -1    0    0  501    0  0.00000000000E+00  0.00000000000E+00 -0.28316680152E+04  0.28316680152E+04  0.25500000920E-02 0. -1.
    10030    2    1    2    0    0  0.00000000000E+00  0.00000000000E+00 -0.24034992732E+04  0.32598367571E+04  0.22022095556E+04 0.  0.
        1    1    3    3  502    0  0.27200352964E+02  0.70717033191E+03 -0.24504429551E+04  0.25505882486E+04  0.50400001928E-02 0. -1.
       -1    1    3    3    0  502 -0.27200352964E+02 -0.70717033191E+03  0.46943681906E+02  0.70924850851E+03  0.50400001928E-02 0.  1.
</event>
<event>
 5   0  0.1866935E-05  0.2234065E+04  0.7818609E-02  0.8504382E-01
        1   -1    0    0  501    0  0.00000000000E+00  0.00000000000E+00  0.21444068777E+04  0.21444068777E+04  0.50400001928E-02 0.  1.
       -1   -1    0    0    0  501  0.00000000000E+00  0.00000000000E+00 -0.58186795750E+03  0.58186795753E+03  0.50400001928E-02 0. -1.
    10030    2    1    2    0    0  0.00000000000E+00  0.00000000000E+00  0.15625389202E+04  0.27262748353E+04  0.22340650394E+04 0.  0.
        4    1    3    3  502    0  0.28998178072E+03 -0.82126746967E+03 -0.72248692098E+02  0.87395147251E+03  0.12699999809E+01 0. -1.
       -4    1    3    3    0  502 -0.28998178072E+03  0.82126746967E+03  0.16347876123E+04  0.18523233628E+04  0.12699999809E+01 0.  1.
</event>
<event>
 5   0  0.4027923E-05  0.2203784E+04  0.7818609E-02  0.8516855E-01
       -2   -1    0    0    0  501  0.00000000000E+00  0.00000000000E+00  0.77660537243E+03  0.77660537243E+03  0.25500000920E-02 0. -1.
        2   -1    0    0  501    0  0.00000000000E+00  0.00000000000E+00 -0.15634274802E+04  0.15634274802E+04  0.25500000920E-02 0.  1.
    10030    2    1    2    0    0  0.00000000000E+00  0.00000000000E+00 -0.78682210773E+03  0.23400328526E+04  0.22037841823E+04 0.  0.
        5    1    3    3  502    0  0.92699125257E+02  0.10823897890E+04 -0.19766829097E+03  0.11041990883E+04  0.46999998093E+01 0. -1.
       -5    1    3    3    0  502 -0.92699125257E+02 -0.10823897890E+04 -0.58915381676E+03  0.12358337643E+04  0.46999998093E+01 0.  1.
</event>
<event>
 5   0  0.1815681E-05  0.2169965E+04  0.7818609E-02  0.8531034E-01
        1   -1    0    0  501    0  0.00000000000E+00  0.00000000000E+00  0.14039854092E+04  0.14039854092E+04  0.50400001928E-02 0.  1.
       -1   -1    0    0    0  501  0.00000000000E+00  0.00000000000E+00 -0.83846111585E+03  0.83846111586E+03  0.50400001928E-02 0. -1.
    10030    2    1    2    0    0  0.00000000000E+00  0.00000000000E+00  0.56552429339E+03  0.22424465251E+04  0.21699651360E+04 0.  0.
        2    1    3    3  502    0 -0.73945998023E+03 -0.71671404933E+03  0.63579729370E+03  0.12102554646E+04  0.25500000920E-02 0.  1.
       -2    1    3    3    0  502  0.73945998023E+03  0.71671404933E+03 -0.70273000307E+02  0.10321910605E+04  0.25500000920E-02 0. -1.
</event>
<event>
 5   0  0.1786228E-05  0.2212720E+04  0.7818609E-02  0.8513152E-01
        1   -1    0    0  501    0  0.00000000000E+00  0.00000000000E+00  0.20303566459E+04  0.20303566459E+04  0.50400001928E-02 0. -1.
       -1   -1    0    0    0  501  0.00000000000E+00  0.00000000000E+00 -0.60286561234E+03  0.60286561236E+03  0.50400001928E-02 0.  1.
    10030    2    1    2    0    0  0.00000000000E+00  0.00000000000E+00  0.14274910335E+04  0.26332222582E+04  0.22127197768E+04 0.  0.
        5    1    3    3  502    0 -0.43342467563E+03 -0.49997064211E+03 -0.34142534980E+03  0.74459448823E+03  0.46999998093E+01 0.  1.
       -5    1    3    3    0  502  0.43342467563E+03  0.49997064211E+03  0.17689163833E+04  0.18886277700E+04  0.46999998093E+01 0. -1.
</event>
<event>
 5   0  0.1788413E-05  0.2023274E+04  0.7818609E-02  0.8595816E-01
        1   -1    0    0  501    0  0.00000000000E+00  0.00000000000E+00  0.19404087823E+04  0.19404087823E+04  0.50400001928E-02 0.  1.
       -1   -1    0    0    0  501  0.00000000000E+00  0.00000000000E+00 -0.52741971455E+03  0.52741971457E+03  0.50400001928E-02 0. -1.
    10030    2    1    2    0    0  0.00000000000E+00  0.00000000000E+00  0.14129890677E+04  0.24678284969E+04  0.20232744214E+04 0.  0.
        1    1    3    3  502    0  0.21792495048E+03  0.42991756854E+03 -0.37836367392E+03  0.61276379588E+03  0.50400001928E-02 0. -1.
       -1    1    3    3    0  502 -0.21792495048E+03 -0.42991756854E+03  0.17913527417E+04  0.18550647010E+04  0.50400001928E-02 0.  1.
</event>
<event>
 5   0  0.4027923E-05  0.2155209E+04  0.7818609E-02  0.8537306E-01
        2   -1    0    0  501    0  0.00000000000E+00  0.00000000000E+00  0.12978569040E+04  0.12978569040E+04  0.25500000920E-02 0. -1.
       -2   -1    0    0    0  501  0.00000000000E+00  0.00000000000E+00 -0.89472999538E+03  0.89472999538E+03  0.25500000920E-02 0.  1.
    10030    2    1    2    0    0  0.00000000000E+00  0.00000000000E+00  0.40312690867E+03  0.21925868994E+04  0.21552090402E+04 0.  0.
        5    1    3    3  502    0  0.19561031967E+03  0.93548453238E+03  0.70800689524E+03  0.11894076514E+04  0.46999998093E+01 0. -1.
       -5    1    3    3    0  502 -0.19561031967E+03 -0.93548453238E+03 -0.30487998657E+03  0.10031792480E+04  0.46999998093E+01 0.  1.
</event>
<event>
 5   0  0.1815681E-05  0.2286103E+04  0.7818609E-02  0.8483421E-01
       -1   -1    0    0    0  501  0.00000000000E+00  0.00000000000E+00  0.89451599673E+03  0.89451599675E+03  0.50400001928E-02 0.  1.
        1   -1    0    0  501    0  0.00000000000E+00  0.00000000000E+00 -0.14606410313E+04  0.14606410313E+04  0.50400001928E-02 0. -1.
    10030    2    1    2    0    0  0.00000000000E+00  0.00000000000E+00 -0.56612503455E+03  0.23551570280E+04  0.22861030318E+04 0.  0.
        2    1    3    3  502    0  0.20887403233E+03 -0.70039806323E+03 -0.11884611799E+04  0.13952153183E+04  0.25500000920E-02 0. -1.
       -2    1    3    3    0  502 -0.20887403233E+03  0.70039806323E+03  0.62233614530E+03  0.95994170975E+03  0.25500000920E-02 0.  1.
</event>
<event>
 5   0  0.1884407E-05  0.2189152E+04  0.7818609E-02  0.8522957E-01
        1   -1    0    0  501    0  0.00000000000E+00  0.00000000000E+00  0.18517301194E+04  0.18517301194E+04  0.50400001928E-02 0. -1.
       -1   -1    0    0    0  501  0.00000000000E+00  0.00000000000E+00 -0.64701454717E+03  0.64701454719E+03  0.50400001928E-02 0.  1.
    10030    2    1    2    0    0  0.00000000000E+00  0.00000000000E+00  0.12047155722E+04  0.24987446666E+04  0.21891517304E+04 0.  0.
        3    1    3    3  502    0  0.62805381121E+03 -0.75235573275E+03  0.45974172619E+02  0.98112403554E+03  0.10100000352E+00 0.  1.
       -3    1    3    3    0  502 -0.62805381121E+03  0.75235573275E+03  0.11587413996E+04  0.15176206310E+04  0.10100000352E+00 0. -1.
</event>
<event>
 5   0  0.4029532E-05  0.2179012E+04  0.7818609E-02  0.8527215E-01
        2   -1    0    0  501    0  0.00000000000E+00  0.00000000000E+00  0.18158062524E+04  0.18158062524E+04  0.25500000920E-02 0. -1.
       -2   -1    0    0    0  501  0.00000000000E+00  0.00000000000E+00 -0.65371712518E+03  0.65371712518E+03  0.25500000920E-02 0.  1.
    10030    2    1    2    0    0  0.00000000000E+00  0.00000000000E+00  0.11620891272E+04  0.24695233776E+04  0.21790122930E+04 0.  0.
        3    1    3    3  502    0  0.96593399407E+03  0.40960107799E+02  0.11763050847E+02  0.96687361682E+03  0.10100000352E+00 0. -1.
       -3    1    3    3    0  502 -0.96593399407E+03 -0.40960107799E+02  0.11503260764E+04  0.15026497608E+04  0.10100000352E+00 0.  1.
</event>
<event>
 5   0  0.4027923E-05  0.2197662E+04  0.7818609E-02  0.8519402E-01
        2   -1    0    0  501    0  0.00000000000E+00  0.00000000000E+00  0.22642114903E+04  0.22642114903E+04  0.25500000920E-02 0. -1.
       -2   -1    0    0    0  501  0.00000000000E+00  0.00000000000E+00 -0.53326709826E+03  0.53326709826E+03  0.25500000920E-02 0.  1.
    10030    2    1    2    0    0  0.00000000000E+00  0.00000000000E+00  0.17309443920E+04  0.27974785886E+04  0.21976619315E+04 0.  0.
        5    1    3    3  502    0 -0.75428451567E+02 -0.84580813356E+03  0.17531796697E+04  0.19480097265E+04  0.46999998093E+01 0.  1.
       -5    1    3    3    0  502  0.75428451567E+02  0.84580813356E+03 -0.22235277675E+02  0.84946886210E+03  0.46999998093E+01 0. -1.
</event>
<event>
 5   0  0.3963414E-05  0.2193221E+04  0.7818609E-02  0.8521255E-01
        2   -1    0    0  501    0  0.00000000000E+00  0.00000000000E+00  0.12635030050E+04  0.12635030050E+04  0.25500000920E-02 0.  1.
       -2   -1    0    0    0  501  0.00000000000E+00  0.00000000000E+00 -0.95176273574E+03  0.95176273574E+03  0.25500000920E-02 0. -1.
    10030    2    1    2    0    0  0.00000000000E+00  0.00000000000E+00  0.31174026930E+03  0.22152657408E+04  0.21932214450E+04 0.  0.
        1    1    3    3  502    0  0.10375356517E+04 -0.35495680653E+03  0.14680700578E+03  0.11063574739E+04  0.50400001928E-02 0.  1.
       -1    1    3    3    0  502 -0.10375356517E+04  0.35495680653E+03  0.16493326352E+03  0.11089082669E+04  0.50400001928E-02 0. -1.
</event>
<event>
 5   0  0.1866935E-05  0.2204556E+04  0.7818609E-02  0.8516534E-01
       -1   -1    0    0    0  501  0.00000000000E+00  0.00000000000E+00  0.83460245800E+03  0.83460245801E+03  0.50400001928E-02 0.  1.
        1   -1    0    0  501    0  0.00000000000E+00  0.00000000000E+00 -0.14558026064E+04  0.14558026064E+04  0.50400001928E-02 0. -1.
    10030    2    1    2    0    0  0.00000000000E+00  0.00000000000E+00 -0.62120014842E+03  0.22904050644E+04  0.22045556774E+04 0.  0.
        4    1    3    3  502    0  0.44300388483E+03  0.76102594835E+03  0.37824411067E+03  0.95837526898E+03  0.12699999809E+01 0.  1.
       -4    1    3    3    0  502 -0.44300388483E+03 -0.76102594835E+03 -0.99944425909E+03  0.13320297954E+04  0.12699999809E+01 0. -1.
</event>
<event>
 5   0  0.1884407E-05  0.2199808E+04  0.7818609E-02  0.8518508E-01
       -1   -1    0    0    0  501  0.00000000000E+00  0.00000000000E+00  0.56271420395E+03  0.56271420397E+03  0.50400001928E-02 0.  1.
        1   -1    0    0  501    0  0.00000000000E+00  0.00000000000E+00 -0.21499169576E+04  0.21499169576E+04  0.50400001928E-02 0. -1.
    10030    2    1    2    0    0  0.00000000000E+00  0.00000000000E+00 -0.15872027536E+04  0.27126311616E+04  0.21998080001E+04 0.  0.
        3    1    3    3  502    0 -0.16905657023E+03  0.76982346116E+03  0.15243733754E+03  0.80277359035E+03  0.10100000352E+00 0.  1.
       -3    1    3    3    0  502  0.16905657023E+03 -0.76982346116E+03 -0.17396400912E+04  0.19098575712E+04  0.10100000352E+00 0. -1.
</event>
<event>
 5   0  0.1788413E-05  0.2193045E+04  0.7818609E-02  0.8521329E-01
        1   -1    0    0  501    0  0.00000000000E+00  0.00000000000E+00  0.14654647283E+04  0.14654647284E+04  0.50400001928E-02 0. -1.
       -1   -1    0    0    0  501  0.00000000000E+00  0.00000000000E+00 -0.82046434722E+03  0.82046434724E+03  0.50400001928E-02 0.  1.
    10030    2    1    2    0    0  0.00000000000E+00  0.00000000000E+00  0.64500038112E+03  0.22859290756E+04  0.21930449715E+04 0.  0.
        1    1    3    3  502    0  0.60881222013E+03  0.41769721640E+03  0.11675389681E+04  0.13814016527E+04  0.50400001928E-02 0.  1.
       -1    1    3    3    0  502 -0.60881222013E+03 -0.41769721640E+03 -0.52253858695E+03  0.90452742294E+03  0.50400001928E-02 0. -1.
</event>
<event>
 5   0  0.4143281E-05  0.2212971E+04  0.7818609E-02  0.8513049E-01
       -2   -1    0    0    0  501  0.00000000000E+00  0.00000000000E+00  0.98523560625E+03  0.98523560626E+03  0.25500000920E-02 0. -1.
        2   -1    0    0  501    0  0.00000000000E+00  0.00000000000E+00 -0.12426568650E+04  0.12426568650E+04  0.25500000920E-02 0.  1.
    10030    2    1    2    0    0  0.00000000000E+00  0.00000000000E+00 -0.25742125874E+03  0.22278924713E+04  0.22129706638E+04 0.  0.
        2    1    3    3  502    0  0.34924382168E+03 -0.50032214083E+03 -0.10579819206E+04  0.12213186464E+04  0.25500000920E-02 0.  1.
       -2    1    3    3    0  502 -0.34924382168E+03  0.50032214083E+03  0.80056066189E+03  0.10065738249E+04  0.25500000920E-02 0. -1.
</event>
<event>
 5   0  0.1788413E-05  0.2259538E+04  0.7818609E-02  0.8494048E-01
       -1   -1    0    0    0  501  0.00000000000E+00  0.00000000000E+00  0.15742052640E+04  0.15742052640E+04  0.50400001928E-02 0. -1.
        1   -1    0    0  501    0  0.00000000000E+00  0.00000000000E+00 -0.81080821340E+03  0.81080821342E+03  0.50400001928E-02 0.  1.
    10030    2    1    2    0    0  0.00000000000E+00  0.00000000000E+00  0.76339705056E+03  0.23850134774E+04  0.22595384995E+04 0.  0.
        1    1    3    3  502    0 -0.29949144728E+03  0.35056365268E+03 -0.70697772551E+03  0.84404236029E+03  0.50400001928E-02 0.  1.
       -1    1    3    3    0  502  0.29949144728E+03 -0.35056365268E+03  0.14703747761E+04  0.15409711171E+04  0.50400001928E-02 0. -1.
</event>
<event>
 5   0  0.1433375E-05  0.2203833E+04  0.7818609E-02  0.8516834E-01
       -4   -1    0    0    0  501  0.00000000000E+00  0.00000000000E+00  0.11107314257E+04  0.11107321518E+04  0.12699999809E+01 0. -1.
        4   -1    0    0  501    0  0.00000000000E+00  0.00000000000E+00 -0.10931701915E+04  0.10931709292E+04  0.12699999809E+01 0.  1.
    10030    2    1    2    0    0  0.00000000000E+00  0.00000000000E+00  0.17561234245E+02  0.22039030810E+04  0.22038331138E+04 0.  0.
        3    1    3    3  502    0  0.17122202060E+03  0.25202826752E+03 -0.10502076097E+04  0.10935132655E+04  0.10100000352E+00 0.  1.
       -3    1    3    3    0  502 -0.17122202060E+03 -0.25202826752E+03  0.10677688440E+04  0.11103898155E+04  0.10100000352E+00 0. -1.
</event>
<event>
 5   0  0.1866935E-05  0.2147118E+04  0.7818609E-02  0.8540767E-01
        1   -1    0    0  501    0  0.00000000000E+00  0.00000000000E+00  0.21182136123E+04  0.21182136123E+04  0.50400001928E-02 0. -1.
       -1   -1    0    0    0  501  0.00000000000E+00  0.00000000000E+00 -0.54410412603E+03  0.54410412606E+03  0.50400001928E-02 0.  1.
    10030    2    1    2    0    0  0.00000000000E+00  0.00000000000E+00  0.15741094863E+04  0.26623177384E+04  0.21471178508E+04 0.  0.
        4    1    3    3  502    0  0.65349446358E+03  0.52901705073E+03  0.16147738448E+04  0.18205521790E+04  0.12699999809E+01 0. -1.
       -4    1    3    3    0  502 -0.65349446358E+03 -0.52901705073E+03 -0.40664358531E+02  0.84176555931E+03  0.12699999809E+01 0.  1.
</event>
<event>
 5   0  0.3963414E-05  0.2206690E+04  0.7818609E-02  0.8515649E-01
        2   -1    0    0  501    0  0.00000000000E+00  0.00000000000E+00  0.22934903610E+04  0.22934903610E+04  0.25500000920E-02 0.  1.
       -2   -1    0    0    0  501  0.00000000000E+00  0.00000000000E+00 -0.53079368318E+03  0.53079368319E+03  0.25500000920E-02 0. -1.
    10030    2    1    2    0    0  0.00000000000E+00  0.00000000000E+00  0.17626966778E+04  0.28242840441E+04  0.22066900064E+04 0.  0.
        1    1    3    3  502    0 -0.45054666426E+03  0.97737496365E+03  0.57016247695E+03  0.12179242039E+04  0.50400001928E-02 0. -1.
       -1    1    3    3    0  502  0.45054666426E+03 -0.97737496365E+03  0.11925342008E+04  0.16063598403E+04  0.50400001928E-02 0.  1.
</event>
<event>
 5   0  0.4029532E-05  0.2199981E+04  0.7818609E-02  0.8518436E-01
        2   -1    0    0  501    0  0.00000000000E+00  0.00000000000E+00  0.37305608330E+03  0.37305608331E+03  0.25500000920E-02 0. -1.
       -2   -1    0    0    0  501  0.00000000000E+00  0.00000000000E+00 -0.32434236690E+04  0.32434236690E+04  0.25500000920E-02 0.  1.
    10030    2    1    2    0    0  0.00000000000E+00  0.00000000000E+00 -0.28703675857E+04  0.36164797523E+04  0.21999808458E+04 0.  0.
        3    1    3    3  502    0 -0.52755729547E+03 -0.43296909992E+03 -0.17067113853E+02  0.68269337046E+03  0.10100000352E+00 0. -1.
       -3    1    3    3    0  502  0.52755729547E+03  0.43296909992E+03 -0.28533004719E+04  0.29337863819E+04  0.10100000352E+00 0.  1.
</event>
<event>
 5   0  0.1815681E-05  0.2213486E+04  0.7818609E-02  0.8512836E-01
       -1   -1    0    0    0  501  0.00000000000E+00  0.00000000000E+00  0.91849607940E+03  0.91849607942E+03  0.50400001928E-02 0.  1.
        1   -1    0    0  501    0  0.00000000000E+00  0.00000000000E+00 -0.13335718461E+04  0.13335718461E+04  0.50400001928E-02 0. -1.
    10030    2    1    2    0    0  0.00000000000E+00  0.00000000000E+00 -0.41507576671E+03  0.22520679255E+04  0.22134864014E+04 0.  0.
        2    1    3    3  502    0  0.56389557864E+03 -0.39259460391E+03 -0.10902849597E+04  0.12887319504E+04  0.25500000920E-02 0. -1.
       -2    1    3    3    0  502 -0.56389557864E+03  0.39259460391E+03  0.67520919302E+03  0.96333597512E+03  0.25500000920E-02 0.  1.
</event>
<event>
 5   0  0.1433375E-05  0.2356207E+04  0.7818609E-02  0.8456083E-01
        3   -1    0    0  501    0  0.00000000000E+00  0.00000000000E+00  0.14208571354E+04  0.14208571390E+04  0.10100000352E+00 0. -1.
       -3   -1    0    0    0  501  0.00000000000E+00  0.00000000000E+00 -0.97682430709E+03  0.97682431232E+03  0.10100000352E+00 0.  1.
    10030    2    1    2    0    0  0.00000000000E+00  0.00000000000E+00  0.44403282828E+03  0.23976814513E+04  0.23562069496E+04 0.  0.
        5    1    3    3  502    0 -0.83978866968E+03  0.81988906538E+03  0.32600429972E+03  0.12180985111E+04  0.46999998093E+01 0. -1.
       -5    1    3    3    0  502  0.83978866968E+03 -0.81988906538E+03  0.11802852855E+03  0.11795829402E+04  0.46999998093E+01 0.  1.
</event>
<event>
 5   0  0.1786228E-05  0.2200432E+04  0.7818609E-02  0.8518248E-01
        1   -1    0    0  501    0  0.00000000000E+00  0.00000000000E+00  0.21162145267E+04  0.21162145268E+04  0.50400001928E-02 0. -1.
       -1   -1    0    0    0  501  0.00000000000E+00  0.00000000000E+00 -0.57200009026E+03  0.57200009028E+03  0.50400001928E-02 0.  1.
    10030    2    1    2    0    0  0.00000000000E+00  0.00000000000E+00  0.15442144365E+04  0.26882146170E+04  0.22004316852E+04 0.  0.
        5    1    3    3  502    0 -0.14661337634E+03 -0.10192977923E+04  0.29897094631E+03  0.10723195365E+04  0.46999998093E+01 0.  1.
       -5    1    3    3    0  502  0.14661337634E+03  0.10192977923E+04  0.12452434902E+04  0.16158950806E+04  0.46999998093E+01 0. -1.
</event>
<event>
 5   0  0.4027923E-05  0.2211313E+04  0.7818609E-02  0.8513734E-01
        2   -1    0    0  501    0  0.00000000000E+00  0.00000000000E+00  0.20109374205E+04  0.20109374205E+04  0.25500000920E-02 0.  1.
       -2   -1    0    0    0  501  0.00000000000E+00  0.00000000000E+00 -0.60791346390E+03  0.60791346390E+03  0.25500000920E-02 0. -1.
    10030    2    1    2    0    0  0.00000000000E+00  0.00000000000E+00  0.14030239566E+04  0.26188508844E+04  0.22113126717E+04 0.  0.
        5    1    3    3  502    0  0.43434299419E+03  0.53225294454E+03  0.17274897097E+04  0.18590830591E+04  0.46999998093E+01 0.  1.
       -5    1    3    3    0  502 -0.43434299419E+03 -0.53225294454E+03 -0.32446575302E+03  0.75976782536E+03  0.46999998093E+01 0. -1.
</event>
<event>
 5   0  0.3963414E-05  0.2192461E+04  0.7818609E-02  0.8521572E-01
       -2   -1    0    0    0  501  0.00000000000E+00  0.00000000000E+00  0.90477349727E+03  0.90477349727E+03  0.25500000920E-02 0. -1.
        2   -1    0    0  501    0  0.00000000000E+00  0.00000000000E+00 -0.13282017649E+04  0.13282017649E+04  0.25500000920E-02 0.  1.
    10030    2    1    2    0    0  0.00000000000E+00  0.00000000000E+00 -0.42342826767E+03  0.22329752622E+04  0.21924614076E+04 0.  0.
        1    1    3    3  502    0 -0.34364208450E+03 -0.76061240258E+03  0.51212309557E+03  0.97922988835E+03  0.50400001928E-02 0. -1.
       -1    1    3    3    0  502  0.34364208450E+03  0.76061240258E+03 -0.93555136324E+03  0.12537453739E+04  0.50400001928E-02 0.  1.
</event>
<event>
 5   0  0.1786228E-05  0.2200412E+04  0.7818609E-02  0.8518257E-01
       -1   -1    0    0    0  501  0.00000000000E+00  0.00000000000E+00  0.56678935427E+03  0.56678935429E+03  0.50400001928E-02 0. -1.
        1   -1    0    0  501    0  0.00000000000E+00  0.00000000000E+00 -0.21356309887E+04  0.21356309887E+04  0.50400001928E-02 0.  1.
    10030    2    1    2    0    0  0.00000000000E+00  0.00000000000E+00 -0.15688416345E+04  0.27024203430E+04  0.22004116970E+04 0.  0.
        5    1    3    3  502    0  0.38438574441E+03  0.72549498120E+03 -0.16838504847E+04  0.18733579245E+04  0.46999998093E+01 0.  1.
       -5    1    3    3    0  502 -0.38438574441E+03 -0.72549498120E+03  0.11500885025E+03  0.82906241857E+03  0.46999998093E+01 0. -1.
</event>
<event>
 5   0  0.1866935E-05  0.2113844E+04  0.7818609E-02  0.8555170E-01
       -1   -1    0    0    0  501  0.00000000000E+00  0.00000000000E+00  0.46259377693E+03  0.46259377696E+03  0.50400001928E-02 0. -1.
        1   -1    0    0  501    0  0.00000000000E+00  0.00000000000E+00 -0.24148264060E+04  0.24148264060E+04  0.50400001928E-02 0.  1.
    10030    2    1    2    0    0  0.00000000000E+00  0.00000000000E+00 -0.19522326290E+04  0.28774201829E+04  0.21138435778E+04 0.  0.
        4    1    3    3  502    0  0.47674946078E+03  0.35046841705E+03 -0.21682306176E+04  0.22475194735E+04  0.12699999809E+01 0.  1.
       -4    1    3    3    0  502 -0.47674946078E+03 -0.35046841705E+03  0.21599798862E+03  0.62990070939E+03  0.12699999809E+01 0. -1.
</event>
<event>
 5   0  0.4132460E-05  0.2154250E+04  0.7818609E-02  0.8537715E-01
       -2   -1    0    0    0  501  0.00000000000E+00  0.00000000000E+00  0.12874402983E+04  0.12874402983E+04  0.25500000920E-02 0.  1.
        2   -1    0    0  501    0  0.00000000000E+00  0.00000000000E+00 -0.90116676251E+03  0.90116676251E+03  0.25500000920E-02 0. -1.
    10030    2    1    2    0    0  0.00000000000E+00  0.00000000000E+00  0.38627353575E+03  0.21886070608E+04  0.21542501299E+04 0.  0.
        4    1    3    3  502    0  0.66359521510E+03 -0.43059961061E+03  0.93583757616E+03  0.12253849257E+04  0.12699999809E+01 0.  1.
       -4    1    3    3    0  502 -0.66359521510E+03  0.43059961061E+03 -0.54956404041E+03  0.96322213512E+03  0.12699999809E+01 0. -1.
</event>
<event>
 5   0  0.3963414E-05  0.2201498E+04  0.7818609E-02  0.8517805E-01
        2   -1    0    0  501    0  0.00000000000E+00  0.00000000000E+00  0.11326513403E+04  0.11326513403E+04  0.25500000920E-02 0. -1.
       -2   -1    0    0    0  501  0.00000000000E+00  0.00000000000E+00 -0.10697449796E+04  0.10697449796E+04  0.25500000920E-02 0.  1.
    10030    2    1    2    0    0  0.00000000000E+00  0.00000000000E+00  0.62906360752E+02  0.22023963199E+04  0.22014977492E+04 0.  0.
        1    1    3    3  502    0 -0.65482031580E+02  0.23356345457E+03 -0.10426741684E+04  0.10705181948E+04  0.50400001928E-02 0.  1.
       -1    1    3    3    0  502  0.65482031580E+02 -0.23356345457E+03  0.11055805292E+04  0.11318781252E+04  0.50400001928E-02 0. -1.
</event>
<event>
 5   0  0.4027923E-05  0.2218150E+04  0.7818609E-02  0.8510911E-01
       -2   -1    0    0    0  501  0.00000000000E+00  0.00000000000E+00  0.78467604981E+03  0.78467604982E+03  0.25500000920E-02 0.  1.
        2   -1    0    0  501    0  0.00000000000E+00  0.00000000000E+00 -0.15675866368E+04  0.15675866368E+04  0.25500000920E-02 0. -1.
    10030    2    1    2    0    0  0.00000000000E+00  0.00000000000E+00 -0.78291058699E+03  0.23522626866E+04  0.22181503014E+04 0.  0.
        5    1    3    3  502    0  0.10514249754E+04 -0.88678291527E+02 -0.29237827205E+02  0.10555734266E+04  0.46999998093E+01 0.  1.
       -5    1    3    3    0  502 -0.10514249754E+04  0.88678291527E+02 -0.75367275978E+03  0.12966892601E+04  0.46999998093E+01 0. -1.
</event>
<event>
 5   0  0.4027923E-05  0.2201208E+04  0.7818609E-02  0.8517925E-01
       -2   -1    0    0    0  501  0.00000000000E+00  0.00000000000E+00  0.62965848411E+03  0.62965848412E+03  0.25500000920E-02 0. -1.
        2   -1    0    0  501    0  0.00000000000E+00  0.00000000000E+00 -0.19237883084E+04  0.19237883084E+04  0.25500000920E-02 0.  1.
    10030    2    1    2    0    0  0.00000000000E+00  0.00000000000E+00 -0.12941298243E+04  0.25534467926E+04  0.22012084227E+04 0.  0.
        5    1    3    3  502    0  0.58335525849E+03  0.61039556141E+03  0.17189756704E+03  0.86165942376E+03  0.46999998093E+01 0. -1.
       -5    1    3    3    0  502 -0.58335525849E+03 -0.61039556141E+03 -0.14660273914E+04  0.16917873688E+04  0.46999998093E+01 0.  1.
</event>
<event>
 5   0  0.4027923E-05  0.2243277E+04  0.7818609E-02  0.8500628E-01
        2   -1    0    0  501    0  0.00000000000E+00  0.00000000000E+00  0.19278598002E+04  0.19278598002E+04  0.25500000920E-02 0.  1.
       -2   -1    0    0    0  501  0.00000000000E+00  0.00000000000E+00 -0.65257481956E+03  0.65257481957E+03  0.25500000920E-02 0. -1.
    10030    2    1    2    0    0  0.00000000000E+00  0.00000000000E+00  0.12752849806E+04  0.25804346198E+04  0.22432768543E+04 0.  0.
        5    1    3    3  502    0 -0.86130323158E+03  0.10860387560E+03 -0.17932157308E+03  0.88646284473E+03  0.46999998093E+01 0. -1.
       -5    1    3    3    0  502  0.86130323158E+03 -0.10860387560E+03  0.14546065537E+04  0.16939717750E+04  0.46999998093E+01 0.  1.
</event>
<event>
 5   0  0.1786228E-05  0.2182260E+04  0.7818609E-02  0.8525848E-01
        1   -1    0    0  501    0  0.00000000000E+00  0.00000000000E+00  0.50504229496E+03  0.50504229498E+03  0.50400001928E-02 0. -1.
       -1   -1    0    0    0  501  0.00000000000E+00  0.00000000000E+00 -0.23573558914E+04  0.23573558914E+04  0.50400001928E-02 0.  1.
    10030    2    1    2    0    0  0.00000000000E+00  0.00000000000E+00 -0.18523135965E+04  0.28623981864E+04  0.21822597732E+04 0.  0.
        5    1    3    3  502    0  0.63398099573E+03  0.76297516373E+02 -0.20866590643E+04  0.21821827042E+04  0.46999998093E+01 0.  1.
       -5    1    3    3    0  502 -0.63398099573E+03 -0.76297516373E+02  0.23434546781E+03  0.68021548221E+03  0.46999998093E+01 0. -1.
</event>
<event>
 5   0  0.3963414E-05  0.2200452E+04  0.7818609E-02  0.8518240E-01
        2   -1    0    0  501    0  0.00000000000E+00  0.00000000000E+00  0.15115586726E+04  0.15115586726E+04  0.25500000920E-02 0.  1.
       -2   -1    0    0    0  501  0.00000000000E+00  0.00000000000E+00 -0.80082684978E+03  0.80082684979E+03  0.25500000920E-02 0. -1.
    10030    2    1    2    0    0  0.00000000000E+00  0.00000000000E+00  0.71073182281E+03  0.23123855224E+04  0.22004515628E+04 0.  0.
        1    1    3    3  502    0 -0.10851252953E+04  0.14750466002E+03  0.46678890717E+03  0.11904395890E+04  0.50400001928E-02 0.  1.
       -1    1    3    3    0  502  0.10851252953E+04 -0.14750466002E+03  0.24394291564E+03  0.11219459333E+04  0.50400001928E-02 0. -1.
</event>
<event>
 5   0  0.1815681E-05  0.2199891E+04  0.7818609E-02  0.8518474E-01
       -1   -1    0    0    0  501  0.00000000000E+00  0.00000000000E+00  0.66729934847E+03  0.66729934849E+03  0.50400001928E-02 0. -1.
        1   -1    0    0  501    0  0.00000000000E+00  0.00000000000E+00 -0.18130993637E+04  0.18130993637E+04  0.50400001928E-02 0.  1.
    10030    2    1    2    0    0  0.00000000000E+00  0.00000000000E+00 -0.11458000152E+04  0.24803987121E+04  0.21998909283E+04 0.  0.
        2    1    3    3  502    0  0.87394204585E+03  0.64685687602E+03 -0.38530762055E+03  0.11535425783E+04  0.25500000920E-02 0. -1.
       -2    1    3    3    0  502 -0.87394204585E+03 -0.64685687602E+03 -0.76049239464E+03  0.13268561338E+04  0.25500000920E-02 0.  1.
</event>
<event>
 5   0  0.1815681E-05  0.2202320E+04  0.7818609E-02  0.8517463E-01
       -1   -1    0    0    0  501  0.00000000000E+00  0.00000000000E+00  0.98166071117E+03  0.98166071118E+03  0.50400001928E-02 0. -1.
        1   -1    0    0  501    0  0.00000000000E+00  0.00000000000E+00 -0.12352062129E+04  0.12352062129E+04  0.50400001928E-02 0.  1.
    10030    2    1    2    0    0  0.00000000000E+00  0.00000000000E+00 -0.25354550176E+03  0.22168669241E+04  0.22023200580E+04 0.  0.
        2    1    3    3  502    0  0.45555979316E+03 -0.27365249934E+03  0.84403160105E+03  0.99740150347E+03  0.25500000920E-02 0. -1.
       -2    1    3    3    0  502 -0.45555979316E+03  0.27365249934E+03 -0.10975771028E+04  0.12194654207E+04  0.25500000920E-02 0.  1.
</event>
<event>
 5   0  0.1884407E-05  0.2169663E+04  0.7818609E-02  0.8531162E-01
        1   -1    0    0  501    0  0.00000000000E+00  0.00000000000E+00  0.98165727720E+03  0.98165727721E+03  0.50400001928E-02 0.  1.
       -1   -1    0    0    0  501  0.00000000000E+00  0.00000000000E+00 -0.11988490335E+04  0.11988490335E+04  0.50400001928E-02 0. -1.
    10030    2    1    2    0    0  0.00000000000E+00  0.00000000000E+00 -0.21719175627E+03  0.21805063107E+04  0.21696625341E+04 0.  0.
        3    1    3    3  502    0  0.13029676315E+02 -0.43466522505E+03 -0.11074218554E+04  0.11897423277E+04  0.10100000352E+00 0. -1.
       -3    1    3    3    0  502 -0.13029676315E+02  0.43466522505E+03  0.89023009913E+03  0.99076398297E+03  0.10100000352E+00 0.  1.
</event>
<event>
 5   0  0.3963414E-05  0.2205551E+04  0.7818609E-02  0.8516121E-01
        2   -1    0    0  501    0  0.00000000000E+00  0.00000000000E+00  0.70173800009E+03  0.70173800010E+03  0.25500000920E-02 0. -1.
       -2   -1    0    0    0  501  0.00000000000E+00  0.00000000000E+00 -0.17330029148E+04  0.17330029148E+04  0.25500000920E-02 0.  1.
    10030    2    1    2    0    0  0.00000000000E+00  0.00000000000E+00 -0.10312649148E+04  0.24347409149E+04  0.22055511779E+04 0.  0.
        1    1    3    3  502    0  0.13896233309E+03 -0.99409835442E+03 -0.11478076215E+02  0.10038295744E+04  0.50400001928E-02 0. -1.
       -1    1    3    3    0  502 -0.13896233309E+03  0.99409835442E+03 -0.10197868385E+04  0.14309113405E+04  0.50400001928E-02 0.  1.
</event>
<event>
 5   0  0.1866935E-05  0.2191253E+04  0.7818609E-02  0.8522078E-01
       -1   -1    0    0    0  501  0.00000000000E+00  0.00000000000E+00  0.73578770867E+03  0.73578770869E+03  0.50400001928E-02 0. -1.
        1   -1    0    0  501    0  0.00000000000E+00  0.00000000000E+00 -0.16314453083E+04  0.16314453083E+04  0.50400001928E-02 0.  1.
    10030    2    1    2    0    0  0.00000000000E+00  0.00000000000E+00 -0.89565759960E+03  0.23672330170E+04  0.21912529797E+04 0.  0.
        4    1    3    3  502    0 -0.40002483954E+02  0.98062905092E+03  0.78274805837E+02  0.98456187838E+03  0.12699999809E+01 0.  1.
       -4    1    3    3    0  502  0.40002483954E+02 -0.98062905092E+03 -0.97393240544E+03  0.13826711386E+04  0.12699999809E+01 0. -1.
</event>
<event>
 5   0  0.1866935E-05  0.2204873E+04  0.7818609E-02  0.8516403E-01
       -1   -1    0    0    0  501  0.00000000000E+00  0.00000000000E+00  0.10420254091E+04  0.10420254091E+04  0.50400001928E-02 0.  1.
        1   -1    0    0  501    0  0.00000000000E+00  0.00000000000E+00 -0.11663495269E+04  0.11663495269E+04  0.50400001928E-02 0. -1.
    10030    2    1    2    0    0  0.00000000000E+00  0.00000000000E+00 -0.12432411784E+03  0.22083749360E+04  0.22048726430E+04 0.  0.
        4    1    3    3  502    0 -0.10277168032E+04 -0.23830421655E+03 -0.38262888732E+03  0.11222286779E+04  0.12699999809E+01 0. -1.
       -4    1    3    3    0  502  0.10277168032E+04  0.23830421655E+03  0.25830476948E+03  0.10861462581E+04  0.12699999809E+01 0.  1.
</event>
<event>
 5   0  0.1786228E-05  0.2199244E+04  0.7818609E-02  0.8518743E-01
        1   -1    0    0  501    0  0.00000000000E+00  0.00000000000E+00  0.12994780387E+04  0.12994780387E+04  0.50400001928E-02 0. -1.
       -1   -1    0    0    0  501  0.00000000000E+00  0.00000000000E+00 -0.93050287474E+03  0.93050287476E+03  0.50400001928E-02 0.  1.
    10030    2    1    2    0    0  0.00000000000E+00  0.00000000000E+00  0.36897516395E+03  0.22299809135E+04  0.21992435524E+04 0.  0.
        5    1    3    3  502    0 -0.67599659711E+03  0.86504439352E+03  0.24758884233E+03  0.11254312626E+04  0.46999998093E+01 0. -1.
       -5    1    3    3    0  502  0.67599659711E+03 -0.86504439352E+03  0.12138632163E+03  0.11045496508E+04  0.46999998093E+01 0.  1.
</event>
<event>
 5   0  0.4143281E-05  0.2190082E+04  0.7818609E-02  0.8522567E-01
        2   -1    0    0  501    0  0.00000000000E+00  0.00000000000E+00  0.18200286173E+04  0.18200286173E+04  0.25500000920E-02 0.  1.
       -2   -1    0    0    0  501  0.00000000000E+00  0.00000000000E+00 -0.65884404167E+03  0.65884404168E+03  0.25500000920E-02 0. -1.
    10030    2    1    2    0    0  0.00000000000E+00  0.00000000000E+00  0.11611845756E+04  0.24788726590E+04  0.21900821996E+04 0.  0.
        2    1    3    3  502    0  0.31217870234E+03 -0.81158421278E+03  0.13339322829E+04  0.15923252846E+04  0.25500000920E-02 0.  1.
       -2    1    3    3    0  502 -0.31217870234E+03  0.81158421278E+03 -0.17274770728E+03  0.88654737437E+03  0.25500000920E-02 0. -1.
</event>
<event>
 5   0  0.4132460E-05  0.2246976E+04  0.7818609E-02  0.8499126E-01
       -2   -1    0    0    0  501  0.00000000000E+00  0.00000000000E+00  0.96410861809E+03  0.96410861809E+03  0.25500000920E-02 0. -1.
        2   -1    0    0  501    0  0.00000000000E+00  0.00000000000E+00 -0.13092152729E+04  0.13092152729E+04  0.25500000920E-02 0.  1.
    10030    2    1    2    0    0  0.00000000000E+00  0.00000000000E+00 -0.34510665477E+03  0.22733238910E+04  0.22469763928E+04 0.  0.
        4    1    3    3  502    0  0.10277540298E+04 -0.44804115455E+03 -0.24554422277E+03  0.11477424799E+04  0.12699999809E+01 0. -1.
       -4    1    3    3    0  502 -0.10277540298E+04  0.44804115455E+03 -0.99562431998E+02  0.11255814110E+04  0.12699999809E+01 0.  1.
</event>
<event>
 5   0  0.4027923E-05  0.2184844E+04  0.7818609E-02  0.8524763E-01
        2   -1    0    0  501    0  0.00000000000E+00  0.00000000000E+00  0.12108512237E+04  0.12108512237E+04  0.25500000920E-02 0. -1.
       -2   -1    0    0    0  501  0.00000000000E+00  0.00000000000E+00 -0.98557569280E+03  0.98557569281E+03  0.25500000920E-02 0.  1.
    10030    2    1    2    0    0  0.00000000000E+00  0.00000000000E+00  0.22527553089E+03  0.21964269165E+04  0.21848437323E+04 0.  0.
        5    1    3    3  502    0 -0.84541317933E+03 -0.46348372644E+03 -0.40372220666E+03  0.10452532318E+04  0.46999998093E+01 0.  1.
       -5    1    3    3    0  502  0.84541317933E+03  0.46348372644E+03  0.62899773755E+03  0.11511736847E+04  0.46999998093E+01 0. -1.
</event>
<event>
 5   0  0.4029532E-05  0.2120785E+04  0.7818609E-02  0.8552143E-01
       -2   -1    0    0    0  501  0.00000000000E+00  0.00000000000E+00  0.15092490069E+04  0.15092490069E+04  0.25500000920E-02 0. -1.
        2   -1    0    0  501    0  0.00000000000E+00  0.00000000000E+00 -0.74502732087E+03  0.74502732087E+03  0.25500000920E-02 0.  1.
    10030    2    1    2    0    0  0.00000000000E+00  0.00000000000E+00  0.76422168603E+03  0.22542763278E+04  0.21207845191E+04 0.  0.
        3    1    3    3  502    0  0.95914431942E+03  0.36314201927E+03  0.66851825116E+03  0.12242330717E+04  0.10100000352E+00 0. -1.
       -3    1    3    3    0  502 -0.95914431942E+03 -0.36314201927E+03  0.95703434866E+02  0.10300432560E+04  0.10100000352E+00 0.  1.
</event>
<event>
 5   0  0.4027923E-05  0.2181586E+04  0.7818609E-02  0.8526132E-01
        2   -1    0    0  501    0  0.00000000000E+00  0.00000000000E+00  0.12967014499E+04  0.12967014499E+04  0.25500000920E-02 0.  1.
       -2   -1    0    0    0  501  0.00000000000E+00  0.00000000000E+00 -0.91758162017E+03  0.91758162018E+03  0.25500000920E-02 0. -1.
    10030    2    1    2    0    0  0.00000000000E+00  0.00000000000E+00  0.37911982971E+03  0.22142830701E+04  0.21815860444E+04 0.  0.
        5    1    3    3  502    0 -0.41582412324E+02  0.56430258431E+03  0.11360820007E+04  0.12692008927E+04  0.46999998093E+01 0.  1.
       -5    1    3    3    0  502  0.41582412324E+02 -0.56430258431E+03 -0.75696217099E+03  0.94508217737E+03  0.46999998093E+01 0. -1.
</event>
<event>
 5   0  0.4143281E-05  0.2189214E+04  0.7818609E-02  0.8522931E-01
       -2   -1    0    0    0  501  0.00000000000E+00  0.00000000000E+00  0.15931908811E+04  0.15931908811E+04  0.25500000920E-02 0. -1.
        2   -1    0    0  501    0  0.00000000000E+00  0.00000000000E+00 -0.75205301985E+03  0.75205301986E+03  0.25500000920E-02 0.  1.
    10030    2    1    2    0    0  0.00000000000E+00  0.00000000000E+00  0.84113786125E+03  0.23452439010E+04  0.21892135696E+04 0.  0.
        2    1    3    3  502    0  0.85603950260E+03 -0.25927918418E+03  0.10965194291E+04  0.14150562476E+04  0.25500000920E-02 0. -1.
       -2    1    3    3    0  502 -0.85603950260E+03  0.25927918418E+03 -0.25538156784E+03  0.93018765341E+03  0.25500000920E-02 0.  1.
</event>
<event>
 5   0  0.1788413E-05  0.2190553E+04  0.7818609E-02  0.8522370E-01
        1   -1    0    0  501    0  0.00000000000E+00  0.00000000000E+00  0.17151587388E+04  0.17151587388E+04  0.50400001928E-02 0. -1.
       -1   -1    0    0    0  501  0.00000000000E+00  0.00000000000E+00 -0.69942838120E+03  0.69942838121E+03  0.50400001928E-02 0.  1.
    10030    2    1    2    0    0  0.00000000000E+00  0.00000000000E+00  0.10157303576E+04  0.24145871200E+04  0.21905530810E+04 0.  0.
        1    1    3    3  502    0 -0.52954523003E+02 -0.30911820172E+03  0.16646071316E+04  0.16938934875E+04  0.50400001928E-02 0. -1.
       -1    1    3    3    0  502  0.52954523003E+02  0.30911820172E+03 -0.64887677402E+03  0.72069363257E+03  0.50400001928E-02 0.  1.
</event>
<event>
 5   0  0.1866935E-05  0.2203490E+04  0.7818609E-02  0.8516977E-01
       -1   -1    0    0    0  501  0.00000000000E+00  0.00000000000E+00  0.11261605251E+04  0.11261605251E+04  0.50400001928E-02 0. -1.
        1   -1    0    0  501    0  0.00000000000E+00  0.00000000000E+00 -0.10778592208E+04  0.10778592208E+04  0.50400001928E-02 0.  1.
    10030    2    1    2    0    0  0.00000000000E+00  0.00000000000E+00  0.48301304283E+02  0.22040197459E+04  0.22034904185E+04 0.  0.
        4    1    3    3  502    0  0.87897976758E+03 -0.61251797822E+03 -0.23292701769E+03  0.10963759911E+04  0.12699999809E+01 0.  1.
       -4    1    3    3    0  502 -0.87897976758E+03  0.61251797822E+03  0.28122832197E+03  0.11076437548E+04  0.12699999809E+01 0. -1.
</event>
<event>
 5   0  0.4132460E-05  0.2191567E+04  0.7818609E-02  0.8521946E-01
        2   -1    0    0  501    0  0.00000000000E+00  0.00000000000E+00  0.19285835390E+04  0.19285835390E+04  0.25500000920E-02 0. -1.
       -2   -1    0    0    0  501  0.00000000000E+00  0.00000000000E+00 -0.62260288752E+03  0.62260288753E+03  0.25500000920E-02 0.  1.
    10030    2    1    2    0    0  0.00000000000E+00  0.00000000000E+00  0.13059806515E+04  0.25511864266E+04  0.21915671838E+04 0.  0.
        4    1    3    3  502    0  0.33159872437E+02 -0.10767437061E+04  0.41940633762E+03  0.11560189768E+04  0.12699999809E+01 0.  1.
       -4    1    3    3    0  502 -0.33159872437E+02  0.10767437061E+04  0.88657431388E+03  0.13951674497E+04  0.12699999809E+01 0. -1.
</event>
<event>
 5   0  0.4132460E-05  0.2213541E+04  0.7818609E-02  0.8512813E-01
        2   -1    0    0  501    0  0.00000000000E+00  0.00000000000E+00  0.13905018942E+04  0.13905018942E+04  0.25500000920E-02 0.  1.
       -2   -1    0    0    0  501  0.00000000000E+00  0.00000000000E+00 -0.88093464291E+03  0.88093464291E+03  0.25500000920E-02 0. -1.
    10030    2    1    2    0    0  0.00000000000E+00  0.00000000000E+00  0.50956725126E+03  0.22714365371E+04  0.22135413162E+04 0.  0.
        4    1    3    3  502    0 -0.58887905661E+03  0.74114597326E+02  0.12133838803E+04  0.13507677709E+04  0.12699999809E+01 0.  1.
       -4    1    3    3    0  502  0.58887905661E+03 -0.74114597326E+02 -0.70381662907E+03  0.92066876622E+03  0.12699999809E+01 0. -1.
</event>
<event>
 5   0  0.1815681E-05  0.2238666E+04  0.7818609E-02  0.8502505E-01
        1   -1    0    0  501    0  0.00000000000E+00  0.00000000000E+00  0.15342981279E+04  0.15342981279E+04  0.50400001928E-02 0.  1.
       -1   -1    0    0    0  501  0.00000000000E+00  0.00000000000E+00 -0.81659904670E+03  0.81659904672E+03  0.50400001928E-02 0. -1.
    10030    2    1    2    0    0  0.00000000000E+00  0.00000000000E+00  0.71769908118E+03  0.23508971746E+04  0.22386660212E+04 0.  0.
        2    1    3    3  502    0 -0.73202798846E+03 -0.72864248160E+03  0.81189590848E+03  0.13137578955E+04  0.25500000920E-02 0.  1.
       -2    1    3    3    0  502  0.73202798846E+03  0.72864248160E+03 -0.94196827301E+02  0.10371392791E+04  0.25500000920E-02 0. -1.
</event>
<event>
 5   0  0.1815681E-05  0.2197958E+04  0.7818609E-02  0.8519278E-01
        1   -1    0    0  501    0  0.00000000000E+00  0.00000000000E+00  0.11339047866E+04  0.11339047866E+04  0.50400001928E-02 0.  1.
       -1   -1    0    0    0  501  0.00000000000E+00  0.00000000000E+00 -0.10651293749E+04  0.10651293749E+04  0.50400001928E-02 0. -1.
    10030    2    1    2    0    0  0.00000000000E+00  0.00000000000E+00  0.68775411705E+02  0.21990341615E+04  0.21979584132E+04 0.  0.
        2    1    3    3  502    0  0.10100081101E+03  0.32432720112E+03 -0.10112869739E+04  0.10668133111E+04  0.25500000920E-02 0. -1.
       -2    1    3    3    0  502 -0.10100081101E+03 -0.32432720112E+03  0.10800623856E+04  0.11322208504E+04  0.25500000920E-02 0.  1.
</event>
<event>
 5   0  0.4143281E-05  0.2211125E+04  0.7818609E-02  0.8513812E-01
        2   -1    0    0  501    0  0.00000000000E+00  0.00000000000E+00  0.11162423226E+04  0.11162423226E+04  0.25500000920E-02 0.  1.
       -2   -1    0    0    0  501  0.00000000000E+00  0.00000000000E+00 -0.10949849027E+04  0.10949849027E+04  0.25500000920E-02 0. -1.
    10030    2    1    2    0    0  0.00000000000E+00  0.00000000000E+00  0.21257419892E+02  0.22112272253E+04  0.22111250448E+04 0.  0.
        2    1    3    3  502    0  0.11774470816E+03  0.13811533367E+03 -0.10799852246E+04  0.10951291006E+04  0.25500000920E-02 0. -1.
       -2    1    3    3    0  502 -0.11774470816E+03 -0.13811533367E+03  0.11012426445E+04  0.11160981246E+04  0.25500000920E-02 0.  1.
</event>
<event>
 5   0  0.4029532E-05  0.2203672E+04  0.7818609E-02  0.8516901E-01
        2   -1    0    0  501    0  0.00000000000E+00  0.00000000000E+00  0.76294520882E+03  0.76294520883E+03  0.25500000920E-02 0.  1.
       -2   -1    0    0    0  501  0.00000000000E+00  0.00000000000E+00 -0.15912575379E+04  0.15912575379E+04  0.25500000920E-02 0. -1.
    10030    2    1    2    0    0  0.00000000000E+00  0.00000000000E+00 -0.82831232904E+03  0.23542027467E+04  0.22036717673E+04 0.  0.
        3    1    3    3  502    0 -0.31859888190E+03 -0.73031061584E+03  0.39887095142E+03  0.89104258554E+03  0.10100000352E+00 0.  1.
       -3    1    3    3    0  502  0.31859888190E+03  0.73031061584E+03 -0.12271832805E+04  0.14631601612E+04  0.10100000352E+00 0. -1.
</event>
<event>
 5   0  0.4143281E-05  0.2195102E+04  0.7818609E-02  0.8520469E-01
       -2   -1    0    0    0  501  0.00000000000E+00  0.00000000000E+00  0.77909095319E+03  0.77909095319E+03  0.25500000920E-02 0. -1.
        2   -1    0    0  501    0  0.00000000000E+00  0.00000000000E+00 -0.15461846666E+04  0.15461846666E+04  0.25500000920E-02 0.  1.
    10030    2    1    2    0    0  0.00000000000E+00  0.00000000000E+00 -0.76709371346E+03  0.23252756198E+04  0.21951022625E+04 0.  0.
        2    1    3    3  502    0  0.25949381990E+03 -0.58966475008E+02  0.74440028841E+03  0.79053518399E+03  0.25500000920E-02 0. -1.
       -2    1    3    3    0  502 -0.25949381990E+03  0.58966475008E+02 -0.15114940019E+04  0.15347404358E+04  0.25500000920E-02 0.  1.
</event>
<event>
 5   0  0.3963414E-05  0.2188388E+04  0.7818609E-02  0.8523277E-01
       -2   -1    0    0    0  501  0.00000000000E+00  0.00000000000E+00  0.10793747456E+04  0.10793747456E+04  0.25500000920E-02 0. -1.
        2   -1    0    0  501    0  0.00000000000E+00  0.00000000000E+00 -0.11092171596E+04  0.11092171596E+04  0.25500000920E-02 0.  1.
    10030    2    1    2    0    0  0.00000000000E+00  0.00000000000E+00 -0.29842414017E+02  0.21885919051E+04  0.21883884385E+04 0.  0.
        1    1    3    3  502    0  0.14350658933E+03 -0.68714305273E+03 -0.85434498687E+03  0.11057418653E+04  0.50400001928E-02 0.  1.
       -1    1    3    3    0  502 -0.14350658933E+03  0.68714305273E+03  0.82450257285E+03  0.10828500398E+04  0.50400001928E-02 0. -1.
</event>
<event>
 5   0  0.1786228E-05  0.2210468E+04  0.7818609E-02  0.8514084E-01
       -1   -1    0    0    0  501  0.00000000000E+00  0.00000000000E+00  0.10756482819E+04  0.10756482819E+04  0.50400001928E-02 0. -1.
        1   -1    0    0  501    0  0.00000000000E+00  0.00000000000E+00 -0.11356333415E+04  0.11356333415E+04  0.50400001928E-02 0.  1.
    10030    2    1    2    0    0  0.00000000000E+00  0.00000000000E+00 -0.59985059559E+02  0.22112816234E+04  0.22104678714E+04 0.  0.
        5    1    3    3  502    0 -0.12937089200E+03  0.43323999837E+03 -0.10388707325E+04  0.11330084787E+04  0.46999998093E+01 0.  1.
       -5    1    3    3    0  502  0.12937089200E+03 -0.43323999837E+03  0.97888567297E+03  0.10782731447E+04  0.46999998093E+01 0. -1.
</event>
<event>
 5   0  0.4027923E-05  0.2217512E+04  0.7818609E-02  0.8511174E-01
       -2   -1    0    0    0  501  0.00000000000E+00  0.00000000000E+00  0.82976465060E+03  0.82976465060E+03  0.25500000920E-02 0. -1.
        2   -1    0    0  501    0  0.00000000000E+00  0.00000000000E+00 -0.14815530359E+04  0.14815530359E+04  0.25500000920E-02 0.  1.
    10030    2    1    2    0    0  0.00000000000E+00  0.00000000000E+00 -0.65178838528E+03  0.23113176865E+04  0.22175124236E+04 0.  0.
        5    1    3    3  502    0 -0.65316332567E+03  0.83417601028E+03  0.14806743450E+02  0.10595816513E+04  0.46999998093E+01 0. -1.
       -5    1    3    3    0  502  0.65316332567E+03 -0.83417601028E+03 -0.66659512873E+03  0.12517360352E+04  0.46999998093E+01 0.  1.
</event>
<event>
 5   0  0.4132460E-05  0.2201950E+04  0.7818609E-02  0.8517617E-01
       -2   -1    0    0    0  501  0.00000000000E+00  0.00000000000E+00  0.90184944737E+03  0.90184944737E+03  0.25500000920E-02 0.  1.
        2   -1    0    0  501    0  0.00000000000E+00  0.00000000000E+00 -0.13440665513E+04  0.13440665513E+04  0.25500000920E-02 0. -1.
    10030    2    1    2    0    0  0.00000000000E+00  0.00000000000E+00 -0.44221710390E+03  0.22459159987E+04  0.22019497510E+04 0.  0.
        4    1    3    3  502    0 -0.63673506241E+03  0.12820036688E+03 -0.11278340489E+04  0.13014907332E+04  0.12699999809E+01 0. -1.
       -4    1    3    3    0  502  0.63673506241E+03 -0.12820036688E+03  0.68561694504E+03  0.94442526544E+03  0.12699999809E+01 0.  1.
</event>
<event>
 5   0  0.4143281E-05  0.2207827E+04  0.7818609E-02  0.8515178E-01
        2   -1    0    0  501    0  0.00000000000E+00  0.00000000000E+00  0.16472019466E+04  0.16472019466E+04  0.25500000920E-02 0.  1.
       -2   -1    0    0    0  501  0.00000000000E+00  0.00000000000E+00 -0.73981496343E+03  0.73981496343E+03  0.25500000920E-02 0. -1.
    10030    2    1    2    0    0  0.00000000000E+00  0.00000000000E+00  0.90738698320E+03  0.23870169101E+04  0.22078266670E+04 0.  0.
        2    1    3    3  502    0  0.39223144680E+02  0.33403622675E+03 -0.68307249749E+03  0.76138472055E+03  0.25500000920E-02 0. -1.
       -2    1    3    3    0  502 -0.39223144680E+02 -0.33403622675E+03  0.15904594807E+04  0.16256321895E+04  0.25500000920E-02 0.  1.
</event>
<event>
 5   0  0.1884407E-05  0.2187370E+04  0.7818609E-02  0.8523703E-01
       -1   -1    0    0    0  501  0.00000000000E+00  0.00000000000E+00  0.15116186071E+04  0.15116186071E+04  0.50400001928E-02 0.  1.
        1   -1    0    0  501    0  0.00000000000E+00  0.00000000000E+00 -0.79130236346E+03  0.79130236347E+03  0.50400001928E-02 0. -1.
    10030    2    1    2    0    0  0.00000000000E+00  0.00000000000E+00  0.72031624365E+03  0.23029209706E+04  0.21873704547E+04 0.  0.
        3    1    3    3  502    0  0.99956646911E+03 -0.23850463554E+03  0.75427216611E+03  0.12747329517E+04  0.10100000352E+00 0. -1.
       -3    1    3    3    0  502 -0.99956646911E+03  0.23850463554E+03 -0.33955922459E+02  0.10281880189E+04  0.10100000352E+00 0.  1.
</event>
<event>
 5   0  0.1786228E-05  0.2210900E+04  0.7818609E-02  0.8513905E-01
        1   -1    0    0  501    0  0.00000000000E+00  0.00000000000E+00  0.15410732630E+04  0.15410732630E+04  0.50400001928E-02 0.  1.
       -1   -1    0    0    0  501  0.00000000000E+00  0.00000000000E+00 -0.79296664666E+03  0.79296664668E+03  0.50400001928E-02 0. -1.
    10030    2    1    2    0    0  0.00000000000E+00  0.00000000000E+00  0.74810661631E+03  0.23340399097E+04  0.22108999956E+04 0.  0.
        5    1    3    3  502    0 -0.11708153906E+03 -0.10999405342E+03 -0.78056758834E+03  0.79694079362E+03  0.46999998093E+01 0. -1.
       -5    1    3    3    0  502  0.11708153906E+03  0.10999405342E+03  0.15286742046E+04  0.15370991160E+04  0.46999998093E+01 0.  1.
</event>
<event>
 5   0  0.3963414E-05  0.2191837E+04  0.7818609E-02  0.8521833E-01
       -2   -1    0    0    0  501  0.00000000000E+00  0.00000000000E+00  0.10955469664E+04  0.10955469664E+04  0.25500000920E-02 0.  1.
        2   -1    0    0  501    0  0.00000000000E+00  0.00000000000E+00 -0.10962906254E+04  0.10962906254E+04  0.25500000920E-02 0. -1.
    10030    2    1    2    0    0  0.00000000000E+00  0.00000000000E+00 -0.74365903873E+00  0.21918375918E+04  0.21918374657E+04 0.  0.
        1    1    3    3  502    0  0.38343435540E+03 -0.10255088406E+04  0.48080025178E+02  0.10959023569E+04  0.50400001928E-02 0. -1.
       -1    1    3    3    0  502 -0.38343435540E+03  0.10255088406E+04 -0.48823684216E+02  0.10959352349E+04  0.50400001928E-02 0.  1.
</event>
<event>
 5   0  0.4027923E-05  0.2206649E+04  0.7818609E-02  0.8515666E-01
        2   -1    0    0  501    0  0.00000000000E+00  0.00000000000E+00  0.89525624177E+03  0.89525624178E+03  0.25500000920E-02 0. -1.
       -2   -1    0    0    0  501  0.00000000000E+00  0.00000000000E+00 -0.13597505754E+04  0.13597505754E+04  0.25500000920E-02 0.  1.
    10030    2    1    2    0    0  0.00000000000E+00  0.00000000000E+00 -0.46449433365E+03  0.22550068172E+04  0.22066492154E+04 0.  0.
        5    1    3    3  502    0  0.46328003688E+02 -0.19658288452E+03 -0.13406885636E+04  0.13558241144E+04  0.46999998093E+01 0.  1.
       -5    1    3    3    0  502 -0.46328003688E+02  0.19658288452E+03  0.87619422999E+03  0.89918270284E+03  0.46999998093E+01 0. -1.
</event>
<event>
 5   0  0.4027923E-05  0.2116278E+04  0.7818609E-02  0.8554106E-01
        2   -1    0    0  501    0  0.00000000000E+00  0.00000000000E+00  0.11161225693E+04  0.11161225693E+04  0.25500000920E-02 0. -1.
       -2   -1    0    0    0  501  0.00000000000E+00  0.00000000000E+00 -0.10031681658E+04  0.10031681658E+04  0.25500000920E-02 0.  1.
    10030    2    1    2    0    0  0.00000000000E+00  0.00000000000E+00  0.11295440342E+03  0.21192907351E+04  0.21162784606E+04 0.  0.
        5    1    3    3  502    0 -0.76770277713E+03 -0.72728481097E+03  0.92940433679E+02  0.10615887926E+04  0.46999998093E+01 0.  1.
       -5    1    3    3    0  502  0.76770277713E+03  0.72728481097E+03  0.20013969738E+02  0.10577019425E+04  0.46999998093E+01 0. -1.
</event>
<event>
 5   0  0.1866935E-05  0.2188161E+04  0.7818609E-02  0.8523372E-01
       -1   -1    0    0    0  501  0.00000000000E+00  0.00000000000E+00  0.56407537537E+03  0.56407537540E+03  0.50400001928E-02 0.  1.
        1   -1    0    0  501    0  0.00000000000E+00  0.00000000000E+00 -0.21220775106E+04  0.21220775106E+04  0.50400001928E-02 0. -1.
    10030    2    1    2    0    0  0.00000000000E+00  0.00000000000E+00 -0.15580021353E+04  0.26861528860E+04  0.21881605685E+04 0.  0.
        4    1    3    3  502    0 -0.87461631855E+03 -0.25386198151E+03 -0.34705451036E+02  0.91137571372E+03  0.12699999809E+01 0.  1.
       -4    1    3    3    0  502  0.87461631855E+03  0.25386198151E+03 -0.15232966842E+04  0.17747771723E+04  0.12699999809E+01 0. -1.
</event>
<event>
 5   0  0.1866935E-05  0.2211227E+04  0.7818609E-02  0.8513770E-01
        1   -1    0    0  501    0  0.00000000000E+00  0.00000000000E+00  0.12523858827E+04  0.12523858827E+04  0.50400001928E-02 0.  1.
       -1   -1    0    0    0  501  0.00000000000E+00  0.00000000000E+00 -0.97604162705E+03  0.97604162706E+03  0.50400001928E-02 0. -1.
    10030    2    1    2    0    0  0.00000000000E+00  0.00000000000E+00  0.27634425562E+03  0.22284275097E+04  0.22112265869E+04 0.  0.
        4    1    3    3  502    0 -0.81759459948E+03 -0.73535880508E+03  0.22537938842E+02  0.10998741168E+04  0.12699999809E+01 0.  1.
       -4    1    3    3    0  502  0.81759459948E+03  0.73535880508E+03  0.25380631678E+03  0.11285533929E+04  0.12699999809E+01 0. -1.
</event>
<event>
 5   0  0.1815681E-05  0.2198887E+04  0.7818609E-02  0.8518891E-01
       -1   -1    0    0    0  501  0.00000000000E+00  0.00000000000E+00  0.44226747613E+03  0.44226747616E+03  0.50400001928E-02 0.  1.
        1   -1    0    0  501    0  0.00000000000E+00  0.00000000000E+00 -0.27331342315E+04  0.27331342315E+04  0.50400001928E-02 0. -1.
    10030    2    1    2    0    0  0.00000000000E+00  0.00000000000E+00 -0.22908667554E+04  0.31754017077E+04  0.21988873355E+04 0.  0.
        2    1    3    3  502    0 -0.75999793527E+03 -0.19468550318E+03 -0.22577398859E+04  0.23901649942E+04  0.25500000920E-02 0. -1.
       -2    1    3    3    0  502  0.75999793527E+03  0.19468550318E+03 -0.33126869447E+02  0.78523671351E+03  0.25500000920E-02 0.  1.
</event>
<event>
 5   0  0.3963414E-05  0.2215817E+04  0.7818609E-02  0.8511874E-01
        2   -1    0    0  501    0  0.00000000000E+00  0.00000000000E+00  0.10366370440E+04  0.10366370440E+04  0.25500000920E-02 0. -1.
       -2   -1    0    0    0  501  0.00000000000E+00  0.00000000000E+00 -0.11840796430E+04  0.11840796430E+04  0.25500000920E-02 0.  1.
    10030    2    1    2    0    0  0.00000000000E+00  0.00000000000E+00 -0.14744259904E+03  0.22207166869E+04  0.22158166178E+04 0.  0.
        1    1    3    3  502    0 -0.50853721078E+03  0.19146478578E+03 -0.10413573001E+04  0.11746037142E+04  0.50400001928E-02 0.  1.
       -1    1    3    3    0  502  0.50853721078E+03 -0.19146478578E+03  0.89391470106E+03  0.10461129727E+04  0.50400001928E-02 0. -1.
</event>
<event>
 5   0  0.4027923E-05  0.2200555E+04  0.7818609E-02  0.8518197E-01
        2   -1    0    0  501    0  0.00000000000E+00  0.00000000000E+00  0.77407092175E+03  0.77407092175E+03  0.25500000920E-02 0. -1.
       -2   -1    0    0    0  501  0.00000000000E+00  0.00000000000E+00 -0.15639530959E+04  0.15639530959E+04  0.25500000920E-02 0.  1.
    10030    2    1    2    0    0  0.00000000000E+00  0.00000000000E+00 -0.78988217420E+03  0.23380240177E+04  0.22005550341E+04 0.  0.
        5    1    3    3  502    0  0.40090019344E+03 -0.59287254693E+03 -0.12828316271E+04  0.14689785211E+04  0.46999998093E+01 0.  1.
       -5    1    3    3    0  502 -0.40090019344E+03  0.59287254693E+03  0.49294945291E+03  0.86904549658E+03  0.46999998093E+01 0. -1.
</event>
<event>
 5   0  0.4029532E-05  0.2165233E+04  0.7818609E-02  0.8533040E-01
       -2   -1    0    0    0  501  0.00000000000E+00  0.00000000000E+00  0.49249018097E+03  0.49249018098E+03  0.25500000920E-02 0. -1.
        2   -1    0    0  501    0  0.00000000000E+00  0.00000000000E+00 -0.23798620020E+04  0.23798620020E+04  0.25500000920E-02 0.  1.
    10030    2    1    2    0    0  0.00000000000E+00  0.00000000000E+00 -0.18873718210E+04  0.28723521829E+04  0.21652331681E+04 0.  0.
        3    1    3    3  502    0  0.10295470731E+04  0.12026698147E+03 -0.13581803749E+04  0.17085330736E+04  0.10100000352E+00 0. -1.
       -3    1    3    3    0  502 -0.10295470731E+04 -0.12026698147E+03 -0.52919144609E+03  0.11638191094E+04  0.10100000352E+00 0.  1.
</event>
<event>
 5   0  0.1866935E-05  0.2184248E+04  0.7818609E-02  0.8525013E-01
        1   -1    0    0  501    0  0.00000000000E+00  0.00000000000E+00  0.11800830687E+04  0.11800830687E+04  0.50400001928E-02 0.  1.
       -1   -1    0    0    0  501  0.00000000000E+00  0.00000000000E+00 -0.10107212979E+04  0.10107212979E+04  0.50400001928E-02 0. -1.
    10030    2    1    2    0    0  0.00000000000E+00  0.00000000000E+00  0.16936177077E+03  0.21908043666E+04  0.21842482376E+04 0.  0.
        4    1    3    3  502    0  0.10306029291E+03 -0.86509834640E+03 -0.57586771839E+03  0.10443379792E+04  0.12699999809E+01 0. -1.
       -4    1    3    3    0  502 -0.10306029291E+03  0.86509834640E+03  0.74522948916E+03  0.11464663873E+04  0.12699999809E+01 0.  1.
</event>
<event>
 5   0  0.3963414E-05  0.2160837E+04  0.7818609E-02  0.8534908E-01
        2   -1    0    0  501    0  0.00000000000E+00  0.00000000000E+00  0.84795478514E+03  0.84795478514E+03  0.25500000920E-02 0. -1.
       -2   -1    0    0    0  501  0.00000000000E+00  0.00000000000E+00 -0.13766110386E+04  0.13766110386E+04  0.25500000920E-02 0.  1.
    10030    2    1    2    0    0  0.00000000000E+00  0.00000000000E+00 -0.52865625350E+03  0.22245658238E+04  0.21608367985E+04 0.  0.
        1    1    3    3  502    0 -0.73469948787E+03  0.79213591058E+03 -0.25771375450E+03  0.11107110415E+04  0.50400001928E-02 0. -1.
       -1    1    3    3    0  502  0.73469948787E+03 -0.79213591058E+03 -0.27094249900E+03  0.11138547823E+04  0.50400001928E-02 0.  1.
</event>
<event>
 5   0  0.1866935E-05  0.2154420E+04  0.7818609E-02  0.8537642E-01
        1   -1    0    0  501    0  0.00000000000E+00  0.00000000000E+00  0.11765854950E+04  0.11765854951E+04  0.50400001928E-02 0. -1.
       -1   -1    0    0    0  501  0.00000000000E+00  0.00000000000E+00 -0.98622822533E+03  0.98622822534E+03  0.50400001928E-02 0.  1.
    10030    2    1    2    0    0  0.00000000000E+00  0.00000000000E+00  0.19035726971E+03  0.21628137204E+04  0.21544204091E+04 0.  0.
        4    1    3    3  502    0 -0.65434427607E+03 -0.55237993697E+03 -0.56088876358E+03  0.10236639314E+04  0.12699999809E+01 0. -1.
       -4    1    3    3    0  502  0.65434427607E+03  0.55237993697E+03  0.75124603329E+03  0.11391497890E+04  0.12699999809E+01 0.  1.
</event>
<event>
 5   0  0.4029532E-05  0.2190440E+04  0.7818609E-02  0.8522418E-01
        2   -1    0    0  501    0  0.00000000000E+00  0.00000000000E+00  0.16619003262E+04  0.16619003262E+04  0.25500000920E-02 0. -1.
       -2   -1    0    0    0  501  0.00000000000E+00  0.00000000000E+00 -0.72176821727E+03  0.72176821727E+03  0.25500000920E-02 0.  1.
    10030    2    1    2    0    0  0.00000000000E+00  0.00000000000E+00  0.94013210889E+03  0.23836685434E+04  0.21904399884E+04 0.  0.
        3    1    3    3  502    0 -0.10878905115E+04 -0.59687074884E+02  0.59143253170E+03  0.12397018842E+04  0.10100000352E+00 0. -1.
       -3    1    3    3    0  502  0.10878905115E+04  0.59687074884E+02  0.34869957719E+03  0.11439666592E+04  0.10100000352E+00 0.  1.
</event>
<event>
 5   0  0.4132460E-05  0.2202673E+04  0.7818609E-02  0.8517316E-01
       -2   -1    0    0    0  501  0.00000000000E+00  0.00000000000E+00  0.65188678628E+03  0.65188678628E+03  0.25500000920E-02 0.  1.
        2   -1    0    0  501    0  0.00000000000E+00  0.00000000000E+00 -0.18606638831E+04  0.18606638831E+04  0.25500000920E-02 0. -1.
    10030    2    1    2    0    0  0.00000000000E+00  0.00000000000E+00 -0.12087770969E+04  0.25125506694E+04  0.22026731025E+04 0.  0.
        4    1    3    3  502    0  0.83181729001E+03  0.48707595491E+02 -0.14258764992E+04  0.16514895815E+04  0.12699999809E+01 0. -1.
       -4    1    3    3    0  502 -0.83181729001E+03 -0.48707595491E+02  0.21709940234E+03  0.86106108796E+03  0.12699999809E+01 0.  1.
</event>
<event>
 5   0  0.1788413E-05  0.2206355E+04  0.7818609E-02  0.8515788E-01
        1   -1    0    0  501    0  0.00000000000E+00  0.00000000000E+00  0.62193124076E+03  0.62193124078E+03  0.50400001928E-02 0.  1.
       -1   -1    0    0    0  501  0.00000000000E+00  0.00000000000E+00 -0.19568092436E+04  0.19568092436E+04  0.50400001928E-02 0. -1.
    10030    2    1    2    0    0  0.00000000000E+00  0.00000000000E+00 -0.13348780028E+04  0.25787404844E+04  0.22063551852E+04 0.  0.
        1    1    3    3  502    0 -0.91805176777E+03  0.22178527702E+03 -0.11398760600E+01  0.94446231092E+03  0.50400001928E-02 0.  1.
       -1    1    3    3    0  502  0.91805176777E+03 -0.22178527702E+03 -0.13337381268E+04  0.16342781735E+04  0.50400001928E-02 0. -1.
</event>
<event>
 5   0  0.3963414E-05  0.2187749E+04  0.7818609E-02  0.8523545E-01
       -2   -1    0    0    0  501  0.00000000000E+00  0.00000000000E+00  0.50867072160E+03  0.50867072160E+03  0.25500000920E-02 0.  1.
        2   -1    0    0  501    0  0.00000000000E+00  0.00000000000E+00 -0.23523304301E+04  0.23523304301E+04  0.25500000920E-02 0. -1.
    10030    2    1    2    0    0  0.00000000000E+00  0.00000000000E+00 -0.18436597085E+04  0.28610011517E+04  0.21877491788E+04 0.  0.
        1    1    3    3  502    0  0.71987947274E+03  0.82230179448E+03 -0.98253648940E+03  0.14696205801E+04  0.50400001928E-02 0. -1.
       -1    1    3    3    0  502 -0.71987947274E+03 -0.82230179448E+03 -0.86112321908E+03  0.13913805716E+04  0.50400001928E-02 0.  1.
</event>
<event>
 5   0  0.1786228E-05  0.2201431E+04  0.7818609E-02  0.8517833E-01
       -1   -1    0    0    0  501  0.00000000000E+00  0.00000000000E+00  0.56290201236E+03  0.56290201238E+03  0.50400001928E-02 0.  1.
        1   -1    0    0  501    0  0.00000000000E+00  0.00000000000E+00 -0.21523726456E+04  0.21523726456E+04  0.50400001928E-02 0. -1.
    10030    2    1    2    0    0  0.00000000000E+00  0.00000000000E+00 -0.15894706333E+04  0.27152746580E+04  0.22014312559E+04 0.  0.
        5    1    3    3  502    0  0.50395694475E+03  0.42691138247E+03  0.29131777567E+03  0.72188230832E+03  0.46999998093E+01 0.  1.
       -5    1    3    3    0  502 -0.50395694475E+03 -0.42691138247E+03 -0.18807884089E+04  0.19933923497E+04  0.46999998093E+01 0. -1.
</event>
<event>
 5   0  0.1786228E-05  0.2193799E+04  0.7818609E-02  0.8521013E-01
        1   -1    0    0  501    0  0.00000000000E+00  0.00000000000E+00  0.15604445860E+04  0.15604445860E+04  0.50400001928E-02 0.  1.
       -1   -1    0    0    0  501  0.00000000000E+00  0.00000000000E+00 -0.77105512094E+03  0.77105512096E+03  0.50400001928E-02 0. -1.
    10030    2    1    2    0    0  0.00000000000E+00  0.00000000000E+00  0.78938946506E+03  0.23314997070E+04  0.21937992515E+04 0.  0.
        5    1    3    3  502    0  0.21494739288E+03 -0.40888654538E+03 -0.66262652754E+03  0.80776642274E+03  0.46999998093E+01 0. -1.
       -5    1    3    3    0  502 -0.21494739288E+03  0.40888654538E+03  0.14520159926E+04  0.15237332842E+04  0.46999998093E+01 0.  1.
</event>
<event>
 5   0  0.1866935E-05  0.2217071E+04  0.7818609E-02  0.8511356E-01
        1   -1    0    0  501    0  0.00000000000E+00  0.00000000000E+00  0.90685897411E+03  0.90685897412E+03  0.50400001928E-02 0. -1.
       -1   -1    0    0    0  501  0.00000000000E+00  0.00000000000E+00 -0.13550626834E+04  0.13550626834E+04  0.50400001928E-02 0.  1.
    10030    2    1    2    0    0  0.00000000000E+00  0.00000000000E+00 -0.44820370929E+03  0.22619216575E+04  0.22170708198E+04 0.  0.
        4    1    3    3  502    0  0.47977356825E+03  0.78630632839E+03 -0.85333539908E+03  0.12556445497E+04  0.12699999809E+01 0.  1.
       -4    1    3    3    0  502 -0.47977356825E+03 -0.78630632839E+03  0.40513168979E+03  0.10062771079E+04  0.12699999809E+01 0. -1.
</event>
<event>
 5   0  0.1884407E-05  0.2193171E+04  0.7818609E-02  0.8521276E-01
        1   -1    0    0  501    0  0.00000000000E+00  0.00000000000E+00  0.13456375430E+04  0.13456375430E+04  0.50400001928E-02 0. -1.
       -1   -1    0    0    0  501  0.00000000000E+00  0.00000000000E+00 -0.89362842217E+03  0.89362842219E+03  0.50400001928E-02 0.  1.
    10030    2    1    2    0    0  0.00000000000E+00  0.00000000000E+00  0.45200912084E+03  0.22392659652E+04  0.21931711784E+04 0.  0.
        3    1    3    3  502    0  0.97830800372E+03  0.25963460781E+03 -0.20476710858E+03  0.10326791654E+04  0.10100000352E+00 0.  1.
       -3    1    3    3    0  502 -0.97830800372E+03 -0.25963460781E+03  0.65677622942E+03  0.12065867998E+04  0.10100000352E+00 0. -1.
</event>
<event>
 5   0  0.1884407E-05  0.2202406E+04  0.7818609E-02  0.8517427E-01
       -1   -1    0    0    0  501  0.00000000000E+00  0.00000000000E+00  0.72956914721E+03  0.72956914723E+03  0.50400001928E-02 0.  1.
        1   -1    0    0  501    0  0.00000000000E+00  0.00000000000E+00 -0.16621433659E+04  0.16621433659E+04  0.50400001928E-02 0. -1.
    10030    2    1    2    0    0  0.00000000000E+00  0.00000000000E+00 -0.93257421872E+03  0.23917125132E+04  0.22024064276E+04 0.  0.
        3    1    3    3  502    0 -0.25467254220E+03  0.60682321045E+03  0.49252865935E+03  0.82199574389E+03  0.10100000352E+00 0.  1.
       -3    1    3    3    0  502  0.25467254220E+03 -0.60682321045E+03 -0.14251028781E+04  0.15697167693E+04  0.10100000352E+00 0. -1.
</event>
<event>
 5   0  0.1866935E-05  0.2209146E+04  0.7818609E-02  0.8514631E-01
       -1   -1    0    0    0  501  0.00000000000E+00  0.00000000000E+00  0.10255940837E+04  0.10255940837E+04  0.50400001928E-02 0. -1.
        1   -1    0    0  501    0  0.00000000000E+00  0.00000000000E+00 -0.11896339201E+04  0.11896339201E+04  0.50400001928E-02 0.  1.
    10030    2    1    2    0    0  0.00000000000E+00  0.00000000000E+00 -0.16403983642E+03  0.22152280038E+04  0.22091459981E+04 0.  0.
        4    1    3    3  502    0 -0.37407883182E+02 -0.85242338329E+03 -0.78541739347E+03  0.11597012844E+04  0.12699999809E+01 0.  1.
       -4    1    3    3    0  502  0.37407883182E+02  0.85242338329E+03  0.62137755706E+03  0.10555267194E+04  0.12699999809E+01 0. -1.
</event>
<event>
 5   0  0.1884407E-05  0.2199195E+04  0.7818609E-02  0.8518763E-01
       -1   -1    0    0    0  501  0.00000000000E+00  0.00000000000E+00  0.64015227262E+03  0.64015227264E+03  0.50400001928E-02 0. -1.
        1   -1    0    0  501    0  0.00000000000E+00  0.00000000000E+00 -0.18887930586E+04  0.18887930586E+04  0.50400001928E-02 0.  1.
    10030    2    1    2    0    0  0.00000000000E+00  0.00000000000E+00 -0.12486407860E+04  0.25289453313E+04  0.21991954611E+04 0.  0.
        3    1    3    3  502    0  0.76236620152E+03 -0.10542304340E+03 -0.15274444510E+04  0.17103808945E+04  0.10100000352E+00 0.  1.
       -3    1    3    3    0  502 -0.76236620152E+03  0.10542304340E+03  0.27880366499E+03  0.81856443675E+03  0.10100000352E+00 0. -1.
</event>
<event>
 5   0  0.1788413E-05  0.2195027E+04  0.7818609E-02  0.8520501E-01
        1   -1    0    0  501    0  0.00000000000E+00  0.00000000000E+00  0.11882781381E+04  0.11882781381E+04  0.50400001928E-02 0. -1.
       -1   -1    0    0    0  501  0.00000000000E+00  0.00000000000E+00 -0.10136820446E+04  0.10136820446E+04  0.50400001928E-02 0.  1.
    10030    2    1    2    0    0  0.00000000000E+00  0.00000000000E+00  0.17459609347E+03  0.22019601827E+04  0.21950273006E+04 0.  0.
        1    1    3    3  502    0  0.56725168357E+03 -0.68206774973E+03 -0.56092034358E+03  0.10495820690E+04  0.50400001928E-02 0.  1.
       -1    1    3    3    0  502 -0.56725168357E+03  0.68206774973E+03  0.73551643705E+03  0.11523781137E+04  0.50400001928E-02 0. -1.
</event>
<event>
 5   0  0.1786228E-05  0.2195936E+04  0.7818609E-02  0.8520122E-01
        1   -1    0    0  501    0  0.00000000000E+00  0.00000000000E+00  0.11513831006E+04  0.11513831007E+04  0.50400001928E-02 0.  1.
       -1   -1    0    0    0  501  0.00000000000E+00  0.00000000000E+00 -0.10470308757E+04  0.10470308757E+04  0.50400001928E-02 0. -1.
    10030    2    1    2    0    0  0.00000000000E+00  0.00000000000E+00  0.10435222496E+03  0.21984139764E+04  0.21959359336E+04 0.  0.
        5    1    3    3  502    0  0.94626144580E+02  0.63527699200E+01 -0.10429125080E+04  0.10472263625E+04  0.46999998093E+01 0. -1.
       -5    1    3    3    0  502 -0.94626144580E+02 -0.63527699200E+01  0.11472647329E+04  0.11511876139E+04  0.46999998093E+01 0.  1.
</event>
<event>
 5   0  0.4029532E-05  0.2205231E+04  0.7818609E-02  0.8516254E-01
        2   -1    0    0  501    0  0.00000000000E+00  0.00000000000E+00  0.75151478304E+03  0.75151478304E+03  0.25500000920E-02 0. -1.
       -2   -1    0    0    0  501  0.00000000000E+00  0.00000000000E+00 -0.16177470142E+04  0.16177470142E+04  0.25500000920E-02 0.  1.
    10030    2    1    2    0    0  0.00000000000E+00  0.00000000000E+00 -0.86623223118E+03  0.23692617973E+04  0.22052308690E+04 0.  0.
        3    1    3    3  502    0  0.19416823278E+03 -0.78651652522E+03 -0.12367164498E+04  0.14784373962E+04  0.10100000352E+00 0.  1.
       -3    1    3    3    0  502 -0.19416823278E+03  0.78651652522E+03  0.37048421863E+03  0.89082440106E+03  0.10100000352E+00 0. -1.
</event>
<event>
 5   0  0.4143281E-05  0.2204716E+04  0.7818609E-02  0.8516468E-01
        2   -1    0    0  501    0  0.00000000000E+00  0.00000000000E+00  0.15284985629E+04  0.15284985629E+04  0.25500000920E-02 0.  1.
       -2   -1    0    0    0  501  0.00000000000E+00  0.00000000000E+00 -0.79502425053E+03  0.79502425054E+03  0.25500000920E-02 0. -1.
    10030    2    1    2    0    0  0.00000000000E+00  0.00000000000E+00  0.73347431236E+03  0.23235228134E+04  0.22047162397E+04 0.  0.
        2    1    3    3  502    0 -0.73374292118E+03  0.48304886031E+03 -0.33509061410E+03  0.94021305856E+03  0.25500000920E-02 0. -1.
       -2    1    3    3    0  502  0.73374292118E+03 -0.48304886031E+03  0.10685649265E+04  0.13833097549E+04  0.25500000920E-02 0.  1.
</event>
<event>
 5   0  0.1786228E-05  0.2191709E+04  0.7818609E-02  0.8521887E-01
        1   -1    0    0  501    0  0.00000000000E+00  0.00000000000E+00  0.13480544521E+04  0.13480544521E+04  0.50400001928E-02 0.  1.
       -1   -1    0    0    0  501  0.00000000000E+00  0.00000000000E+00 -0.89083739696E+03  0.89083739698E+03  0.50400001928E-02 0. -1.
    10030    2    1    2    0    0  0.00000000000E+00  0.00000000000E+00  0.45721705518E+03  0.22388918491E+04  0.21917092135E+04 0.  0.
        5    1    3    3  502    0 -0.85472682528E+03 -0.59085382882E+03 -0.12703726975E+03  0.10468174391E+04  0.46999998093E+01 0. -1.
       -5    1    3    3    0  502  0.85472682528E+03  0.59085382882E+03  0.58425432493E+03  0.11920744100E+04  0.46999998093E+01 0.  1.
</event>
<event>
 5   0  0.4029532E-05  0.2192413E+04  0.7818609E-02  0.8521593E-01
        2   -1    0    0  501    0  0.00000000000E+00  0.00000000000E+00  0.13032370893E+04  0.13032370893E+04  0.25500000920E-02 0.  1.
       -2   -1    0    0    0  501  0.00000000000E+00  0.00000000000E+00 -0.92206423275E+03  0.92206423275E+03  0.25500000920E-02 0. -1.
    10030    2    1    2    0    0  0.00000000000E+00  0.00000000000E+00  0.38117285654E+03  0.22253013220E+04  0.21924126499E+04 0.  0.
        3    1    3    3  502    0  0.69344102379E+03  0.82260618871E+03 -0.22628811521E+02  0.10761289274E+04  0.10100000352E+00 0. -1.
       -3    1    3    3    0  502 -0.69344102379E+03 -0.82260618871E+03  0.40380166806E+03  0.11491723946E+04  0.10100000352E+00 0.  1.
</event>
<event>
 5   0  0.3963414E-05  0.2214705E+04  0.7818609E-02  0.8512332E-01
        2   -1    0    0  501    0  0.00000000000E+00  0.00000000000E+00  0.13250507664E+04  0.13250507664E+04  0.25500000920E-02 0. -1.
       -2   -1    0    0    0  501  0.00000000000E+00  0.00000000000E+00 -0.92542121303E+03  0.92542121304E+03  0.25500000920E-02 0.  1.
    10030    2    1    2    0    0  0.00000000000E+00  0.00000000000E+00  0.39962955340E+03  0.22504719795E+04  0.22147054771E+04 0.  0.
        1    1    3    3  502    0  0.35497401264E+03  0.69068794299E+03 -0.60234741694E+03  0.98279132829E+03  0.50400001928E-02 0.  1.
       -1    1    3    3    0  502 -0.35497401264E+03 -0.69068794299E+03  0.10019769703E+04  0.12676806512E+04  0.50400001928E-02 0. -1.
</event>
<event>
 5   0  0.4132460E-05  0.2180439E+04  0.7818609E-02  0.8526614E-01
        2   -1    0    0  501    0  0.00000000000E+00  0.00000000000E+00  0.14858411777E+04  0.14858411777E+04  0.25500000920E-02 0.  1.
       -2   -1    0    0    0  501  0.00000000000E+00  0.00000000000E+00 -0.79993674747E+03  0.79993674747E+03  0.25500000920E-02 0. -1.
    10030    2    1    2    0    0  0.00000000000E+00  0.00000000000E+00  0.68590443025E+03  0.22857779252E+04  0.21804393676E+04 0.  0.
        4    1    3    3  502    0 -0.86045786465E+03 -0.87093255318E+02  0.10388002768E+04  0.13516954538E+04  0.12699999809E+01 0.  1.
       -4    1    3    3    0  502  0.86045786465E+03  0.87093255318E+02 -0.35289584650E+03  0.93408247138E+03  0.12699999809E+01 0. -1.
</event>
<event>
 5   0  0.4143281E-05  0.2201092E+04  0.7818609E-02  0.8517974E-01
        2   -1    0    0  501    0  0.00000000000E+00  0.00000000000E+00  0.16488543737E+04  0.16488543737E+04  0.25500000920E-02 0. -1.
       -2   -1    0    0    0  501  0.00000000000E+00  0.00000000000E+00 -0.73457167489E+03  0.73457167490E+03  0.25500000920E-02 0.  1.
    10030    2    1    2    0    0  0.00000000000E+00  0.00000000000E+00  0.91428269876E+03  0.23834260486E+04  0.22010922006E+04 0.  0.
        2    1    3    3  502    0 -0.31059701115E+03  0.79282909495E+03  0.12121467177E+04  0.14813332313E+04  0.25500000920E-02 0.  1.
       -2    1    3    3    0  502  0.31059701115E+03 -0.79282909495E+03 -0.29786401889E+03  0.90209281722E+03  0.25500000920E-02 0. -1.
</event>
<event>
 5   0  0.1786228E-05  0.2201629E+04  0.7818609E-02  0.8517750E-01
       -1   -1    0    0    0  501  0.00000000000E+00  0.00000000000E+00  0.68302735606E+03  0.68302735608E+03  0.50400001928E-02 0. -1.
        1   -1    0    0  501    0  0.00000000000E+00  0.00000000000E+00 -0.17741492976E+04  0.17741492976E+04  0.50400001928E-02 0.  1.
    10030    2    1    2    0    0  0.00000000000E+00  0.00000000000E+00 -0.10911219415E+04  0.24571766537E+04  0.22016289460E+04 0.  0.
        5    1    3    3  502    0  0.39250330393E+03 -0.51668271003E+03  0.44689672674E+03  0.78788237752E+03  0.46999998093E+01 0. -1.
       -5    1    3    3    0  502 -0.39250330393E+03  0.51668271003E+03 -0.15380186683E+04  0.16692942761E+04  0.46999998093E+01 0.  1.
</event>
<event>
 5   0  0.4143281E-05  0.2341477E+04  0.7818609E-02  0.8461744E-01
       -2   -1    0    0    0  501  0.00000000000E+00  0.00000000000E+00  0.81127493401E+03  0.81127493402E+03  0.25500000920E-02 0.  1.
        2   -1    0    0  501    0  0.00000000000E+00  0.00000000000E+00 -0.16894753165E+04  0.16894753165E+04  0.25500000920E-02 0. -1.
    10030    2    1    2    0    0  0.00000000000E+00  0.00000000000E+00 -0.87820038246E+03  0.25007502505E+04  0.23414772909E+04 0.  0.
        2    1    3    3  502    0  0.17088398411E+03 -0.11573927428E+04 -0.39291913432E+03  0.12341575034E+04  0.25500000920E-02 0. -1.
       -2    1    3    3    0  502 -0.17088398411E+03  0.11573927428E+04 -0.48528124814E+03  0.12665927471E+04  0.25500000920E-02 0.  1.
</event>
<event>
 5   0  0.1786228E-05  0.2200750E+04  0.7818609E-02  0.8518116E-01
       -1   -1    0    0    0  501  0.00000000000E+00  0.00000000000E+00  0.75829766370E+03  0.75829766372E+03  0.50400001928E-02 0.  1.
        1   -1    0    0  501    0  0.00000000000E+00  0.00000000000E+00 -0.15967669849E+04  0.15967669849E+04  0.50400001928E-02 0. -1.
    10030    2    1    2    0    0  0.00000000000E+00  0.00000000000E+00 -0.83846932118E+03  0.23550646486E+04  0.22007495761E+04 0.  0.
        5    1    3    3  502    0  0.79666772882E+03  0.54066377592E+03  0.15085456922E+03  0.97456450777E+03  0.46999998093E+01 0.  1.
       -5    1    3    3    0  502 -0.79666772882E+03 -0.54066377592E+03 -0.98932389040E+03  0.13805001408E+04  0.46999998093E+01 0. -1.
</event>
<event>
 5   0  0.1815681E-05  0.2241165E+04  0.7818609E-02  0.8501487E-01
       -1   -1    0    0    0  501  0.00000000000E+00  0.00000000000E+00  0.75005617723E+03  0.75005617725E+03  0.50400001928E-02 0. -1.
        1   -1    0    0  501    0  0.00000000000E+00  0.00000000000E+00 -0.16741476201E+04  0.16741476201E+04  0.50400001928E-02 0.  1.
    10030    2    1    2    0    0  0.00000000000E+00  0.00000000000E+00 -0.92409144290E+03  0.24242037974E+04  0.22411646652E+04 0.  0.
        2    1    3    3  502    0  0.69454529607E+03  0.80843501266E+03 -0.83634846814E+03  0.13547837828E+04  0.25500000920E-02 0.  1.
       -2    1    3    3    0  502 -0.69454529607E+03 -0.80843501266E+03 -0.87742974763E+02  0.10694200146E+04  0.25500000920E-02 0. -1.
</event>
<event>
 5   0  0.1815681E-05  0.2174079E+04  0.7818609E-02  0.8529295E-01
       -1   -1    0    0    0  501  0.00000000000E+00  0.00000000000E+00  0.72121491193E+03  0.72121491195E+03  0.50400001928E-02 0.  1.
        1   -1    0    0  501    0  0.00000000000E+00  0.00000000000E+00 -0.16384226092E+04  0.16384226092E+04  0.50400001928E-02 0. -1.
    10030    2    1    2    0    0  0.00000000000E+00  0.00000000000E+00 -0.91720769731E+03  0.23596375212E+04  0.21740789478E+04 0.  0.
        2    1    3    3  502    0  0.55620373868E+03  0.92050659803E+03 -0.63007486579E+03  0.12464707507E+04  0.25500000920E-02 0. -1.
       -2    1    3    3    0  502 -0.55620373868E+03 -0.92050659803E+03 -0.28713283152E+03  0.11131667705E+04  0.25500000920E-02 0.  1.
</event>
<event>
 5   0  0.1866935E-05  0.2213543E+04  0.7818609E-02  0.8512812E-01
        1   -1    0    0  501    0  0.00000000000E+00  0.00000000000E+00  0.10257608685E+04  0.10257608685E+04  0.50400001928E-02 0.  1.
       -1   -1    0    0    0  501  0.00000000000E+00  0.00000000000E+00 -0.11941802804E+04  0.11941802804E+04  0.50400001928E-02 0. -1.
    10030    2    1    2    0    0  0.00000000000E+00  0.00000000000E+00 -0.16841941186E+03  0.22199411490E+04  0.22135432245E+04 0.  0.
        4    1    3    3  502    0 -0.13978230079E+03 -0.31525335258E+03 -0.11389233300E+04  0.11899881228E+04  0.12699999809E+01 0. -1.
       -4    1    3    3    0  502  0.13978230079E+03  0.31525335258E+03  0.97050391817E+03  0.10299530261E+04  0.12699999809E+01 0.  1.
</event>
<event>
 5   0  0.3963414E-05  0.2206471E+04  0.7818609E-02  0.8515740E-01
       -2   -1    0    0    0  501  0.00000000000E+00  0.00000000000E+00  0.13255089288E+04  0.13255089288E+04  0.25500000920E-02 0. -1.
        2   -1    0    0  501    0  0.00000000000E+00  0.00000000000E+00 -0.91823489714E+03  0.91823489714E+03  0.25500000920E-02 0.  1.
    10030    2    1    2    0    0  0.00000000000E+00  0.00000000000E+00  0.40727403162E+03  0.22437438259E+04  0.22064709877E+04 0.  0.
        1    1    3    3  502    0 -0.82555440486E+03 -0.63002346752E+03 -0.17502255660E+03  0.10531393737E+04  0.50400001928E-02 0.  1.
       -1    1    3    3    0  502  0.82555440486E+03  0.63002346752E+03  0.58229658822E+03  0.11906044522E+04  0.50400001928E-02 0. -1.
</event>
<event>
 5   0  0.4132460E-05  0.2227999E+04  0.7818609E-02  0.8506864E-01
        2   -1    0    0  501    0  0.00000000000E+00  0.00000000000E+00  0.18688329471E+04  0.18688329471E+04  0.25500000920E-02 0.  1.
       -2   -1    0    0    0  501  0.00000000000E+00  0.00000000000E+00 -0.66404829955E+03  0.66404829955E+03  0.25500000920E-02 0. -1.
    10030    2    1    2    0    0  0.00000000000E+00  0.00000000000E+00  0.12047846475E+04  0.25328812466E+04  0.22279994081E+04 0.  0.
        4    1    3    3  502    0  0.88898184903E+02 -0.66633297222E+03 -0.40747276858E+03  0.78609044466E+03  0.12699999809E+01 0. -1.
       -4    1    3    3    0  502 -0.88898184903E+02  0.66633297222E+03  0.16122574161E+04  0.17467908020E+04  0.12699999809E+01 0.  1.
</event>
<event>
 5   0  0.1884407E-05  0.2208790E+04  0.7818609E-02  0.8514778E-01
       -1   -1    0    0    0  501  0.00000000000E+00  0.00000000000E+00  0.85765701611E+03  0.85765701613E+03  0.50400001928E-02 0. -1.
        1   -1    0    0  501    0  0.00000000000E+00  0.00000000000E+00 -0.14221164351E+04  0.14221164351E+04  0.50400001928E-02 0.  1.
    10030    2    1    2    0    0  0.00000000000E+00  0.00000000000E+00 -0.56445941894E+03  0.22797734512E+04  0.22087898391E+04 0.  0.
        3    1    3    3  502    0  0.23386388977E+03  0.90580356061E+03  0.32358779389E+03  0.98988963016E+03  0.10100000352E+00 0. -1.
       -3    1    3    3    0  502 -0.23386388977E+03 -0.90580356061E+03 -0.88804721283E+03  0.12898838210E+04  0.10100000352E+00 0.  1.
</event>
<event>
 5   0  0.4029532E-05  0.2205593E+04  0.7818609E-02  0.8516104E-01
        2   -1    0    0  501    0  0.00000000000E+00  0.00000000000E+00  0.18054159949E+04  0.18054159949E+04  0.25500000920E-02 0. -1.
       -2   -1    0    0    0  501  0.00000000000E+00  0.00000000000E+00 -0.67361788590E+03  0.67361788591E+03  0.25500000920E-02 0.  1.
    10030    2    1    2    0    0  0.00000000000E+00  0.00000000000E+00  0.11317981090E+04  0.24790338808E+04  0.22055933493E+04 0.  0.
        3    1    3    3  502    0 -0.73979920232E+03 -0.55373824493E+02  0.14830189211E+04  0.16582262363E+04  0.10100000352E+00 0. -1.
       -3    1    3    3    0  502  0.73979920232E+03  0.55373824493E+02 -0.35122081212E+03  0.82080764450E+03  0.10100000352E+00 0.  1.
</event>
<event>
 5   0  0.1884407E-05  0.2207520E+04  0.7818609E-02  0.8515305E-01
       -1   -1    0    0    0  501  0.00000000000E+00  0.00000000000E+00  0.92696560268E+03  0.92696560270E+03  0.50400001928E-02 0.  1.
        1   -1    0    0  501    0  0.00000000000E+00  0.00000000000E+00 -0.13142736616E+04  0.13142736616E+04  0.50400001928E-02 0. -1.
    10030    2    1    2    0    0  0.00000000000E+00  0.00000000000E+00 -0.38730805893E+03  0.22412392643E+04  0.22075203074E+04 0.  0.
        3    1    3    3  502    0 -0.69383251706E+03  0.47769964261E+03 -0.91777043816E+03  0.12457540277E+04  0.10100000352E+00 0. -1.
       -3    1    3    3    0  502  0.69383251706E+03 -0.47769964261E+03  0.53046237923E+03  0.99548523658E+03  0.10100000352E+00 0.  1.
</event>
<event>
 5   0  0.1815681E-05  0.2226914E+04  0.7818609E-02  0.8507309E-01
       -1   -1    0    0    0  501  0.00000000000E+00  0.00000000000E+00  0.52657523276E+03  0.52657523278E+03  0.50400001928E-02 0. -1.
        1   -1    0    0  501    0  0.00000000000E+00  0.00000000000E+00 -0.23544346070E+04  0.23544346070E+04  0.50400001928E-02 0.  1.
    10030    2    1    2    0    0  0.00000000000E+00  0.00000000000E+00 -0.18278593743E+04  0.28810098398E+04  0.22269144135E+04 0.  0.
        2    1    3    3  502    0 -0.93193038880E+03  0.38087051206E+03 -0.15292718215E+04  0.18309093097E+04  0.25500000920E-02 0. -1.
       -2    1    3    3    0  502  0.93193038880E+03 -0.38087051206E+03 -0.29858755277E+03  0.10501005300E+04  0.25500000920E-02 0.  1.
</event>
<event>
 5   0  0.4143281E-05  0.2008782E+04  0.7818609E-02  0.8602526E-01
       -2   -1    0    0    0  501  0.00000000000E+00  0.00000000000E+00  0.52529359285E+03  0.52529359286E+03  0.25500000920E-02 0. -1.
        2   -1    0    0  501    0  0.00000000000E+00  0.00000000000E+00 -0.19204527834E+04  0.19204527834E+04  0.25500000920E-02 0.  1.
    10030    2    1    2    0    0  0.00000000000E+00  0.00000000000E+00 -0.13951591905E+04  0.24457463762E+04  0.20087822605E+04 0.  0.
        2    1    3    3  502    0  0.94002574422E+03  0.97972821888E+02 -0.28370199044E+03  0.98677955644E+03  0.25500000920E-02 0. -1.
       -2    1    3    3    0  502 -0.94002574422E+03 -0.97972821888E+02 -0.11114572001E+04  0.14589668198E+04  0.25500000920E-02 0.  1.
</event>
<event>
 5   0  0.1786228E-05  0.2238516E+04  0.7818609E-02  0.8502566E-01
       -1   -1    0    0    0  501  0.00000000000E+00  0.00000000000E+00  0.97557010188E+03  0.97557010189E+03  0.50400001928E-02 0.  1.
        1   -1    0    0  501    0  0.00000000000E+00  0.00000000000E+00 -0.12841089230E+04  0.12841089230E+04  0.50400001928E-02 0. -1.
    10030    2    1    2    0    0  0.00000000000E+00  0.00000000000E+00 -0.30853882108E+03  0.22596790249E+04  0.22385158233E+04 0.  0.
        5    1    3    3  502    0  0.14032107154E+03 -0.76790305956E+03 -0.96394416793E+03  0.12403933089E+04  0.46999998093E+01 0.  1.
       -5    1    3    3    0  502 -0.14032107154E+03  0.76790305956E+03  0.65540534685E+03  0.10192857159E+04  0.46999998093E+01 0. -1.
</event>
<event>
 5   0  0.1788413E-05  0.2199887E+04  0.7818609E-02  0.8518475E-01
        1   -1    0    0  501    0  0.00000000000E+00  0.00000000000E+00  0.17700201048E+04  0.17700201049E+04  0.50400001928E-02 0.  1.
       -1   -1    0    0    0  501  0.00000000000E+00  0.00000000000E+00 -0.68353809960E+03  0.68353809962E+03  0.50400001928E-02 0. -1.
    10030    2    1    2    0    0  0.00000000000E+00  0.00000000000E+00  0.10864820052E+04  0.24535582045E+04  0.21998874323E+04 0.  0.
        1    1    3    3  502    0  0.20455388866E+03 -0.95409895576E+03 -0.22969092072E+02  0.97605055707E+03  0.50400001928E-02 0. -1.
       -1    1    3    3    0  502 -0.20455388866E+03  0.95409895576E+03  0.11094510973E+04  0.14775076474E+04  0.50400001928E-02 0.  1.
</event>
<event>
 5   0  0.4132460E-05  0.2203055E+04  0.7818609E-02  0.8517158E-01
       -2   -1    0    0    0  501  0.00000000000E+00  0.00000000000E+00  0.18363288306E+04  0.18363288306E+04  0.25500000920E-02 0.  1.
        2   -1    0    0  501    0  0.00000000000E+00  0.00000000000E+00 -0.66075439120E+03  0.66075439120E+03  0.25500000920E-02 0. -1.
    10030    2    1    2    0    0  0.00000000000E+00  0.00000000000E+00  0.11755744394E+04  0.24970832218E+04  0.22030545509E+04 0.  0.
        4    1    3    3  502    0 -0.41144721825E+03 -0.85069070761E+03  0.12293691789E+04  0.15505849491E+04  0.12699999809E+01 0.  1.
       -4    1    3    3    0  502  0.41144721825E+03  0.85069070761E+03 -0.53794739456E+02  0.94649827275E+03  0.12699999809E+01 0. -1.
</event>
<event>
 5   0  0.1788413E-05  0.2200044E+04  0.7818609E-02  0.8518410E-01
       -1   -1    0    0    0  501  0.00000000000E+00  0.00000000000E+00  0.10262924614E+04  0.10262924614E+04  0.50400001928E-02 0. -1.
        1   -1    0    0  501    0  0.00000000000E+00  0.00000000000E+00 -0.11790480577E+04  0.11790480577E+04  0.50400001928E-02 0.  1.
    10030    2    1    2    0    0  0.00000000000E+00  0.00000000000E+00 -0.15275559631E+03  0.22053405190E+04  0.22000437570E+04 0.  0.
        1    1    3    3  502    0  0.44115537615E+03 -0.55103201965E+02 -0.10849780126E+04  0.11725321815E+04  0.50400001928E-02 0.  1.
       -1    1    3    3    0  502 -0.44115537615E+03  0.55103201965E+02  0.93222241626E+03  0.10328083376E+04  0.50400001928E-02 0. -1.
</event>
<event>
 5   0  0.4132460E-05  0.2194047E+04  0.7818609E-02  0.8520910E-01
        2   -1    0    0  501    0  0.00000000000E+00  0.00000000000E+00  0.91143388638E+03  0.91143388639E+03  0.25500000920E-02 0. -1.
       -2   -1    0    0    0  501  0.00000000000E+00  0.00000000000E+00 -0.13204040479E+04  0.13204040479E+04  0.25500000920E-02 0.  1.
    10030    2    1    2    0    0  0.00000000000E+00  0.00000000000E+00 -0.40897016152E+03  0.22318379343E+04  0.21940473951E+04 0.  0.
        4    1    3    3  502    0 -0.94481784774E+01  0.53768713054E+03  0.76815495485E+03  0.93768884284E+03  0.12699999809E+01 0. -1.
       -4    1    3    3    0  502  0.94481784774E+01 -0.53768713054E+03 -0.11771251164E+04  0.12941490915E+04  0.12699999809E+01 0.  1.
</event>
<event>
 5   0  0.4027923E-05  0.2198145E+04  0.7818609E-02  0.8519201E-01
       -2   -1    0    0    0  501  0.00000000000E+00  0.00000000000E+00  0.14614683956E+04  0.14614683956E+04  0.25500000920E-02 0. -1.
        2   -1    0    0  501    0  0.00000000000E+00  0.00000000000E+00 -0.82653860812E+03  0.82653860812E+03  0.25500000920E-02 0.  1.
    10030    2    1    2    0    0  0.00000000000E+00  0.00000000000E+00  0.63492978749E+03  0.22880070037E+04  0.21981447209E+04 0.  0.
        5    1    3    3  502    0  0.54743152861E+03  0.51920401458E+03  0.11493130220E+04  0.13748442093E+04  0.46999998093E+01 0. -1.
       -5    1    3    3    0  502 -0.54743152861E+03 -0.51920401458E+03 -0.51438323449E+03  0.91316279446E+03  0.46999998093E+01 0.  1.
</event>
<event>
 5   0  0.1866935E-05  0.2206282E+04  0.7818609E-02  0.8515818E-01
        1   -1    0    0  501    0  0.00000000000E+00  0.00000000000E+00  0.96019480981E+03  0.96019480983E+03  0.50400001928E-02 0.  1.
       -1   -1    0    0    0  501  0.00000000000E+00  0.00000000000E+00 -0.12673682886E+04  0.12673682886E+04  0.50400001928E-02 0. -1.
    10030    2    1    2    0    0  0.00000000000E+00  0.00000000000E+00 -0.30717347879E+03  0.22275630984E+04  0.22062823508E+04 0.  0.
        4    1    3    3  502    0 -0.62638955882E+03  0.50935228109E+02  0.76177849618E+03  0.98755575388E+03  0.12699999809E+01 0.  1.
       -4    1    3    3    0  502  0.62638955882E+03 -0.50935228109E+02 -0.10689519750E+04  0.12400073446E+04  0.12699999809E+01 0. -1.
</event>
<event>
 5   0  0.4027923E-05  0.2199511E+04  0.7818609E-02  0.8518632E-01
        2   -1    0    0  501    0  0.00000000000E+00  0.00000000000E+00  0.14418112546E+04  0.14418112546E+04  0.25500000920E-02 0. -1.
       -2   -1    0    0    0  501  0.00000000000E+00  0.00000000000E+00 -0.83884941882E+03  0.83884941883E+03  0.25500000920E-02 0.  1.
    10030    2    1    2    0    0  0.00000000000E+00  0.00000000000E+00  0.60296183575E+03  0.22806606734E+04  0.21995113393E+04 0.  0.
        5    1    3    3  502    0 -0.30187581289E+03 -0.74162005499E+03 -0.48019647102E+03  0.93367020577E+03  0.46999998093E+01 0.  1.
       -5    1    3    3    0  502  0.30187581289E+03  0.74162005499E+03  0.10831583068E+04  0.13469904676E+04  0.46999998093E+01 0. -1.
</event>
<event>
 5   0  0.1815681E-05  0.2190536E+04  0.7818609E-02  0.8522378E-01
        1   -1    0    0  501    0  0.00000000000E+00  0.00000000000E+00  0.16821257293E+04  0.16821257293E+04  0.50400001928E-02 0.  1.
       -1   -1    0    0    0  501  0.00000000000E+00  0.00000000000E+00 -0.71315239449E+03  0.71315239450E+03  0.50400001928E-02 0. -1.
    10030    2    1    2    0    0  0.00000000000E+00  0.00000000000E+00  0.96897333477E+03  0.23952781238E+04  0.21905359999E+04 0.  0.
        2    1    3    3  502    0  0.81111177757E+03  0.71419065215E+03  0.28998052589E+03  0.11189545606E+04  0.25500000920E-02 0.  1.
       -2    1    3    3    0  502 -0.81111177757E+03 -0.71419065215E+03  0.67899280888E+03  0.12763235631E+04  0.25500000920E-02 0. -1.
</event>
<event>
 5   0  0.4143281E-05  0.2205557E+04  0.7818609E-02  0.8516119E-01
        2   -1    0    0  501    0  0.00000000000E+00  0.00000000000E+00  0.22114376277E+04  0.22114376277E+04  0.25500000920E-02 0. -1.
       -2   -1    0    0    0  501  0.00000000000E+00  0.00000000000E+00 -0.54992290361E+03  0.54992290362E+03  0.25500000920E-02 0.  1.
    10030    2    1    2    0    0  0.00000000000E+00  0.00000000000E+00  0.16615147241E+04  0.27613605313E+04  0.22055568017E+04 0.  0.
        2    1    3    3  502    0 -0.91238850690E+03  0.20876872849E+03  0.15608825784E+04  0.18199976904E+04  0.25500000920E-02 0.  1.
       -2    1    3    3    0  502  0.91238850690E+03 -0.20876872849E+03  0.10063214569E+03  0.94136284092E+03  0.25500000920E-02 0. -1.
</event>
<event>
 5   0  0.1786228E-05  0.2202379E+04  0.7818609E-02  0.8517439E-01
        1   -1    0    0  501    0  0.00000000000E+00  0.00000000000E+00  0.22969556404E+04  0.22969556404E+04  0.50400001928E-02 0. -1.
       -1   -1    0    0    0  501  0.00000000000E+00  0.00000000000E+00 -0.52792389804E+03  0.52792389806E+03  0.50400001928E-02 0.  1.
    10030    2    1    2    0    0  0.00000000000E+00  0.00000000000E+00  0.17690317424E+04  0.28248795385E+04  0.22023785100E+04 0.  0.
        5    1    3    3  502    0  0.42612718954E+02  0.10750862769E+04  0.11852399673E+04  0.16007630108E+04  0.46999998093E+01 0. -1.
       -5    1    3    3    0  502 -0.42612718954E+02 -0.10750862769E+04  0.58379177509E+03  0.12241165277E+04  0.46999998093E+01 0.  1.
</event>
</LesHouchesEvents>
