<LesHouchesEvents version="3.0">
<header>
<!--
#*********************************************************************
#                                                                    *
#                        MadGraph5_aMC@NLO                           *
#                                                                    *
#                           Going Beyond                             *
#                                                                    *
#                   http://madgraph.hep.uiuc.edu                     *
#                   http://madgraph.phys.ucl.ac.be                   *
#                   http://amcatnlo.cern.ch                          *
#                                                                    *
#                     The MadGraph5_aMC@NLO team                     *
#                                                                    *
#....................................................................*
#                                                                    *
# This file contains all the information necessary to reproduce      *
# the events generated:                                              *
#                                                                    *
# 1. software version                                                *
# 2. proc_card          : code generation info including model       *
# 3. param_card         : model primary parameters in the LH format  *
# 4. run_card           : running parameters (collider and cuts)     *
# 5. pythia_card        : present only if pythia has been run        *
# 6. pgs_card           : present only if pgs has been run           *
# 7. delphes_cards      : present only if delphes has been run       *
#                                                                    *
#                                                                    *
#*********************************************************************
-->
<MGVersion>
#5.2.2.3
</MGVersion>
<MG5ProcCard>
#************************************************************
#*                     MadGraph5_aMC@NLO                    *
#*                                                          *
#*                *                       *                 *
#*                  *        * *        *                   *
#*                    * * * * 5 * * * *                     *
#*                  *        * *        *                   *
#*                *                       *                 *
#*                                                          *
#*                                                          *
#*         VERSION 2.2.3                 2015-02-10         *
#*                                                          *
#*    The MadGraph5_aMC@NLO Development Team - Find us at   *
#*    https://server06.fynu.ucl.ac.be/projects/madgraph     *
#*                                                          *
#************************************************************
#*                                                          *
#*               Command File for MadGraph5_aMC@NLO         *
#*                                                          *
#*     run as ./bin/mg5_aMC  filename                       *
#*                                                          *
#************************************************************
set group_subprocesses Auto
set ignore_six_quark_processes False
set loop_optimized_output True
set gauge unitary
set complex_mass_scheme False
import model sm
define p = g u c d s u~ c~ d~ s~
define j = g u c d s u~ c~ d~ s~
define l+ = e+ mu+
define l- = e- mu-
define vl = ve vm vt
define vl~ = ve~ vm~ vt~
import model Zprime_UFO
generate p p > zph, zph > j j
add process p p > zph, zph > b b~
output Dijet_signal
</MG5ProcCard>
<MGProcCard>
#*********************************************************************
#                        MadGraph/MadEvent                           *
#                   http://madgraph.hep.uiuc.edu                     *
#                                                                    *
#                          proc_card.dat                             *
#*********************************************************************
#                                                                    *
#            This Files is generated by MADGRAPH 5                   *
#                                                                    *
# WARNING: This Files is generated for MADEVENT (compatibility issue)*
#          This files is NOT a valid MG4 proc_card.dat               *
#          Running this in MG4 will NEVER reproduce the result of MG5*
#                                                                    *
#*********************************************************************
#*********************************************************************
# Process(es) requested : mg2 input                                  *
#*********************************************************************
# Begin PROCESS # This is TAG. Do not modify this line
p p > zph , zph > j j           #Process
# Be carefull the coupling are here in MG5 convention
          
end_coup           # End the couplings input

done               # this tells MG there are no more procs
# End PROCESS  # This is TAG. Do not modify this line
#*********************************************************************
# Model information                                                  *
#*********************************************************************
# Begin MODEL  # This is TAG. Do not modify this line
Zprime_UFO
# End   MODEL  # This is TAG. Do not modify this line
#*********************************************************************
# Start multiparticle definitions                                    *
#*********************************************************************
# Begin MULTIPARTICLES # This is TAG. Do not modify this line

# End  MULTIPARTICLES # This is TAG. Do not modify this line
</MGProcCard>
<MGRunCard>
#*********************************************************************
#                       MadGraph5_aMC@NLO                            *
#                                                                    *
#                     run_card.dat MadEvent                          *
#                                                                    *
#  This file is used to set the parameters of the run.               *
#                                                                    *
#  Some notation/conventions:                                        *
#                                                                    *
#   Lines starting with a '# ' are info or comments                  *
#                                                                    *
#   mind the format:   value    = variable     ! comment             *
#*********************************************************************
#
#*******************                                                 
# Running parameters
#*******************                                                 
#                                                                    
#*********************************************************************
# Tag name for the run (one word)                                    *
#*********************************************************************
  tag_1     = run_tag ! name of the run 
#*********************************************************************
# Run to generate the grid pack                                      *
#*********************************************************************
  .false.     = gridpack  !True = setting up the grid pack
#*********************************************************************
# Number of events and rnd seed                                      *
# Warning: Do not generate more than 1M events in a single run       *
# If you want to run Pythia, avoid more than 50k events in a run.    *
#*********************************************************************
  2000 = nevents ! Number of unweighted events requested 
 2082 = iseed   ! rnd seed (0=assigned automatically=default))
#*********************************************************************
# Collider type and energy                                           *
# lpp: 0=No PDF, 1=proton, -1=antiproton, 2=photon from proton,      *
#                                         3=photon from electron     *
#*********************************************************************
        1     = lpp1    ! beam 1 type 
        1     = lpp2    ! beam 2 type
     4000     = ebeam1  ! beam 1 total energy in GeV
     4000     = ebeam2  ! beam 2 total energy in GeV
#*********************************************************************
# Beam polarization from -100 (left-handed) to 100 (right-handed)    *
#*********************************************************************
        0     = polbeam1 ! beam polarization for beam 1
        0     = polbeam2 ! beam polarization for beam 2
#*********************************************************************
# PDF CHOICE: this automatically fixes also alpha_s and its evol.    *
#*********************************************************************
 'nn23lo1'    = pdlabel     ! PDF set                                     
 230000    = lhaid     ! if pdlabel=lhapdf, this is the lhapdf number
#*********************************************************************
# Renormalization and factorization scales                           *
#*********************************************************************
 F        = fixed_ren_scale  ! if .true. use fixed ren scale
 F        = fixed_fac_scale  ! if .true. use fixed fac scale
 91.1880  = scale            ! fixed ren scale
 91.1880  = dsqrt_q2fact1    ! fixed fact scale for pdf1
 91.1880  = dsqrt_q2fact2    ! fixed fact scale for pdf2
 1        = scalefact        ! scale factor for event-by-event scales
#*********************************************************************
# Matching - Warning! ickkw > 1 is still beta
#*********************************************************************
 0        = ickkw            ! 0 no matching, 1 MLM, 2 CKKW matching
 1        = highestmult      ! for ickkw=2, highest mult group
 1        = ktscheme         ! for ickkw=1, 1 Durham kT, 2 Pythia pTE
 1        = alpsfact         ! scale factor for QCD emission vx
 F        = chcluster        ! cluster only according to channel diag
 T        = pdfwgt           ! for ickkw=1, perform pdf reweighting
 5        = asrwgtflavor     ! highest quark flavor for a_s reweight
 T        = clusinfo         ! include clustering tag in output
 3.0      = lhe_version       ! Change the way clustering information pass to shower.        
#*********************************************************************
#**********************************************************
#
#**********************************************************
# Automatic ptj and mjj cuts if xqcut > 0
# (turn off for VBF and single top processes)
#**********************************************************
   T  = auto_ptj_mjj  ! Automatic setting of ptj and mjj
#**********************************************************
#                                                                    
#**********************************
# BW cutoff (M+/-bwcutoff*Gamma)
#**********************************
  15  = bwcutoff      ! (M+/-bwcutoff*Gamma)
#**********************************************************
# Apply pt/E/eta/dr/mij cuts on decay products or not
# (note that etmiss/ptll/ptheavy/ht/sorted cuts always apply)
#**********************************************************
   T  = cut_decays    ! Cut decay products 
#*************************************************************
# Number of helicities to sum per event (0 = all helicities)
# 0 gives more stable result, but longer run time (needed for
# long decay chains e.g.).
# Use >=2 if most helicities contribute, e.g. pure QCD.
#*************************************************************
   0  = nhel          ! Number of helicities used per event
#*******************                                                 
# Standard Cuts
#*******************                                                 
#                                                                    
#*********************************************************************
# Minimum and maximum pt's (for max, -1 means no cut)                *
#*********************************************************************
 20  = ptj       ! minimum pt for the jets 
  0  = ptb       ! minimum pt for the b 
 10  = pta       ! minimum pt for the photons 
 10  = ptl       ! minimum pt for the charged leptons 
  0  = misset    ! minimum missing Et (sum of neutrino's momenta)
  0  = ptheavy   ! minimum pt for one heavy final state
 1.0 = ptonium   ! minimum pt for the quarkonium states
 -1  = ptjmax    ! maximum pt for the jets
 -1  = ptbmax    ! maximum pt for the b
 -1  = ptamax    ! maximum pt for the photons
 -1  = ptlmax    ! maximum pt for the charged leptons
 -1  = missetmax ! maximum missing Et (sum of neutrino's momenta)
#*********************************************************************
# Minimum and maximum E's (in the center of mass frame)              *
#*********************************************************************
  0  = ej     ! minimum E for the jets 
  0  = eb     ! minimum E for the b 
  0  = ea     ! minimum E for the photons 
  0  = el     ! minimum E for the charged leptons 
 -1   = ejmax ! maximum E for the jets
 -1   = ebmax ! maximum E for the b
 -1   = eamax ! maximum E for the photons
 -1   = elmax ! maximum E for the charged leptons
#*********************************************************************
# Maximum and minimum absolute rapidity (for max, -1 means no cut)   *
#*********************************************************************
   5  = etaj    ! max rap for the jets 
  -1  = etab    ! max rap for the b
 2.5  = etaa    ! max rap for the photons 
 2.5  = etal    ! max rap for the charged leptons 
 0.6  = etaonium ! max rap for the quarkonium states
   0  = etajmin ! min rap for the jets
   0  = etabmin ! min rap for the b
   0  = etaamin ! min rap for the photons
   0  = etalmin ! main rap for the charged leptons
#*********************************************************************
# Minimum and maximum DeltaR distance                                *
#*********************************************************************
 0.4 = drjj    ! min distance between jets 
 0   = drbb    ! min distance between b's 
 0.4 = drll    ! min distance between leptons 
 0.4 = draa    ! min distance between gammas 
 0   = drbj    ! min distance between b and jet 
 0.4 = draj    ! min distance between gamma and jet 
 0.4 = drjl    ! min distance between jet and lepton 
 0   = drab    ! min distance between gamma and b 
 0   = drbl    ! min distance between b and lepton 
 0.4 = dral    ! min distance between gamma and lepton 
 -1  = drjjmax ! max distance between jets
 -1  = drbbmax ! max distance between b's
 -1  = drllmax ! max distance between leptons
 -1  = draamax ! max distance between gammas
 -1  = drbjmax ! max distance between b and jet
 -1  = drajmax ! max distance between gamma and jet
 -1  = drjlmax ! max distance between jet and lepton
 -1  = drabmax ! max distance between gamma and b
 -1  = drblmax ! max distance between b and lepton
 -1  = dralmax ! maxdistance between gamma and lepton
#*********************************************************************
# Minimum and maximum invariant mass for pairs                       *
# WARNING: for four lepton final state mmll cut require to have      *
#          different lepton masses for each flavor!                  *           
#*********************************************************************
 0   = mmjj    ! min invariant mass of a jet pair 
 0   = mmbb    ! min invariant mass of a b pair 
 0   = mmaa    ! min invariant mass of gamma gamma pair
 0   = mmll    ! min invariant mass of l+l- (same flavour) lepton pair
 -1  = mmjjmax ! max invariant mass of a jet pair
 -1  = mmbbmax ! max invariant mass of a b pair
 -1  = mmaamax ! max invariant mass of gamma gamma pair
 -1  = mmllmax ! max invariant mass of l+l- (same flavour) lepton pair
#*********************************************************************
# Minimum and maximum invariant mass for all letpons                 *
#*********************************************************************
 0   = mmnl    ! min invariant mass for all letpons (l+- and vl) 
 -1  = mmnlmax ! max invariant mass for all letpons (l+- and vl) 
#*********************************************************************
# Minimum and maximum pt for 4-momenta sum of leptons                *
#*********************************************************************
 0   = ptllmin  ! Minimum pt for 4-momenta sum of leptons(l and vl)
 -1  = ptllmax  ! Maximum pt for 4-momenta sum of leptons(l and vl)
#*********************************************************************
# Inclusive cuts                                                     *
#*********************************************************************
 0  = xptj ! minimum pt for at least one jet  
 0  = xptb ! minimum pt for at least one b 
 0  = xpta ! minimum pt for at least one photon 
 0  = xptl ! minimum pt for at least one charged lepton 
#*********************************************************************
# Control the pt's of the jets sorted by pt                          *
#*********************************************************************
 0   = ptj1min ! minimum pt for the leading jet in pt
 0   = ptj2min ! minimum pt for the second jet in pt
 0   = ptj3min ! minimum pt for the third jet in pt
 0   = ptj4min ! minimum pt for the fourth jet in pt
 -1  = ptj1max ! maximum pt for the leading jet in pt 
 -1  = ptj2max ! maximum pt for the second jet in pt
 -1  = ptj3max ! maximum pt for the third jet in pt
 -1  = ptj4max ! maximum pt for the fourth jet in pt
 0   = cutuse  ! reject event if fails any (0) / all (1) jet pt cuts
#*********************************************************************
# Control the pt's of leptons sorted by pt                           *
#*********************************************************************
 0   = ptl1min ! minimum pt for the leading lepton in pt
 0   = ptl2min ! minimum pt for the second lepton in pt
 0   = ptl3min ! minimum pt for the third lepton in pt
 0   = ptl4min ! minimum pt for the fourth lepton in pt
 -1  = ptl1max ! maximum pt for the leading lepton in pt 
 -1  = ptl2max ! maximum pt for the second lepton in pt
 -1  = ptl3max ! maximum pt for the third lepton in pt
 -1  = ptl4max ! maximum pt for the fourth lepton in pt
#*********************************************************************
# Control the Ht(k)=Sum of k leading jets                            *
#*********************************************************************
 0   = htjmin ! minimum jet HT=Sum(jet pt)
 -1  = htjmax ! maximum jet HT=Sum(jet pt)
 0   = ihtmin  !inclusive Ht for all partons (including b)
 -1  = ihtmax  !inclusive Ht for all partons (including b)
 0   = ht2min ! minimum Ht for the two leading jets
 0   = ht3min ! minimum Ht for the three leading jets
 0   = ht4min ! minimum Ht for the four leading jets
 -1  = ht2max ! maximum Ht for the two leading jets
 -1  = ht3max ! maximum Ht for the three leading jets
 -1  = ht4max ! maximum Ht for the four leading jets
#***********************************************************************
# Photon-isolation cuts, according to hep-ph/9801442                   *
# When ptgmin=0, all the other parameters are ignored                  *
# When ptgmin>0, pta and draj are not going to be used                 *
#***********************************************************************
   0 = ptgmin ! Min photon transverse momentum
 0.4 = R0gamma ! Radius of isolation code
 1.0 = xn ! n parameter of eq.(3.4) in hep-ph/9801442
 1.0 = epsgamma ! epsilon_gamma parameter of eq.(3.4) in hep-ph/9801442
 .true. = isoEM ! isolate photons from EM energy (photons and leptons)
#*********************************************************************
# WBF cuts                                                           *
#*********************************************************************
 0   = xetamin ! minimum rapidity for two jets in the WBF case  
 0   = deltaeta ! minimum rapidity for two jets in the WBF case 
#*********************************************************************
# KT DURHAM CUT                                                      *
#*********************************************************************
 -1    =  ktdurham        
 0.4  =  dparameter 
#*********************************************************************
# maximal pdg code for quark to be considered as a light jet         *
# (otherwise b cuts are applied)                                     *
#*********************************************************************
 4 = maxjetflavor    ! Maximum jet pdg code
#*********************************************************************
# Jet measure cuts                                                   *
#*********************************************************************
 0   = xqcut   ! minimum kt jet measure between partons
#*********************************************************************
#
#*********************************************************************
# Store info for systematics studies                                 *
# WARNING: If use_syst is T, matched Pythia output is                *
#          meaningful ONLY if plotted taking matchscale              *
#          reweighting into account!                                 *
#*********************************************************************
   F  = use_syst      ! Enable systematics studies
#
#**************************************
# Parameter of the systematics study
#  will be used by SysCalc (if installed)
#**************************************                                  
#
0.5 1 2 = sys_scalefact  # factorization/renormalization scale factor
0.5 1 2 = sys_alpsfact  # \alpha_s emission scale factors
30 50 = sys_matchscale # variation of merging scale
# PDF sets and number of members (0 or none for all members).
CT10nlo.LHgrid = sys_pdf # matching scales
# MSTW2008nlo68cl.LHgrid 1  = sys_pdf
</MGRunCard>
<slha>
######################################################################
## PARAM_CARD AUTOMATICALY GENERATED BY MG5 FOLLOWING UFO MODEL   ####
######################################################################
##                                                                  ##
##  Width set on Auto will be computed following the information    ##
##        present in the decay.py files of the model.               ##
##        See  arXiv:1402.1178 for more details.                    ##
##                                                                  ##
######################################################################

###################################
## INFORMATION FOR CKMBLOCK
###################################
Block ckmblock 
    1 2.277360e-01 # cabi 

###################################
## INFORMATION FOR FRBLOCK
###################################
Block frblock 
    1 1.000000e+00 # gz 

###################################
## INFORMATION FOR MASS
###################################
Block mass 
    1 5.040000e-03 # MD 
    2 2.550000e-03 # MU 
    3 1.010000e-01 # MS 
    4 1.270000e+00 # MC 
    5 4.700000e+00 # MB 
    6 1.720000e+02 # MT 
   11 5.110000e-04 # Me 
   13 1.056600e-01 # MM 
   15 1.777000e+00 # MTA 
   23 9.118760e+01 # MZ 
   25 1.200000e+02 # MH 
  10030 3.700000e+03 # MZph 
  10031 3.000000e+02 # MZpl 
## Dependent parameters, given by model restrictions.
## Those values should be edited following the 
## analytical expression. MG5 ignores those values 
## but they are important for interfacing the output of MG5
## to external program such as Pythia.
  12 0.000000 # ve : 0.0 
  14 0.000000 # vm : 0.0 
  16 0.000000 # vt : 0.0 
  21 0.000000 # g : 0.0 
  22 0.000000 # a : 0.0 
  24 79.824360 # w+ : cmath.sqrt(MZ__exp__2/2. + cmath.sqrt(MZ__exp__4/4. - (aEW*cmath.pi*MZ__exp__2)/(Gf*sqrt__2))) 

###################################
## INFORMATION FOR SMINPUTS
###################################
Block sminputs 
    1 1.279000e+02 # aEWM1 
    2 1.166370e-05 # Gf 
    3 1.184000e-01 # aS 

###################################
## INFORMATION FOR YUKAWA
###################################
Block yukawa 
    1 5.040000e-03 # ymdo 
    2 2.550000e-03 # ymup 
    3 1.010000e-01 # yms 
    4 1.270000e+00 # ymc 
    5 4.700000e+00 # ymb 
    6 1.720000e+02 # ymt 
   11 5.110000e-04 # yme 
   13 1.056600e-01 # ymm 
   15 1.777000e+00 # ymtau 

###################################
## INFORMATION FOR DECAY
###################################
DECAY   6 1.508336e+00 # WT 
DECAY  23 2.495200e+00 # WZ 
DECAY  24 2.085000e+00 # WW 
DECAY  25 5.753088e-03 # WH 
## Dependent parameters, given by model restrictions.
## Those values should be edited following the 
## analytical expression. MG5 ignores those values 
## but they are important for interfacing the output of MG5
## to external program such as Pythia.
DECAY  1 0.000000 # d : 0.0 
DECAY  2 0.000000 # u : 0.0 
DECAY  3 0.000000 # s : 0.0 
DECAY  4 0.000000 # c : 0.0 
DECAY  5 0.000000 # b : 0.0 
DECAY  11 0.000000 # e- : 0.0 
DECAY  12 0.000000 # ve : 0.0 
DECAY  13 0.000000 # mu- : 0.0 
DECAY  14 0.000000 # vm : 0.0 
DECAY  15 0.000000 # ta- : 0.0 
DECAY  16 0.000000 # vt : 0.0 
DECAY  21 0.000000 # g : 0.0 
DECAY  22 0.000000 # a : 0.0 
DECAY  10030 0.308725 # zph : (gz__exp__2*MZph*(5 + cmath.sqrt(1 - (4*MT__exp__2)/MZph__exp__2)))/(144.*cmath.pi) 
DECAY  10031 0.132629 # zpl : (5*gz__exp__2*MZpl)/(144.*cmath.pi) 
#===========================================================
# QUANTUM NUMBERS OF NEW STATE(S) (NON SM PDG CODE)
#===========================================================

Block QNUMBERS 10030  # zph 
        1 0  # 3 times electric charge
        2 3  # number of spin states (2S+1)
        3 1  # colour rep (1: singlet, 3: triplet, 8: octet)
        4 0  # Particle/Antiparticle distinction (0=own anti)
Block QNUMBERS 10031  # zpl 
        1 0  # 3 times electric charge
        2 3  # number of spin states (2S+1)
        3 1  # colour rep (1: singlet, 3: triplet, 8: octet)
        4 0  # Particle/Antiparticle distinction (0=own anti)
</slha>
## END BANNER##
<MGGenerationInfo>
#  Number of Events        :         3859
#  Integrated weight (pb)  :  0.11968E-03
#  Max wgt                 :  0.48575E-07
#  Average wgt             :  0.31013E-07
</MGGenerationInfo>
</header>
<init>
     2212     2212  0.40000000000E+04  0.40000000000E+04 0 0  247000  247000 2   1
  0.11983876014E-03  0.29310830438E-06  0.48575140000E-07   0
</init>
<event>
 5   0  0.4824268E-07  0.3704454E+04  0.7818609E-02  0.8066975E-01
       -2   -1    0    0    0  501  0.00000000000E+00  0.00000000000E+00  0.14046020031E+04  0.14046020031E+04  0.25500000920E-02 0. -1.
        2   -1    0    0  501    0  0.00000000000E+00  0.00000000000E+00 -0.24425036129E+04  0.24425036129E+04  0.25500000920E-02 0.  1.
    10030    2    1    2    0    0  0.00000000000E+00  0.00000000000E+00 -0.10379016097E+04  0.38471056160E+04  0.37044543281E+04 0.  0.
        1    1    3    3  502    0  0.12963936256E+04  0.56170594988E+02 -0.18915716398E+04  0.22938689668E+04  0.50400001928E-02 0.  1.
       -1    1    3    3    0  502 -0.12963936256E+04 -0.56170594988E+02  0.85367003008E+03  0.15532366492E+04  0.50400001928E-02 0. -1.
</event>
<event>
 5   0  0.4824268E-07  0.3702933E+04  0.7818609E-02  0.8067312E-01
       -2   -1    0    0    0  501  0.00000000000E+00  0.00000000000E+00  0.11778613333E+04  0.11778613333E+04  0.25500000920E-02 0.  1.
        2   -1    0    0  501    0  0.00000000000E+00  0.00000000000E+00 -0.29102987709E+04  0.29102987709E+04  0.25500000920E-02 0. -1.
    10030    2    1    2    0    0  0.00000000000E+00  0.00000000000E+00 -0.17324374376E+04  0.40881601042E+04  0.37029331026E+04 0.  0.
        1    1    3    3  502    0 -0.17676588951E+04  0.52098323103E+03 -0.10633647954E+04  0.21276245403E+04  0.50400001928E-02 0. -1.
       -1    1    3    3    0  502  0.17676588951E+04 -0.52098323103E+03 -0.66907264219E+03  0.19605355638E+04  0.50400001928E-02 0.  1.
</event>
<event>
 5   0  0.4793557E-07  0.3631043E+04  0.7818609E-02  0.8083418E-01
        2   -1    0    0  501    0  0.00000000000E+00  0.00000000000E+00  0.18896557456E+04  0.18896557456E+04  0.25500000920E-02 0. -1.
       -2   -1    0    0    0  501  0.00000000000E+00  0.00000000000E+00 -0.17442955625E+04  0.17442955625E+04  0.25500000920E-02 0.  1.
    10030    2    1    2    0    0  0.00000000000E+00  0.00000000000E+00  0.14536018306E+03  0.36339513081E+04  0.36310428980E+04 0.  0.
        3    1    3    3  502    0 -0.90222379579E+03  0.15119640139E+04 -0.37047834141E+03  0.17992490569E+04  0.10100000352E+00 0.  1.
       -3    1    3    3    0  502  0.90222379579E+03 -0.15119640139E+04  0.51583852447E+03  0.18347022512E+04  0.10100000352E+00 0. -1.
</event>
<event>
 5   0  0.4824268E-07  0.3693654E+04  0.7818609E-02  0.8069370E-01
        2   -1    0    0  501    0  0.00000000000E+00  0.00000000000E+00  0.13825515098E+04  0.13825515098E+04  0.25500000920E-02 0. -1.
       -2   -1    0    0    0  501  0.00000000000E+00  0.00000000000E+00 -0.24670108944E+04  0.24670108944E+04  0.25500000920E-02 0.  1.
    10030    2    1    2    0    0  0.00000000000E+00  0.00000000000E+00 -0.10844593846E+04  0.38495624042E+04  0.36936538207E+04 0.  0.
        1    1    3    3  502    0  0.17608934397E+04  0.54753485889E+03 -0.64763987668E+03  0.19544762821E+04  0.50400001928E-02 0. -1.
       -1    1    3    3    0  502 -0.17608934397E+04 -0.54753485889E+03 -0.43681950795E+03  0.18950861221E+04  0.50400001928E-02 0.  1.
</event>
<event>
 5   0  0.4793557E-07  0.3693462E+04  0.7818609E-02  0.8069412E-01
       -2   -1    0    0    0  501  0.00000000000E+00  0.00000000000E+00  0.28174473907E+04  0.28174473907E+04  0.25500000920E-02 0.  1.
        2   -1    0    0  501    0  0.00000000000E+00  0.00000000000E+00 -0.12104626579E+04  0.12104626579E+04  0.25500000920E-02 0. -1.
    10030    2    1    2    0    0  0.00000000000E+00  0.00000000000E+00  0.16069847329E+04  0.40279100486E+04  0.36934617134E+04 0.  0.
        3    1    3    3  502    0  0.14273048350E+04  0.77600316694E+03  0.17610902180E+04  0.23960005787E+04  0.10100000352E+00 0.  1.
       -3    1    3    3    0  502 -0.14273048350E+04 -0.77600316694E+03 -0.15410548512E+03  0.16319094699E+04  0.10100000352E+00 0. -1.
</event>
<event>
 5   0  0.1496287E-07  0.3365091E+04  0.7818609E-02  0.8146528E-01
        1   -1    0    0  501    0  0.00000000000E+00  0.00000000000E+00  0.11314576997E+04  0.11314576997E+04  0.50400001928E-02 0.  1.
       -1   -1    0    0    0  501  0.00000000000E+00  0.00000000000E+00 -0.25020457555E+04  0.25020457555E+04  0.50400001928E-02 0. -1.
    10030    2    1    2    0    0  0.00000000000E+00  0.00000000000E+00 -0.13705880559E+04  0.36335034552E+04  0.33650907477E+04 0.  0.
        1    1    3    3  502    0 -0.93791578139E+02  0.10925562042E+04 -0.20632026374E+04  0.23365104413E+04  0.50400001928E-02 0. -1.
       -1    1    3    3    0  502  0.93791578139E+02 -0.10925562042E+04  0.69261458151E+03  0.12969930139E+04  0.50400001928E-02 0.  1.
</event>
<event>
 5   0  0.1496000E-07  0.2992130E+04  0.7818609E-02  0.8245982E-01
        1   -1    0    0  501    0  0.00000000000E+00  0.00000000000E+00  0.19900075418E+04  0.19900075418E+04  0.50400001928E-02 0. -1.
       -1   -1    0    0    0  501  0.00000000000E+00  0.00000000000E+00 -0.11247246376E+04  0.11247246376E+04  0.50400001928E-02 0.  1.
    10030    2    1    2    0    0  0.00000000000E+00  0.00000000000E+00  0.86528290422E+03  0.31147321794E+04  0.29921300181E+04 0.  0.
        3    1    3    3  502    0 -0.44230531912E+03 -0.11840764871E+04  0.12657722050E+04  0.17888125692E+04  0.10100000352E+00 0. -1.
       -3    1    3    3    0  502  0.44230531912E+03  0.11840764871E+04 -0.40048930081E+03  0.13259196102E+04  0.10100000352E+00 0.  1.
</event>
<event>
 5   0  0.4824268E-07  0.3677847E+04  0.7818609E-02  0.8072889E-01
        2   -1    0    0  501    0  0.00000000000E+00  0.00000000000E+00  0.22413199292E+04  0.22413199292E+04  0.25500000920E-02 0.  1.
       -2   -1    0    0    0  501  0.00000000000E+00  0.00000000000E+00 -0.15087716268E+04  0.15087716268E+04  0.25500000920E-02 0. -1.
    10030    2    1    2    0    0  0.00000000000E+00  0.00000000000E+00  0.73254830241E+03  0.37500915560E+04  0.36778471506E+04 0.  0.
        1    1    3    3  502    0  0.95011320390E+03  0.79850395322E+03 -0.10173316933E+04  0.16047702134E+04  0.50400001928E-02 0. -1.
       -1    1    3    3    0  502 -0.95011320390E+03 -0.79850395322E+03  0.17498799957E+04  0.21453213426E+04  0.50400001928E-02 0.  1.
</event>
<event>
 5   0  0.1496000E-07  0.3716721E+04  0.7818609E-02  0.8064266E-01
       -1   -1    0    0    0  501  0.00000000000E+00  0.00000000000E+00  0.14448267444E+04  0.14448267444E+04  0.50400001928E-02 0.  1.
        1   -1    0    0  501    0  0.00000000000E+00  0.00000000000E+00 -0.23902546730E+04  0.23902546730E+04  0.50400001928E-02 0. -1.
    10030    2    1    2    0    0  0.00000000000E+00  0.00000000000E+00 -0.94542792859E+03  0.38350814173E+04  0.37167210696E+04 0.  0.
        2    1    3    3  502    0 -0.16855638008E+04  0.70471942140E+03 -0.12166038334E+03  0.18309986451E+04  0.25500000920E-02 0.  1.
       -2    1    3    3    0  502  0.16855638008E+04 -0.70471942140E+03 -0.82376754524E+03  0.20040827723E+04  0.25500000920E-02 0. -1.
</event>
<event>
 5   0  0.4824268E-07  0.3713926E+04  0.7818609E-02  0.8064883E-01
        2   -1    0    0  501    0  0.00000000000E+00  0.00000000000E+00  0.18689022041E+04  0.18689022041E+04  0.25500000920E-02 0. -1.
       -2   -1    0    0    0  501  0.00000000000E+00  0.00000000000E+00 -0.18451002512E+04  0.18451002512E+04  0.25500000920E-02 0.  1.
    10030    2    1    2    0    0  0.00000000000E+00  0.00000000000E+00  0.23801952913E+02  0.37140024553E+04  0.37139261846E+04 0.  0.
        1    1    3    3  502    0 -0.42005259038E+03 -0.14814086895E+04 -0.10260490658E+04  0.18503493101E+04  0.50400001928E-02 0.  1.
       -1    1    3    3    0  502  0.42005259038E+03  0.14814086895E+04  0.10498510187E+04  0.18636531452E+04  0.50400001928E-02 0. -1.
</event>
<event>
 5   0  0.1496000E-07  0.3675961E+04  0.7818609E-02  0.8073310E-01
       -1   -1    0    0    0  501  0.00000000000E+00  0.00000000000E+00  0.19209309288E+04  0.19209309288E+04  0.50400001928E-02 0. -1.
        1   -1    0    0  501    0  0.00000000000E+00  0.00000000000E+00 -0.17586123121E+04  0.17586123121E+04  0.50400001928E-02 0.  1.
    10030    2    1    2    0    0  0.00000000000E+00  0.00000000000E+00  0.16231861672E+03  0.36795432409E+04  0.36759612522E+04 0.  0.
        2    1    3    3  502    0  0.14933908918E+04 -0.61403223673E+03 -0.79771724527E+03  0.18010010402E+04  0.25500000920E-02 0.  1.
       -2    1    3    3    0  502 -0.14933908918E+04  0.61403223673E+03  0.96003586199E+03  0.18785422007E+04  0.25500000920E-02 0. -1.
</event>
<event>
 5   0  0.4857514E-07  0.3703775E+04  0.7818609E-02  0.8067126E-01
       -2   -1    0    0    0  501  0.00000000000E+00  0.00000000000E+00  0.15863835038E+04  0.15863835038E+04  0.25500000920E-02 0.  1.
        2   -1    0    0  501    0  0.00000000000E+00  0.00000000000E+00 -0.21618269056E+04  0.21618269056E+04  0.25500000920E-02 0. -1.
    10030    2    1    2    0    0  0.00000000000E+00  0.00000000000E+00 -0.57544340183E+03  0.37482104094E+04  0.37037745834E+04 0.  0.
        5    1    3    3  502    0 -0.19623173128E+03 -0.10237141947E+04 -0.18367611688E+04  0.21119212405E+04  0.46999998093E+01 0. -1.
       -5    1    3    3    0  502  0.19623173128E+03  0.10237141947E+04  0.12613177670E+04  0.16362891689E+04  0.46999998093E+01 0.  1.
</event>
<event>
 5   0  0.1496000E-07  0.3690259E+04  0.7818609E-02  0.8070124E-01
        1   -1    0    0  501    0  0.00000000000E+00  0.00000000000E+00  0.29557966822E+04  0.29557966822E+04  0.50400001928E-02 0. -1.
       -1   -1    0    0    0  501  0.00000000000E+00  0.00000000000E+00 -0.11518052539E+04  0.11518052539E+04  0.50400001928E-02 0.  1.
    10030    2    1    2    0    0  0.00000000000E+00  0.00000000000E+00  0.18039914284E+04  0.41076019361E+04  0.36902586077E+04 0.  0.
        5    1    3    3  502    0  0.15371540278E+04  0.98059823520E+03  0.12169532209E+04  0.21921251414E+04  0.46999998093E+01 0.  1.
       -5    1    3    3    0  502 -0.15371540278E+04 -0.98059823520E+03  0.58703820747E+03  0.19154767947E+04  0.46999998093E+01 0. -1.
</event>
<event>
 5   0  0.1496287E-07  0.3714497E+04  0.7818609E-02  0.8064757E-01
       -1   -1    0    0    0  501  0.00000000000E+00  0.00000000000E+00  0.15391987566E+04  0.15391987566E+04  0.50400001928E-02 0. -1.
        1   -1    0    0  501    0  0.00000000000E+00  0.00000000000E+00 -0.22410181015E+04  0.22410181015E+04  0.50400001928E-02 0.  1.
    10030    2    1    2    0    0  0.00000000000E+00  0.00000000000E+00 -0.70181934498E+03  0.37802168581E+04  0.37144971532E+04 0.  0.
        1    1    3    3  502    0 -0.18066731731E+04  0.32716680438E+03 -0.63562039092E+03  0.19429666373E+04  0.50400001928E-02 0. -1.
       -1    1    3    3    0  502  0.18066731731E+04 -0.32716680438E+03 -0.66198954065E+02  0.18372502208E+04  0.50400001928E-02 0.  1.
</event>
<event>
 5   0  0.1496000E-07  0.3697834E+04  0.7818609E-02  0.8068442E-01
       -1   -1    0    0    0  501  0.00000000000E+00  0.00000000000E+00  0.19690830772E+04  0.19690830772E+04  0.50400001928E-02 0. -1.
        1   -1    0    0  501    0  0.00000000000E+00  0.00000000000E+00 -0.17360842438E+04  0.17360842438E+04  0.50400001928E-02 0.  1.
    10030    2    1    2    0    0  0.00000000000E+00  0.00000000000E+00  0.23299883337E+03  0.37051673210E+04  0.36978340174E+04 0.  0.
        3    1    3    3  502    0 -0.11763042937E+04 -0.72581608356E+01  0.15457747543E+04  0.19424634034E+04  0.10100000352E+00 0. -1.
       -3    1    3    3    0  502  0.11763042937E+04  0.72581608356E+01 -0.13127759209E+04  0.17627039176E+04  0.10100000352E+00 0.  1.
</event>
<event>
 5   0  0.1496000E-07  0.3671211E+04  0.7818609E-02  0.8074372E-01
       -1   -1    0    0    0  501  0.00000000000E+00  0.00000000000E+00  0.15444594515E+04  0.15444594515E+04  0.50400001928E-02 0. -1.
        1   -1    0    0  501    0  0.00000000000E+00  0.00000000000E+00 -0.21816359472E+04  0.21816359473E+04  0.50400001928E-02 0.  1.
    10030    2    1    2    0    0  0.00000000000E+00  0.00000000000E+00 -0.63717649574E+03  0.37260953988E+04  0.36712113851E+04 0.  0.
        3    1    3    3  502    0  0.49020737115E+03  0.62188301247E+03  0.13621902875E+04  0.15756281723E+04  0.10100000352E+00 0. -1.
       -3    1    3    3    0  502 -0.49020737115E+03 -0.62188301247E+03 -0.19993667832E+04  0.21504672264E+04  0.10100000352E+00 0.  1.
</event>
<event>
 5   0  0.4824268E-07  0.3700058E+04  0.7818609E-02  0.8067949E-01
       -2   -1    0    0    0  501  0.00000000000E+00  0.00000000000E+00  0.19365443783E+04  0.19365443783E+04  0.25500000920E-02 0.  1.
        2   -1    0    0  501    0  0.00000000000E+00  0.00000000000E+00 -0.17673790118E+04  0.17673790118E+04  0.25500000920E-02 0. -1.
    10030    2    1    2    0    0  0.00000000000E+00  0.00000000000E+00  0.16916536647E+03  0.37039233900E+04  0.37000583182E+04 0.  0.
        1    1    3    3  502    0 -0.29989390123E+03  0.10387938874E+04 -0.14181779171E+04  0.17833277032E+04  0.50400001928E-02 0. -1.
       -1    1    3    3    0  502  0.29989390123E+03 -0.10387938874E+04  0.15873432836E+04  0.19205956868E+04  0.50400001928E-02 0.  1.
</event>
<event>
 5   0  0.1522273E-07  0.3667766E+04  0.7818609E-02  0.8075143E-01
        1   -1    0    0  501    0  0.00000000000E+00  0.00000000000E+00  0.98407140336E+03  0.98407140337E+03  0.50400001928E-02 0. -1.
       -1   -1    0    0    0  501  0.00000000000E+00  0.00000000000E+00 -0.34175640176E+04  0.34175640176E+04  0.50400001928E-02 0.  1.
    10030    2    1    2    0    0  0.00000000000E+00  0.00000000000E+00 -0.24334926142E+04  0.44016354210E+04  0.36677660879E+04 0.  0.
        4    1    3    3  502    0 -0.49062542608E+03 -0.97918304692E+02 -0.33340820431E+04  0.33714100887E+04  0.12699999809E+01 0.  1.
       -4    1    3    3    0  502  0.49062542608E+03  0.97918304692E+02  0.90058942883E+03  0.10302253323E+04  0.12699999809E+01 0. -1.
</event>
<event>
 5   0  0.1496287E-07  0.3663550E+04  0.7818609E-02  0.8076088E-01
       -1   -1    0    0    0  501  0.00000000000E+00  0.00000000000E+00  0.12738174376E+04  0.12738174376E+04  0.50400001928E-02 0. -1.
        1   -1    0    0  501    0  0.00000000000E+00  0.00000000000E+00 -0.26341293903E+04  0.26341293903E+04  0.50400001928E-02 0.  1.
    10030    2    1    2    0    0  0.00000000000E+00  0.00000000000E+00 -0.13603119526E+04  0.39079468279E+04  0.36635501636E+04 0.  0.
        1    1    3    3  502    0 -0.18872684426E+03 -0.95759796969E+03 -0.23336561842E+04  0.25295380763E+04  0.50400001928E-02 0.  1.
       -1    1    3    3    0  502  0.18872684426E+03  0.95759796969E+03  0.97334423159E+03  0.13784087516E+04  0.50400001928E-02 0. -1.
</event>
<event>
 5   0  0.4758908E-07  0.3743386E+04  0.7818609E-02  0.8058414E-01
        2   -1    0    0  501    0  0.00000000000E+00  0.00000000000E+00  0.23661797851E+04  0.23661797851E+04  0.25500000920E-02 0. -1.
       -2   -1    0    0    0  501  0.00000000000E+00  0.00000000000E+00 -0.14805445116E+04  0.14805445116E+04  0.25500000920E-02 0.  1.
    10030    2    1    2    0    0  0.00000000000E+00  0.00000000000E+00  0.88563527353E+03  0.38467242967E+04  0.37433858974E+04 0.  0.
        2    1    3    3  502    0 -0.17377934043E+04  0.65917598255E+03  0.66981290361E+03  0.19756235011E+04  0.25500000920E-02 0. -1.
       -2    1    3    3    0  502  0.17377934043E+04 -0.65917598255E+03  0.21582236992E+03  0.18711007956E+04  0.25500000920E-02 0.  1.
</event>
<event>
 5   0  0.1496000E-07  0.3748624E+04  0.7818609E-02  0.8057271E-01
        1   -1    0    0  501    0  0.00000000000E+00  0.00000000000E+00  0.15948816367E+04  0.15948816367E+04  0.50400001928E-02 0. -1.
       -1   -1    0    0    0  501  0.00000000000E+00  0.00000000000E+00 -0.22026998084E+04  0.22026998084E+04  0.50400001928E-02 0.  1.
    10030    2    1    2    0    0  0.00000000000E+00  0.00000000000E+00 -0.60781817171E+03  0.37975814452E+04  0.37486240013E+04 0.  0.
        3    1    3    3  502    0  0.10874250337E+04  0.10556625810E+04 -0.14210938333E+04  0.20776006311E+04  0.10100000352E+00 0.  1.
       -3    1    3    3    0  502 -0.10874250337E+04 -0.10556625810E+04  0.81327566159E+03  0.17199808141E+04  0.10100000352E+00 0. -1.
</event>
<event>
 5   0  0.4793557E-07  0.3616035E+04  0.7818609E-02  0.8086828E-01
       -2   -1    0    0    0  501  0.00000000000E+00  0.00000000000E+00  0.19148009713E+04  0.19148009713E+04  0.25500000920E-02 0.  1.
        2   -1    0    0  501    0  0.00000000000E+00  0.00000000000E+00 -0.17071895205E+04  0.17071895205E+04  0.25500000920E-02 0. -1.
    10030    2    1    2    0    0  0.00000000000E+00  0.00000000000E+00  0.20761145075E+03  0.36219904918E+04  0.36160354822E+04 0.  0.
        3    1    3    3  502    0  0.12527710209E+04  0.10572892872E+04 -0.66009842781E+03  0.17672084801E+04  0.10100000352E+00 0. -1.
       -3    1    3    3    0  502 -0.12527710209E+04 -0.10572892872E+04  0.86770987856E+03  0.18547820117E+04  0.10100000352E+00 0.  1.
</event>
<event>
 5   0  0.1496287E-07  0.3698349E+04  0.7818609E-02  0.8068328E-01
        1   -1    0    0  501    0  0.00000000000E+00  0.00000000000E+00  0.23626189105E+04  0.23626189105E+04  0.50400001928E-02 0.  1.
       -1   -1    0    0    0  501  0.00000000000E+00  0.00000000000E+00 -0.14473118392E+04  0.14473118392E+04  0.50400001928E-02 0. -1.
    10030    2    1    2    0    0  0.00000000000E+00  0.00000000000E+00  0.91530707133E+03  0.38099307498E+04  0.36983489942E+04 0.  0.
        1    1    3    3  502    0 -0.11952124519E+04  0.13321219594E+04 -0.21530449507E+02  0.17898450436E+04  0.50400001928E-02 0.  1.
       -1    1    3    3    0  502  0.11952124519E+04 -0.13321219594E+04  0.93683752084E+03  0.20200857062E+04  0.50400001928E-02 0. -1.
</event>
<event>
 5   0  0.4758908E-07  0.3749134E+04  0.7818609E-02  0.8057159E-01
        2   -1    0    0  501    0  0.00000000000E+00  0.00000000000E+00  0.14822855493E+04  0.14822855493E+04  0.25500000920E-02 0. -1.
       -2   -1    0    0    0  501  0.00000000000E+00  0.00000000000E+00 -0.23706646693E+04  0.23706646693E+04  0.25500000920E-02 0.  1.
    10030    2    1    2    0    0  0.00000000000E+00  0.00000000000E+00 -0.88837912001E+03  0.38529502187E+04  0.37491342903E+04 0.  0.
        2    1    3    3  502    0  0.15206197458E+03  0.46608175236E+03  0.14152339623E+04  0.14977457101E+04  0.25500000920E-02 0. -1.
       -2    1    3    3    0  502 -0.15206197458E+03 -0.46608175236E+03 -0.23036130823E+04  0.23552045086E+04  0.25500000920E-02 0.  1.
</event>
<event>
 5   0  0.1496000E-07  0.3737065E+04  0.7818609E-02  0.8059797E-01
        1   -1    0    0  501    0  0.00000000000E+00  0.00000000000E+00  0.12510335430E+04  0.12510335430E+04  0.50400001928E-02 0. -1.
       -1   -1    0    0    0  501  0.00000000000E+00  0.00000000000E+00 -0.27908230745E+04  0.27908230745E+04  0.50400001928E-02 0.  1.
    10030    2    1    2    0    0  0.00000000000E+00  0.00000000000E+00 -0.15397895315E+04  0.40418566175E+04  0.37370647726E+04 0.  0.
        2    1    3    3  502    0  0.15962778142E+04  0.77841574262E+03 -0.14167799421E+03  0.17816022515E+04  0.25500000920E-02 0.  1.
       -2    1    3    3    0  502 -0.15962778142E+04 -0.77841574262E+03 -0.13981115373E+04  0.22602543660E+04  0.25500000920E-02 0. -1.
</event>
<event>
 5   0  0.4793557E-07  0.3670132E+04  0.7818609E-02  0.8074613E-01
        2   -1    0    0  501    0  0.00000000000E+00  0.00000000000E+00  0.23722954982E+04  0.23722954982E+04  0.25500000920E-02 0. -1.
       -2   -1    0    0    0  501  0.00000000000E+00  0.00000000000E+00 -0.14194974175E+04  0.14194974175E+04  0.25500000920E-02 0.  1.
    10030    2    1    2    0    0  0.00000000000E+00  0.00000000000E+00  0.95279808071E+03  0.37917929158E+04  0.36701320594E+04 0.  0.
        3    1    3    3  502    0  0.99606591600E+03  0.14191231080E+04 -0.14470273799E+03  0.17398265998E+04  0.10100000352E+00 0. -1.
       -3    1    3    3    0  502 -0.99606591600E+03 -0.14191231080E+04  0.10975008187E+04  0.20519663160E+04  0.10100000352E+00 0.  1.
</event>
<event>
 5   0  0.4857514E-07  0.3669223E+04  0.7818609E-02  0.8074817E-01
        2   -1    0    0  501    0  0.00000000000E+00  0.00000000000E+00  0.23961433346E+04  0.23961433346E+04  0.25500000920E-02 0. -1.
       -2   -1    0    0    0  501  0.00000000000E+00  0.00000000000E+00 -0.14046739245E+04  0.14046739245E+04  0.25500000920E-02 0.  1.
    10030    2    1    2    0    0  0.00000000000E+00  0.00000000000E+00  0.99146941017E+03  0.38008172591E+04  0.36692233845E+04 0.  0.
        5    1    3    3  502    0  0.15938390949E+04  0.89076534976E+03  0.31045683425E+03  0.18520776184E+04  0.46999998093E+01 0.  1.
       -5    1    3    3    0  502 -0.15938390949E+04 -0.89076534976E+03  0.68101257592E+03  0.19487396407E+04  0.46999998093E+01 0. -1.
</event>
<event>
 5   0  0.1496000E-07  0.3704047E+04  0.7818609E-02  0.8067066E-01
        1   -1    0    0  501    0  0.00000000000E+00  0.00000000000E+00  0.22162552936E+04  0.22162552936E+04  0.50400001928E-02 0. -1.
       -1   -1    0    0    0  501  0.00000000000E+00  0.00000000000E+00 -0.15476517827E+04  0.15476517827E+04  0.50400001928E-02 0.  1.
    10030    2    1    2    0    0  0.00000000000E+00  0.00000000000E+00  0.66860351090E+03  0.37639070763E+04  0.37040472222E+04 0.  0.
        2    1    3    3  502    0 -0.88819491664E+03  0.13500730289E+03 -0.13113999338E+04  0.15896184977E+04  0.25500000920E-02 0.  1.
       -2    1    3    3    0  502  0.88819491664E+03 -0.13500730289E+03  0.19800034447E+04  0.21742885786E+04  0.25500000920E-02 0. -1.
</event>
<event>
 5   0  0.4793557E-07  0.3697487E+04  0.7818609E-02  0.8068519E-01
       -2   -1    0    0    0  501  0.00000000000E+00  0.00000000000E+00  0.19241719733E+04  0.19241719733E+04  0.25500000920E-02 0. -1.
        2   -1    0    0  501    0  0.00000000000E+00  0.00000000000E+00 -0.17762720870E+04  0.17762720870E+04  0.25500000920E-02 0.  1.
    10030    2    1    2    0    0  0.00000000000E+00  0.00000000000E+00  0.14789988625E+03  0.37004440603E+04  0.36974872369E+04 0.  0.
        3    1    3    3  502    0 -0.99215015178E+03  0.14357861657E+04  0.68436319405E+03  0.18746191157E+04  0.10100000352E+00 0.  1.
       -3    1    3    3    0  502  0.99215015178E+03 -0.14357861657E+04 -0.53646330780E+03  0.18258249446E+04  0.10100000352E+00 0. -1.
</event>
<event>
 5   0  0.4824268E-07  0.3599734E+04  0.7818609E-02  0.8090553E-01
        2   -1    0    0  501    0  0.00000000000E+00  0.00000000000E+00  0.21020632654E+04  0.21020632654E+04  0.25500000920E-02 0. -1.
       -2   -1    0    0    0  501  0.00000000000E+00  0.00000000000E+00 -0.15411145829E+04  0.15411145829E+04  0.25500000920E-02 0.  1.
    10030    2    1    2    0    0  0.00000000000E+00  0.00000000000E+00  0.56094868246E+03  0.36431778483E+04  0.35997335193E+04 0.  0.
        1    1    3    3  502    0 -0.87709822805E+03 -0.64046217863E+03 -0.11721272081E+04  0.15979284389E+04  0.50400001928E-02 0.  1.
       -1    1    3    3    0  502  0.87709822805E+03  0.64046217863E+03  0.17330758906E+04  0.20452494094E+04  0.50400001928E-02 0. -1.
</event>
<event>
 5   0  0.1496000E-07  0.3677001E+04  0.7818609E-02  0.8073078E-01
        1   -1    0    0  501    0  0.00000000000E+00  0.00000000000E+00  0.13992832666E+04  0.13992832667E+04  0.50400001928E-02 0.  1.
       -1   -1    0    0    0  501  0.00000000000E+00  0.00000000000E+00 -0.24155821572E+04  0.24155821572E+04  0.50400001928E-02 0. -1.
    10030    2    1    2    0    0  0.00000000000E+00  0.00000000000E+00 -0.10162988905E+04  0.38148654238E+04  0.36770007842E+04 0.  0.
        5    1    3    3  502    0 -0.54078133976E+03 -0.16960808568E+04 -0.31662007491E+02  0.17804941176E+04  0.46999998093E+01 0.  1.
       -5    1    3    3    0  502  0.54078133976E+03  0.16960808568E+04 -0.98463688305E+03  0.20343713062E+04  0.46999998093E+01 0. -1.
</event>
<event>
 5   0  0.4793557E-07  0.3996812E+04  0.7818609E-02  0.8005190E-01
       -2   -1    0    0    0  501  0.00000000000E+00  0.00000000000E+00  0.18441198003E+04  0.18441198003E+04  0.25500000920E-02 0.  1.
        2   -1    0    0  501    0  0.00000000000E+00  0.00000000000E+00 -0.21655998831E+04  0.21655998831E+04  0.25500000920E-02 0. -1.
    10030    2    1    2    0    0  0.00000000000E+00  0.00000000000E+00 -0.32148008283E+03  0.40097196835E+04  0.39968115412E+04 0.  0.
        3    1    3    3  502    0  0.29874148834E+03 -0.72910329451E+03 -0.20031863170E+04  0.21525783428E+04  0.10100000352E+00 0. -1.
       -3    1    3    3    0  502 -0.29874148834E+03  0.72910329451E+03  0.16817062342E+04  0.18571413407E+04  0.10100000352E+00 0.  1.
</event>
<event>
 5   0  0.1522273E-07  0.3794633E+04  0.7818609E-02  0.8047308E-01
        1   -1    0    0  501    0  0.00000000000E+00  0.00000000000E+00  0.19995581745E+04  0.19995581745E+04  0.50400001928E-02 0. -1.
       -1   -1    0    0    0  501  0.00000000000E+00  0.00000000000E+00 -0.18003028752E+04  0.18003028752E+04  0.50400001928E-02 0.  1.
    10030    2    1    2    0    0  0.00000000000E+00  0.00000000000E+00  0.19925529930E+03  0.37998610497E+04  0.37946332264E+04 0.  0.
        4    1    3    3  502    0 -0.51409350919E+03 -0.11837131983E+04  0.14923491412E+04  0.19729613894E+04  0.12699999809E+01 0. -1.
       -4    1    3    3    0  502  0.51409350919E+03  0.11837131983E+04 -0.12930938419E+04  0.18268996603E+04  0.12699999809E+01 0.  1.
</event>
<event>
 5   0  0.1496287E-07  0.3644603E+04  0.7818609E-02  0.8080351E-01
       -1   -1    0    0    0  501  0.00000000000E+00  0.00000000000E+00  0.14142943208E+04  0.14142943208E+04  0.50400001928E-02 0.  1.
        1   -1    0    0  501    0  0.00000000000E+00  0.00000000000E+00 -0.23480137630E+04  0.23480137630E+04  0.50400001928E-02 0. -1.
    10030    2    1    2    0    0  0.00000000000E+00  0.00000000000E+00 -0.93371944220E+03  0.37623080839E+04  0.36446028757E+04 0.  0.
        1    1    3    3  502    0 -0.72709194770E+02  0.76503251412E+03 -0.21725613177E+04  0.23044704498E+04  0.50400001928E-02 0. -1.
       -1    1    3    3    0  502  0.72709194770E+02 -0.76503251412E+03  0.12388418755E+04  0.14578376341E+04  0.50400001928E-02 0.  1.
</event>
<event>
 5   0  0.1496000E-07  0.3620382E+04  0.7818609E-02  0.8085839E-01
       -1   -1    0    0    0  501  0.00000000000E+00  0.00000000000E+00  0.18408133418E+04  0.18408133418E+04  0.50400001928E-02 0.  1.
        1   -1    0    0  501    0  0.00000000000E+00  0.00000000000E+00 -0.17800777125E+04  0.17800777125E+04  0.50400001928E-02 0. -1.
    10030    2    1    2    0    0  0.00000000000E+00  0.00000000000E+00  0.60735629296E+02  0.36208910543E+04  0.36203816388E+04 0.  0.
        5    1    3    3  502    0  0.26846239933E+03  0.17436730115E+04  0.43576554748E+03  0.18172455347E+04  0.46999998093E+01 0.  1.
       -5    1    3    3    0  502 -0.26846239933E+03 -0.17436730115E+04 -0.37502991819E+03  0.18036455196E+04  0.46999998093E+01 0. -1.
</event>
<event>
 5   0  0.4687817E-07  0.3668376E+04  0.7818609E-02  0.8075006E-01
       -2   -1    0    0    0  501  0.00000000000E+00  0.00000000000E+00  0.15437871520E+04  0.15437871520E+04  0.25500000920E-02 0. -1.
        2   -1    0    0  501    0  0.00000000000E+00  0.00000000000E+00 -0.21792156919E+04  0.21792156919E+04  0.25500000920E-02 0.  1.
    10030    2    1    2    0    0  0.00000000000E+00  0.00000000000E+00 -0.63542853990E+03  0.37230028440E+04  0.36683757641E+04 0.  0.
        4    1    3    3  502    0  0.84224271828E+03  0.12346531889E+04  0.76136978139E+03  0.16773272937E+04  0.12699999809E+01 0.  1.
       -4    1    3    3    0  502 -0.84224271828E+03 -0.12346531889E+04 -0.13967983213E+04  0.20456755502E+04  0.12699999809E+01 0. -1.
</event>
<event>
 5   0  0.4687817E-07  0.3664141E+04  0.7818609E-02  0.8075955E-01
       -2   -1    0    0    0  501  0.00000000000E+00  0.00000000000E+00  0.96937957493E+03  0.96937957493E+03  0.25500000920E-02 0.  1.
        2   -1    0    0  501    0  0.00000000000E+00  0.00000000000E+00 -0.34625059611E+04  0.34625059611E+04  0.25500000920E-02 0. -1.
    10030    2    1    2    0    0  0.00000000000E+00  0.00000000000E+00 -0.24931263862E+04  0.44318855360E+04  0.36641411309E+04 0.  0.
        4    1    3    3  502    0 -0.40418031964E+03 -0.12289380864E+04 -0.28156122268E+04  0.30986003898E+04  0.12699999809E+01 0. -1.
       -4    1    3    3    0  502  0.40418031964E+03  0.12289380864E+04  0.32248584062E+03  0.13332851463E+04  0.12699999809E+01 0.  1.
</event>
<event>
 5   0  0.1496000E-07  0.3704514E+04  0.7818609E-02  0.8066962E-01
        1   -1    0    0  501    0  0.00000000000E+00  0.00000000000E+00  0.21560366873E+04  0.21560366873E+04  0.50400001928E-02 0. -1.
       -1   -1    0    0    0  501  0.00000000000E+00  0.00000000000E+00 -0.15912791615E+04  0.15912791615E+04  0.50400001928E-02 0.  1.
    10030    2    1    2    0    0  0.00000000000E+00  0.00000000000E+00  0.56475752573E+03  0.37473158488E+04  0.37045141393E+04 0.  0.
        2    1    3    3  502    0  0.15336202879E+04 -0.18589219262E+03  0.13161003513E+04  0.20294499820E+04  0.25500000920E-02 0. -1.
       -2    1    3    3    0  502 -0.15336202879E+04  0.18589219262E+03 -0.75134282554E+03  0.17178658668E+04  0.25500000920E-02 0.  1.
</event>
<event>
 5   0  0.1496000E-07  0.3722006E+04  0.7818609E-02  0.8063103E-01
       -1   -1    0    0    0  501  0.00000000000E+00  0.00000000000E+00  0.29145320710E+04  0.29145320710E+04  0.50400001928E-02 0. -1.
        1   -1    0    0  501    0  0.00000000000E+00  0.00000000000E+00 -0.11882976744E+04  0.11882976744E+04  0.50400001928E-02 0.  1.
    10030    2    1    2    0    0  0.00000000000E+00  0.00000000000E+00  0.17262343966E+04  0.41028297454E+04  0.37220057399E+04 0.  0.
        5    1    3    3  502    0 -0.94337980140E+03  0.70879188833E+03 -0.72320763752E+03  0.13839807685E+04  0.46999998093E+01 0.  1.
       -5    1    3    3    0  502  0.94337980140E+03 -0.70879188833E+03  0.24494420341E+04  0.27188489769E+04  0.46999998093E+01 0. -1.
</event>
<event>
 5   0  0.1496000E-07  0.3166833E+04  0.7818609E-02  0.8197632E-01
        1   -1    0    0  501    0  0.00000000000E+00  0.00000000000E+00  0.23301876385E+04  0.23301876385E+04  0.50400001928E-02 0. -1.
       -1   -1    0    0    0  501  0.00000000000E+00  0.00000000000E+00 -0.10759682568E+04  0.10759682568E+04  0.50400001928E-02 0.  1.
    10030    2    1    2    0    0  0.00000000000E+00  0.00000000000E+00  0.12542193818E+04  0.34061558953E+04  0.31668330751E+04 0.  0.
        5    1    3    3  502    0  0.17309541164E+03  0.32266324092E+03 -0.10297986716E+04  0.10929688846E+04  0.46999998093E+01 0.  1.
       -5    1    3    3    0  502 -0.17309541164E+03 -0.32266324092E+03  0.22840180534E+04  0.23131870108E+04  0.46999998093E+01 0. -1.
</event>
<event>
 5   0  0.4758908E-07  0.3700213E+04  0.7818609E-02  0.8067915E-01
       -2   -1    0    0    0  501  0.00000000000E+00  0.00000000000E+00  0.23167239145E+04  0.23167239145E+04  0.25500000920E-02 0.  1.
        2   -1    0    0  501    0  0.00000000000E+00  0.00000000000E+00 -0.14774721095E+04  0.14774721095E+04  0.25500000920E-02 0. -1.
    10030    2    1    2    0    0  0.00000000000E+00  0.00000000000E+00  0.83925180496E+03  0.37941960240E+04  0.37002134906E+04 0.  0.
        2    1    3    3  502    0  0.16145395444E+04 -0.75347274942E+03  0.93071911176E+03  0.20101485491E+04  0.25500000920E-02 0.  1.
       -2    1    3    3    0  502 -0.16145395444E+04  0.75347274942E+03 -0.91467306803E+02  0.17840474749E+04  0.25500000920E-02 0. -1.
</event>
<event>
 5   0  0.4793557E-07  0.3693338E+04  0.7818609E-02  0.8069440E-01
       -2   -1    0    0    0  501  0.00000000000E+00  0.00000000000E+00  0.24561110918E+04  0.24561110918E+04  0.25500000920E-02 0. -1.
        2   -1    0    0  501    0  0.00000000000E+00  0.00000000000E+00 -0.13884496773E+04  0.13884496773E+04  0.25500000920E-02 0.  1.
    10030    2    1    2    0    0  0.00000000000E+00  0.00000000000E+00  0.10676614144E+04  0.38445607691E+04  0.36933381394E+04 0.  0.
        3    1    3    3  502    0  0.17529595593E+04 -0.26242538441E+03  0.10731690039E+04  0.20720584017E+04  0.10100000352E+00 0. -1.
       -3    1    3    3    0  502 -0.17529595593E+04  0.26242538441E+03 -0.55075894969E+01  0.17725023674E+04  0.10100000352E+00 0.  1.
</event>
<event>
 5   0  0.4824268E-07  0.3596702E+04  0.7818609E-02  0.8091248E-01
        2   -1    0    0  501    0  0.00000000000E+00  0.00000000000E+00  0.22953697518E+04  0.22953697518E+04  0.25500000920E-02 0. -1.
       -2   -1    0    0    0  501  0.00000000000E+00  0.00000000000E+00 -0.14089522365E+04  0.14089522365E+04  0.25500000920E-02 0.  1.
    10030    2    1    2    0    0  0.00000000000E+00  0.00000000000E+00  0.88641751533E+03  0.37043219884E+04  0.35967020146E+04 0.  0.
        1    1    3    3  502    0 -0.43862807338E+03 -0.64549986898E+03  0.21118734013E+04  0.22514603996E+04  0.50400001928E-02 0. -1.
       -1    1    3    3    0  502  0.43862807338E+03  0.64549986898E+03 -0.12254558860E+04  0.14528615888E+04  0.50400001928E-02 0.  1.
</event>
<event>
 5   0  0.4758908E-07  0.3686054E+04  0.7818609E-02  0.8071059E-01
       -2   -1    0    0    0  501  0.00000000000E+00  0.00000000000E+00  0.15801519084E+04  0.15801519084E+04  0.25500000920E-02 0. -1.
        2   -1    0    0  501    0  0.00000000000E+00  0.00000000000E+00 -0.21496341553E+04  0.21496341553E+04  0.25500000920E-02 0.  1.
    10030    2    1    2    0    0  0.00000000000E+00  0.00000000000E+00 -0.56948224688E+03  0.37297860638E+04  0.36860539947E+04 0.  0.
        2    1    3    3  502    0 -0.67094792265E+03  0.80146087630E+03 -0.18207222646E+04  0.20994142555E+04  0.25500000920E-02 0.  1.
       -2    1    3    3    0  502  0.67094792265E+03 -0.80146087630E+03  0.12512400178E+04  0.16303718083E+04  0.25500000920E-02 0. -1.
</event>
<event>
 5   0  0.4793557E-07  0.3687756E+04  0.7818609E-02  0.8070681E-01
        2   -1    0    0  501    0  0.00000000000E+00  0.00000000000E+00  0.25082875868E+04  0.25082875868E+04  0.25500000920E-02 0. -1.
       -2   -1    0    0    0  501  0.00000000000E+00  0.00000000000E+00 -0.13554609374E+04  0.13554609374E+04  0.25500000920E-02 0.  1.
    10030    2    1    2    0    0  0.00000000000E+00  0.00000000000E+00  0.11528266494E+04  0.38637485241E+04  0.36877558724E+04 0.  0.
        3    1    3    3  502    0  0.44875340740E+03 -0.14917040085E+04  0.16100685616E+04  0.22402859757E+04  0.10100000352E+00 0.  1.
       -3    1    3    3    0  502 -0.44875340740E+03  0.14917040085E+04 -0.45724191221E+03  0.16234625484E+04  0.10100000352E+00 0. -1.
</event>
<event>
 5   0  0.1496000E-07  0.3704278E+04  0.7818609E-02  0.8067014E-01
        1   -1    0    0  501    0  0.00000000000E+00  0.00000000000E+00  0.23081584600E+04  0.23081584600E+04  0.50400001928E-02 0.  1.
       -1   -1    0    0    0  501  0.00000000000E+00  0.00000000000E+00 -0.14862145159E+04  0.14862145159E+04  0.50400001928E-02 0. -1.
    10030    2    1    2    0    0  0.00000000000E+00  0.00000000000E+00  0.82194394406E+03  0.37943729759E+04  0.37042778558E+04 0.  0.
        5    1    3    3  502    0 -0.52120823686E+03 -0.37992577983E+03 -0.13674570455E+04  0.15119399742E+04  0.46999998093E+01 0. -1.
       -5    1    3    3    0  502  0.52120823686E+03  0.37992577983E+03  0.21894009895E+04  0.22824330017E+04  0.46999998093E+01 0.  1.
</event>
<event>
 5   0  0.4857514E-07  0.3734486E+04  0.7818609E-02  0.8060362E-01
       -2   -1    0    0    0  501  0.00000000000E+00  0.00000000000E+00  0.15020425489E+04  0.15020425489E+04  0.25500000920E-02 0.  1.
        2   -1    0    0  501    0  0.00000000000E+00  0.00000000000E+00 -0.23212372784E+04  0.23212372784E+04  0.25500000920E-02 0. -1.
    10030    2    1    2    0    0  0.00000000000E+00  0.00000000000E+00 -0.81919472952E+03  0.38232798273E+04  0.37344863948E+04 0.  0.
        5    1    3    3  502    0  0.18879410033E+02 -0.97676731766E+03  0.12195089405E+04  0.15625795886E+04  0.46999998093E+01 0.  1.
       -5    1    3    3    0  502 -0.18879410033E+02  0.97676731766E+03 -0.20387036700E+04  0.22607002386E+04  0.46999998093E+01 0. -1.
</event>
<event>
 5   0  0.1496000E-07  0.3650879E+04  0.7818609E-02  0.8078936E-01
        1   -1    0    0  501    0  0.00000000000E+00  0.00000000000E+00  0.17520949659E+04  0.17520949659E+04  0.50400001928E-02 0.  1.
       -1   -1    0    0    0  501  0.00000000000E+00  0.00000000000E+00 -0.19018542079E+04  0.19018542079E+04  0.50400001928E-02 0. -1.
    10030    2    1    2    0    0  0.00000000000E+00  0.00000000000E+00 -0.14975924205E+03  0.36539491738E+04  0.36508788989E+04 0.  0.
        5    1    3    3  502    0 -0.10855636435E+04  0.68821954653E+03 -0.13721612241E+04  0.18801444315E+04  0.46999998093E+01 0. -1.
       -5    1    3    3    0  502  0.10855636435E+04 -0.68821954653E+03  0.12224019821E+04  0.17738047424E+04  0.46999998093E+01 0.  1.
</event>
<event>
 5   0  0.1496000E-07  0.3690161E+04  0.7818609E-02  0.8070146E-01
       -1   -1    0    0    0  501  0.00000000000E+00  0.00000000000E+00  0.12689369024E+04  0.12689369024E+04  0.50400001928E-02 0.  1.
        1   -1    0    0  501    0  0.00000000000E+00  0.00000000000E+00 -0.26828149894E+04  0.26828149894E+04  0.50400001928E-02 0. -1.
    10030    2    1    2    0    0  0.00000000000E+00  0.00000000000E+00 -0.14138780869E+04  0.39517518918E+04  0.36901614829E+04 0.  0.
        3    1    3    3  502    0  0.10891278007E+04  0.46731834602E+03  0.80742661869E+03  0.14340584220E+04  0.10100000352E+00 0.  1.
       -3    1    3    3    0  502 -0.10891278007E+04 -0.46731834602E+03 -0.22213047056E+04  0.25176934699E+04  0.10100000352E+00 0. -1.
</event>
<event>
 5   0  0.4793557E-07  0.3665482E+04  0.7818609E-02  0.8075655E-01
       -2   -1    0    0    0  501  0.00000000000E+00  0.00000000000E+00  0.18332337711E+04  0.18332337711E+04  0.25500000920E-02 0.  1.
        2   -1    0    0  501    0  0.00000000000E+00  0.00000000000E+00 -0.18322484528E+04  0.18322484528E+04  0.25500000920E-02 0. -1.
    10030    2    1    2    0    0  0.00000000000E+00  0.00000000000E+00  0.98531836594E+00  0.36654822239E+04  0.36654820914E+04 0.  0.
        3    1    3    3  502    0  0.10119303668E+04 -0.96395642761E+03 -0.11851399865E+04  0.18324224020E+04  0.10100000352E+00 0. -1.
       -3    1    3    3    0  502 -0.10119303668E+04  0.96395642761E+03  0.11861253048E+04  0.18330598219E+04  0.10100000352E+00 0.  1.
</event>
<event>
 5   0  0.1496287E-07  0.3694955E+04  0.7818609E-02  0.8069081E-01
        1   -1    0    0  501    0  0.00000000000E+00  0.00000000000E+00  0.25994302299E+04  0.25994302299E+04  0.50400001928E-02 0. -1.
       -1   -1    0    0    0  501  0.00000000000E+00  0.00000000000E+00 -0.13130468953E+04  0.13130468953E+04  0.50400001928E-02 0.  1.
    10030    2    1    2    0    0  0.00000000000E+00  0.00000000000E+00  0.12863833346E+04  0.39124771252E+04  0.36949553680E+04 0.  0.
        1    1    3    3  502    0 -0.57253751099E+02  0.34807746060E+03 -0.12770559947E+04  0.13248803433E+04  0.50400001928E-02 0.  1.
       -1    1    3    3    0  502  0.57253751099E+02 -0.34807746060E+03  0.25634393293E+04  0.25875967819E+04  0.50400001928E-02 0. -1.
</event>
<event>
 5   0  0.1496000E-07  0.3625913E+04  0.7818609E-02  0.8084582E-01
       -1   -1    0    0    0  501  0.00000000000E+00  0.00000000000E+00  0.12687375330E+04  0.12687375330E+04  0.50400001928E-02 0.  1.
        1   -1    0    0  501    0  0.00000000000E+00  0.00000000000E+00 -0.25906152884E+04  0.25906152884E+04  0.50400001928E-02 0. -1.
    10030    2    1    2    0    0  0.00000000000E+00  0.00000000000E+00 -0.13218777555E+04  0.38593528214E+04  0.36259127678E+04 0.  0.
        5    1    3    3  502    0 -0.10503299351E+04  0.12306126696E+04 -0.15316443693E+04  0.22279041899E+04  0.46999998093E+01 0. -1.
       -5    1    3    3    0  502  0.10503299351E+04 -0.12306126696E+04  0.20976661389E+03  0.16314486315E+04  0.46999998093E+01 0.  1.
</event>
<event>
 5   0  0.1522273E-07  0.3707622E+04  0.7818609E-02  0.8066275E-01
        1   -1    0    0  501    0  0.00000000000E+00  0.00000000000E+00  0.23885305178E+04  0.23885305178E+04  0.50400001928E-02 0.  1.
       -1   -1    0    0    0  501  0.00000000000E+00  0.00000000000E+00 -0.14387989144E+04  0.14387989144E+04  0.50400001928E-02 0. -1.
    10030    2    1    2    0    0  0.00000000000E+00  0.00000000000E+00  0.94973160340E+03  0.38273294322E+04  0.37076219419E+04 0.  0.
        4    1    3    3  502    0 -0.14430884943E+04 -0.92364554617E+03 -0.25579206692E+03  0.17323558214E+04  0.12699999809E+01 0. -1.
       -4    1    3    3    0  502  0.14430884943E+04  0.92364554617E+03  0.12055236703E+04  0.20949736108E+04  0.12699999809E+01 0.  1.
</event>
<event>
 5   0  0.1496000E-07  0.3688589E+04  0.7818609E-02  0.8070495E-01
        1   -1    0    0  501    0  0.00000000000E+00  0.00000000000E+00  0.27169120449E+04  0.27169120449E+04  0.50400001928E-02 0. -1.
       -1   -1    0    0    0  501  0.00000000000E+00  0.00000000000E+00 -0.12519442759E+04  0.12519442759E+04  0.50400001928E-02 0.  1.
    10030    2    1    2    0    0  0.00000000000E+00  0.00000000000E+00  0.14649677691E+04  0.39688563208E+04  0.36885891518E+04 0.  0.
        5    1    3    3  502    0 -0.38474302361E+03 -0.18030851356E+04  0.68136405722E+03  0.19655590220E+04  0.46999998093E+01 0.  1.
       -5    1    3    3    0  502  0.38474302361E+03  0.18030851356E+04  0.78360371183E+03  0.20032972988E+04  0.46999998093E+01 0. -1.
</event>
<event>
 5   0  0.4687817E-07  0.3803278E+04  0.7818609E-02  0.8045452E-01
        2   -1    0    0  501    0  0.00000000000E+00  0.00000000000E+00  0.23119823007E+04  0.23119823007E+04  0.25500000920E-02 0.  1.
       -2   -1    0    0    0  501  0.00000000000E+00  0.00000000000E+00 -0.15641258627E+04  0.15641258627E+04  0.25500000920E-02 0. -1.
    10030    2    1    2    0    0  0.00000000000E+00  0.00000000000E+00  0.74785643797E+03  0.38761081634E+04  0.38032782232E+04 0.  0.
        4    1    3    3  502    0 -0.14121047219E+04  0.46269848840E+03 -0.83542885566E+03  0.17047206875E+04  0.12699999809E+01 0. -1.
       -4    1    3    3    0  502  0.14121047219E+04 -0.46269848840E+03  0.15832852936E+04  0.21713874759E+04  0.12699999809E+01 0.  1.
</event>
<event>
 5   0  0.4824268E-07  0.3681985E+04  0.7818609E-02  0.8071966E-01
        2   -1    0    0  501    0  0.00000000000E+00  0.00000000000E+00  0.11729371215E+04  0.11729371215E+04  0.25500000920E-02 0.  1.
       -2   -1    0    0    0  501  0.00000000000E+00  0.00000000000E+00 -0.28895433668E+04  0.28895433668E+04  0.25500000920E-02 0. -1.
    10030    2    1    2    0    0  0.00000000000E+00  0.00000000000E+00 -0.17166062453E+04  0.40624804883E+04  0.36819846166E+04 0.  0.
        1    1    3    3  502    0 -0.14249983102E+04  0.10289771670E+04 -0.25414167938E+03  0.17759510656E+04  0.50400001928E-02 0.  1.
       -1    1    3    3    0  502  0.14249983102E+04 -0.10289771670E+04 -0.14624645659E+04  0.22865294227E+04  0.50400001928E-02 0. -1.
</event>
<event>
 5   0  0.1522273E-07  0.3170789E+04  0.7818609E-02  0.8196575E-01
        1   -1    0    0  501    0  0.00000000000E+00  0.00000000000E+00  0.10169554160E+04  0.10169554160E+04  0.50400001928E-02 0. -1.
       -1   -1    0    0    0  501  0.00000000000E+00  0.00000000000E+00 -0.24715692279E+04  0.24715692279E+04  0.50400001928E-02 0.  1.
    10030    2    1    2    0    0  0.00000000000E+00  0.00000000000E+00 -0.14546138119E+04  0.34885246439E+04  0.31707889948E+04 0.  0.
        4    1    3    3  502    0 -0.36705586380E+03  0.12727121587E+04 -0.16857810937E+04  0.21439183182E+04  0.12699999809E+01 0.  1.
       -4    1    3    3    0  502  0.36705586380E+03 -0.12727121587E+04  0.23116728184E+03  0.13446063258E+04  0.12699999809E+01 0. -1.
</event>
<event>
 5   0  0.4758908E-07  0.3668642E+04  0.7818609E-02  0.8074947E-01
        2   -1    0    0  501    0  0.00000000000E+00  0.00000000000E+00  0.29126355374E+04  0.29126355374E+04  0.25500000920E-02 0. -1.
       -2   -1    0    0    0  501  0.00000000000E+00  0.00000000000E+00 -0.11552198640E+04  0.11552198640E+04  0.25500000920E-02 0.  1.
    10030    2    1    2    0    0  0.00000000000E+00  0.00000000000E+00  0.17574156734E+04  0.40678554014E+04  0.36686424898E+04 0.  0.
        2    1    3    3  502    0  0.92743648853E+03 -0.69023169374E+03 -0.70040424376E+03  0.13517116320E+04  0.25500000920E-02 0.  1.
       -2    1    3    3    0  502 -0.92743648853E+03  0.69023169374E+03  0.24578199172E+04  0.27161437695E+04  0.25500000920E-02 0. -1.
</event>
<event>
 5   0  0.1496000E-07  0.3893001E+04  0.7818609E-02  0.8026487E-01
       -1   -1    0    0    0  501  0.00000000000E+00  0.00000000000E+00  0.23200464733E+04  0.23200464733E+04  0.50400001928E-02 0.  1.
        1   -1    0    0  501    0  0.00000000000E+00  0.00000000000E+00 -0.16330980572E+04  0.16330980572E+04  0.50400001928E-02 0. -1.
    10030    2    1    2    0    0  0.00000000000E+00  0.00000000000E+00  0.68694841612E+03  0.39531445306E+04  0.38930005848E+04 0.  0.
        5    1    3    3  502    0  0.19666618816E+03 -0.80561563095E+03 -0.14447394676E+04  0.16658296292E+04  0.46999998093E+01 0. -1.
       -5    1    3    3    0  502 -0.19666618816E+03  0.80561563095E+03  0.21316878837E+04  0.22873149013E+04  0.46999998093E+01 0.  1.
</event>
<event>
 5   0  0.4758908E-07  0.3665774E+04  0.7818609E-02  0.8075589E-01
       -2   -1    0    0    0  501  0.00000000000E+00  0.00000000000E+00  0.22994810589E+04  0.22994810589E+04  0.25500000920E-02 0.  1.
        2   -1    0    0  501    0  0.00000000000E+00  0.00000000000E+00 -0.14609705532E+04  0.14609705532E+04  0.25500000920E-02 0. -1.
    10030    2    1    2    0    0  0.00000000000E+00  0.00000000000E+00  0.83851050570E+03  0.37604516120E+04  0.36657736507E+04 0.  0.
        2    1    3    3  502    0 -0.86429928314E+03 -0.13865629954E+04  0.12713122886E+04  0.20702186179E+04  0.25500000920E-02 0. -1.
       -2    1    3    3    0  502  0.86429928314E+03  0.13865629954E+04 -0.43280178289E+03  0.16902329941E+04  0.25500000920E-02 0.  1.
</event>
<event>
 5   0  0.1522273E-07  0.3750046E+04  0.7818609E-02  0.8056961E-01
       -1   -1    0    0    0  501  0.00000000000E+00  0.00000000000E+00  0.12243564763E+04  0.12243564763E+04  0.50400001928E-02 0.  1.
        1   -1    0    0  501    0  0.00000000000E+00  0.00000000000E+00 -0.28714766739E+04  0.28714766739E+04  0.50400001928E-02 0. -1.
    10030    2    1    2    0    0  0.00000000000E+00  0.00000000000E+00 -0.16471201976E+04  0.40958331502E+04  0.37500458996E+04 0.  0.
        4    1    3    3  502    0 -0.18259518177E+04  0.42479621929E+03 -0.78639961418E+03  0.20329726595E+04  0.12699999809E+01 0.  1.
       -4    1    3    3    0  502  0.18259518177E+04 -0.42479621929E+03 -0.86072058340E+03  0.20628604907E+04  0.12699999809E+01 0. -1.
</event>
<event>
 5   0  0.1522273E-07  0.3667654E+04  0.7818609E-02  0.8075168E-01
       -1   -1    0    0    0  501  0.00000000000E+00  0.00000000000E+00  0.23461503478E+04  0.23461503478E+04  0.50400001928E-02 0.  1.
        1   -1    0    0  501    0  0.00000000000E+00  0.00000000000E+00 -0.14333785920E+04  0.14333785920E+04  0.50400001928E-02 0. -1.
    10030    2    1    2    0    0  0.00000000000E+00  0.00000000000E+00  0.91277175577E+03  0.37795289398E+04  0.36676541180E+04 0.  0.
        4    1    3    3  502    0 -0.48693845647E+03  0.43863892619E+03  0.22213482765E+04  0.23160101352E+04  0.12699999809E+01 0.  1.
       -4    1    3    3    0  502  0.48693845647E+03 -0.43863892619E+03 -0.13085765207E+04  0.14635188046E+04  0.12699999809E+01 0. -1.
</event>
<event>
 5   0  0.1522273E-07  0.3696507E+04  0.7818609E-02  0.8068736E-01
       -1   -1    0    0    0  501  0.00000000000E+00  0.00000000000E+00  0.12223510461E+04  0.12223510462E+04  0.50400001928E-02 0. -1.
        1   -1    0    0  501    0  0.00000000000E+00  0.00000000000E+00 -0.27946482482E+04  0.27946482482E+04  0.50400001928E-02 0.  1.
    10030    2    1    2    0    0  0.00000000000E+00  0.00000000000E+00 -0.15722972020E+04  0.40169992943E+04  0.36965071134E+04 0.  0.
        4    1    3    3  502    0 -0.29575784510E+03  0.17323768853E+04 -0.16431493345E+03  0.17651071883E+04  0.12699999809E+01 0.  1.
       -4    1    3    3    0  502  0.29575784510E+03 -0.17323768853E+04 -0.14079822686E+04  0.22518921061E+04  0.12699999809E+01 0. -1.
</event>
<event>
 5   0  0.4758908E-07  0.3741210E+04  0.7818609E-02  0.8058890E-01
       -2   -1    0    0    0  501  0.00000000000E+00  0.00000000000E+00  0.11788591370E+04  0.11788591370E+04  0.25500000920E-02 0.  1.
        2   -1    0    0  501    0  0.00000000000E+00  0.00000000000E+00 -0.29682618827E+04  0.29682618827E+04  0.25500000920E-02 0. -1.
    10030    2    1    2    0    0  0.00000000000E+00  0.00000000000E+00 -0.17894027457E+04  0.41471210197E+04  0.37412097730E+04 0.  0.
        2    1    3    3  502    0  0.10285319218E+04  0.10226392125E+04 -0.22041805581E+04  0.26385755259E+04  0.25500000920E-02 0. -1.
       -2    1    3    3    0  502 -0.10285319218E+04 -0.10226392125E+04  0.41477781240E+03  0.15085454938E+04  0.25500000920E-02 0.  1.
</event>
<event>
 5   0  0.1496000E-07  0.3629085E+04  0.7818609E-02  0.8083862E-01
       -3   -1    0    0    0  501  0.00000000000E+00  0.00000000000E+00  0.26139010256E+04  0.26139010275E+04  0.10100000352E+00 0.  1.
        3   -1    0    0  501    0  0.00000000000E+00  0.00000000000E+00 -0.12596363034E+04  0.12596363075E+04  0.10100000352E+00 0. -1.
    10030    2    1    2    0    0  0.00000000000E+00  0.00000000000E+00  0.13542647221E+04  0.38735373350E+04  0.36290850842E+04 0.  0.
        5    1    3    3  502    0 -0.42329443251E+03  0.17304716207E+04  0.10450731379E+04  0.20654079888E+04  0.46999998093E+01 0.  1.
       -5    1    3    3    0  502  0.42329443251E+03 -0.17304716207E+04  0.30919158429E+03  0.18081293462E+04  0.46999998093E+01 0. -1.
</event>
<event>
 5   0  0.4857514E-07  0.3686713E+04  0.7818609E-02  0.8070913E-01
       -2   -1    0    0    0  501  0.00000000000E+00  0.00000000000E+00  0.14509766901E+04  0.14509766901E+04  0.25500000920E-02 0. -1.
        2   -1    0    0  501    0  0.00000000000E+00  0.00000000000E+00 -0.23418454144E+04  0.23418454144E+04  0.25500000920E-02 0.  1.
    10030    2    1    2    0    0  0.00000000000E+00  0.00000000000E+00 -0.89086872423E+03  0.37928221045E+04  0.36867129577E+04 0.  0.
        5    1    3    3  502    0  0.18751144211E+03  0.10782955113E+03 -0.23287377749E+04  0.23387666551E+04  0.46999998093E+01 0.  1.
       -5    1    3    3    0  502 -0.18751144211E+03 -0.10782955113E+03  0.14378690507E+04  0.14540554494E+04  0.46999998093E+01 0. -1.
</event>
<event>
 5   0  0.4857514E-07  0.3705437E+04  0.7818609E-02  0.8066758E-01
       -2   -1    0    0    0  501  0.00000000000E+00  0.00000000000E+00  0.23663223155E+04  0.23663223155E+04  0.25500000920E-02 0.  1.
        2   -1    0    0  501    0  0.00000000000E+00  0.00000000000E+00 -0.14505910277E+04  0.14505910277E+04  0.25500000920E-02 0. -1.
    10030    2    1    2    0    0  0.00000000000E+00  0.00000000000E+00  0.91573128774E+03  0.38169133432E+04  0.37054370428E+04 0.  0.
        5    1    3    3  502    0  0.97564737796E+03  0.11430522910E+04 -0.65828571007E+03  0.16406762363E+04  0.46999998093E+01 0.  1.
       -5    1    3    3    0  502 -0.97564737796E+03 -0.11430522910E+04  0.15740169978E+04  0.21762371069E+04  0.46999998093E+01 0. -1.
</event>
<event>
 5   0  0.4687817E-07  0.3643467E+04  0.7818609E-02  0.8080607E-01
       -2   -1    0    0    0  501  0.00000000000E+00  0.00000000000E+00  0.13176324171E+04  0.13176324171E+04  0.25500000920E-02 0. -1.
        2   -1    0    0  501    0  0.00000000000E+00  0.00000000000E+00 -0.25186933826E+04  0.25186933826E+04  0.25500000920E-02 0.  1.
    10030    2    1    2    0    0  0.00000000000E+00  0.00000000000E+00 -0.12010609654E+04  0.38363257997E+04  0.36434665085E+04 0.  0.
        4    1    3    3  502    0 -0.96856719428E+03  0.77853525267E+03 -0.20031346988E+04  0.23572844088E+04  0.12699999809E+01 0.  1.
       -4    1    3    3    0  502  0.96856719428E+03 -0.77853525267E+03  0.80207373333E+03  0.14790413909E+04  0.12699999809E+01 0. -1.
</event>
<event>
 5   0  0.1496287E-07  0.3690797E+04  0.7818609E-02  0.8070004E-01
        1   -1    0    0  501    0  0.00000000000E+00  0.00000000000E+00  0.10258508722E+04  0.10258508722E+04  0.50400001928E-02 0. -1.
       -1   -1    0    0    0  501  0.00000000000E+00  0.00000000000E+00 -0.33196785668E+04  0.33196785669E+04  0.50400001928E-02 0.  1.
    10030    2    1    2    0    0  0.00000000000E+00  0.00000000000E+00 -0.22938276946E+04  0.43455294391E+04  0.36907967451E+04 0.  0.
        1    1    3    3  502    0 -0.18205446233E+04  0.87176001432E+02 -0.80666315408E+03  0.19931602607E+04  0.50400001928E-02 0. -1.
       -1    1    3    3    0  502  0.18205446233E+04 -0.87176001432E+02 -0.14871645405E+04  0.23523691784E+04  0.50400001928E-02 0.  1.
</event>
<event>
 5   0  0.1496000E-07  0.3473481E+04  0.7818609E-02  0.8120104E-01
        1   -1    0    0  501    0  0.00000000000E+00  0.00000000000E+00  0.22798361684E+04  0.22798361684E+04  0.50400001928E-02 0. -1.
       -1   -1    0    0    0  501  0.00000000000E+00  0.00000000000E+00 -0.13230190705E+04  0.13230190706E+04  0.50400001928E-02 0.  1.
    10030    2    1    2    0    0  0.00000000000E+00  0.00000000000E+00  0.95681709782E+03  0.36028552389E+04  0.34734805187E+04 0.  0.
        2    1    3    3  502    0  0.27335916668E+02 -0.19716999361E+03 -0.13111477064E+04  0.13261717712E+04  0.25500000920E-02 0.  1.
       -2    1    3    3    0  502 -0.27335916668E+02  0.19716999361E+03  0.22679648043E+04  0.22766834677E+04  0.25500000920E-02 0. -1.
</event>
<event>
 5   0  0.4758908E-07  0.3484506E+04  0.7818609E-02  0.8117472E-01
       -2   -1    0    0    0  501  0.00000000000E+00  0.00000000000E+00  0.15399504916E+04  0.15399504916E+04  0.25500000920E-02 0. -1.
        2   -1    0    0  501    0  0.00000000000E+00  0.00000000000E+00 -0.19711316998E+04  0.19711316998E+04  0.25500000920E-02 0.  1.
    10030    2    1    2    0    0  0.00000000000E+00  0.00000000000E+00 -0.43118120820E+03  0.35110821914E+04  0.34845058359E+04 0.  0.
        2    1    3    3  502    0 -0.25939887670E+02  0.76326273205E+03 -0.17934850677E+04  0.19493156655E+04  0.25500000920E-02 0.  1.
       -2    1    3    3    0  502  0.25939887670E+02 -0.76326273205E+03  0.13623038595E+04  0.15617665259E+04  0.25500000920E-02 0. -1.
</event>
<event>
 5   0  0.1496000E-07  0.3700089E+04  0.7818609E-02  0.8067942E-01
        1   -1    0    0  501    0  0.00000000000E+00  0.00000000000E+00  0.29132841669E+04  0.29132841669E+04  0.50400001928E-02 0.  1.
       -1   -1    0    0    0  501  0.00000000000E+00  0.00000000000E+00 -0.11748474143E+04  0.11748474143E+04  0.50400001928E-02 0. -1.
    10030    2    1    2    0    0  0.00000000000E+00  0.00000000000E+00  0.17384367526E+04  0.40881315812E+04  0.37000888479E+04 0.  0.
        2    1    3    3  502    0 -0.40213117885E+03 -0.54398595976E+03 -0.10332943199E+04  0.12350414410E+04  0.25500000920E-02 0. -1.
       -2    1    3    3    0  502  0.40213117885E+03  0.54398595976E+03  0.27717310726E+04  0.28530901402E+04  0.25500000920E-02 0.  1.
</event>
<event>
 5   0  0.4793557E-07  0.3670763E+04  0.7818609E-02  0.8074472E-01
        2   -1    0    0  501    0  0.00000000000E+00  0.00000000000E+00  0.10969835374E+04  0.10969835374E+04  0.25500000920E-02 0.  1.
       -2   -1    0    0    0  501  0.00000000000E+00  0.00000000000E+00 -0.30708081489E+04  0.30708081489E+04  0.25500000920E-02 0. -1.
    10030    2    1    2    0    0  0.00000000000E+00  0.00000000000E+00 -0.19738246116E+04  0.41677916863E+04  0.36707634006E+04 0.  0.
        3    1    3    3  502    0  0.93947842557E+03 -0.26720303988E+03  0.77738999529E+03  0.12483398542E+04  0.10100000352E+00 0.  1.
       -3    1    3    3    0  502 -0.93947842557E+03  0.26720303988E+03 -0.27512146069E+04  0.29194518321E+04  0.10100000352E+00 0. -1.
</event>
<event>
 5   0  0.4857514E-07  0.3740790E+04  0.7818609E-02  0.8058982E-01
        2   -1    0    0  501    0  0.00000000000E+00  0.00000000000E+00  0.18648450120E+04  0.18648450120E+04  0.25500000920E-02 0. -1.
       -2   -1    0    0    0  501  0.00000000000E+00  0.00000000000E+00 -0.18759610543E+04  0.18759610543E+04  0.25500000920E-02 0.  1.
    10030    2    1    2    0    0  0.00000000000E+00  0.00000000000E+00 -0.11116042355E+02  0.37408060663E+04  0.37407895502E+04 0.  0.
        5    1    3    3  502    0  0.10318431450E+04 -0.13264544146E+04 -0.82664199264E+03  0.18728429362E+04  0.46999998093E+01 0.  1.
       -5    1    3    3    0  502 -0.10318431450E+04  0.13264544146E+04  0.81552595028E+03  0.18679631301E+04  0.46999998093E+01 0. -1.
</event>
<event>
 5   0  0.1496000E-07  0.3704996E+04  0.7818609E-02  0.8066856E-01
       -1   -1    0    0    0  501  0.00000000000E+00  0.00000000000E+00  0.15244604300E+04  0.15244604300E+04  0.50400001928E-02 0.  1.
        1   -1    0    0  501    0  0.00000000000E+00  0.00000000000E+00 -0.22511235452E+04  0.22511235452E+04  0.50400001928E-02 0. -1.
    10030    2    1    2    0    0  0.00000000000E+00  0.00000000000E+00 -0.72666311523E+03  0.37755839752E+04  0.37049959609E+04 0.  0.
        5    1    3    3  502    0  0.85352019042E+03 -0.30509768266E+03 -0.20097064820E+04  0.22046595077E+04  0.46999998093E+01 0. -1.
       -5    1    3    3    0  502 -0.85352019042E+03  0.30509768266E+03  0.12830433667E+04  0.15709244674E+04  0.46999998093E+01 0.  1.
</event>
<event>
 5   0  0.1496000E-07  0.3676425E+04  0.7818609E-02  0.8073206E-01
        1   -1    0    0  501    0  0.00000000000E+00  0.00000000000E+00  0.13005714055E+04  0.13005714055E+04  0.50400001928E-02 0. -1.
       -1   -1    0    0    0  501  0.00000000000E+00  0.00000000000E+00 -0.25981085466E+04  0.25981085466E+04  0.50400001928E-02 0.  1.
    10030    2    1    2    0    0  0.00000000000E+00  0.00000000000E+00 -0.12975371411E+04  0.38986799522E+04  0.36764252660E+04 0.  0.
        3    1    3    3  502    0 -0.63665273284E+03  0.96870002834E+03  0.86412407026E+03  0.14458273985E+04  0.10100000352E+00 0. -1.
       -3    1    3    3    0  502  0.63665273284E+03 -0.96870002834E+03 -0.21616612114E+04  0.24528525537E+04  0.10100000352E+00 0.  1.
</event>
<event>
 5   0  0.4793557E-07  0.3603546E+04  0.7818609E-02  0.8089680E-01
       -2   -1    0    0    0  501  0.00000000000E+00  0.00000000000E+00  0.13043627435E+04  0.13043627435E+04  0.25500000920E-02 0. -1.
        2   -1    0    0  501    0  0.00000000000E+00  0.00000000000E+00 -0.24888678445E+04  0.24888678445E+04  0.25500000920E-02 0.  1.
    10030    2    1    2    0    0  0.00000000000E+00  0.00000000000E+00 -0.11845051010E+04  0.37932305880E+04  0.36035463032E+04 0.  0.
        3    1    3    3  502    0 -0.36285621488E+03 -0.39436634502E+02  0.12650400063E+04  0.13166419819E+04  0.10100000352E+00 0. -1.
       -3    1    3    3    0  502  0.36285621488E+03  0.39436634502E+02 -0.24495451073E+04  0.24765886061E+04  0.10100000352E+00 0.  1.
</event>
<event>
 5   0  0.4824268E-07  0.3906349E+04  0.7818609E-02  0.8023710E-01
       -2   -1    0    0    0  501  0.00000000000E+00  0.00000000000E+00  0.15328830891E+04  0.15328830891E+04  0.25500000920E-02 0. -1.
        2   -1    0    0  501    0  0.00000000000E+00  0.00000000000E+00 -0.24887023972E+04  0.24887023972E+04  0.25500000920E-02 0.  1.
    10030    2    1    2    0    0  0.00000000000E+00  0.00000000000E+00 -0.95581930806E+03  0.40215854863E+04  0.39063485858E+04 0.  0.
        1    1    3    3  502    0 -0.11109230262E+04  0.15332096416E+04  0.15829787120E+02  0.18934445747E+04  0.50400001928E-02 0.  1.
       -1    1    3    3    0  502  0.11109230262E+04 -0.15332096416E+04 -0.97164909518E+03  0.21281409116E+04  0.50400001928E-02 0. -1.
</event>
<event>
 5   0  0.4824268E-07  0.3692139E+04  0.7818609E-02  0.8069706E-01
       -2   -1    0    0    0  501  0.00000000000E+00  0.00000000000E+00  0.13437653339E+04  0.13437653339E+04  0.25500000920E-02 0.  1.
        2   -1    0    0  501    0  0.00000000000E+00  0.00000000000E+00 -0.25361365792E+04  0.25361365792E+04  0.25500000920E-02 0. -1.
    10030    2    1    2    0    0  0.00000000000E+00  0.00000000000E+00 -0.11923712454E+04  0.38799019131E+04  0.36921389016E+04 0.  0.
        1    1    3    3  502    0  0.60600406284E+03 -0.17059188540E+04 -0.97590987580E+03  0.20566477934E+04  0.50400001928E-02 0. -1.
       -1    1    3    3    0  502 -0.60600406284E+03  0.17059188540E+04 -0.21646136956E+03  0.18232541197E+04  0.50400001928E-02 0.  1.
</event>
<event>
 5   0  0.4758908E-07  0.3711285E+04  0.7818609E-02  0.8065466E-01
        2   -1    0    0  501    0  0.00000000000E+00  0.00000000000E+00  0.17515005772E+04  0.17515005772E+04  0.25500000920E-02 0.  1.
       -2   -1    0    0    0  501  0.00000000000E+00  0.00000000000E+00 -0.19659761109E+04  0.19659761109E+04  0.25500000920E-02 0. -1.
    10030    2    1    2    0    0  0.00000000000E+00  0.00000000000E+00 -0.21447553368E+03  0.37174766881E+04  0.37112845717E+04 0.  0.
        2    1    3    3  502    0  0.12644774096E+04  0.13491325079E+04 -0.26353223275E+03  0.18677555731E+04  0.25500000920E-02 0.  1.
       -2    1    3    3    0  502 -0.12644774096E+04 -0.13491325079E+04  0.49056699072E+02  0.18497211149E+04  0.25500000920E-02 0. -1.
</event>
<event>
 5   0  0.1496287E-07  0.3714521E+04  0.7818609E-02  0.8064751E-01
       -1   -1    0    0    0  501  0.00000000000E+00  0.00000000000E+00  0.17354596649E+04  0.17354596649E+04  0.50400001928E-02 0. -1.
        1   -1    0    0  501    0  0.00000000000E+00  0.00000000000E+00 -0.19876095274E+04  0.19876095274E+04  0.50400001928E-02 0.  1.
    10030    2    1    2    0    0  0.00000000000E+00  0.00000000000E+00 -0.25214986244E+03  0.37230691923E+04  0.37145207844E+04 0.  0.
        1    1    3    3  502    0  0.10483844938E+04 -0.70371737165E+03 -0.14912255501E+04  0.19539912557E+04  0.50400001928E-02 0.  1.
       -1    1    3    3    0  502 -0.10483844938E+04  0.70371737165E+03  0.12390756877E+04  0.17690779366E+04  0.50400001928E-02 0. -1.
</event>
<event>
 5   0  0.4824268E-07  0.3698696E+04  0.7818609E-02  0.8068251E-01
        2   -1    0    0  501    0  0.00000000000E+00  0.00000000000E+00  0.26707694453E+04  0.26707694453E+04  0.25500000920E-02 0.  1.
       -2   -1    0    0    0  501  0.00000000000E+00  0.00000000000E+00 -0.12805628800E+04  0.12805628800E+04  0.25500000920E-02 0. -1.
    10030    2    1    2    0    0  0.00000000000E+00  0.00000000000E+00  0.13902065653E+04  0.39513323253E+04  0.36986961015E+04 0.  0.
        1    1    3    3  502    0  0.17890385300E+04  0.43271754514E+03  0.50344798265E+03  0.19082356267E+04  0.50400001928E-02 0. -1.
       -1    1    3    3    0  502 -0.17890385300E+04 -0.43271754514E+03  0.88675858264E+03  0.20430966986E+04  0.50400001928E-02 0.  1.
</event>
<event>
 5   0  0.4687817E-07  0.3465624E+04  0.7818609E-02  0.8121985E-01
        2   -1    0    0  501    0  0.00000000000E+00  0.00000000000E+00  0.13709282646E+04  0.13709282646E+04  0.25500000920E-02 0. -1.
       -2   -1    0    0    0  501  0.00000000000E+00  0.00000000000E+00 -0.21902224383E+04  0.21902224383E+04  0.25500000920E-02 0.  1.
    10030    2    1    2    0    0  0.00000000000E+00  0.00000000000E+00 -0.81929417372E+03  0.35611507028E+04  0.34656242418E+04 0.  0.
        4    1    3    3  502    0 -0.66672844800E+03 -0.10851947451E+02 -0.20531044474E+04  0.21586764633E+04  0.12699999809E+01 0.  1.
       -4    1    3    3    0  502  0.66672844800E+03  0.10851947451E+02  0.12338102737E+04  0.14024742395E+04  0.12699999809E+01 0. -1.
</event>
<event>
 5   0  0.4793557E-07  0.3658010E+04  0.7818609E-02  0.8077332E-01
        2   -1    0    0  501    0  0.00000000000E+00  0.00000000000E+00  0.27797146288E+04  0.27797146288E+04  0.25500000920E-02 0. -1.
       -2   -1    0    0    0  501  0.00000000000E+00  0.00000000000E+00 -0.12034540954E+04  0.12034540954E+04  0.25500000920E-02 0.  1.
    10030    2    1    2    0    0  0.00000000000E+00  0.00000000000E+00  0.15762605334E+04  0.39831687243E+04  0.36580098164E+04 0.  0.
        3    1    3    3  502    0  0.14336648309E+04 -0.54485011461E+03  0.18732033652E+04  0.24209806593E+04  0.10100000352E+00 0.  1.
       -3    1    3    3    0  502 -0.14336648309E+04  0.54485011461E+03 -0.29694283180E+03  0.15621880650E+04  0.10100000352E+00 0. -1.
</event>
<event>
 5   0  0.1496000E-07  0.3695811E+04  0.7818609E-02  0.8068891E-01
        1   -1    0    0  501    0  0.00000000000E+00  0.00000000000E+00  0.16133146159E+04  0.16133146159E+04  0.50400001928E-02 0.  1.
       -1   -1    0    0    0  501  0.00000000000E+00  0.00000000000E+00 -0.21166081019E+04  0.21166081019E+04  0.50400001928E-02 0. -1.
    10030    2    1    2    0    0  0.00000000000E+00  0.00000000000E+00 -0.50329348602E+03  0.37299227177E+04  0.36958110270E+04 0.  0.
        5    1    3    3  502    0  0.11392360889E+03 -0.18426668265E+04 -0.17133160979E+03  0.18541241147E+04  0.46999998093E+01 0.  1.
       -5    1    3    3    0  502 -0.11392360889E+03  0.18426668265E+04 -0.33196187623E+03  0.18757986031E+04  0.46999998093E+01 0. -1.
</event>
<event>
 5   0  0.1496000E-07  0.3517229E+04  0.7818609E-02  0.8109719E-01
        1   -1    0    0  501    0  0.00000000000E+00  0.00000000000E+00  0.27350884881E+04  0.27350884881E+04  0.50400001928E-02 0. -1.
       -1   -1    0    0    0  501  0.00000000000E+00  0.00000000000E+00 -0.11307584314E+04  0.11307584314E+04  0.50400001928E-02 0.  1.
    10030    2    1    2    0    0  0.00000000000E+00  0.00000000000E+00  0.16043300566E+04  0.38658469195E+04  0.35172286639E+04 0.  0.
        2    1    3    3  502    0 -0.47536205849E+03 -0.12951048614E+04 -0.39655766971E+03  0.14354524284E+04  0.25500000920E-02 0.  1.
       -2    1    3    3    0  502  0.47536205849E+03  0.12951048614E+04  0.20008877264E+04  0.24303944911E+04  0.25500000920E-02 0. -1.
</event>
<event>
 5   0  0.4824268E-07  0.3699815E+04  0.7818609E-02  0.8068003E-01
       -2   -1    0    0    0  501  0.00000000000E+00  0.00000000000E+00  0.24651784345E+04  0.24651784345E+04  0.25500000920E-02 0. -1.
        2   -1    0    0  501    0  0.00000000000E+00  0.00000000000E+00 -0.13881984543E+04  0.13881984543E+04  0.25500000920E-02 0.  1.
    10030    2    1    2    0    0  0.00000000000E+00  0.00000000000E+00  0.10769799803E+04  0.38533768888E+04  0.36998145318E+04 0.  0.
        1    1    3    3  502    0  0.17359113465E+04 -0.39272708755E+03  0.10639437956E+04  0.20735474840E+04  0.50400001928E-02 0. -1.
       -1    1    3    3    0  502 -0.17359113465E+04  0.39272708755E+03  0.13036184642E+02  0.17798294048E+04  0.50400001928E-02 0.  1.
</event>
<event>
 5   0  0.4687817E-07  0.3717878E+04  0.7818609E-02  0.8064011E-01
        2   -1    0    0  501    0  0.00000000000E+00  0.00000000000E+00  0.17820974688E+04  0.17820974688E+04  0.25500000920E-02 0. -1.
       -2   -1    0    0    0  501  0.00000000000E+00  0.00000000000E+00 -0.19390939394E+04  0.19390939394E+04  0.25500000920E-02 0.  1.
    10030    2    1    2    0    0  0.00000000000E+00  0.00000000000E+00 -0.15699647066E+03  0.37211914082E+04  0.37178781051E+04 0.  0.
        4    1    3    3  502    0  0.42632566299E+03  0.32282579042E+03  0.17034486682E+04  0.17854156491E+04  0.12699999809E+01 0. -1.
       -4    1    3    3    0  502 -0.42632566299E+03 -0.32282579042E+03 -0.18604451389E+04  0.19357757591E+04  0.12699999809E+01 0.  1.
</event>
<event>
 5   0  0.4793557E-07  0.3738579E+04  0.7818609E-02  0.8059466E-01
        2   -1    0    0  501    0  0.00000000000E+00  0.00000000000E+00  0.15266180873E+04  0.15266180873E+04  0.25500000920E-02 0. -1.
       -2   -1    0    0    0  501  0.00000000000E+00  0.00000000000E+00 -0.22888781190E+04  0.22888781190E+04  0.25500000920E-02 0.  1.
    10030    2    1    2    0    0  0.00000000000E+00  0.00000000000E+00 -0.76226003174E+03  0.38154962063E+04  0.37385787332E+04 0.  0.
        3    1    3    3  502    0 -0.81243747033E+03 -0.62262393473E+03  0.12151884866E+04  0.15888355092E+04  0.10100000352E+00 0. -1.
       -3    1    3    3    0  502  0.81243747033E+03  0.62262393473E+03 -0.19774485183E+04  0.22266606971E+04  0.10100000352E+00 0.  1.
</event>
<event>
 5   0  0.1496000E-07  0.3701416E+04  0.7818609E-02  0.8067648E-01
       -1   -1    0    0    0  501  0.00000000000E+00  0.00000000000E+00  0.20284790780E+04  0.20284790780E+04  0.50400001928E-02 0. -1.
        1   -1    0    0  501    0  0.00000000000E+00  0.00000000000E+00 -0.16885164068E+04  0.16885164068E+04  0.50400001928E-02 0.  1.
    10030    2    1    2    0    0  0.00000000000E+00  0.00000000000E+00  0.33996267112E+03  0.37169954848E+04  0.37014160556E+04 0.  0.
        3    1    3    3  502    0 -0.18276065217E+04  0.18471863961E+03  0.39643797843E+03  0.18792098486E+04  0.10100000352E+00 0.  1.
       -3    1    3    3    0  502  0.18276065217E+04 -0.18471863961E+03 -0.56475307313E+02  0.18377856362E+04  0.10100000352E+00 0. -1.
</event>
<event>
 5   0  0.4758908E-07  0.3491511E+04  0.7818609E-02  0.8115805E-01
        2   -1    0    0  501    0  0.00000000000E+00  0.00000000000E+00  0.25453463918E+04  0.25453463918E+04  0.25500000920E-02 0. -1.
       -2   -1    0    0    0  501  0.00000000000E+00  0.00000000000E+00 -0.11973466375E+04  0.11973466375E+04  0.25500000920E-02 0.  1.
    10030    2    1    2    0    0  0.00000000000E+00  0.00000000000E+00  0.13479997543E+04  0.37426930293E+04  0.34915108154E+04 0.  0.
        2    1    3    3  502    0  0.40097049641E+03  0.30948860175E+03 -0.11168477042E+04  0.12263398094E+04  0.25500000920E-02 0.  1.
       -2    1    3    3    0  502 -0.40097049641E+03 -0.30948860175E+03  0.24648474585E+04  0.25163532199E+04  0.25500000920E-02 0. -1.
</event>
<event>
 5   0  0.1496287E-07  0.3740135E+04  0.7818609E-02  0.8059125E-01
        1   -1    0    0  501    0  0.00000000000E+00  0.00000000000E+00  0.12396358789E+04  0.12396358789E+04  0.50400001928E-02 0. -1.
       -1   -1    0    0    0  501  0.00000000000E+00  0.00000000000E+00 -0.28211120895E+04  0.28211120895E+04  0.50400001928E-02 0.  1.
    10030    2    1    2    0    0  0.00000000000E+00  0.00000000000E+00 -0.15814762106E+04  0.40607479683E+04  0.37401346310E+04 0.  0.
        1    1    3    3  502    0 -0.23319044361E+03  0.50687287040E+02  0.12230369073E+04  0.12461004216E+04  0.50400001928E-02 0. -1.
       -1    1    3    3    0  502  0.23319044361E+03 -0.50687287040E+02 -0.28045131179E+04  0.28146475468E+04  0.50400001928E-02 0.  1.
</event>
<event>
 5   0  0.1496000E-07  0.3703579E+04  0.7818609E-02  0.8067169E-01
        1   -1    0    0  501    0  0.00000000000E+00  0.00000000000E+00  0.20653767245E+04  0.20653767245E+04  0.50400001928E-02 0. -1.
       -1   -1    0    0    0  501  0.00000000000E+00  0.00000000000E+00 -0.16602897993E+04  0.16602897993E+04  0.50400001928E-02 0.  1.
    10030    2    1    2    0    0  0.00000000000E+00  0.00000000000E+00  0.40508692520E+03  0.37256665238E+04  0.37035787598E+04 0.  0.
        2    1    3    3  502    0  0.15008665117E+04  0.10590639498E+04  0.43826373305E+03  0.18884628235E+04  0.25500000920E-02 0. -1.
       -2    1    3    3    0  502 -0.15008665117E+04 -0.10590639498E+04 -0.33176807848E+02  0.18372037003E+04  0.25500000920E-02 0.  1.
</event>
<event>
 5   0  0.4857514E-07  0.3678059E+04  0.7818609E-02  0.8072842E-01
        2   -1    0    0  501    0  0.00000000000E+00  0.00000000000E+00  0.18200881734E+04  0.18200881734E+04  0.25500000920E-02 0. -1.
       -2   -1    0    0    0  501  0.00000000000E+00  0.00000000000E+00 -0.18581679383E+04  0.18581679383E+04  0.25500000920E-02 0.  1.
    10030    2    1    2    0    0  0.00000000000E+00  0.00000000000E+00 -0.38079764847E+02  0.36782561117E+04  0.36780589929E+04 0.  0.
        5    1    3    3  502    0  0.16554528442E+04 -0.40436292425E+03 -0.71043350286E+03  0.18462858246E+04  0.46999998093E+01 0.  1.
       -5    1    3    3    0  502 -0.16554528442E+04  0.40436292425E+03  0.67235373802E+03  0.18319702872E+04  0.46999998093E+01 0. -1.
</event>
<event>
 5   0  0.1496287E-07  0.3778602E+04  0.7818609E-02  0.8050763E-01
       -1   -1    0    0    0  501  0.00000000000E+00  0.00000000000E+00  0.28441032192E+04  0.28441032192E+04  0.50400001928E-02 0.  1.
        1   -1    0    0  501    0  0.00000000000E+00  0.00000000000E+00 -0.12550381311E+04  0.12550381311E+04  0.50400001928E-02 0. -1.
    10030    2    1    2    0    0  0.00000000000E+00  0.00000000000E+00  0.15890650882E+04  0.40991413503E+04  0.37786018519E+04 0.  0.
        1    1    3    3  502    0  0.63896776620E+03 -0.38923365410E+03 -0.10874759817E+04  0.13199949449E+04  0.50400001928E-02 0. -1.
       -1    1    3    3    0  502 -0.63896776620E+03  0.38923365410E+03  0.26765410699E+04  0.27791464054E+04  0.50400001928E-02 0.  1.
</event>
<event>
 5   0  0.4687817E-07  0.3691151E+04  0.7818609E-02  0.8069926E-01
       -2   -1    0    0    0  501  0.00000000000E+00  0.00000000000E+00  0.15084832096E+04  0.15084832096E+04  0.25500000920E-02 0. -1.
        2   -1    0    0  501    0  0.00000000000E+00  0.00000000000E+00 -0.22579955903E+04  0.22579955903E+04  0.25500000920E-02 0.  1.
    10030    2    1    2    0    0  0.00000000000E+00  0.00000000000E+00 -0.74951238068E+03  0.37664787999E+04  0.36911507340E+04 0.  0.
        4    1    3    3  502    0 -0.11001662854E+04  0.36012263405E+03  0.10919686376E+04  0.15913677405E+04  0.12699999809E+01 0. -1.
       -4    1    3    3    0  502  0.11001662854E+04 -0.36012263405E+03 -0.18414810182E+04  0.21751110594E+04  0.12699999809E+01 0.  1.
</event>
<event>
 5   0  0.4793557E-07  0.3700335E+04  0.7818609E-02  0.8067888E-01
       -2   -1    0    0    0  501  0.00000000000E+00  0.00000000000E+00  0.20610502030E+04  0.20610502030E+04  0.25500000920E-02 0. -1.
        2   -1    0    0  501    0  0.00000000000E+00  0.00000000000E+00 -0.16608621181E+04  0.16608621181E+04  0.25500000920E-02 0.  1.
    10030    2    1    2    0    0  0.00000000000E+00  0.00000000000E+00  0.40018808483E+03  0.37219123211E+04  0.37003352311E+04 0.  0.
        3    1    3    3  502    0 -0.12052637600E+04  0.42630952729E+03 -0.11451349122E+04  0.17163142258E+04  0.10100000352E+00 0.  1.
       -3    1    3    3    0  502  0.12052637600E+04 -0.42630952729E+03  0.15453229971E+04  0.20055980953E+04  0.10100000352E+00 0. -1.
</event>
<event>
 5   0  0.4793557E-07  0.3633770E+04  0.7818609E-02  0.8082800E-01
        2   -1    0    0  501    0  0.00000000000E+00  0.00000000000E+00  0.25151940430E+04  0.25151940430E+04  0.25500000920E-02 0.  1.
       -2   -1    0    0    0  501  0.00000000000E+00  0.00000000000E+00 -0.13124520782E+04  0.13124520782E+04  0.25500000920E-02 0. -1.
    10030    2    1    2    0    0  0.00000000000E+00  0.00000000000E+00  0.12027419648E+04  0.38276461212E+04  0.36337703003E+04 0.  0.
        3    1    3    3  502    0 -0.34314276148E+03  0.16499543056E+04 -0.11380548781E+03  0.16890967600E+04  0.10100000352E+00 0. -1.
       -3    1    3    3    0  502  0.34314276148E+03 -0.16499543056E+04  0.13165474526E+04  0.21385493612E+04  0.10100000352E+00 0.  1.
</event>
<event>
 5   0  0.1496000E-07  0.3450339E+04  0.7818609E-02  0.8125661E-01
       -1   -1    0    0    0  501  0.00000000000E+00  0.00000000000E+00  0.18062864336E+04  0.18062864336E+04  0.50400001928E-02 0. -1.
        1   -1    0    0  501    0  0.00000000000E+00  0.00000000000E+00 -0.16476951441E+04  0.16476951441E+04  0.50400001928E-02 0.  1.
    10030    2    1    2    0    0  0.00000000000E+00  0.00000000000E+00  0.15859128949E+03  0.34539815777E+04  0.34503387576E+04 0.  0.
        3    1    3    3  502    0  0.48328572439E+03 -0.34432328551E+03 -0.15423176357E+04  0.16525336050E+04  0.10100000352E+00 0.  1.
       -3    1    3    3    0  502 -0.48328572439E+03  0.34432328551E+03  0.17009089252E+04  0.18014479727E+04  0.10100000352E+00 0. -1.
</event>
<event>
 5   0  0.4758908E-07  0.2999174E+04  0.7818609E-02  0.8243967E-01
       -2   -1    0    0    0  501  0.00000000000E+00  0.00000000000E+00  0.89020015089E+03  0.89020015089E+03  0.25500000920E-02 0. -1.
        2   -1    0    0  501    0  0.00000000000E+00  0.00000000000E+00 -0.25261304624E+04  0.25261304624E+04  0.25500000920E-02 0.  1.
    10030    2    1    2    0    0  0.00000000000E+00  0.00000000000E+00 -0.16359303115E+04  0.34163306133E+04  0.29991743656E+04 0.  0.
        2    1    3    3  502    0  0.76305466943E+03 -0.21411886585E+03  0.63215655800E+03  0.10137658660E+04  0.25500000920E-02 0. -1.
       -2    1    3    3    0  502 -0.76305466943E+03  0.21411886585E+03 -0.22680868695E+04  0.24025647473E+04  0.25500000920E-02 0.  1.
</event>
<event>
 5   0  0.4687817E-07  0.3561738E+04  0.7818609E-02  0.8099313E-01
        2   -1    0    0  501    0  0.00000000000E+00  0.00000000000E+00  0.17252310868E+04  0.17252310868E+04  0.25500000920E-02 0.  1.
       -2   -1    0    0    0  501  0.00000000000E+00  0.00000000000E+00 -0.18383013662E+04  0.18383013662E+04  0.25500000920E-02 0. -1.
    10030    2    1    2    0    0  0.00000000000E+00  0.00000000000E+00 -0.11307027932E+03  0.35635324530E+04  0.35617381509E+04 0.  0.
        4    1    3    3  502    0 -0.31718795785E+03 -0.12217758850E+04  0.12003415409E+04  0.17418857430E+04  0.12699999809E+01 0.  1.
       -4    1    3    3    0  502  0.31718795785E+03  0.12217758850E+04 -0.13134118203E+04  0.18216467100E+04  0.12699999809E+01 0. -1.
</event>
<event>
 5   0  0.4687817E-07  0.3715052E+04  0.7818609E-02  0.8064634E-01
       -2   -1    0    0    0  501  0.00000000000E+00  0.00000000000E+00  0.23260661768E+04  0.23260661768E+04  0.25500000920E-02 0.  1.
        2   -1    0    0  501    0  0.00000000000E+00  0.00000000000E+00 -0.14833642953E+04  0.14833642953E+04  0.25500000920E-02 0. -1.
    10030    2    1    2    0    0  0.00000000000E+00  0.00000000000E+00  0.84270188148E+03  0.38094304720E+04  0.37150523630E+04 0.  0.
        4    1    3    3  502    0 -0.18331238148E+03  0.93058430076E+03 -0.12163488021E+04  0.15424320378E+04  0.12699999809E+01 0. -1.
       -4    1    3    3    0  502  0.18331238148E+03 -0.93058430076E+03  0.20590506836E+04  0.22669984342E+04  0.12699999809E+01 0.  1.
</event>
<event>
 5   0  0.1522273E-07  0.3712791E+04  0.7818609E-02  0.8065133E-01
        1   -1    0    0  501    0  0.00000000000E+00  0.00000000000E+00  0.22941533975E+04  0.22941533975E+04  0.50400001928E-02 0. -1.
       -1   -1    0    0    0  501  0.00000000000E+00  0.00000000000E+00 -0.15021680518E+04  0.15021680519E+04  0.50400001928E-02 0.  1.
    10030    2    1    2    0    0  0.00000000000E+00  0.00000000000E+00  0.79198534567E+03  0.37963214494E+04  0.37127908316E+04 0.  0.
        4    1    3    3  502    0  0.30055631263E+03  0.92579457596E+01  0.22690859260E+04  0.22889238430E+04  0.12699999809E+01 0. -1.
       -4    1    3    3    0  502 -0.30055631263E+03 -0.92579457596E+01 -0.14771005803E+04  0.15073976064E+04  0.12699999809E+01 0.  1.
</event>
<event>
 5   0  0.1496000E-07  0.3673623E+04  0.7818609E-02  0.8073832E-01
       -1   -1    0    0    0  501  0.00000000000E+00  0.00000000000E+00  0.16665964182E+04  0.16665964182E+04  0.50400001928E-02 0. -1.
        1   -1    0    0  501    0  0.00000000000E+00  0.00000000000E+00 -0.20244116595E+04  0.20244116595E+04  0.50400001928E-02 0.  1.
    10030    2    1    2    0    0  0.00000000000E+00  0.00000000000E+00 -0.35781524131E+03  0.36910080777E+04  0.36736233997E+04 0.  0.
        5    1    3    3  502    0  0.83022093621E+03  0.71927714674E+03 -0.16580253270E+04  0.19888932832E+04  0.46999998093E+01 0.  1.
       -5    1    3    3    0  502 -0.83022093621E+03 -0.71927714674E+03  0.13002100857E+04  0.17021147945E+04  0.46999998093E+01 0. -1.
</event>
<event>
 5   0  0.1496287E-07  0.3668851E+04  0.7818609E-02  0.8074900E-01
       -1   -1    0    0    0  501  0.00000000000E+00  0.00000000000E+00  0.14303730520E+04  0.14303730520E+04  0.50400001928E-02 0.  1.
        1   -1    0    0  501    0  0.00000000000E+00  0.00000000000E+00 -0.23526147286E+04  0.23526147287E+04  0.50400001928E-02 0. -1.
    10030    2    1    2    0    0  0.00000000000E+00  0.00000000000E+00 -0.92224167669E+03  0.37829877806E+04  0.36688508880E+04 0.  0.
        1    1    3    3  502    0 -0.21603528113E+02 -0.15054361361E+04  0.61948609312E+03  0.16280564155E+04  0.50400001928E-02 0.  1.
       -1    1    3    3    0  502  0.21603528113E+02  0.15054361361E+04 -0.15417277698E+04  0.21549313652E+04  0.50400001928E-02 0. -1.
</event>
<event>
 5   0  0.1522273E-07  0.3733011E+04  0.7818609E-02  0.8060685E-01
        1   -1    0    0  501    0  0.00000000000E+00  0.00000000000E+00  0.17138035311E+04  0.17138035311E+04  0.50400001928E-02 0. -1.
       -1   -1    0    0    0  501  0.00000000000E+00  0.00000000000E+00 -0.20328131264E+04  0.20328131264E+04  0.50400001928E-02 0.  1.
    10030    2    1    2    0    0  0.00000000000E+00  0.00000000000E+00 -0.31900959528E+03  0.37466166575E+04  0.37330107495E+04 0.  0.
        4    1    3    3  502    0 -0.11361062160E+03  0.16151212137E+04  0.77248989877E+03  0.17939526652E+04  0.12699999809E+01 0. -1.
       -4    1    3    3    0  502  0.11361062160E+03 -0.16151212137E+04 -0.10914994940E+04  0.19526639923E+04  0.12699999809E+01 0.  1.
</event>
<event>
 5   0  0.1496287E-07  0.3733134E+04  0.7818609E-02  0.8060658E-01
        1   -1    0    0  501    0  0.00000000000E+00  0.00000000000E+00  0.28013403892E+04  0.28013403892E+04  0.50400001928E-02 0.  1.
       -1   -1    0    0    0  501  0.00000000000E+00  0.00000000000E+00 -0.12437164293E+04  0.12437164293E+04  0.50400001928E-02 0. -1.
    10030    2    1    2    0    0  0.00000000000E+00  0.00000000000E+00  0.15576239599E+04  0.40450568185E+04  0.37331343754E+04 0.  0.
        1    1    3    3  502    0  0.22318816054E+03  0.12967059003E+04  0.22133726174E+04  0.25749325215E+04  0.50400001928E-02 0.  1.
       -1    1    3    3    0  502 -0.22318816054E+03 -0.12967059003E+04 -0.65574865745E+03  0.14701242970E+04  0.50400001928E-02 0. -1.
</event>
<event>
 5   0  0.4758908E-07  0.3812254E+04  0.7818609E-02  0.8043530E-01
       -2   -1    0    0    0  501  0.00000000000E+00  0.00000000000E+00  0.17368198595E+04  0.17368198595E+04  0.25500000920E-02 0.  1.
        2   -1    0    0  501    0  0.00000000000E+00  0.00000000000E+00 -0.20919383583E+04  0.20919383583E+04  0.25500000920E-02 0. -1.
    10030    2    1    2    0    0  0.00000000000E+00  0.00000000000E+00 -0.35511849880E+03  0.38287582179E+04  0.38122539714E+04 0.  0.
        2    1    3    3  502    0  0.34107190688E+03  0.12112202679E+04 -0.16155172945E+04  0.20477501586E+04  0.25500000920E-02 0. -1.
       -2    1    3    3    0  502 -0.34107190688E+03 -0.12112202679E+04  0.12603987957E+04  0.17810080593E+04  0.25500000920E-02 0.  1.
</event>
<event>
 5   0  0.1522273E-07  0.3807389E+04  0.7818609E-02  0.8044571E-01
       -1   -1    0    0    0  501  0.00000000000E+00  0.00000000000E+00  0.18332901927E+04  0.18332901927E+04  0.50400001928E-02 0. -1.
        1   -1    0    0  501    0  0.00000000000E+00  0.00000000000E+00 -0.19768023198E+04  0.19768023198E+04  0.50400001928E-02 0.  1.
    10030    2    1    2    0    0  0.00000000000E+00  0.00000000000E+00 -0.14351212712E+03  0.38100925125E+04  0.38073887670E+04 0.  0.
        4    1    3    3  502    0 -0.16627550989E+04 -0.72405719863E+03 -0.65099121173E+03  0.19268639071E+04  0.12699999809E+01 0.  1.
       -4    1    3    3    0  502  0.16627550989E+04  0.72405719863E+03  0.50747908461E+03  0.18832286054E+04  0.12699999809E+01 0. -1.
</event>
<event>
 5   0  0.4687817E-07  0.3722859E+04  0.7818609E-02  0.8062915E-01
        2   -1    0    0  501    0  0.00000000000E+00  0.00000000000E+00  0.19961493854E+04  0.19961493854E+04  0.25500000920E-02 0. -1.
       -2   -1    0    0    0  501  0.00000000000E+00  0.00000000000E+00 -0.17358017128E+04  0.17358017128E+04  0.25500000920E-02 0.  1.
    10030    2    1    2    0    0  0.00000000000E+00  0.00000000000E+00  0.26034767263E+03  0.37319510982E+04  0.37228588596E+04 0.  0.
        4    1    3    3  502    0  0.28029739345E+03  0.32740951727E+03 -0.16850922679E+04  0.17393392956E+04  0.12699999809E+01 0.  1.
       -4    1    3    3    0  502 -0.28029739345E+03 -0.32740951727E+03  0.19454399405E+04  0.19926118026E+04  0.12699999809E+01 0. -1.
</event>
<event>
 5   0  0.1496287E-07  0.3699501E+04  0.7818609E-02  0.8068072E-01
        1   -1    0    0  501    0  0.00000000000E+00  0.00000000000E+00  0.22274304569E+04  0.22274304569E+04  0.50400001928E-02 0. -1.
       -1   -1    0    0    0  501  0.00000000000E+00  0.00000000000E+00 -0.15361096031E+04  0.15361096031E+04  0.50400001928E-02 0.  1.
    10030    2    1    2    0    0  0.00000000000E+00  0.00000000000E+00  0.69132085379E+03  0.37635400600E+04  0.36995012178E+04 0.  0.
        1    1    3    3  502    0  0.78759254014E+03  0.15815230875E+04  0.90291987745E+03  0.19841324529E+04  0.50400001928E-02 0.  1.
       -1    1    3    3    0  502 -0.78759254014E+03 -0.15815230875E+04 -0.21159902366E+03  0.17794076071E+04  0.50400001928E-02 0. -1.
</event>
<event>
 5   0  0.1496000E-07  0.3452168E+04  0.7818609E-02  0.8125220E-01
       -1   -1    0    0    0  501  0.00000000000E+00  0.00000000000E+00  0.14052412057E+04  0.14052412057E+04  0.50400001928E-02 0.  1.
        1   -1    0    0  501    0  0.00000000000E+00  0.00000000000E+00 -0.21201817157E+04  0.21201817158E+04  0.50400001928E-02 0. -1.
    10030    2    1    2    0    0  0.00000000000E+00  0.00000000000E+00 -0.71494051005E+03  0.35254229215E+04  0.34521684261E+04 0.  0.
        3    1    3    3  502    0  0.39075337121E+03 -0.99838919240E+03  0.10239716709E+04  0.14825610172E+04  0.10100000352E+00 0.  1.
       -3    1    3    3    0  502 -0.39075337121E+03  0.99838919240E+03 -0.17389121810E+04  0.20428619043E+04  0.10100000352E+00 0. -1.
</event>
<event>
 5   0  0.4758908E-07  0.3808599E+04  0.7818609E-02  0.8044312E-01
        2   -1    0    0  501    0  0.00000000000E+00  0.00000000000E+00  0.20087812793E+04  0.20087812793E+04  0.25500000920E-02 0.  1.
       -2   -1    0    0    0  501  0.00000000000E+00  0.00000000000E+00 -0.18052516274E+04  0.18052516275E+04  0.25500000920E-02 0. -1.
    10030    2    1    2    0    0  0.00000000000E+00  0.00000000000E+00  0.20352965187E+03  0.38140329068E+04  0.38085985211E+04 0.  0.
        2    1    3    3  502    0  0.54978117142E+02 -0.50331175620E+03  0.19401430161E+04  0.20051185102E+04  0.25500000920E-02 0.  1.
       -2    1    3    3    0  502 -0.54978117142E+02  0.50331175620E+03 -0.17366133642E+04  0.18089143965E+04  0.25500000920E-02 0. -1.
</event>
<event>
 5   0  0.4793557E-07  0.3723471E+04  0.7818609E-02  0.8062780E-01
        2   -1    0    0  501    0  0.00000000000E+00  0.00000000000E+00  0.21120386790E+04  0.21120386790E+04  0.25500000920E-02 0.  1.
       -2   -1    0    0    0  501  0.00000000000E+00  0.00000000000E+00 -0.16410964956E+04  0.16410964956E+04  0.25500000920E-02 0. -1.
    10030    2    1    2    0    0  0.00000000000E+00  0.00000000000E+00  0.47094218341E+03  0.37531351746E+04  0.37234711089E+04 0.  0.
        3    1    3    3  502    0 -0.78048575229E+03  0.20694292164E+03  0.19263562809E+04  0.20887393120E+04  0.10100000352E+00 0.  1.
       -3    1    3    3    0  502  0.78048575229E+03 -0.20694292164E+03 -0.14554140974E+04  0.16643958626E+04  0.10100000352E+00 0. -1.
</event>
<event>
 5   0  0.4857514E-07  0.3668984E+04  0.7818609E-02  0.8074870E-01
        2   -1    0    0  501    0  0.00000000000E+00  0.00000000000E+00  0.10876025145E+04  0.10876025145E+04  0.25500000920E-02 0. -1.
       -2   -1    0    0    0  501  0.00000000000E+00  0.00000000000E+00 -0.30942938238E+04  0.30942938238E+04  0.25500000920E-02 0.  1.
    10030    2    1    2    0    0  0.00000000000E+00  0.00000000000E+00 -0.20066913093E+04  0.41818963383E+04  0.36689844608E+04 0.  0.
        5    1    3    3  502    0 -0.36741247579E+03 -0.39267997617E+03 -0.30024301770E+04  0.30502128694E+04  0.46999998093E+01 0.  1.
       -5    1    3    3    0  502  0.36741247579E+03  0.39267997617E+03  0.99573886769E+03  0.11316834689E+04  0.46999998093E+01 0. -1.
</event>
<event>
 5   0  0.1522273E-07  0.3355256E+04  0.7818609E-02  0.8148976E-01
        1   -1    0    0  501    0  0.00000000000E+00  0.00000000000E+00  0.12532496814E+04  0.12532496814E+04  0.50400001928E-02 0. -1.
       -1   -1    0    0    0  501  0.00000000000E+00  0.00000000000E+00 -0.22457106063E+04  0.22457106063E+04  0.50400001928E-02 0.  1.
    10030    2    1    2    0    0  0.00000000000E+00  0.00000000000E+00 -0.99246092498E+03  0.34989602877E+04  0.33552562357E+04 0.  0.
        4    1    3    3  502    0 -0.32526807036E+03 -0.10939337609E+04  0.78604457641E+03  0.13857698509E+04  0.12699999809E+01 0. -1.
       -4    1    3    3    0  502  0.32526807036E+03  0.10939337609E+04 -0.17785055014E+04  0.21131904368E+04  0.12699999809E+01 0.  1.
</event>
<event>
 5   0  0.1496287E-07  0.3629043E+04  0.7818609E-02  0.8083871E-01
       -1   -1    0    0    0  501  0.00000000000E+00  0.00000000000E+00  0.17521427104E+04  0.17521427104E+04  0.50400001928E-02 0.  1.
        1   -1    0    0  501    0  0.00000000000E+00  0.00000000000E+00 -0.18791211005E+04  0.18791211005E+04  0.50400001928E-02 0. -1.
    10030    2    1    2    0    0  0.00000000000E+00  0.00000000000E+00 -0.12697839004E+03  0.36312638109E+04  0.36290430354E+04 0.  0.
        1    1    3    3  502    0  0.85342711298E+03  0.77772506421E+03 -0.14640936790E+04  0.18646083808E+04  0.50400001928E-02 0. -1.
       -1    1    3    3    0  502 -0.85342711298E+03 -0.77772506421E+03  0.13371152890E+04  0.17666554301E+04  0.50400001928E-02 0.  1.
</event>
<event>
 5   0  0.1496000E-07  0.3704343E+04  0.7818609E-02  0.8067000E-01
       -1   -1    0    0    0  501  0.00000000000E+00  0.00000000000E+00  0.16878722882E+04  0.16878722882E+04  0.50400001928E-02 0. -1.
        1   -1    0    0  501    0  0.00000000000E+00  0.00000000000E+00 -0.20324641379E+04  0.20324641379E+04  0.50400001928E-02 0.  1.
    10030    2    1    2    0    0  0.00000000000E+00  0.00000000000E+00 -0.34459184965E+03  0.37203364261E+04  0.37043433400E+04 0.  0.
        5    1    3    3  502    0 -0.75450097891E+03  0.40664036324E+03  0.14767093346E+04  0.17074310121E+04  0.46999998093E+01 0. -1.
       -5    1    3    3    0  502  0.75450097891E+03 -0.40664036324E+03 -0.18213011842E+04  0.20129054140E+04  0.46999998093E+01 0.  1.
</event>
<event>
 5   0  0.4793557E-07  0.3729632E+04  0.7818609E-02  0.8061427E-01
       -2   -1    0    0    0  501  0.00000000000E+00  0.00000000000E+00  0.17868108306E+04  0.17868108306E+04  0.25500000920E-02 0. -1.
        2   -1    0    0  501    0  0.00000000000E+00  0.00000000000E+00 -0.19462263161E+04  0.19462263161E+04  0.25500000920E-02 0.  1.
    10030    2    1    2    0    0  0.00000000000E+00  0.00000000000E+00 -0.15941548548E+03  0.37330371468E+04  0.37296317569E+04 0.  0.
        3    1    3    3  502    0  0.99930891120E+03  0.91478937746E+03  0.12028991186E+04  0.18117461756E+04  0.10100000352E+00 0. -1.
       -3    1    3    3    0  502 -0.99930891120E+03 -0.91478937746E+03 -0.13623146041E+04  0.19212909712E+04  0.10100000352E+00 0.  1.
</event>
<event>
 5   0  0.4758908E-07  0.3666625E+04  0.7818609E-02  0.8075399E-01
        2   -1    0    0  501    0  0.00000000000E+00  0.00000000000E+00  0.13047553458E+04  0.13047553458E+04  0.25500000920E-02 0. -1.
       -2   -1    0    0    0  501  0.00000000000E+00  0.00000000000E+00 -0.25759881920E+04  0.25759881920E+04  0.25500000920E-02 0.  1.
    10030    2    1    2    0    0  0.00000000000E+00  0.00000000000E+00 -0.12712328462E+04  0.38807435379E+04  0.36666248046E+04 0.  0.
        2    1    3    3  502    0 -0.12100273326E+04 -0.13559471765E+04 -0.38011614633E+03  0.18566763789E+04  0.25500000920E-02 0. -1.
       -2    1    3    3    0  502  0.12100273326E+04  0.13559471765E+04 -0.89111669989E+03  0.20240671590E+04  0.25500000920E-02 0.  1.
</event>
<event>
 5   0  0.1496000E-07  0.3688494E+04  0.7818609E-02  0.8070517E-01
        1   -1    0    0  501    0  0.00000000000E+00  0.00000000000E+00  0.16749581223E+04  0.16749581223E+04  0.50400001928E-02 0.  1.
       -1   -1    0    0    0  501  0.00000000000E+00  0.00000000000E+00 -0.20306458193E+04  0.20306458193E+04  0.50400001928E-02 0. -1.
    10030    2    1    2    0    0  0.00000000000E+00  0.00000000000E+00 -0.35568769701E+03  0.37056039416E+04  0.36884938436E+04 0.  0.
        2    1    3    3  502    0  0.17821941114E+04  0.30676148903E+03 -0.54136242837E+03  0.18876948219E+04  0.25500000920E-02 0. -1.
       -2    1    3    3    0  502 -0.17821941114E+04 -0.30676148903E+03  0.18567473136E+03  0.18179091197E+04  0.25500000920E-02 0.  1.
</event>
<event>
 5   0  0.1496000E-07  0.3643923E+04  0.7818609E-02  0.8080504E-01
       -1   -1    0    0    0  501  0.00000000000E+00  0.00000000000E+00  0.14285146189E+04  0.14285146190E+04  0.50400001928E-02 0. -1.
        1   -1    0    0  501    0  0.00000000000E+00  0.00000000000E+00 -0.23237732018E+04  0.23237732018E+04  0.50400001928E-02 0.  1.
    10030    2    1    2    0    0  0.00000000000E+00  0.00000000000E+00 -0.89525858283E+03  0.37522878207E+04  0.36439231550E+04 0.  0.
        2    1    3    3  502    0  0.10138078163E+04 -0.68607810621E+03  0.94195861193E+03  0.15446020467E+04  0.25500000920E-02 0. -1.
       -2    1    3    3    0  502 -0.10138078163E+04  0.68607810621E+03 -0.18372171948E+04  0.22076857740E+04  0.25500000920E-02 0.  1.
</event>
<event>
 5   0  0.4687817E-07  0.3716469E+04  0.7818609E-02  0.8064322E-01
        2   -1    0    0  501    0  0.00000000000E+00  0.00000000000E+00  0.17011131603E+04  0.17011131603E+04  0.25500000920E-02 0.  1.
       -2   -1    0    0    0  501  0.00000000000E+00  0.00000000000E+00 -0.20298685212E+04  0.20298685212E+04  0.25500000920E-02 0. -1.
    10030    2    1    2    0    0  0.00000000000E+00  0.00000000000E+00 -0.32875536091E+03  0.37309816814E+04  0.37164693218E+04 0.  0.
        4    1    3    3  502    0 -0.22821252911E+03 -0.11880818317E+04 -0.15803516301E+04  0.19902593511E+04  0.12699999809E+01 0.  1.
       -4    1    3    3    0  502  0.22821252911E+03  0.11880818317E+04  0.12515962692E+04  0.17407223303E+04  0.12699999809E+01 0. -1.
</event>
<event>
 5   0  0.1496000E-07  0.3711695E+04  0.7818609E-02  0.8065375E-01
       -1   -1    0    0    0  501  0.00000000000E+00  0.00000000000E+00  0.13778887550E+04  0.13778887550E+04  0.50400001928E-02 0.  1.
        1   -1    0    0  501    0  0.00000000000E+00  0.00000000000E+00 -0.24995992894E+04  0.24995992894E+04  0.50400001928E-02 0. -1.
    10030    2    1    2    0    0  0.00000000000E+00  0.00000000000E+00 -0.11217105344E+04  0.38774880445E+04  0.37116948975E+04 0.  0.
        3    1    3    3  502    0  0.30780905078E+03 -0.64752015223E+03  0.12273709427E+04  0.14214317431E+04  0.10100000352E+00 0.  1.
       -3    1    3    3    0  502 -0.30780905078E+03  0.64752015223E+03 -0.23490814771E+04  0.24560563013E+04  0.10100000352E+00 0. -1.
</event>
<event>
 5   0  0.4824268E-07  0.3333734E+04  0.7818609E-02  0.8154364E-01
        2   -1    0    0  501    0  0.00000000000E+00  0.00000000000E+00  0.22722109143E+04  0.22722109143E+04  0.25500000920E-02 0.  1.
       -2   -1    0    0    0  501  0.00000000000E+00  0.00000000000E+00 -0.12227938139E+04  0.12227938139E+04  0.25500000920E-02 0. -1.
    10030    2    1    2    0    0  0.00000000000E+00  0.00000000000E+00  0.10494171004E+04  0.34950047282E+04  0.33337339125E+04 0.  0.
        1    1    3    3  502    0  0.15685998708E+04  0.38100522169E+01 -0.66416594480E+02  0.15700099475E+04  0.50400001928E-02 0. -1.
       -1    1    3    3    0  502 -0.15685998708E+04 -0.38100522169E+01  0.11158336949E+04  0.19249947807E+04  0.50400001928E-02 0.  1.
</event>
<event>
 5   0  0.1496000E-07  0.3672868E+04  0.7818609E-02  0.8074001E-01
        1   -1    0    0  501    0  0.00000000000E+00  0.00000000000E+00  0.17525741603E+04  0.17525741603E+04  0.50400001928E-02 0. -1.
       -1   -1    0    0    0  501  0.00000000000E+00  0.00000000000E+00 -0.19243064348E+04  0.19243064348E+04  0.50400001928E-02 0.  1.
    10030    2    1    2    0    0  0.00000000000E+00  0.00000000000E+00 -0.17173227453E+03  0.36768805951E+04  0.36728679444E+04 0.  0.
        2    1    3    3  502    0  0.21109771590E+03 -0.64881137988E+03 -0.17927130991E+04  0.19181602404E+04  0.25500000920E-02 0.  1.
       -2    1    3    3    0  502 -0.21109771590E+03  0.64881137988E+03  0.16209808246E+04  0.17587203547E+04  0.25500000920E-02 0. -1.
</event>
<event>
 5   0  0.1522273E-07  0.3402093E+04  0.7818609E-02  0.8137393E-01
       -1   -1    0    0    0  501  0.00000000000E+00  0.00000000000E+00  0.17874818295E+04  0.17874818295E+04  0.50400001928E-02 0. -1.
        1   -1    0    0  501    0  0.00000000000E+00  0.00000000000E+00 -0.16187911833E+04  0.16187911833E+04  0.50400001928E-02 0.  1.
    10030    2    1    2    0    0  0.00000000000E+00  0.00000000000E+00  0.16869064625E+03  0.34062730128E+04  0.34020933708E+04 0.  0.
        4    1    3    3  502    0  0.91200752076E+03  0.97776552636E+03 -0.96850496997E+03  0.16509956488E+04  0.12699999809E+01 0. -1.
       -4    1    3    3    0  502 -0.91200752076E+03 -0.97776552636E+03  0.11371956162E+04  0.17552773641E+04  0.12699999809E+01 0.  1.
</event>
<event>
 5   0  0.4687817E-07  0.3706290E+04  0.7818609E-02  0.8066569E-01
       -2   -1    0    0    0  501  0.00000000000E+00  0.00000000000E+00  0.13001774839E+04  0.13001774839E+04  0.25500000920E-02 0. -1.
        2   -1    0    0  501    0  0.00000000000E+00  0.00000000000E+00 -0.26412906149E+04  0.26412906149E+04  0.25500000920E-02 0.  1.
    10030    2    1    2    0    0  0.00000000000E+00  0.00000000000E+00 -0.13411131310E+04  0.39414680989E+04  0.37062901052E+04 0.  0.
        4    1    3    3  502    0  0.53914038126E+03  0.16775818091E+04 -0.12807157788E+04  0.21783451508E+04  0.12699999809E+01 0.  1.
       -4    1    3    3    0  502 -0.53914038126E+03 -0.16775818091E+04 -0.60397352166E+02  0.17631229481E+04  0.12699999809E+01 0. -1.
</event>
<event>
 5   0  0.4758908E-07  0.3642460E+04  0.7818609E-02  0.8080834E-01
        2   -1    0    0  501    0  0.00000000000E+00  0.00000000000E+00  0.20327123123E+04  0.20327123123E+04  0.25500000920E-02 0.  1.
       -2   -1    0    0    0  501  0.00000000000E+00  0.00000000000E+00 -0.16317497638E+04  0.16317497638E+04  0.25500000920E-02 0. -1.
    10030    2    1    2    0    0  0.00000000000E+00  0.00000000000E+00  0.40096254850E+03  0.36644620760E+04  0.36424595182E+04 0.  0.
        2    1    3    3  502    0 -0.12345691659E+03 -0.42255799230E+03 -0.15774178647E+04  0.16376947173E+04  0.25500000920E-02 0. -1.
       -2    1    3    3    0  502  0.12345691659E+03  0.42255799230E+03  0.19783804132E+04  0.20267673588E+04  0.25500000920E-02 0.  1.
</event>
<event>
 5   0  0.1496000E-07  0.3711693E+04  0.7818609E-02  0.8065376E-01
        1   -1    0    0  501    0  0.00000000000E+00  0.00000000000E+00  0.15429442249E+04  0.15429442249E+04  0.50400001928E-02 0. -1.
       -1   -1    0    0    0  501  0.00000000000E+00  0.00000000000E+00 -0.22322034795E+04  0.22322034795E+04  0.50400001928E-02 0.  1.
    10030    2    1    2    0    0  0.00000000000E+00  0.00000000000E+00 -0.68925925464E+03  0.37751477045E+04  0.37116925883E+04 0.  0.
        5    1    3    3  502    0 -0.44600531812E+03 -0.73232740944E+03  0.13293877974E+04  0.15819349494E+04  0.46999998093E+01 0. -1.
       -5    1    3    3    0  502  0.44600531812E+03  0.73232740944E+03 -0.20186470520E+04  0.21932127550E+04  0.46999998093E+01 0.  1.
</event>
<event>
 5   0  0.4857514E-07  0.3708854E+04  0.7818609E-02  0.8066002E-01
       -2   -1    0    0    0  501  0.00000000000E+00  0.00000000000E+00  0.18704053107E+04  0.18704053107E+04  0.25500000920E-02 0. -1.
        2   -1    0    0  501    0  0.00000000000E+00  0.00000000000E+00 -0.18385856271E+04  0.18385856271E+04  0.25500000920E-02 0.  1.
    10030    2    1    2    0    0  0.00000000000E+00  0.00000000000E+00  0.31819683675E+02  0.37089909378E+04  0.37088544437E+04 0.  0.
        5    1    3    3  502    0  0.17193529593E+04  0.66788567404E+03  0.20731270283E+03  0.18561375270E+04  0.46999998093E+01 0.  1.
       -5    1    3    3    0  502 -0.17193529593E+04 -0.66788567404E+03 -0.17549301916E+03  0.18528534108E+04  0.46999998093E+01 0. -1.
</event>
<event>
 5   0  0.4758908E-07  0.3485727E+04  0.7818609E-02  0.8117181E-01
        2   -1    0    0  501    0  0.00000000000E+00  0.00000000000E+00  0.20506399405E+04  0.20506399405E+04  0.25500000920E-02 0. -1.
       -2   -1    0    0    0  501  0.00000000000E+00  0.00000000000E+00 -0.14812809280E+04  0.14812809280E+04  0.25500000920E-02 0.  1.
    10030    2    1    2    0    0  0.00000000000E+00  0.00000000000E+00  0.56935901257E+03  0.35319208685E+04  0.34857273755E+04 0.  0.
        2    1    3    3  502    0 -0.35852627582E+03  0.30909705337E+03  0.19842546503E+04  0.20399383805E+04  0.25500000920E-02 0. -1.
       -2    1    3    3    0  502  0.35852627582E+03 -0.30909705337E+03 -0.14148956377E+04  0.14919824880E+04  0.25500000920E-02 0.  1.
</event>
<event>
 5   0  0.1496000E-07  0.3436752E+04  0.7818609E-02  0.8128945E-01
        1   -1    0    0  501    0  0.00000000000E+00  0.00000000000E+00  0.14995626609E+04  0.14995626609E+04  0.50400001928E-02 0. -1.
       -1   -1    0    0    0  501  0.00000000000E+00  0.00000000000E+00 -0.19691176923E+04  0.19691176923E+04  0.50400001928E-02 0.  1.
    10030    2    1    2    0    0  0.00000000000E+00  0.00000000000E+00 -0.46955503138E+03  0.34686803533E+04  0.34367515863E+04 0.  0.
        2    1    3    3  502    0  0.56985647883E+03 -0.20238573148E+03  0.13886179902E+04  0.15145812337E+04  0.25500000920E-02 0. -1.
       -2    1    3    3    0  502 -0.56985647883E+03  0.20238573148E+03 -0.18581730216E+04  0.19540991195E+04  0.25500000920E-02 0.  1.
</event>
<event>
 5   0  0.1496000E-07  0.3725422E+04  0.7818609E-02  0.8062351E-01
        1   -1    0    0  501    0  0.00000000000E+00  0.00000000000E+00  0.23730936070E+04  0.23730936070E+04  0.50400001928E-02 0. -1.
       -1   -1    0    0    0  501  0.00000000000E+00  0.00000000000E+00 -0.14620968399E+04  0.14620968399E+04  0.50400001928E-02 0.  1.
    10030    2    1    2    0    0  0.00000000000E+00  0.00000000000E+00  0.91099676717E+03  0.38351904469E+04  0.37254222115E+04 0.  0.
        3    1    3    3  502    0  0.13563585860E+04  0.58608533506E+03 -0.71215598474E+03  0.16402349803E+04  0.10100000352E+00 0.  1.
       -3    1    3    3    0  502 -0.13563585860E+04 -0.58608533506E+03  0.16231527519E+04  0.21949554666E+04  0.10100000352E+00 0. -1.
</event>
<event>
 5   0  0.4824268E-07  0.3676316E+04  0.7818609E-02  0.8073231E-01
        2   -1    0    0  501    0  0.00000000000E+00  0.00000000000E+00  0.14217949090E+04  0.14217949090E+04  0.25500000920E-02 0.  1.
       -2   -1    0    0    0  501  0.00000000000E+00  0.00000000000E+00 -0.23764504041E+04  0.23764504041E+04  0.25500000920E-02 0. -1.
    10030    2    1    2    0    0  0.00000000000E+00  0.00000000000E+00 -0.95465549507E+03  0.37982453131E+04  0.36763161377E+04 0.  0.
        1    1    3    3  502    0 -0.13614416982E+04 -0.15725420448E+03  0.78827870691E+03  0.15810236248E+04  0.50400001928E-02 0.  1.
       -1    1    3    3    0  502  0.13614416982E+04  0.15725420448E+03 -0.17429342020E+04  0.22172216883E+04  0.50400001928E-02 0. -1.
</event>
<event>
 5   0  0.1496000E-07  0.3697497E+04  0.7818609E-02  0.8068517E-01
       -1   -1    0    0    0  501  0.00000000000E+00  0.00000000000E+00  0.16729444083E+04  0.16729444083E+04  0.50400001928E-02 0.  1.
        1   -1    0    0  501    0  0.00000000000E+00  0.00000000000E+00 -0.20430276095E+04  0.20430276095E+04  0.50400001928E-02 0. -1.
    10030    2    1    2    0    0  0.00000000000E+00  0.00000000000E+00 -0.37008320117E+03  0.37159720178E+04  0.36974973241E+04 0.  0.
        3    1    3    3  502    0  0.11519033953E+04 -0.77844231279E+03  0.10396602873E+04  0.17360148011E+04  0.10100000352E+00 0.  1.
       -3    1    3    3    0  502 -0.11519033953E+04  0.77844231279E+03 -0.14097434885E+04  0.19799572167E+04  0.10100000352E+00 0. -1.
</event>
<event>
 5   0  0.4758908E-07  0.3728593E+04  0.7818609E-02  0.8061655E-01
       -2   -1    0    0    0  501  0.00000000000E+00  0.00000000000E+00  0.12097323506E+04  0.12097323506E+04  0.25500000920E-02 0.  1.
        2   -1    0    0  501    0  0.00000000000E+00  0.00000000000E+00 -0.28730330183E+04  0.28730330183E+04  0.25500000920E-02 0. -1.
    10030    2    1    2    0    0  0.00000000000E+00  0.00000000000E+00 -0.16633006678E+04  0.40827653689E+04  0.37285927568E+04 0.  0.
        2    1    3    3  502    0  0.17241111650E+04  0.60309714506E+03 -0.42294603386E+03  0.18748783489E+04  0.25500000920E-02 0. -1.
       -2    1    3    3    0  502 -0.17241111650E+04 -0.60309714506E+03 -0.12403546339E+04  0.22078870201E+04  0.25500000920E-02 0.  1.
</event>
<event>
 5   0  0.4793557E-07  0.3702807E+04  0.7818609E-02  0.8067340E-01
        2   -1    0    0  501    0  0.00000000000E+00  0.00000000000E+00  0.13073716233E+04  0.13073716233E+04  0.25500000920E-02 0. -1.
       -2   -1    0    0    0  501  0.00000000000E+00  0.00000000000E+00 -0.26218208218E+04  0.26218208218E+04  0.25500000920E-02 0.  1.
    10030    2    1    2    0    0  0.00000000000E+00  0.00000000000E+00 -0.13144491985E+04  0.39291924451E+04  0.37028065808E+04 0.  0.
        3    1    3    3  502    0  0.10199325321E+03  0.46577708541E+01 -0.26188311747E+04  0.26208206826E+04  0.10100000352E+00 0.  1.
       -3    1    3    3    0  502 -0.10199325321E+03 -0.46577708541E+01  0.13043819763E+04  0.13083717624E+04  0.10100000352E+00 0. -1.
</event>
<event>
 5   0  0.4824268E-07  0.3635056E+04  0.7818609E-02  0.8082508E-01
       -2   -1    0    0    0  501  0.00000000000E+00  0.00000000000E+00  0.14057335046E+04  0.14057335046E+04  0.25500000920E-02 0. -1.
        2   -1    0    0  501    0  0.00000000000E+00  0.00000000000E+00 -0.23499537524E+04  0.23499537524E+04  0.25500000920E-02 0.  1.
    10030    2    1    2    0    0  0.00000000000E+00  0.00000000000E+00 -0.94422024781E+03  0.37556872569E+04  0.36350563813E+04 0.  0.
        1    1    3    3  502    0  0.11261515283E+04 -0.92488911535E+03 -0.15943281356E+04  0.21599813297E+04  0.50400001928E-02 0.  1.
       -1    1    3    3    0  502 -0.11261515283E+04  0.92488911535E+03  0.65010788782E+03  0.15957059273E+04  0.50400001928E-02 0. -1.
</event>
<event>
 5   0  0.4857514E-07  0.3677242E+04  0.7818609E-02  0.8073024E-01
       -2   -1    0    0    0  501  0.00000000000E+00  0.00000000000E+00  0.12547517387E+04  0.12547517387E+04  0.25500000920E-02 0.  1.
        2   -1    0    0  501    0  0.00000000000E+00  0.00000000000E+00 -0.26941806407E+04  0.26941806407E+04  0.25500000920E-02 0. -1.
    10030    2    1    2    0    0  0.00000000000E+00  0.00000000000E+00 -0.14394289020E+04  0.39489323793E+04  0.36772423598E+04 0.  0.
        5    1    3    3  502    0  0.13937964497E+04  0.22783766456E+03  0.54452009403E+03  0.15136389158E+04  0.46999998093E+01 0.  1.
       -5    1    3    3    0  502 -0.13937964497E+04 -0.22783766456E+03 -0.19839489960E+04  0.24352934635E+04  0.46999998093E+01 0. -1.
</event>
<event>
 5   0  0.1522273E-07  0.3145533E+04  0.7818609E-02  0.8203352E-01
        1   -1    0    0  501    0  0.00000000000E+00  0.00000000000E+00  0.18996816079E+04  0.18996816079E+04  0.50400001928E-02 0. -1.
       -1   -1    0    0    0  501  0.00000000000E+00  0.00000000000E+00 -0.13021101044E+04  0.13021101044E+04  0.50400001928E-02 0.  1.
    10030    2    1    2    0    0  0.00000000000E+00  0.00000000000E+00  0.59757150350E+03  0.32017917123E+04  0.31455330974E+04 0.  0.
        4    1    3    3  502    0 -0.83094586100E+03 -0.12357872441E+04 -0.21617955090E+03  0.15047844854E+04  0.12699999809E+01 0.  1.
       -4    1    3    3    0  502  0.83094586100E+03  0.12357872441E+04  0.81375105440E+03  0.16970072268E+04  0.12699999809E+01 0. -1.
</event>
<event>
 5   0  0.1496000E-07  0.3605034E+04  0.7818609E-02  0.8089339E-01
        1   -1    0    0  501    0  0.00000000000E+00  0.00000000000E+00  0.16580045390E+04  0.16580045390E+04  0.50400001928E-02 0.  1.
       -1   -1    0    0    0  501  0.00000000000E+00  0.00000000000E+00 -0.19596257725E+04  0.19596257725E+04  0.50400001928E-02 0. -1.
    10030    2    1    2    0    0  0.00000000000E+00  0.00000000000E+00 -0.30162123355E+03  0.36176303115E+04  0.36050344939E+04 0.  0.
        5    1    3    3  502    0 -0.16143898732E+04  0.62528534444E+03 -0.65437055219E+03  0.18507996472E+04  0.46999998093E+01 0.  1.
       -5    1    3    3    0  502  0.16143898732E+04 -0.62528534444E+03  0.35274931864E+03  0.17668306643E+04  0.46999998093E+01 0. -1.
</event>
<event>
 5   0  0.4687817E-07  0.3651917E+04  0.7818609E-02  0.8078702E-01
        2   -1    0    0  501    0  0.00000000000E+00  0.00000000000E+00  0.23934723084E+04  0.23934723084E+04  0.25500000920E-02 0. -1.
       -2   -1    0    0    0  501  0.00000000000E+00  0.00000000000E+00 -0.13930074807E+04  0.13930074807E+04  0.25500000920E-02 0.  1.
    10030    2    1    2    0    0  0.00000000000E+00  0.00000000000E+00  0.10004648277E+04  0.37864797891E+04  0.36519172118E+04 0.  0.
        4    1    3    3  502    0  0.36918583440E+03  0.24017500395E+03 -0.13371065898E+04  0.14077776309E+04  0.12699999809E+01 0.  1.
       -4    1    3    3    0  502 -0.36918583440E+03 -0.24017500395E+03  0.23375714174E+04  0.23787021582E+04  0.12699999809E+01 0. -1.
</event>
<event>
 5   0  0.1522273E-07  0.3150834E+04  0.7818609E-02  0.8201924E-01
        1   -1    0    0  501    0  0.00000000000E+00  0.00000000000E+00  0.19444079070E+04  0.19444079070E+04  0.50400001928E-02 0. -1.
       -1   -1    0    0    0  501  0.00000000000E+00  0.00000000000E+00 -0.12764492855E+04  0.12764492855E+04  0.50400001928E-02 0.  1.
    10030    2    1    2    0    0  0.00000000000E+00  0.00000000000E+00  0.66795862156E+03  0.32208571925E+04  0.31508335936E+04 0.  0.
        4    1    3    3  502    0 -0.65372639159E+03 -0.12305573984E+04 -0.41741206274E+03  0.14546010274E+04  0.12699999809E+01 0.  1.
       -4    1    3    3    0  502  0.65372639159E+03  0.12305573984E+04  0.10853706843E+04  0.17662561652E+04  0.12699999809E+01 0. -1.
</event>
<event>
 5   0  0.1496000E-07  0.3697806E+04  0.7818609E-02  0.8068448E-01
       -1   -1    0    0    0  501  0.00000000000E+00  0.00000000000E+00  0.21229141747E+04  0.21229141748E+04  0.50400001928E-02 0.  1.
        1   -1    0    0  501    0  0.00000000000E+00  0.00000000000E+00 -0.16102589599E+04  0.16102589599E+04  0.50400001928E-02 0. -1.
    10030    2    1    2    0    0  0.00000000000E+00  0.00000000000E+00  0.51265521482E+03  0.37331731347E+04  0.36978056039E+04 0.  0.
        3    1    3    3  502    0  0.14983100086E+04 -0.10829123594E+04  0.22760375210E+03  0.18626420853E+04  0.10100000352E+00 0. -1.
       -3    1    3    3    0  502 -0.14983100086E+04  0.10829123594E+04  0.28505146271E+03  0.18705310493E+04  0.10100000352E+00 0.  1.
</event>
<event>
 5   0  0.4824268E-07  0.3785767E+04  0.7818609E-02  0.8049216E-01
       -2   -1    0    0    0  501  0.00000000000E+00  0.00000000000E+00  0.16014969209E+04  0.16014969209E+04  0.25500000920E-02 0. -1.
        2   -1    0    0  501    0  0.00000000000E+00  0.00000000000E+00 -0.22372867639E+04  0.22372867640E+04  0.25500000920E-02 0.  1.
    10030    2    1    2    0    0  0.00000000000E+00  0.00000000000E+00 -0.63578984309E+03  0.38387836848E+04  0.37857669572E+04 0.  0.
        1    1    3    3  502    0 -0.75831631576E+03 -0.16115082496E+04  0.33218016544E+03  0.18117246302E+04  0.50400001928E-02 0. -1.
       -1    1    3    3    0  502  0.75831631576E+03  0.16115082496E+04 -0.96797000853E+03  0.20270590546E+04  0.50400001928E-02 0.  1.
</event>
<event>
 5   0  0.1496000E-07  0.3721996E+04  0.7818609E-02  0.8063105E-01
        1   -1    0    0  501    0  0.00000000000E+00  0.00000000000E+00  0.16665418187E+04  0.16665418187E+04  0.50400001928E-02 0. -1.
       -1   -1    0    0    0  501  0.00000000000E+00  0.00000000000E+00 -0.20781433407E+04  0.20781433407E+04  0.50400001928E-02 0.  1.
    10030    2    1    2    0    0  0.00000000000E+00  0.00000000000E+00 -0.41160152199E+03  0.37446851594E+04  0.37219955843E+04 0.  0.
        5    1    3    3  502    0  0.16260053656E+04 -0.19634061771E+03  0.68324189210E+03  0.17746223993E+04  0.46999998093E+01 0. -1.
       -5    1    3    3    0  502 -0.16260053656E+04  0.19634061771E+03 -0.10948434141E+04  0.19700627600E+04  0.46999998093E+01 0.  1.
</event>
<event>
 5   0  0.4687817E-07  0.3572372E+04  0.7818609E-02  0.8096850E-01
       -2   -1    0    0    0  501  0.00000000000E+00  0.00000000000E+00  0.16900022257E+04  0.16900022257E+04  0.25500000920E-02 0. -1.
        2   -1    0    0  501    0  0.00000000000E+00  0.00000000000E+00 -0.18878440129E+04  0.18878440129E+04  0.25500000920E-02 0.  1.
    10030    2    1    2    0    0  0.00000000000E+00  0.00000000000E+00 -0.19784178716E+03  0.35778462386E+04  0.35723720879E+04 0.  0.
        4    1    3    3  502    0 -0.93800924314E+02 -0.72694558823E+03 -0.17302847501E+04  0.18791315630E+04  0.12699999809E+01 0.  1.
       -4    1    3    3    0  502  0.93800924314E+02  0.72694558823E+03  0.15324429629E+04  0.16987146756E+04  0.12699999809E+01 0. -1.
</event>
<event>
 5   0  0.4824268E-07  0.3706831E+04  0.7818609E-02  0.8066450E-01
        2   -1    0    0  501    0  0.00000000000E+00  0.00000000000E+00  0.18460361009E+04  0.18460361009E+04  0.25500000920E-02 0. -1.
       -2   -1    0    0    0  501  0.00000000000E+00  0.00000000000E+00 -0.18608244385E+04  0.18608244385E+04  0.25500000920E-02 0.  1.
    10030    2    1    2    0    0  0.00000000000E+00  0.00000000000E+00 -0.14788337662E+02  0.37068605394E+04  0.37068310406E+04 0.  0.
        1    1    3    3  502    0 -0.17198605839E+04 -0.38450804714E+03 -0.58131704435E+03  0.18557199068E+04  0.50400001928E-02 0.  1.
       -1    1    3    3    0  502  0.17198605839E+04  0.38450804714E+03  0.56652870669E+03  0.18511406326E+04  0.50400001928E-02 0. -1.
</event>
<event>
 5   0  0.4793557E-07  0.3704734E+04  0.7818609E-02  0.8066913E-01
       -2   -1    0    0    0  501  0.00000000000E+00  0.00000000000E+00  0.18387333840E+04  0.18387333840E+04  0.25500000920E-02 0.  1.
        2   -1    0    0  501    0  0.00000000000E+00  0.00000000000E+00 -0.18661020079E+04  0.18661020079E+04  0.25500000920E-02 0. -1.
    10030    2    1    2    0    0  0.00000000000E+00  0.00000000000E+00 -0.27368623819E+02  0.37048353919E+04  0.37047343008E+04 0.  0.
        3    1    3    3  502    0  0.18127773865E+04 -0.37664036121E+03  0.43275428410E+02  0.18519969189E+04  0.10100000352E+00 0. -1.
       -3    1    3    3    0  502 -0.18127773865E+04  0.37664036121E+03 -0.70644052230E+02  0.18528384730E+04  0.10100000352E+00 0.  1.
</event>
<event>
 5   0  0.4758908E-07  0.3661409E+04  0.7818609E-02  0.8076568E-01
       -2   -1    0    0    0  501  0.00000000000E+00  0.00000000000E+00  0.17283546022E+04  0.17283546022E+04  0.25500000920E-02 0. -1.
        2   -1    0    0  501    0  0.00000000000E+00  0.00000000000E+00 -0.19391153064E+04  0.19391153064E+04  0.25500000920E-02 0.  1.
    10030    2    1    2    0    0  0.00000000000E+00  0.00000000000E+00 -0.21076070413E+03  0.36674699086E+04  0.36614089441E+04 0.  0.
        2    1    3    3  502    0 -0.39209903505E+03  0.38080102453E+03  0.16447176186E+04  0.17331610192E+04  0.25500000920E-02 0. -1.
       -2    1    3    3    0  502  0.39209903505E+03 -0.38080102453E+03 -0.18554783227E+04  0.19343088894E+04  0.25500000920E-02 0.  1.
</event>
<event>
 5   0  0.4824268E-07  0.3704306E+04  0.7818609E-02  0.8067008E-01
        2   -1    0    0  501    0  0.00000000000E+00  0.00000000000E+00  0.13818083474E+04  0.13818083474E+04  0.25500000920E-02 0. -1.
       -2   -1    0    0    0  501  0.00000000000E+00  0.00000000000E+00 -0.24825947532E+04  0.24825947532E+04  0.25500000920E-02 0.  1.
    10030    2    1    2    0    0  0.00000000000E+00  0.00000000000E+00 -0.11007864058E+04  0.38644031007E+04  0.37043056857E+04 0.  0.
        1    1    3    3  502    0  0.23972583236E+03 -0.75109498707E+03  0.11980055810E+04  0.14341650973E+04  0.50400001928E-02 0. -1.
       -1    1    3    3    0  502 -0.23972583236E+03  0.75109498707E+03 -0.22987919868E+04  0.24302380033E+04  0.50400001928E-02 0.  1.
</event>
<event>
 5   0  0.4857514E-07  0.3693459E+04  0.7818609E-02  0.8069413E-01
        2   -1    0    0  501    0  0.00000000000E+00  0.00000000000E+00  0.21268168366E+04  0.21268168366E+04  0.25500000920E-02 0. -1.
       -2   -1    0    0    0  501  0.00000000000E+00  0.00000000000E+00 -0.16035280115E+04  0.16035280115E+04  0.25500000920E-02 0.  1.
    10030    2    1    2    0    0  0.00000000000E+00  0.00000000000E+00  0.52328882513E+03  0.37303448481E+04  0.36934592852E+04 0.  0.
        5    1    3    3  502    0 -0.66461526296E+03  0.44807385302E+03  0.19419614421E+04  0.21008855176E+04  0.46999998093E+01 0. -1.
       -5    1    3    3    0  502  0.66461526296E+03 -0.44807385302E+03 -0.14186726170E+04  0.16294593305E+04  0.46999998093E+01 0.  1.
</event>
<event>
 5   0  0.4758908E-07  0.3691900E+04  0.7818609E-02  0.8069759E-01
        2   -1    0    0  501    0  0.00000000000E+00  0.00000000000E+00  0.19986066940E+04  0.19986066940E+04  0.25500000920E-02 0. -1.
       -2   -1    0    0    0  501  0.00000000000E+00  0.00000000000E+00 -0.17049537073E+04  0.17049537073E+04  0.25500000920E-02 0.  1.
    10030    2    1    2    0    0  0.00000000000E+00  0.00000000000E+00  0.29365298677E+03  0.37035604013E+04  0.36919002654E+04 0.  0.
        2    1    3    3  502    0  0.98052674220E+03  0.82996011260E+03 -0.11829790901E+04  0.17463407480E+04  0.25500000920E-02 0.  1.
       -2    1    3    3    0  502 -0.98052674220E+03 -0.82996011260E+03  0.14766320769E+04  0.19572196533E+04  0.25500000920E-02 0. -1.
</event>
<event>
 5   0  0.1496000E-07  0.3701045E+04  0.7818609E-02  0.8067730E-01
       -1   -1    0    0    0  501  0.00000000000E+00  0.00000000000E+00  0.12888030643E+04  0.12888030643E+04  0.50400001928E-02 0.  1.
        1   -1    0    0  501    0  0.00000000000E+00  0.00000000000E+00 -0.26570647932E+04  0.26570647932E+04  0.50400001928E-02 0. -1.
    10030    2    1    2    0    0  0.00000000000E+00  0.00000000000E+00 -0.13682617289E+04  0.39458678575E+04  0.37010448511E+04 0.  0.
        3    1    3    3  502    0  0.25427793425E+03  0.18000806846E+04 -0.31559836819E+03  0.18451422924E+04  0.10100000352E+00 0. -1.
       -3    1    3    3    0  502 -0.25427793425E+03 -0.18000806846E+04 -0.10526633607E+04  0.21007255651E+04  0.10100000352E+00 0.  1.
</event>
<event>
 5   0  0.1496287E-07  0.3636787E+04  0.7818609E-02  0.8082117E-01
        1   -1    0    0  501    0  0.00000000000E+00  0.00000000000E+00  0.21726051104E+04  0.21726051104E+04  0.50400001928E-02 0.  1.
       -1   -1    0    0    0  501  0.00000000000E+00  0.00000000000E+00 -0.15219306041E+04  0.15219306041E+04  0.50400001928E-02 0. -1.
    10030    2    1    2    0    0  0.00000000000E+00  0.00000000000E+00  0.65067450635E+03  0.36945357145E+04  0.36367866081E+04 0.  0.
        1    1    3    3  502    0  0.73094107290E+02  0.63562773635E+03 -0.14038039192E+04  0.15427348480E+04  0.50400001928E-02 0. -1.
       -1    1    3    3    0  502 -0.73094107290E+02 -0.63562773635E+03  0.20544784256E+04  0.21518008665E+04  0.50400001928E-02 0.  1.
</event>
<event>
 5   0  0.4758908E-07  0.3688822E+04  0.7818609E-02  0.8070443E-01
        2   -1    0    0  501    0  0.00000000000E+00  0.00000000000E+00  0.24104803935E+04  0.24104803935E+04  0.25500000920E-02 0.  1.
       -2   -1    0    0    0  501  0.00000000000E+00  0.00000000000E+00 -0.14112756509E+04  0.14112756509E+04  0.25500000920E-02 0. -1.
    10030    2    1    2    0    0  0.00000000000E+00  0.00000000000E+00  0.99920474265E+03  0.38217560444E+04  0.36888221894E+04 0.  0.
        2    1    3    3  502    0  0.24237924410E+03 -0.15110055075E+04  0.15662510518E+04  0.21897551687E+04  0.25500000920E-02 0.  1.
       -2    1    3    3    0  502 -0.24237924410E+03  0.15110055075E+04 -0.56704630912E+03  0.16320008757E+04  0.25500000920E-02 0. -1.
</event>
<event>
 5   0  0.4857514E-07  0.3718825E+04  0.7818609E-02  0.8063803E-01
        2   -1    0    0  501    0  0.00000000000E+00  0.00000000000E+00  0.22917409819E+04  0.22917409819E+04  0.25500000920E-02 0. -1.
       -2   -1    0    0    0  501  0.00000000000E+00  0.00000000000E+00 -0.15086410164E+04  0.15086410164E+04  0.25500000920E-02 0.  1.
    10030    2    1    2    0    0  0.00000000000E+00  0.00000000000E+00  0.78309996546E+03  0.38003819983E+04  0.37188247844E+04 0.  0.
        5    1    3    3  502    0  0.13819887888E+04 -0.78705278634E+03  0.13760292634E+04  0.21030510514E+04  0.46999998093E+01 0.  1.
       -5    1    3    3    0  502 -0.13819887888E+04  0.78705278634E+03 -0.59292929797E+03  0.16973309469E+04  0.46999998093E+01 0. -1.
</event>
<event>
 5   0  0.4857514E-07  0.3672003E+04  0.7818609E-02  0.8074195E-01
       -2   -1    0    0    0  501  0.00000000000E+00  0.00000000000E+00  0.24694477556E+04  0.24694477556E+04  0.25500000920E-02 0.  1.
        2   -1    0    0  501    0  0.00000000000E+00  0.00000000000E+00 -0.13650428707E+04  0.13650428707E+04  0.25500000920E-02 0. -1.
    10030    2    1    2    0    0  0.00000000000E+00  0.00000000000E+00  0.11044048848E+04  0.38344906263E+04  0.36720032971E+04 0.  0.
        5    1    3    3  502    0  0.11077624540E+04  0.11642182430E+03 -0.97189808079E+03  0.14782759097E+04  0.46999998093E+01 0. -1.
       -5    1    3    3    0  502 -0.11077624540E+04 -0.11642182430E+03  0.20763029656E+04  0.23562147166E+04  0.46999998093E+01 0.  1.
</event>
<event>
 5   0  0.1522273E-07  0.3684009E+04  0.7818609E-02  0.8071515E-01
       -1   -1    0    0    0  501  0.00000000000E+00  0.00000000000E+00  0.10932150564E+04  0.10932150564E+04  0.50400001928E-02 0.  1.
        1   -1    0    0  501    0  0.00000000000E+00  0.00000000000E+00 -0.31036713057E+04  0.31036713057E+04  0.50400001928E-02 0. -1.
    10030    2    1    2    0    0  0.00000000000E+00  0.00000000000E+00 -0.20104562493E+04  0.41968863622E+04  0.36840087956E+04 0.  0.
        4    1    3    3  502    0 -0.75666038252E+03 -0.75932185379E+03  0.70126987137E+03  0.12809705920E+04  0.12699999809E+01 0.  1.
       -4    1    3    3    0  502  0.75666038252E+03  0.75932185379E+03 -0.27117261207E+04  0.29159157702E+04  0.12699999809E+01 0. -1.
</event>
<event>
 5   0  0.1496000E-07  0.3787403E+04  0.7818609E-02  0.8048863E-01
        3   -1    0    0  501    0  0.00000000000E+00  0.00000000000E+00  0.28793595114E+04  0.28793595132E+04  0.10100000352E+00 0.  1.
       -3   -1    0    0    0  501  0.00000000000E+00  0.00000000000E+00 -0.12454527595E+04  0.12454527636E+04  0.10100000352E+00 0. -1.
    10030    2    1    2    0    0  0.00000000000E+00  0.00000000000E+00  0.16339067519E+04  0.41248122769E+04  0.37874034701E+04 0.  0.
        4    1    3    3  502    0  0.14631086933E+04 -0.33650921073E+03 -0.44007167240E+03  0.15644776084E+04  0.12699999809E+01 0. -1.
       -4    1    3    3    0  502 -0.14631086933E+04  0.33650921073E+03  0.20739784243E+04  0.25603346685E+04  0.12699999809E+01 0.  1.
</event>
<event>
 5   0  0.4824268E-07  0.3694106E+04  0.7818609E-02  0.8069269E-01
        2   -1    0    0  501    0  0.00000000000E+00  0.00000000000E+00  0.26714799202E+04  0.26714799202E+04  0.25500000920E-02 0. -1.
       -2   -1    0    0    0  501  0.00000000000E+00  0.00000000000E+00 -0.12770467313E+04  0.12770467313E+04  0.25500000920E-02 0.  1.
    10030    2    1    2    0    0  0.00000000000E+00  0.00000000000E+00  0.13944331889E+04  0.39485266515E+04  0.36941059539E+04 0.  0.
        1    1    3    3  502    0 -0.62810746605E+03 -0.17105949545E+04  0.37486595230E+03  0.18604242983E+04  0.50400001928E-02 0.  1.
       -1    1    3    3    0  502  0.62810746605E+03  0.17105949545E+04  0.10195672366E+04  0.20881023532E+04  0.50400001928E-02 0. -1.
</event>
<event>
 5   0  0.4687817E-07  0.3679154E+04  0.7818609E-02  0.8072597E-01
        2   -1    0    0  501    0  0.00000000000E+00  0.00000000000E+00  0.22206427318E+04  0.22206427318E+04  0.25500000920E-02 0.  1.
       -2   -1    0    0    0  501  0.00000000000E+00  0.00000000000E+00 -0.15239026478E+04  0.15239026478E+04  0.25500000920E-02 0. -1.
    10030    2    1    2    0    0  0.00000000000E+00  0.00000000000E+00  0.69674008405E+03  0.37445453796E+04  0.36791538912E+04 0.  0.
        4    1    3    3  502    0  0.71169377187E+03 -0.11714802026E+04  0.15970283436E+04  0.21046080474E+04  0.12699999809E+01 0.  1.
       -4    1    3    3    0  502 -0.71169377187E+03  0.11714802026E+04 -0.90028825958E+03  0.16399373321E+04  0.12699999809E+01 0. -1.
</event>
<event>
 5   0  0.4758908E-07  0.3740722E+04  0.7818609E-02  0.8058997E-01
        2   -1    0    0  501    0  0.00000000000E+00  0.00000000000E+00  0.19461662876E+04  0.19461662876E+04  0.25500000920E-02 0.  1.
       -2   -1    0    0    0  501  0.00000000000E+00  0.00000000000E+00 -0.17975083217E+04  0.17975083217E+04  0.25500000920E-02 0. -1.
    10030    2    1    2    0    0  0.00000000000E+00  0.00000000000E+00  0.14865796589E+03  0.37436746093E+04  0.37407219076E+04 0.  0.
        2    1    3    3  502    0 -0.15124011165E+04 -0.46998600418E+03  0.10701048794E+04  0.19113786737E+04  0.25500000920E-02 0.  1.
       -2    1    3    3    0  502  0.15124011165E+04  0.46998600418E+03 -0.92144691349E+03  0.18322959356E+04  0.25500000920E-02 0. -1.
</event>
<event>
 5   0  0.4758908E-07  0.3684139E+04  0.7818609E-02  0.8071486E-01
        2   -1    0    0  501    0  0.00000000000E+00  0.00000000000E+00  0.29390629606E+04  0.29390629606E+04  0.25500000920E-02 0. -1.
       -2   -1    0    0    0  501  0.00000000000E+00  0.00000000000E+00 -0.11545242219E+04  0.11545242220E+04  0.25500000920E-02 0.  1.
    10030    2    1    2    0    0  0.00000000000E+00  0.00000000000E+00  0.17845387387E+04  0.40935871826E+04  0.36841386390E+04 0.  0.
        2    1    3    3  502    0 -0.18161821876E+04 -0.14292928861E+03  0.11950883870E+04  0.21788030597E+04  0.25500000920E-02 0. -1.
       -2    1    3    3    0  502  0.18161821876E+04  0.14292928861E+03  0.58945035163E+03  0.19147841229E+04  0.25500000920E-02 0.  1.
</event>
<event>
 5   0  0.1496000E-07  0.3700057E+04  0.7818609E-02  0.8067949E-01
       -1   -1    0    0    0  501  0.00000000000E+00  0.00000000000E+00  0.11457900557E+04  0.11457900557E+04  0.50400001928E-02 0.  1.
        1   -1    0    0  501    0  0.00000000000E+00  0.00000000000E+00 -0.29871138941E+04  0.29871138941E+04  0.50400001928E-02 0. -1.
    10030    2    1    2    0    0  0.00000000000E+00  0.00000000000E+00 -0.18413238384E+04  0.41329039499E+04  0.37000569699E+04 0.  0.
        2    1    3    3  502    0  0.15704241607E+03 -0.13257018886E+04 -0.23512987557E+04  0.27038405383E+04  0.25500000920E-02 0. -1.
       -2    1    3    3    0  502 -0.15704241607E+03  0.13257018886E+04  0.50997491732E+03  0.14290634115E+04  0.25500000920E-02 0.  1.
</event>
<event>
 5   0  0.1496000E-07  0.3690141E+04  0.7818609E-02  0.8070150E-01
        1   -1    0    0  501    0  0.00000000000E+00  0.00000000000E+00  0.12149639012E+04  0.12149639012E+04  0.50400001928E-02 0.  1.
       -1   -1    0    0    0  501  0.00000000000E+00  0.00000000000E+00 -0.28019641945E+04  0.28019641945E+04  0.50400001928E-02 0. -1.
    10030    2    1    2    0    0  0.00000000000E+00  0.00000000000E+00 -0.15870002933E+04  0.40169280957E+04  0.36901411077E+04 0.  0.
        3    1    3    3  502    0 -0.63815283932E+03 -0.33182630194E+03  0.10560656371E+04  0.12777411244E+04  0.10100000352E+00 0.  1.
       -3    1    3    3    0  502  0.63815283932E+03  0.33182630194E+03 -0.26430659304E+04  0.27391869713E+04  0.10100000352E+00 0. -1.
</event>
<event>
 5   0  0.4857514E-07  0.3544824E+04  0.7818609E-02  0.8103249E-01
       -2   -1    0    0    0  501  0.00000000000E+00  0.00000000000E+00  0.15402206342E+04  0.15402206342E+04  0.25500000920E-02 0. -1.
        2   -1    0    0  501    0  0.00000000000E+00  0.00000000000E+00 -0.20396066952E+04  0.20396066952E+04  0.25500000920E-02 0.  1.
    10030    2    1    2    0    0  0.00000000000E+00  0.00000000000E+00 -0.49938606097E+03  0.35798273294E+04  0.35448240113E+04 0.  0.
        5    1    3    3  502    0 -0.67810889151E+03  0.70909016462E+03  0.12409520792E+04  0.15819686101E+04  0.46999998093E+01 0. -1.
       -5    1    3    3    0  502  0.67810889151E+03 -0.70909016462E+03 -0.17403381402E+04  0.19978587194E+04  0.46999998093E+01 0.  1.
</event>
<event>
 5   0  0.4824268E-07  0.3715199E+04  0.7818609E-02  0.8064602E-01
       -2   -1    0    0    0  501  0.00000000000E+00  0.00000000000E+00  0.14647764405E+04  0.14647764405E+04  0.25500000920E-02 0. -1.
        2   -1    0    0  501    0  0.00000000000E+00  0.00000000000E+00 -0.23557695614E+04  0.23557695614E+04  0.25500000920E-02 0.  1.
    10030    2    1    2    0    0  0.00000000000E+00  0.00000000000E+00 -0.89099312091E+03  0.38205460019E+04  0.37151989195E+04 0.  0.
        1    1    3    3  502    0  0.22294108363E+03  0.15332834060E+04 -0.14992551260E+04  0.21560210256E+04  0.50400001928E-02 0.  1.
       -1    1    3    3    0  502 -0.22294108363E+03 -0.15332834060E+04  0.60826200512E+03  0.16645249763E+04  0.50400001928E-02 0. -1.
</event>
<event>
 5   0  0.1522273E-07  0.3592825E+04  0.7818609E-02  0.8092137E-01
       -1   -1    0    0    0  501  0.00000000000E+00  0.00000000000E+00  0.13920715253E+04  0.13920715253E+04  0.50400001928E-02 0.  1.
        1   -1    0    0  501    0  0.00000000000E+00  0.00000000000E+00 -0.23181987360E+04  0.23181987360E+04  0.50400001928E-02 0. -1.
    10030    2    1    2    0    0  0.00000000000E+00  0.00000000000E+00 -0.92612721071E+03  0.37102702613E+04  0.35928253230E+04 0.  0.
        4    1    3    3  502    0 -0.16771059773E+04  0.49675120848E+03 -0.88589966600E+03  0.19606799977E+04  0.12699999809E+01 0. -1.
       -4    1    3    3    0  502  0.16771059773E+04 -0.49675120848E+03 -0.40227544717E+02  0.17495902636E+04  0.12699999809E+01 0.  1.
</event>
<event>
 5   0  0.1496000E-07  0.3675100E+04  0.7818609E-02  0.8073503E-01
        1   -1    0    0  501    0  0.00000000000E+00  0.00000000000E+00  0.12841871682E+04  0.12841871682E+04  0.50400001928E-02 0.  1.
       -1   -1    0    0    0  501  0.00000000000E+00  0.00000000000E+00 -0.26293590397E+04  0.26293590397E+04  0.50400001928E-02 0. -1.
    10030    2    1    2    0    0  0.00000000000E+00  0.00000000000E+00 -0.13451718716E+04  0.39135462079E+04  0.36750995303E+04 0.  0.
        3    1    3    3  502    0 -0.83079287696E+03  0.11917007930E+04 -0.18708601397E+04  0.23686462921E+04  0.10100000352E+00 0. -1.
       -3    1    3    3    0  502  0.83079287696E+03 -0.11917007930E+04  0.52568826808E+03  0.15448999158E+04  0.10100000352E+00 0.  1.
</event>
<event>
 5   0  0.4857514E-07  0.3545181E+04  0.7818609E-02  0.8103165E-01
       -2   -1    0    0    0  501  0.00000000000E+00  0.00000000000E+00  0.20354917250E+04  0.20354917250E+04  0.25500000920E-02 0. -1.
        2   -1    0    0  501    0  0.00000000000E+00  0.00000000000E+00 -0.15436453168E+04  0.15436453168E+04  0.25500000920E-02 0.  1.
    10030    2    1    2    0    0  0.00000000000E+00  0.00000000000E+00  0.49184640814E+03  0.35791370418E+04  0.35451811061E+04 0.  0.
        5    1    3    3  502    0 -0.11151014526E+04  0.28475709291E+03 -0.11151427835E+04  0.16025303021E+04  0.46999998093E+01 0.  1.
       -5    1    3    3    0  502  0.11151014526E+04 -0.28475709291E+03  0.16069891916E+04  0.19766067397E+04  0.46999998093E+01 0. -1.
</event>
<event>
 5   0  0.1496000E-07  0.3664412E+04  0.7818609E-02  0.8075895E-01
       -4   -1    0    0    0  501  0.00000000000E+00  0.00000000000E+00  0.17313071325E+04  0.17313075983E+04  0.12699999809E+01 0.  1.
        4   -1    0    0  501    0  0.00000000000E+00  0.00000000000E+00 -0.19389837722E+04  0.19389841881E+04  0.12699999809E+01 0. -1.
    10030    2    1    2    0    0  0.00000000000E+00  0.00000000000E+00 -0.20767663969E+03  0.36702917865E+04  0.36644115777E+04 0.  0.
        5    1    3    3  502    0 -0.10549687948E+04 -0.11188118603E+04 -0.11015576646E+04  0.18915999881E+04  0.46999998093E+01 0. -1.
       -5    1    3    3    0  502  0.10549687948E+04  0.11188118603E+04  0.89388102489E+03  0.17786917983E+04  0.46999998093E+01 0.  1.
</event>
<event>
 5   0  0.4758908E-07  0.3671873E+04  0.7818609E-02  0.8074224E-01
        2   -1    0    0  501    0  0.00000000000E+00  0.00000000000E+00  0.13759936243E+04  0.13759936243E+04  0.25500000920E-02 0. -1.
       -2   -1    0    0    0  501  0.00000000000E+00  0.00000000000E+00 -0.24496203538E+04  0.24496203538E+04  0.25500000920E-02 0.  1.
    10030    2    1    2    0    0  0.00000000000E+00  0.00000000000E+00 -0.10736267294E+04  0.38256139781E+04  0.36718725408E+04 0.  0.
        2    1    3    3  502    0 -0.10629588277E+04  0.39540661248E+03  0.96739374133E+03  0.14906637815E+04  0.25500000920E-02 0. -1.
       -2    1    3    3    0  502  0.10629588277E+04 -0.39540661248E+03 -0.20410204708E+04  0.23349501966E+04  0.25500000920E-02 0.  1.
</event>
<event>
 5   0  0.4687817E-07  0.3663427E+04  0.7818609E-02  0.8076115E-01
       -2   -1    0    0    0  501  0.00000000000E+00  0.00000000000E+00  0.13038307350E+04  0.13038307350E+04  0.25500000920E-02 0. -1.
        2   -1    0    0  501    0  0.00000000000E+00  0.00000000000E+00 -0.25733209975E+04  0.25733209975E+04  0.25500000920E-02 0.  1.
    10030    2    1    2    0    0  0.00000000000E+00  0.00000000000E+00 -0.12694902625E+04  0.38771517325E+04  0.36634273611E+04 0.  0.
        4    1    3    3  502    0  0.12518131406E+04 -0.45708132748E+03  0.69523665628E+03  0.15031018263E+04  0.12699999809E+01 0. -1.
       -4    1    3    3    0  502 -0.12518131406E+04  0.45708132748E+03 -0.19647269188E+04  0.23740499062E+04  0.12699999809E+01 0.  1.
</event>
<event>
 5   0  0.1496287E-07  0.3695253E+04  0.7818609E-02  0.8069015E-01
       -1   -1    0    0    0  501  0.00000000000E+00  0.00000000000E+00  0.15329343573E+04  0.15329343573E+04  0.50400001928E-02 0. -1.
        1   -1    0    0  501    0  0.00000000000E+00  0.00000000000E+00 -0.22269213896E+04  0.22269213896E+04  0.50400001928E-02 0.  1.
    10030    2    1    2    0    0  0.00000000000E+00  0.00000000000E+00 -0.69398703232E+03  0.37598557469E+04  0.36952533386E+04 0.  0.
        1    1    3    3  502    0 -0.27660221471E+03 -0.30094759059E+02 -0.22054831894E+04  0.22229643674E+04  0.50400001928E-02 0.  1.
       -1    1    3    3    0  502  0.27660221471E+03  0.30094759059E+02  0.15114961571E+04  0.15368913796E+04  0.50400001928E-02 0. -1.
</event>
<event>
 5   0  0.1496287E-07  0.3688063E+04  0.7818609E-02  0.8070612E-01
       -1   -1    0    0    0  501  0.00000000000E+00  0.00000000000E+00  0.15998567398E+04  0.15998567398E+04  0.50400001928E-02 0. -1.
        1   -1    0    0  501    0  0.00000000000E+00  0.00000000000E+00 -0.21254725849E+04  0.21254725849E+04  0.50400001928E-02 0.  1.
    10030    2    1    2    0    0  0.00000000000E+00  0.00000000000E+00 -0.52561584509E+03  0.37253293248E+04  0.36880627111E+04 0.  0.
        1    1    3    3  502    0  0.11980737741E+04  0.12524776763E+04  0.37313342028E+03  0.17729381397E+04  0.50400001928E-02 0. -1.
       -1    1    3    3    0  502 -0.11980737741E+04 -0.12524776763E+04 -0.89874926536E+03  0.19523911851E+04  0.50400001928E-02 0.  1.
</event>
<event>
 5   0  0.1496000E-07  0.3650149E+04  0.7818609E-02  0.8079100E-01
        1   -1    0    0  501    0  0.00000000000E+00  0.00000000000E+00  0.16829646514E+04  0.16829646514E+04  0.50400001928E-02 0.  1.
       -1   -1    0    0    0  501  0.00000000000E+00  0.00000000000E+00 -0.19791836983E+04  0.19791836983E+04  0.50400001928E-02 0. -1.
    10030    2    1    2    0    0  0.00000000000E+00  0.00000000000E+00 -0.29621904696E+03  0.36621483497E+04  0.36501486013E+04 0.  0.
        5    1    3    3  502    0 -0.42138456758E+03  0.17520520429E+04 -0.43823624846E+03  0.18545415644E+04  0.46999998093E+01 0. -1.
       -5    1    3    3    0  502  0.42138456758E+03 -0.17520520429E+04  0.14201720150E+03  0.18076067853E+04  0.46999998093E+01 0.  1.
</event>
<event>
 5   0  0.4824268E-07  0.3693957E+04  0.7818609E-02  0.8069302E-01
        2   -1    0    0  501    0  0.00000000000E+00  0.00000000000E+00  0.13009589833E+04  0.13009589833E+04  0.25500000920E-02 0.  1.
       -2   -1    0    0    0  501  0.00000000000E+00  0.00000000000E+00 -0.26221647960E+04  0.26221647960E+04  0.25500000920E-02 0. -1.
    10030    2    1    2    0    0  0.00000000000E+00  0.00000000000E+00 -0.13212058127E+04  0.39231237794E+04  0.36939566035E+04 0.  0.
        1    1    3    3  502    0 -0.12233059991E+04 -0.34267006686E+03 -0.20844587900E+04  0.24410794312E+04  0.50400001928E-02 0. -1.
       -1    1    3    3    0  502  0.12233059991E+04  0.34267006686E+03  0.76325297738E+03  0.14820443481E+04  0.50400001928E-02 0.  1.
</event>
<event>
 5   0  0.4687817E-07  0.3676403E+04  0.7818609E-02  0.8073212E-01
       -2   -1    0    0    0  501  0.00000000000E+00  0.00000000000E+00  0.15936702965E+04  0.15936702965E+04  0.25500000920E-02 0. -1.
        2   -1    0    0  501    0  0.00000000000E+00  0.00000000000E+00 -0.21202528238E+04  0.21202528238E+04  0.25500000920E-02 0.  1.
    10030    2    1    2    0    0  0.00000000000E+00  0.00000000000E+00 -0.52658252729E+03  0.37139231203E+04  0.36764025603E+04 0.  0.
        4    1    3    3  502    0 -0.17493625611E+04 -0.44728746836E+02  0.30522424486E+03  0.17763539860E+04  0.12699999809E+01 0. -1.
       -4    1    3    3    0  502  0.17493625611E+04  0.44728746836E+02 -0.83180677215E+03  0.19375691343E+04  0.12699999809E+01 0.  1.
</event>
<event>
 5   0  0.1522273E-07  0.3725000E+04  0.7818609E-02  0.8062444E-01
        1   -1    0    0  501    0  0.00000000000E+00  0.00000000000E+00  0.24547443755E+04  0.24547443756E+04  0.50400001928E-02 0.  1.
       -1   -1    0    0    0  501  0.00000000000E+00  0.00000000000E+00 -0.14131433554E+04  0.14131433554E+04  0.50400001928E-02 0. -1.
    10030    2    1    2    0    0  0.00000000000E+00  0.00000000000E+00  0.10416010202E+04  0.38678877309E+04  0.37249997066E+04 0.  0.
        4    1    3    3  502    0  0.16411984618E+04 -0.41796632368E+03  0.13255629588E+04  0.21506619933E+04  0.12699999809E+01 0. -1.
       -4    1    3    3    0  502 -0.16411984618E+04  0.41796632368E+03 -0.28396193858E+03  0.17172257377E+04  0.12699999809E+01 0.  1.
</event>
<event>
 5   0  0.1496000E-07  0.3625124E+04  0.7818609E-02  0.8084761E-01
        3   -1    0    0  501    0  0.00000000000E+00  0.00000000000E+00  0.26572065464E+04  0.26572065483E+04  0.10100000352E+00 0.  1.
       -3   -1    0    0    0  501  0.00000000000E+00  0.00000000000E+00 -0.12364043056E+04  0.12364043098E+04  0.10100000352E+00 0. -1.
    10030    2    1    2    0    0  0.00000000000E+00  0.00000000000E+00  0.14208022407E+04  0.38936108581E+04  0.36251243436E+04 0.  0.
        2    1    3    3  502    0  0.79279007099E+03 -0.16260986006E+04  0.83129340879E+03  0.19909197590E+04  0.25500000920E-02 0.  1.
       -2    1    3    3    0  502 -0.79279007099E+03  0.16260986006E+04  0.58950883195E+03  0.19026910990E+04  0.25500000920E-02 0. -1.
</event>
<event>
 5   0  0.4824268E-07  0.3644391E+04  0.7818609E-02  0.8080398E-01
        2   -1    0    0  501    0  0.00000000000E+00  0.00000000000E+00  0.17270933349E+04  0.17270933349E+04  0.25500000920E-02 0. -1.
       -2   -1    0    0    0  501  0.00000000000E+00  0.00000000000E+00 -0.19225349520E+04  0.19225349520E+04  0.25500000920E-02 0.  1.
    10030    2    1    2    0    0  0.00000000000E+00  0.00000000000E+00 -0.19544161717E+03  0.36496282869E+04  0.36443914728E+04 0.  0.
        1    1    3    3  502    0 -0.55453339626E+03 -0.77327139387E+03  0.14585203873E+04  0.17414757122E+04  0.50400001928E-02 0. -1.
       -1    1    3    3    0  502  0.55453339626E+03  0.77327139387E+03 -0.16539620044E+04  0.19081525747E+04  0.50400001928E-02 0.  1.
</event>
<event>
 5   0  0.1496000E-07  0.3693876E+04  0.7818609E-02  0.8069320E-01
       -1   -1    0    0    0  501  0.00000000000E+00  0.00000000000E+00  0.12525386202E+04  0.12525386202E+04  0.50400001928E-02 0.  1.
        1   -1    0    0  501    0  0.00000000000E+00  0.00000000000E+00 -0.27234124348E+04  0.27234124348E+04  0.50400001928E-02 0. -1.
    10030    2    1    2    0    0  0.00000000000E+00  0.00000000000E+00 -0.14708738146E+04  0.39759510551E+04  0.36938756089E+04 0.  0.
        3    1    3    3  502    0  0.15485985801E+04 -0.77293986441E+03 -0.41549456765E+02  0.17312769749E+04  0.10100000352E+00 0.  1.
       -3    1    3    3    0  502 -0.15485985801E+04  0.77293986441E+03 -0.14293243578E+04  0.22446740802E+04  0.10100000352E+00 0. -1.
</event>
<event>
 5   0  0.4758908E-07  0.3672558E+04  0.7818609E-02  0.8074071E-01
        2   -1    0    0  501    0  0.00000000000E+00  0.00000000000E+00  0.13580988987E+04  0.13580988987E+04  0.25500000920E-02 0.  1.
       -2   -1    0    0    0  501  0.00000000000E+00  0.00000000000E+00 -0.24828236126E+04  0.24828236126E+04  0.25500000920E-02 0. -1.
    10030    2    1    2    0    0  0.00000000000E+00  0.00000000000E+00 -0.11247247140E+04  0.38409225113E+04  0.36725576994E+04 0.  0.
        2    1    3    3  502    0  0.17284868568E+04 -0.61986760386E+03 -0.56671905690E+03  0.19217370138E+04  0.25500000920E-02 0. -1.
       -2    1    3    3    0  502 -0.17284868568E+04  0.61986760386E+03 -0.55800565707E+03  0.19191854975E+04  0.25500000920E-02 0.  1.
</event>
<event>
 5   0  0.4758908E-07  0.3786142E+04  0.7818609E-02  0.8049135E-01
       -2   -1    0    0    0  501  0.00000000000E+00  0.00000000000E+00  0.22683112701E+04  0.22683112701E+04  0.25500000920E-02 0. -1.
        2   -1    0    0  501    0  0.00000000000E+00  0.00000000000E+00 -0.15799056111E+04  0.15799056111E+04  0.25500000920E-02 0.  1.
    10030    2    1    2    0    0  0.00000000000E+00  0.00000000000E+00  0.68840565893E+03  0.38482168812E+04  0.37861419431E+04 0.  0.
        2    1    3    3  502    0  0.34584644530E+03 -0.13122090196E+04 -0.99736790671E+03  0.16841154997E+04  0.25500000920E-02 0.  1.
       -2    1    3    3    0  502 -0.34584644530E+03  0.13122090196E+04  0.16857735656E+04  0.21641013815E+04  0.25500000920E-02 0. -1.
</event>
<event>
 5   0  0.4687817E-07  0.3720930E+04  0.7818609E-02  0.8063339E-01
       -2   -1    0    0    0  501  0.00000000000E+00  0.00000000000E+00  0.17063835582E+04  0.17063835582E+04  0.25500000920E-02 0.  1.
        2   -1    0    0  501    0  0.00000000000E+00  0.00000000000E+00 -0.20284593358E+04  0.20284593358E+04  0.25500000920E-02 0. -1.
    10030    2    1    2    0    0  0.00000000000E+00  0.00000000000E+00 -0.32207577759E+03  0.37348428940E+04  0.37209298080E+04 0.  0.
        4    1    3    3  502    0  0.51775057367E+03 -0.17187341918E+04  0.32988718808E+03  0.18250863126E+04  0.12699999809E+01 0.  1.
       -4    1    3    3    0  502 -0.51775057367E+03  0.17187341918E+04 -0.65196296567E+03  0.19097565814E+04  0.12699999809E+01 0. -1.
</event>
<event>
 5   0  0.4857514E-07  0.3594663E+04  0.7818609E-02  0.8091715E-01
       -2   -1    0    0    0  501  0.00000000000E+00  0.00000000000E+00  0.16149164956E+04  0.16149164956E+04  0.25500000920E-02 0.  1.
        2   -1    0    0  501    0  0.00000000000E+00  0.00000000000E+00 -0.20003517902E+04  0.20003517902E+04  0.25500000920E-02 0. -1.
    10030    2    1    2    0    0  0.00000000000E+00  0.00000000000E+00 -0.38543529456E+03  0.36152682858E+04  0.35946633238E+04 0.  0.
        5    1    3    3  502    0  0.12819602603E+04  0.27761950048E+03 -0.14285345983E+04  0.19393885337E+04  0.46999998093E+01 0. -1.
       -5    1    3    3    0  502 -0.12819602603E+04 -0.27761950048E+03  0.10430993038E+04  0.16758797521E+04  0.46999998093E+01 0.  1.
</event>
<event>
 5   0  0.4824268E-07  0.3593995E+04  0.7818609E-02  0.8091869E-01
       -2   -1    0    0    0  501  0.00000000000E+00  0.00000000000E+00  0.12827877195E+04  0.12827877195E+04  0.25500000920E-02 0.  1.
        2   -1    0    0  501    0  0.00000000000E+00  0.00000000000E+00 -0.25173299838E+04  0.25173299838E+04  0.25500000920E-02 0. -1.
    10030    2    1    2    0    0  0.00000000000E+00  0.00000000000E+00 -0.12345422643E+04  0.38001177033E+04  0.35939949856E+04 0.  0.
        1    1    3    3  502    0  0.28210846693E+03 -0.97613723472E+03  0.94988391325E+03  0.13909380061E+04  0.50400001928E-02 0.  1.
       -1    1    3    3    0  502 -0.28210846693E+03  0.97613723472E+03 -0.21844261776E+04  0.24091796972E+04  0.50400001928E-02 0. -1.
</event>
<event>
 5   0  0.4857514E-07  0.3701264E+04  0.7818609E-02  0.8067682E-01
        2   -1    0    0  501    0  0.00000000000E+00  0.00000000000E+00  0.13731254086E+04  0.13731254086E+04  0.25500000920E-02 0. -1.
       -2   -1    0    0    0  501  0.00000000000E+00  0.00000000000E+00 -0.24941926994E+04  0.24941926994E+04  0.25500000920E-02 0.  1.
    10030    2    1    2    0    0  0.00000000000E+00  0.00000000000E+00 -0.11210672907E+04  0.38673181080E+04  0.37012643080E+04 0.  0.
        5    1    3    3  502    0 -0.66996746829E+03 -0.28862909455E+02 -0.23627735881E+04  0.24560966176E+04  0.46999998093E+01 0.  1.
       -5    1    3    3    0  502  0.66996746829E+03  0.28862909455E+02  0.12417062974E+04  0.14112214904E+04  0.46999998093E+01 0. -1.
</event>
<event>
 5   0  0.1522273E-07  0.3779712E+04  0.7818609E-02  0.8050523E-01
       -1   -1    0    0    0  501  0.00000000000E+00  0.00000000000E+00  0.17753642852E+04  0.17753642852E+04  0.50400001928E-02 0. -1.
        1   -1    0    0  501    0  0.00000000000E+00  0.00000000000E+00 -0.20117309639E+04  0.20117309639E+04  0.50400001928E-02 0.  1.
    10030    2    1    2    0    0  0.00000000000E+00  0.00000000000E+00 -0.23636667873E+03  0.37870952491E+04  0.37797117905E+04 0.  0.
        4    1    3    3  502    0  0.42860293122E+03  0.15797020261E+04 -0.10646951571E+04  0.19526229422E+04  0.12699999809E+01 0.  1.
       -4    1    3    3    0  502 -0.42860293122E+03 -0.15797020261E+04  0.82832847839E+03  0.18344723069E+04  0.12699999809E+01 0. -1.
</event>
<event>
 5   0  0.1496000E-07  0.3733344E+04  0.7818609E-02  0.8060612E-01
        1   -1    0    0  501    0  0.00000000000E+00  0.00000000000E+00  0.26508732639E+04  0.26508732639E+04  0.50400001928E-02 0.  1.
       -1   -1    0    0    0  501  0.00000000000E+00  0.00000000000E+00 -0.13144589262E+04  0.13144589262E+04  0.50400001928E-02 0. -1.
    10030    2    1    2    0    0  0.00000000000E+00  0.00000000000E+00  0.13364143378E+04  0.39653321901E+04  0.37333438223E+04 0.  0.
        5    1    3    3  502    0  0.76875780849E+03 -0.16963472035E+04  0.80196732193E+03  0.20277465518E+04  0.46999998093E+01 0.  1.
       -5    1    3    3    0  502 -0.76875780849E+03  0.16963472035E+04  0.53444701583E+03  0.19375856383E+04  0.46999998093E+01 0. -1.
</event>
<event>
 5   0  0.4687817E-07  0.3881703E+04  0.7818609E-02  0.8028845E-01
       -2   -1    0    0    0  501  0.00000000000E+00  0.00000000000E+00  0.13366556228E+04  0.13366556228E+04  0.25500000920E-02 0. -1.
        2   -1    0    0  501    0  0.00000000000E+00  0.00000000000E+00 -0.28181561853E+04  0.28181561853E+04  0.25500000920E-02 0.  1.
    10030    2    1    2    0    0  0.00000000000E+00  0.00000000000E+00 -0.14815005625E+04  0.41548118081E+04  0.38817028794E+04 0.  0.
        4    1    3    3  502    0 -0.14518433296E+04  0.12817023865E+04 -0.87737357551E+03  0.21261223073E+04  0.12699999809E+01 0. -1.
       -4    1    3    3    0  502  0.14518433296E+04 -0.12817023865E+04 -0.60412698703E+03  0.20286895008E+04  0.12699999809E+01 0.  1.
</event>
<event>
 5   0  0.4758908E-07  0.3676533E+04  0.7818609E-02  0.8073182E-01
        2   -1    0    0  501    0  0.00000000000E+00  0.00000000000E+00  0.20275396721E+04  0.20275396721E+04  0.25500000920E-02 0.  1.
       -2   -1    0    0    0  501  0.00000000000E+00  0.00000000000E+00 -0.16666622471E+04  0.16666622471E+04  0.25500000920E-02 0. -1.
    10030    2    1    2    0    0  0.00000000000E+00  0.00000000000E+00  0.36087742494E+03  0.36942019192E+04  0.36765330550E+04 0.  0.
        2    1    3    3  502    0 -0.88220989596E+03  0.34662683979E+03  0.17630571631E+04  0.20017030316E+04  0.25500000920E-02 0.  1.
       -2    1    3    3    0  502  0.88220989596E+03 -0.34662683979E+03 -0.14021797381E+04  0.16924988876E+04  0.25500000920E-02 0. -1.
</event>
<event>
 5   0  0.1496000E-07  0.3707814E+04  0.7818609E-02  0.8066232E-01
       -1   -1    0    0    0  501  0.00000000000E+00  0.00000000000E+00  0.16514665731E+04  0.16514665731E+04  0.50400001928E-02 0.  1.
        1   -1    0    0  501    0  0.00000000000E+00  0.00000000000E+00 -0.20811630945E+04  0.20811630945E+04  0.50400001928E-02 0. -1.
    10030    2    1    2    0    0  0.00000000000E+00  0.00000000000E+00 -0.42969652146E+03  0.37326296676E+04  0.37078140643E+04 0.  0.
        5    1    3    3  502    0  0.76487660415E+03  0.11205945106E+04  0.10570079448E+04  0.17199000442E+04  0.46999998093E+01 0.  1.
       -5    1    3    3    0  502 -0.76487660415E+03 -0.11205945106E+04 -0.14867044663E+04  0.20127296234E+04  0.46999998093E+01 0. -1.
</event>
<event>
 5   0  0.1522273E-07  0.3715408E+04  0.7818609E-02  0.8064556E-01
       -1   -1    0    0    0  501  0.00000000000E+00  0.00000000000E+00  0.12459393536E+04  0.12459393536E+04  0.50400001928E-02 0.  1.
        1   -1    0    0  501    0  0.00000000000E+00  0.00000000000E+00 -0.27698487741E+04  0.27698487741E+04  0.50400001928E-02 0. -1.
    10030    2    1    2    0    0  0.00000000000E+00  0.00000000000E+00 -0.15239094206E+04  0.40157881277E+04  0.37154076983E+04 0.  0.
        4    1    3    3  502    0 -0.15140098854E+04 -0.41796071040E+03 -0.18341992311E+04  0.24147889185E+04  0.12699999809E+01 0. -1.
       -4    1    3    3    0  502  0.15140098854E+04  0.41796071040E+03  0.31028981052E+03  0.16009992092E+04  0.12699999809E+01 0.  1.
</event>
<event>
 5   0  0.4857514E-07  0.3721249E+04  0.7818609E-02  0.8063269E-01
        2   -1    0    0  501    0  0.00000000000E+00  0.00000000000E+00  0.24948710193E+04  0.24948710193E+04  0.25500000920E-02 0. -1.
       -2   -1    0    0    0  501  0.00000000000E+00  0.00000000000E+00 -0.13876164895E+04  0.13876164895E+04  0.25500000920E-02 0.  1.
    10030    2    1    2    0    0  0.00000000000E+00  0.00000000000E+00  0.11072545299E+04  0.38824875088E+04  0.37212493416E+04 0.  0.
        5    1    3    3  502    0 -0.27597193122E+03 -0.62537751289E+02 -0.13650291983E+04  0.13940582051E+04  0.46999998093E+01 0.  1.
       -5    1    3    3    0  502  0.27597193122E+03  0.62537751289E+02  0.24722837281E+04  0.24884293037E+04  0.46999998093E+01 0. -1.
</event>
<event>
 5   0  0.1496000E-07  0.3713239E+04  0.7818609E-02  0.8065034E-01
        1   -1    0    0  501    0  0.00000000000E+00  0.00000000000E+00  0.17558030707E+04  0.17558030707E+04  0.50400001928E-02 0.  1.
       -1   -1    0    0    0  501  0.00000000000E+00  0.00000000000E+00 -0.19632250001E+04  0.19632250001E+04  0.50400001928E-02 0. -1.
    10030    2    1    2    0    0  0.00000000000E+00  0.00000000000E+00 -0.20742192936E+03  0.37190280708E+04  0.37132392778E+04 0.  0.
        2    1    3    3  502    0 -0.62788436559E+03 -0.14362754810E+04 -0.11002044759E+04  0.19150916225E+04  0.25500000920E-02 0. -1.
       -2    1    3    3    0  502  0.62788436559E+03  0.14362754810E+04  0.89278254654E+03  0.18039364482E+04  0.25500000920E-02 0.  1.
</event>
<event>
 5   0  0.1496000E-07  0.3564667E+04  0.7818609E-02  0.8098633E-01
        1   -1    0    0  501    0  0.00000000000E+00  0.00000000000E+00  0.10689788185E+04  0.10689788186E+04  0.50400001928E-02 0. -1.
       -1   -1    0    0    0  501  0.00000000000E+00  0.00000000000E+00 -0.29717269525E+04  0.29717269525E+04  0.50400001928E-02 0.  1.
    10030    2    1    2    0    0  0.00000000000E+00  0.00000000000E+00 -0.19027481340E+04  0.40407057711E+04  0.35646672590E+04 0.  0.
        3    1    3    3  502    0  0.41451820810E+03 -0.75057822604E+03  0.81982912463E+03  0.11863021630E+04  0.10100000352E+00 0. -1.
       -3    1    3    3    0  502 -0.41451820810E+03  0.75057822604E+03 -0.27225772586E+04  0.28544036080E+04  0.10100000352E+00 0.  1.
</event>
<event>
 5   0  0.1496287E-07  0.3699358E+04  0.7818609E-02  0.8068104E-01
       -1   -1    0    0    0  501  0.00000000000E+00  0.00000000000E+00  0.14187868440E+04  0.14187868440E+04  0.50400001928E-02 0.  1.
        1   -1    0    0  501    0  0.00000000000E+00  0.00000000000E+00 -0.24114349098E+04  0.24114349098E+04  0.50400001928E-02 0. -1.
    10030    2    1    2    0    0  0.00000000000E+00  0.00000000000E+00 -0.99264806586E+03  0.38302217538E+04  0.36993578498E+04 0.  0.
        1    1    3    3  502    0 -0.12399845171E+04  0.12727686470E+04  0.35470181272E+02  0.17772900059E+04  0.50400001928E-02 0.  1.
       -1    1    3    3    0  502  0.12399845171E+04 -0.12727686470E+04 -0.10281182471E+04  0.20529317479E+04  0.50400001928E-02 0. -1.
</event>
<event>
 5   0  0.4824268E-07  0.3417072E+04  0.7818609E-02  0.8133729E-01
       -2   -1    0    0    0  501  0.00000000000E+00  0.00000000000E+00  0.11108141042E+04  0.11108141042E+04  0.25500000920E-02 0. -1.
        2   -1    0    0  501    0  0.00000000000E+00  0.00000000000E+00 -0.26278878196E+04  0.26278878196E+04  0.25500000920E-02 0.  1.
    10030    2    1    2    0    0  0.00000000000E+00  0.00000000000E+00 -0.15170737154E+04  0.37387019238E+04  0.34170717606E+04 0.  0.
        1    1    3    3  502    0  0.18938252349E+03  0.10266053303E+04 -0.22383622283E+04  0.24698278704E+04  0.50400001928E-02 0.  1.
       -1    1    3    3    0  502 -0.18938252349E+03 -0.10266053303E+04  0.72128851298E+03  0.12688740534E+04  0.50400001928E-02 0. -1.
</event>
<event>
 5   0  0.4793557E-07  0.3701774E+04  0.7818609E-02  0.8067569E-01
       -2   -1    0    0    0  501  0.00000000000E+00  0.00000000000E+00  0.12904396998E+04  0.12904396999E+04  0.25500000920E-02 0. -1.
        2   -1    0    0  501    0  0.00000000000E+00  0.00000000000E+00 -0.26547404877E+04  0.26547404877E+04  0.25500000920E-02 0.  1.
    10030    2    1    2    0    0  0.00000000000E+00  0.00000000000E+00 -0.13643007879E+04  0.39451801876E+04  0.37017739089E+04 0.  0.
        3    1    3    3  502    0  0.42065527624E+02  0.12215093602E+03 -0.26499294034E+04  0.26530767447E+04  0.10100000352E+00 0.  1.
       -3    1    3    3    0  502 -0.42065527624E+02 -0.12215093602E+03  0.12856286156E+04  0.12921034429E+04  0.10100000352E+00 0. -1.
</event>
<event>
 5   0  0.4857514E-07  0.2996639E+04  0.7818609E-02  0.8244691E-01
       -2   -1    0    0    0  501  0.00000000000E+00  0.00000000000E+00  0.89651035477E+03  0.89651035477E+03  0.25500000920E-02 0. -1.
        2   -1    0    0  501    0  0.00000000000E+00  0.00000000000E+00 -0.25041108352E+04  0.25041108352E+04  0.25500000920E-02 0.  1.
    10030    2    1    2    0    0  0.00000000000E+00  0.00000000000E+00 -0.16076004804E+04  0.34006211900E+04  0.29966389794E+04 0.  0.
        5    1    3    3  502    0 -0.10158789881E+04 -0.10601683421E+04 -0.11422942027E+04  0.18603293170E+04  0.46999998093E+01 0.  1.
       -5    1    3    3    0  502  0.10158789881E+04  0.10601683421E+04 -0.46530627767E+03  0.15402918730E+04  0.46999998093E+01 0. -1.
</event>
<event>
 5   0  0.4687817E-07  0.3703713E+04  0.7818609E-02  0.8067140E-01
        2   -1    0    0  501    0  0.00000000000E+00  0.00000000000E+00  0.21554030125E+04  0.21554030125E+04  0.25500000920E-02 0.  1.
       -2   -1    0    0    0  501  0.00000000000E+00  0.00000000000E+00 -0.15910584794E+04  0.15910584794E+04  0.25500000920E-02 0. -1.
    10030    2    1    2    0    0  0.00000000000E+00  0.00000000000E+00  0.56434453309E+03  0.37464614920E+04  0.37037128613E+04 0.  0.
        4    1    3    3  502    0  0.89109744869E+03  0.11464361846E+04 -0.88044127883E+03  0.16981016008E+04  0.12699999809E+01 0. -1.
       -4    1    3    3    0  502 -0.89109744869E+03 -0.11464361846E+04  0.14447858119E+04  0.20483598911E+04  0.12699999809E+01 0.  1.
</event>
<event>
 5   0  0.4824268E-07  0.3741686E+04  0.7818609E-02  0.8058786E-01
        2   -1    0    0  501    0  0.00000000000E+00  0.00000000000E+00  0.22277528681E+04  0.22277528681E+04  0.25500000920E-02 0. -1.
       -2   -1    0    0    0  501  0.00000000000E+00  0.00000000000E+00 -0.15711139502E+04  0.15711139502E+04  0.25500000920E-02 0.  1.
    10030    2    1    2    0    0  0.00000000000E+00  0.00000000000E+00  0.65663891785E+03  0.37988668183E+04  0.37416860417E+04 0.  0.
        1    1    3    3  502    0 -0.69877617013E+03 -0.10721135012E+04 -0.10572107208E+04  0.16599427712E+04  0.50400001928E-02 0.  1.
       -1    1    3    3    0  502  0.69877617013E+03  0.10721135012E+04  0.17138496387E+04  0.21389240471E+04  0.50400001928E-02 0. -1.
</event>
<event>
 5   0  0.1496000E-07  0.3299431E+04  0.7818609E-02  0.8163040E-01
        1   -1    0    0  501    0  0.00000000000E+00  0.00000000000E+00  0.20724663419E+04  0.20724663419E+04  0.50400001928E-02 0.  1.
       -1   -1    0    0    0  501  0.00000000000E+00  0.00000000000E+00 -0.13131994051E+04  0.13131994051E+04  0.50400001928E-02 0. -1.
    10030    2    1    2    0    0  0.00000000000E+00  0.00000000000E+00  0.75926693682E+03  0.33856657470E+04  0.32994312039E+04 0.  0.
        2    1    3    3  502    0 -0.15944813401E+04 -0.76994260564E+02  0.80676098466E+03  0.17886201795E+04  0.25500000920E-02 0.  1.
       -2    1    3    3    0  502  0.15944813401E+04  0.76994260564E+02 -0.47494047844E+02  0.15970455675E+04  0.25500000920E-02 0. -1.
</event>
<event>
 5   0  0.1496000E-07  0.3701600E+04  0.7818609E-02  0.8067607E-01
       -1   -1    0    0    0  501  0.00000000000E+00  0.00000000000E+00  0.15403192577E+04  0.15403192578E+04  0.50400001928E-02 0. -1.
        1   -1    0    0  501    0  0.00000000000E+00  0.00000000000E+00 -0.22238640873E+04  0.22238640873E+04  0.50400001928E-02 0.  1.
    10030    2    1    2    0    0  0.00000000000E+00  0.00000000000E+00 -0.68354482954E+03  0.37641833450E+04  0.37016000218E+04 0.  0.
        3    1    3    3  502    0 -0.52675265422E+03 -0.14800008174E+04 -0.13368823363E+04  0.20627954745E+04  0.10100000352E+00 0.  1.
       -3    1    3    3    0  502  0.52675265422E+03  0.14800008174E+04  0.65333750676E+03  0.17013878706E+04  0.10100000352E+00 0. -1.
</event>
<event>
 5   0  0.4793557E-07  0.3734379E+04  0.7818609E-02  0.8060386E-01
       -2   -1    0    0    0  501  0.00000000000E+00  0.00000000000E+00  0.26669795553E+04  0.26669795553E+04  0.25500000920E-02 0.  1.
        2   -1    0    0  501    0  0.00000000000E+00  0.00000000000E+00 -0.13072450250E+04  0.13072450250E+04  0.25500000920E-02 0. -1.
    10030    2    1    2    0    0  0.00000000000E+00  0.00000000000E+00  0.13597345303E+04  0.39742245804E+04  0.37343785323E+04 0.  0.
        3    1    3    3  502    0 -0.42192927240E+03  0.16096230887E+02 -0.12557709707E+04  0.13248562716E+04  0.10100000352E+00 0. -1.
       -3    1    3    3    0  502  0.42192927240E+03 -0.16096230887E+02  0.26155055009E+04  0.26493683087E+04  0.10100000352E+00 0.  1.
</event>
<event>
 5   0  0.4793557E-07  0.3705449E+04  0.7818609E-02  0.8066755E-01
        2   -1    0    0  501    0  0.00000000000E+00  0.00000000000E+00  0.30970079371E+04  0.30970079371E+04  0.25500000920E-02 0. -1.
       -2   -1    0    0    0  501  0.00000000000E+00  0.00000000000E+00 -0.11083564186E+04  0.11083564186E+04  0.25500000920E-02 0.  1.
    10030    2    1    2    0    0  0.00000000000E+00  0.00000000000E+00  0.19886515184E+04  0.42053643557E+04  0.37054492983E+04 0.  0.
        3    1    3    3  502    0 -0.47988674089E+03  0.15267330889E+04  0.20537438799E+04  0.26036645604E+04  0.10100000352E+00 0. -1.
       -3    1    3    3    0  502  0.47988674089E+03 -0.15267330889E+04 -0.65092361434E+02  0.16016997953E+04  0.10100000352E+00 0.  1.
</event>
<event>
 5   0  0.1522273E-07  0.3692718E+04  0.7818609E-02  0.8069577E-01
       -1   -1    0    0    0  501  0.00000000000E+00  0.00000000000E+00  0.12450159049E+04  0.12450159049E+04  0.50400001928E-02 0.  1.
        1   -1    0    0  501    0  0.00000000000E+00  0.00000000000E+00 -0.27381513056E+04  0.27381513056E+04  0.50400001928E-02 0. -1.
    10030    2    1    2    0    0  0.00000000000E+00  0.00000000000E+00 -0.14931354007E+04  0.39831672105E+04  0.36927181997E+04 0.  0.
        4    1    3    3  502    0  0.20724129070E+03 -0.17470752649E+04 -0.14230992052E+03  0.17650707238E+04  0.12699999809E+01 0.  1.
       -4    1    3    3    0  502 -0.20724129070E+03  0.17470752649E+04 -0.13508254802E+04  0.22180964867E+04  0.12699999809E+01 0. -1.
</event>
<event>
 5   0  0.1496287E-07  0.3708793E+04  0.7818609E-02  0.8066016E-01
        1   -1    0    0  501    0  0.00000000000E+00  0.00000000000E+00  0.27146980783E+04  0.27146980783E+04  0.50400001928E-02 0.  1.
       -1   -1    0    0    0  501  0.00000000000E+00  0.00000000000E+00 -0.12667287891E+04  0.12667287891E+04  0.50400001928E-02 0. -1.
    10030    2    1    2    0    0  0.00000000000E+00  0.00000000000E+00  0.14479692892E+04  0.39814268673E+04  0.37087929084E+04 0.  0.
        1    1    3    3  502    0 -0.47115153531E+03 -0.82909839865E+03  0.24313040198E+04  0.26116330448E+04  0.50400001928E-02 0.  1.
       -1    1    3    3    0  502  0.47115153531E+03  0.82909839865E+03 -0.98333473060E+03  0.13697938225E+04  0.50400001928E-02 0. -1.
</event>
<event>
 5   0  0.4857514E-07  0.3670742E+04  0.7818609E-02  0.8074477E-01
       -2   -1    0    0    0  501  0.00000000000E+00  0.00000000000E+00  0.16041241660E+04  0.16041241660E+04  0.25500000920E-02 0. -1.
        2   -1    0    0  501    0  0.00000000000E+00  0.00000000000E+00 -0.20999535895E+04  0.20999535895E+04  0.25500000920E-02 0.  1.
    10030    2    1    2    0    0  0.00000000000E+00  0.00000000000E+00 -0.49582942351E+03  0.37040777555E+04  0.36707417782E+04 0.  0.
        5    1    3    3  502    0 -0.17271616353E+04  0.57081424224E+03 -0.49436208405E+03  0.18850284278E+04  0.46999998093E+01 0.  1.
       -5    1    3    3    0  502  0.17271616353E+04 -0.57081424224E+03 -0.14673394573E+01  0.18190493277E+04  0.46999998093E+01 0. -1.
</event>
<event>
 5   0  0.1496287E-07  0.3627346E+04  0.7818609E-02  0.8084256E-01
       -1   -1    0    0    0  501  0.00000000000E+00  0.00000000000E+00  0.14563877747E+04  0.14563877747E+04  0.50400001928E-02 0. -1.
        1   -1    0    0  501    0  0.00000000000E+00  0.00000000000E+00 -0.22586089262E+04  0.22586089263E+04  0.50400001928E-02 0.  1.
    10030    2    1    2    0    0  0.00000000000E+00  0.00000000000E+00 -0.80222115155E+03  0.37149967010E+04  0.36273463733E+04 0.  0.
        1    1    3    3  502    0  0.14899510380E+04 -0.10329878680E+04 -0.45120461333E+03  0.18683157212E+04  0.50400001928E-02 0.  1.
       -1    1    3    3    0  502 -0.14899510380E+04  0.10329878680E+04 -0.35101653821E+03  0.18466809798E+04  0.50400001928E-02 0. -1.
</event>
<event>
 5   0  0.1496287E-07  0.3676808E+04  0.7818609E-02  0.8073121E-01
        1   -1    0    0  501    0  0.00000000000E+00  0.00000000000E+00  0.16117229414E+04  0.16117229414E+04  0.50400001928E-02 0.  1.
       -1   -1    0    0    0  501  0.00000000000E+00  0.00000000000E+00 -0.20969665140E+04  0.20969665140E+04  0.50400001928E-02 0. -1.
    10030    2    1    2    0    0  0.00000000000E+00  0.00000000000E+00 -0.48524357255E+03  0.37086894554E+04  0.36768078753E+04 0.  0.
        1    1    3    3  502    0  0.17371659103E+04  0.53340654858E+03 -0.52335341102E+03  0.18910755508E+04  0.50400001928E-02 0. -1.
       -1    1    3    3    0  502 -0.17371659103E+04 -0.53340654858E+03  0.38109838476E+02  0.18176139045E+04  0.50400001928E-02 0.  1.
</event>
<event>
 5   0  0.4687817E-07  0.3663121E+04  0.7818609E-02  0.8076184E-01
        2   -1    0    0  501    0  0.00000000000E+00  0.00000000000E+00  0.14034250729E+04  0.14034250729E+04  0.25500000920E-02 0. -1.
       -2   -1    0    0    0  501  0.00000000000E+00  0.00000000000E+00 -0.23903047195E+04  0.23903047195E+04  0.25500000920E-02 0.  1.
    10030    2    1    2    0    0  0.00000000000E+00  0.00000000000E+00 -0.98687964661E+03  0.37937297923E+04  0.36631208416E+04 0.  0.
        4    1    3    3  502    0  0.98337960597E+03 -0.79457554015E+03  0.87903813419E+03  0.15398361577E+04  0.12699999809E+01 0. -1.
       -4    1    3    3    0  502 -0.98337960597E+03  0.79457554015E+03 -0.18659177808E+04  0.22538936346E+04  0.12699999809E+01 0.  1.
</event>
<event>
 5   0  0.1496000E-07  0.3194552E+04  0.7818609E-02  0.8190257E-01
        1   -1    0    0  501    0  0.00000000000E+00  0.00000000000E+00  0.13057147893E+04  0.13057147894E+04  0.50400001928E-02 0.  1.
       -1   -1    0    0    0  501  0.00000000000E+00  0.00000000000E+00 -0.19539422417E+04  0.19539422417E+04  0.50400001928E-02 0. -1.
    10030    2    1    2    0    0  0.00000000000E+00  0.00000000000E+00 -0.64822745234E+03  0.32596570310E+04  0.31945524147E+04 0.  0.
        3    1    3    3  502    0  0.62844765915E+03  0.32075635106E+03 -0.17863078414E+04  0.19206058449E+04  0.10100000352E+00 0. -1.
       -3    1    3    3    0  502 -0.62844765915E+03 -0.32075635106E+03  0.11380803890E+04  0.13390511862E+04  0.10100000352E+00 0.  1.
</event>
<event>
 5   0  0.1496000E-07  0.3668832E+04  0.7818609E-02  0.8074904E-01
        1   -1    0    0  501    0  0.00000000000E+00  0.00000000000E+00  0.17731841327E+04  0.17731841327E+04  0.50400001928E-02 0.  1.
       -1   -1    0    0    0  501  0.00000000000E+00  0.00000000000E+00 -0.18977627926E+04  0.18977627926E+04  0.50400001928E-02 0. -1.
    10030    2    1    2    0    0  0.00000000000E+00  0.00000000000E+00 -0.12457865993E+03  0.36709469253E+04  0.36688324417E+04 0.  0.
        3    1    3    3  502    0  0.79069546349E+03  0.70425480861E+03  0.14365421982E+04  0.17846085422E+04  0.10100000352E+00 0.  1.
       -3    1    3    3    0  502 -0.79069546349E+03 -0.70425480861E+03 -0.15611208582E+04  0.18863383831E+04  0.10100000352E+00 0. -1.
</event>
<event>
 5   0  0.1496287E-07  0.3685144E+04  0.7818609E-02  0.8071262E-01
        1   -1    0    0  501    0  0.00000000000E+00  0.00000000000E+00  0.21572898976E+04  0.21572898976E+04  0.50400001928E-02 0. -1.
       -1   -1    0    0    0  501  0.00000000000E+00  0.00000000000E+00 -0.15737672993E+04  0.15737672993E+04  0.50400001928E-02 0.  1.
    10030    2    1    2    0    0  0.00000000000E+00  0.00000000000E+00  0.58352259823E+03  0.37310571969E+04  0.36851443912E+04 0.  0.
        1    1    3    3  502    0 -0.15863387057E+04  0.40245184335E+02  0.12399019570E+04  0.20138140497E+04  0.50400001928E-02 0. -1.
       -1    1    3    3    0  502  0.15863387057E+04 -0.40245184335E+02 -0.65637935876E+03  0.17172431472E+04  0.50400001928E-02 0.  1.
</event>
<event>
 5   0  0.1496000E-07  0.3702716E+04  0.7818609E-02  0.8067360E-01
        1   -1    0    0  501    0  0.00000000000E+00  0.00000000000E+00  0.22448941390E+04  0.22448941390E+04  0.50400001928E-02 0. -1.
       -1   -1    0    0    0  501  0.00000000000E+00  0.00000000000E+00 -0.15268101332E+04  0.15268101332E+04  0.50400001928E-02 0.  1.
    10030    2    1    2    0    0  0.00000000000E+00  0.00000000000E+00  0.71808400581E+03  0.37717042722E+04  0.37027163647E+04 0.  0.
        5    1    3    3  502    0 -0.13395892493E+03  0.16891187659E+04 -0.40080387619E+03  0.17411872490E+04  0.46999998093E+01 0.  1.
       -5    1    3    3    0  502  0.13395892493E+03 -0.16891187659E+04  0.11188878820E+04  0.20305170232E+04  0.46999998093E+01 0. -1.
</event>
<event>
 5   0  0.1496000E-07  0.3446822E+04  0.7818609E-02  0.8126509E-01
       -1   -1    0    0    0  501  0.00000000000E+00  0.00000000000E+00  0.17578840258E+04  0.17578840258E+04  0.50400001928E-02 0.  1.
        1   -1    0    0  501    0  0.00000000000E+00  0.00000000000E+00 -0.16896137469E+04  0.16896137469E+04  0.50400001928E-02 0. -1.
    10030    2    1    2    0    0  0.00000000000E+00  0.00000000000E+00  0.68270278808E+02  0.34474977727E+04  0.34468217334E+04 0.  0.
        5    1    3    3  502    0  0.60228121827E+03  0.13067685701E+03  0.16438928889E+04  0.17556266765E+04  0.46999998093E+01 0.  1.
       -5    1    3    3    0  502 -0.60228121827E+03 -0.13067685701E+03 -0.15756226101E+04  0.16918710963E+04  0.46999998093E+01 0. -1.
</event>
<event>
 5   0  0.1496000E-07  0.3700502E+04  0.7818609E-02  0.8067851E-01
       -1   -1    0    0    0  501  0.00000000000E+00  0.00000000000E+00  0.27875668284E+04  0.27875668285E+04  0.50400001928E-02 0.  1.
        1   -1    0    0  501    0  0.00000000000E+00  0.00000000000E+00 -0.12281061356E+04  0.12281061356E+04  0.50400001928E-02 0. -1.
    10030    2    1    2    0    0  0.00000000000E+00  0.00000000000E+00  0.15594606928E+04  0.40156729641E+04  0.37005015473E+04 0.  0.
        2    1    3    3  502    0  0.16659765220E+04  0.38096961326E+02 -0.92802128086E+02  0.16689941238E+04  0.25500000920E-02 0. -1.
       -2    1    3    3    0  502 -0.16659765220E+04 -0.38096961326E+02  0.16522628209E+04  0.23466788403E+04  0.25500000920E-02 0.  1.
</event>
<event>
 5   0  0.1496000E-07  0.3897247E+04  0.7818609E-02  0.8025602E-01
        1   -1    0    0  501    0  0.00000000000E+00  0.00000000000E+00  0.23204827494E+04  0.23204827494E+04  0.50400001928E-02 0. -1.
       -1   -1    0    0    0  501  0.00000000000E+00  0.00000000000E+00 -0.16363549007E+04  0.16363549007E+04  0.50400001928E-02 0.  1.
    10030    2    1    2    0    0  0.00000000000E+00  0.00000000000E+00  0.68412784871E+03  0.39568376501E+04  0.38972468842E+04 0.  0.
        2    1    3    3  502    0 -0.37392298035E+03  0.35170479098E+03 -0.15664711822E+04  0.16484376300E+04  0.25500000920E-02 0.  1.
       -2    1    3    3    0  502  0.37392298035E+03 -0.35170479098E+03  0.22505990309E+04  0.23084000202E+04  0.25500000920E-02 0. -1.
</event>
<event>
 5   0  0.1496000E-07  0.3699929E+04  0.7818609E-02  0.8067978E-01
       -1   -1    0    0    0  501  0.00000000000E+00  0.00000000000E+00  0.10712939863E+04  0.10712939863E+04  0.50400001928E-02 0. -1.
        1   -1    0    0  501    0  0.00000000000E+00  0.00000000000E+00 -0.31946112436E+04  0.31946112436E+04  0.50400001928E-02 0.  1.
    10030    2    1    2    0    0  0.00000000000E+00  0.00000000000E+00 -0.21233172573E+04  0.42659052299E+04  0.36999285473E+04 0.  0.
        2    1    3    3  502    0  0.10355151244E+03  0.70211191080E+03 -0.30314098888E+04  0.31133791875E+04  0.25500000920E-02 0.  1.
       -2    1    3    3    0  502 -0.10355151244E+03 -0.70211191080E+03  0.90809263153E+03  0.11525260424E+04  0.25500000920E-02 0. -1.
</event>
<event>
 5   0  0.4857514E-07  0.3710858E+04  0.7818609E-02  0.8065560E-01
        2   -1    0    0  501    0  0.00000000000E+00  0.00000000000E+00  0.22045253053E+04  0.22045253053E+04  0.25500000920E-02 0. -1.
       -2   -1    0    0    0  501  0.00000000000E+00  0.00000000000E+00 -0.15616136833E+04  0.15616136833E+04  0.25500000920E-02 0.  1.
    10030    2    1    2    0    0  0.00000000000E+00  0.00000000000E+00  0.64291162193E+03  0.37661389886E+04  0.37108580582E+04 0.  0.
        5    1    3    3  502    0 -0.16178959795E+04 -0.86030093953E+03  0.25757079524E+02  0.18325912322E+04  0.46999998093E+01 0.  1.
       -5    1    3    3    0  502  0.16178959795E+04  0.86030093953E+03  0.61715454241E+03  0.19335477564E+04  0.46999998093E+01 0. -1.
</event>
<event>
 5   0  0.1496287E-07  0.3715273E+04  0.7818609E-02  0.8064586E-01
       -1   -1    0    0    0  501  0.00000000000E+00  0.00000000000E+00  0.28006330539E+04  0.28006330539E+04  0.50400001928E-02 0.  1.
        1   -1    0    0  501    0  0.00000000000E+00  0.00000000000E+00 -0.12321546978E+04  0.12321546978E+04  0.50400001928E-02 0. -1.
    10030    2    1    2    0    0  0.00000000000E+00  0.00000000000E+00  0.15684783561E+04  0.40327877516E+04  0.37152728966E+04 0.  0.
        1    1    3    3  502    0 -0.39061959652E+03  0.12821393977E+04  0.21803763510E+04  0.25593956584E+04  0.50400001928E-02 0.  1.
       -1    1    3    3    0  502  0.39061959652E+03 -0.12821393977E+04 -0.61189799489E+03  0.14733920932E+04  0.50400001928E-02 0. -1.
</event>
<event>
 5   0  0.4857514E-07  0.3808113E+04  0.7818609E-02  0.8044416E-01
        2   -1    0    0  501    0  0.00000000000E+00  0.00000000000E+00  0.33006224476E+04  0.33006224476E+04  0.25500000920E-02 0.  1.
       -2   -1    0    0    0  501  0.00000000000E+00  0.00000000000E+00 -0.10984085627E+04  0.10984085627E+04  0.25500000920E-02 0. -1.
    10030    2    1    2    0    0  0.00000000000E+00  0.00000000000E+00  0.22022138848E+04  0.43990310103E+04  0.38081134221E+04 0.  0.
        5    1    3    3  502    0 -0.89524753999E+03  0.98983451481E+03 -0.46762069403E+03  0.14141894244E+04  0.46999998093E+01 0. -1.
       -5    1    3    3    0  502  0.89524753999E+03 -0.98983451481E+03  0.26698345789E+04  0.29848415859E+04  0.46999998093E+01 0.  1.
</event>
<event>
 5   0  0.1522273E-07  0.3680234E+04  0.7818609E-02  0.8072356E-01
       -1   -1    0    0    0  501  0.00000000000E+00  0.00000000000E+00  0.26072858412E+04  0.26072858412E+04  0.50400001928E-02 0.  1.
        1   -1    0    0  501    0  0.00000000000E+00  0.00000000000E+00 -0.12986801790E+04  0.12986801790E+04  0.50400001928E-02 0. -1.
    10030    2    1    2    0    0  0.00000000000E+00  0.00000000000E+00  0.13086056622E+04  0.39059660202E+04  0.36802339290E+04 0.  0.
        4    1    3    3  502    0  0.22746284981E+03 -0.62339925675E+03 -0.11672616723E+04  0.13427089804E+04  0.12699999809E+01 0. -1.
       -4    1    3    3    0  502 -0.22746284981E+03  0.62339925675E+03  0.24758673345E+04  0.25632570398E+04  0.12699999809E+01 0.  1.
</event>
<event>
 5   0  0.4687817E-07  0.3688633E+04  0.7818609E-02  0.8070486E-01
        2   -1    0    0  501    0  0.00000000000E+00  0.00000000000E+00  0.18803647365E+04  0.18803647366E+04  0.25500000920E-02 0. -1.
       -2   -1    0    0    0  501  0.00000000000E+00  0.00000000000E+00 -0.18089591447E+04  0.18089591447E+04  0.25500000920E-02 0.  1.
    10030    2    1    2    0    0  0.00000000000E+00  0.00000000000E+00  0.71405591855E+02  0.36893238812E+04  0.36886328012E+04 0.  0.
        4    1    3    3  502    0 -0.99155074976E+03  0.15365476719E+04 -0.20382011913E+03  0.18400260572E+04  0.12699999809E+01 0.  1.
       -4    1    3    3    0  502  0.99155074976E+03 -0.15365476719E+04  0.27522571098E+03  0.18492978241E+04  0.12699999809E+01 0. -1.
</event>
<event>
 5   0  0.4824268E-07  0.3717492E+04  0.7818609E-02  0.8064097E-01
       -2   -1    0    0    0  501  0.00000000000E+00  0.00000000000E+00  0.13669792211E+04  0.13669792211E+04  0.25500000920E-02 0. -1.
        2   -1    0    0  501    0  0.00000000000E+00  0.00000000000E+00 -0.25274238266E+04  0.25274238266E+04  0.25500000920E-02 0.  1.
    10030    2    1    2    0    0  0.00000000000E+00  0.00000000000E+00 -0.11604446054E+04  0.38944030477E+04  0.37174915488E+04 0.  0.
        1    1    3    3  502    0  0.43435656250E+03 -0.15002589011E+04  0.47545083778E+03  0.16326346478E+04  0.50400001928E-02 0. -1.
       -1    1    3    3    0  502 -0.43435656250E+03  0.15002589011E+04 -0.16358954432E+04  0.22617683999E+04  0.50400001928E-02 0.  1.
</event>
<event>
 5   0  0.1496000E-07  0.3718159E+04  0.7818609E-02  0.8063949E-01
        1   -1    0    0  501    0  0.00000000000E+00  0.00000000000E+00  0.18827526027E+04  0.18827526027E+04  0.50400001928E-02 0. -1.
       -1   -1    0    0    0  501  0.00000000000E+00  0.00000000000E+00 -0.18357041918E+04  0.18357041918E+04  0.50400001928E-02 0.  1.
    10030    2    1    2    0    0  0.00000000000E+00  0.00000000000E+00  0.47048410921E+02  0.37184567945E+04  0.37181591386E+04 0.  0.
        3    1    3    3  502    0  0.22717203080E+03  0.10321290849E+04  0.15531168998E+04  0.18785818306E+04  0.10100000352E+00 0. -1.
       -3    1    3    3    0  502 -0.22717203080E+03 -0.10321290849E+04 -0.15060684889E+04  0.18398749639E+04  0.10100000352E+00 0.  1.
</event>
<event>
 5   0  0.4793557E-07  0.3524702E+04  0.7818609E-02  0.8107961E-01
       -2   -1    0    0    0  501  0.00000000000E+00  0.00000000000E+00  0.11837723044E+04  0.11837723044E+04  0.25500000920E-02 0.  1.
        2   -1    0    0  501    0  0.00000000000E+00  0.00000000000E+00 -0.26237155751E+04  0.26237155751E+04  0.25500000920E-02 0. -1.
    10030    2    1    2    0    0  0.00000000000E+00  0.00000000000E+00 -0.14399432707E+04  0.38074878796E+04  0.35247024456E+04 0.  0.
        3    1    3    3  502    0 -0.95918924314E+03 -0.10697402223E+04 -0.18223847931E+04  0.23206625113E+04  0.10100000352E+00 0. -1.
       -3    1    3    3    0  502  0.95918924314E+03  0.10697402223E+04  0.38244152236E+03  0.14868253682E+04  0.10100000352E+00 0.  1.
</event>
<event>
 5   0  0.1496287E-07  0.3465997E+04  0.7818609E-02  0.8121896E-01
       -1   -1    0    0    0  501  0.00000000000E+00  0.00000000000E+00  0.10555841414E+04  0.10555841414E+04  0.50400001928E-02 0. -1.
        1   -1    0    0  501    0  0.00000000000E+00  0.00000000000E+00 -0.28451383969E+04  0.28451383969E+04  0.50400001928E-02 0.  1.
    10030    2    1    2    0    0  0.00000000000E+00  0.00000000000E+00 -0.17895542555E+04  0.39007225383E+04  0.34659965216E+04 0.  0.
        1    1    3    3  502    0 -0.14255925972E+04 -0.39818057035E+03 -0.19091730501E+04  0.24157408294E+04  0.50400001928E-02 0.  1.
       -1    1    3    3    0  502  0.14255925972E+04  0.39818057035E+03  0.11961879453E+03  0.14849817089E+04  0.50400001928E-02 0. -1.
</event>
<event>
 5   0  0.4758908E-07  0.3673554E+04  0.7818609E-02  0.8073848E-01
        2   -1    0    0  501    0  0.00000000000E+00  0.00000000000E+00  0.12428641042E+04  0.12428641042E+04  0.25500000920E-02 0. -1.
       -2   -1    0    0    0  501  0.00000000000E+00  0.00000000000E+00 -0.27144957186E+04  0.27144957186E+04  0.25500000920E-02 0.  1.
    10030    2    1    2    0    0  0.00000000000E+00  0.00000000000E+00 -0.14716316144E+04  0.39573598228E+04  0.36735537506E+04 0.  0.
        2    1    3    3  502    0  0.10644726478E+04  0.13381480875E+04 -0.14584670612E+04  0.22474137337E+04  0.25500000920E-02 0.  1.
       -2    1    3    3    0  502 -0.10644726478E+04 -0.13381480875E+04 -0.13164553221E+02  0.17099460891E+04  0.25500000920E-02 0. -1.
</event>
<event>
 5   0  0.1522273E-07  0.3696601E+04  0.7818609E-02  0.8068716E-01
       -1   -1    0    0    0  501  0.00000000000E+00  0.00000000000E+00  0.15961286408E+04  0.15961286408E+04  0.50400001928E-02 0.  1.
        1   -1    0    0  501    0  0.00000000000E+00  0.00000000000E+00 -0.21403126062E+04  0.21403126062E+04  0.50400001928E-02 0. -1.
    10030    2    1    2    0    0  0.00000000000E+00  0.00000000000E+00 -0.54418396545E+03  0.37364412470E+04  0.36966007363E+04 0.  0.
        4    1    3    3  502    0 -0.10941695977E+04  0.11566629608E+04  0.67671345425E+03  0.17300344000E+04  0.12699999809E+01 0.  1.
       -4    1    3    3    0  502  0.10941695977E+04 -0.11566629608E+04 -0.12208974197E+04  0.20064068470E+04  0.12699999809E+01 0. -1.
</event>
<event>
 5   0  0.1496287E-07  0.3542017E+04  0.7818609E-02  0.8103904E-01
        1   -1    0    0  501    0  0.00000000000E+00  0.00000000000E+00  0.13972564657E+04  0.13972564657E+04  0.50400001928E-02 0. -1.
       -1   -1    0    0    0  501  0.00000000000E+00  0.00000000000E+00 -0.22447355378E+04  0.22447355378E+04  0.50400001928E-02 0.  1.
    10030    2    1    2    0    0  0.00000000000E+00  0.00000000000E+00 -0.84747907210E+03  0.36419920036E+04  0.35420170774E+04 0.  0.
        1    1    3    3  502    0  0.12214767025E+04 -0.39784921140E+03  0.82976042028E+03  0.15293108529E+04  0.50400001928E-02 0. -1.
       -1    1    3    3    0  502 -0.12214767025E+04  0.39784921140E+03 -0.16772394924E+04  0.21126811507E+04  0.50400001928E-02 0.  1.
</event>
<event>
 5   0  0.1496000E-07  0.3723894E+04  0.7818609E-02  0.8062687E-01
        1   -1    0    0  501    0  0.00000000000E+00  0.00000000000E+00  0.11465402194E+04  0.11465402194E+04  0.50400001928E-02 0.  1.
       -1   -1    0    0    0  501  0.00000000000E+00  0.00000000000E+00 -0.30237459059E+04  0.30237459059E+04  0.50400001928E-02 0. -1.
    10030    2    1    2    0    0  0.00000000000E+00  0.00000000000E+00 -0.18772056865E+04  0.41702861253E+04  0.37238938194E+04 0.  0.
        2    1    3    3  502    0 -0.15861784160E+04 -0.93571350765E+03 -0.63125026411E+03  0.19467918820E+04  0.25500000920E-02 0. -1.
       -2    1    3    3    0  502  0.15861784160E+04  0.93571350765E+03 -0.12459554224E+04  0.22234942434E+04  0.25500000920E-02 0.  1.
</event>
<event>
 5   0  0.4758908E-07  0.3694684E+04  0.7818609E-02  0.8069141E-01
       -2   -1    0    0    0  501  0.00000000000E+00  0.00000000000E+00  0.24556863068E+04  0.24556863068E+04  0.25500000920E-02 0. -1.
        2   -1    0    0  501    0  0.00000000000E+00  0.00000000000E+00 -0.13897018913E+04  0.13897018914E+04  0.25500000920E-02 0.  1.
    10030    2    1    2    0    0  0.00000000000E+00  0.00000000000E+00  0.10659844154E+04  0.38453881981E+04  0.36946836969E+04 0.  0.
        2    1    3    3  502    0  0.96846085237E+03 -0.13899248431E+04 -0.23385459518E+03  0.17101156288E+04  0.25500000920E-02 0.  1.
       -2    1    3    3    0  502 -0.96846085237E+03  0.13899248431E+04  0.12998390106E+04  0.21352725694E+04  0.25500000920E-02 0. -1.
</event>
<event>
 5   0  0.4824268E-07  0.3764743E+04  0.7818609E-02  0.8053764E-01
        2   -1    0    0  501    0  0.00000000000E+00  0.00000000000E+00  0.19449503480E+04  0.19449503480E+04  0.25500000920E-02 0. -1.
       -2   -1    0    0    0  501  0.00000000000E+00  0.00000000000E+00 -0.18218058917E+04  0.18218058917E+04  0.25500000920E-02 0.  1.
    10030    2    1    2    0    0  0.00000000000E+00  0.00000000000E+00  0.12314445635E+03  0.37667562397E+04  0.37647427551E+04 0.  0.
        1    1    3    3  502    0 -0.66469084700E+03 -0.11820879725E+04  0.13677113751E+04  0.19260789969E+04  0.50400001928E-02 0. -1.
       -1    1    3    3    0  502  0.66469084700E+03  0.11820879725E+04 -0.12445669187E+04  0.18406772428E+04  0.50400001928E-02 0.  1.
</event>
<event>
 5   0  0.1496000E-07  0.3707159E+04  0.7818609E-02  0.8066377E-01
       -1   -1    0    0    0  501  0.00000000000E+00  0.00000000000E+00  0.13230485600E+04  0.13230485600E+04  0.50400001928E-02 0.  1.
        1   -1    0    0  501    0  0.00000000000E+00  0.00000000000E+00 -0.25968487191E+04  0.25968487191E+04  0.50400001928E-02 0. -1.
    10030    2    1    2    0    0  0.00000000000E+00  0.00000000000E+00 -0.12738001592E+04  0.39198972791E+04  0.37071589976E+04 0.  0.
        2    1    3    3  502    0  0.61124689197E+03  0.46177724705E+03 -0.24216269768E+04  0.25399090936E+04  0.25500000920E-02 0. -1.
       -2    1    3    3    0  502 -0.61124689197E+03 -0.46177724705E+03  0.11478268177E+04  0.13799881855E+04  0.25500000920E-02 0.  1.
</event>
<event>
 5   0  0.4824268E-07  0.3781790E+04  0.7818609E-02  0.8050074E-01
       -2   -1    0    0    0  501  0.00000000000E+00  0.00000000000E+00  0.19309126823E+04  0.19309126823E+04  0.25500000920E-02 0.  1.
        2   -1    0    0  501    0  0.00000000000E+00  0.00000000000E+00 -0.18517064780E+04  0.18517064780E+04  0.25500000920E-02 0. -1.
    10030    2    1    2    0    0  0.00000000000E+00  0.00000000000E+00  0.79206204263E+02  0.37826191603E+04  0.37817897997E+04 0.  0.
        1    1    3    3  502    0 -0.46386960428E+03  0.17905589833E+04 -0.35317505858E+03  0.18830849966E+04  0.50400001928E-02 0. -1.
       -1    1    3    3    0  502  0.46386960428E+03 -0.17905589833E+04  0.43238126284E+03  0.18995341637E+04  0.50400001928E-02 0.  1.
</event>
<event>
 5   0  0.1496287E-07  0.3407439E+04  0.7818609E-02  0.8136083E-01
       -1   -1    0    0    0  501  0.00000000000E+00  0.00000000000E+00  0.11081201954E+04  0.11081201954E+04  0.50400001928E-02 0.  1.
        1   -1    0    0  501    0  0.00000000000E+00  0.00000000000E+00 -0.26194446831E+04  0.26194446831E+04  0.50400001928E-02 0. -1.
    10030    2    1    2    0    0  0.00000000000E+00  0.00000000000E+00 -0.15113244877E+04  0.37275648785E+04  0.34074386592E+04 0.  0.
        1    1    3    3  502    0  0.85071899233E+03  0.40566450341E+02  0.85853058911E+03  0.12093151836E+04  0.50400001928E-02 0.  1.
       -1    1    3    3    0  502 -0.85071899233E+03 -0.40566450341E+02 -0.23698550768E+04  0.25182496949E+04  0.50400001928E-02 0. -1.
</event>
<event>
 5   0  0.4857514E-07  0.3695979E+04  0.7818609E-02  0.8068854E-01
       -2   -1    0    0    0  501  0.00000000000E+00  0.00000000000E+00  0.19028447405E+04  0.19028447405E+04  0.25500000920E-02 0.  1.
        2   -1    0    0  501    0  0.00000000000E+00  0.00000000000E+00 -0.17947154410E+04  0.17947154410E+04  0.25500000920E-02 0. -1.
    10030    2    1    2    0    0  0.00000000000E+00  0.00000000000E+00  0.10812929946E+03  0.36975601815E+04  0.36959788081E+04 0.  0.
        5    1    3    3  502    0  0.94231753279E+03  0.14675336829E+04  0.66541146018E+03  0.18666579613E+04  0.46999998093E+01 0.  1.
       -5    1    3    3    0  502 -0.94231753279E+03 -0.14675336829E+04 -0.55728216072E+03  0.18309022202E+04  0.46999998093E+01 0. -1.
</event>
<event>
 5   0  0.4687817E-07  0.3855272E+04  0.7818609E-02  0.8034397E-01
        2   -1    0    0  501    0  0.00000000000E+00  0.00000000000E+00  0.16546395878E+04  0.16546395878E+04  0.25500000920E-02 0.  1.
       -2   -1    0    0    0  501  0.00000000000E+00  0.00000000000E+00 -0.22456742295E+04  0.22456742295E+04  0.25500000920E-02 0. -1.
    10030    2    1    2    0    0  0.00000000000E+00  0.00000000000E+00 -0.59103464167E+03  0.39003138173E+04  0.38552724840E+04 0.  0.
        4    1    3    3  502    0  0.11605816877E+04  0.14474483743E+04  0.23378072664E+03  0.18699496493E+04  0.12699999809E+01 0. -1.
       -4    1    3    3    0  502 -0.11605816877E+04 -0.14474483743E+04 -0.82481536831E+03  0.20303641680E+04  0.12699999809E+01 0.  1.
</event>
<event>
 5   0  0.4687817E-07  0.3701818E+04  0.7818609E-02  0.8067559E-01
       -2   -1    0    0    0  501  0.00000000000E+00  0.00000000000E+00  0.13810134918E+04  0.13810134918E+04  0.25500000920E-02 0. -1.
        2   -1    0    0  501    0  0.00000000000E+00  0.00000000000E+00 -0.24806889372E+04  0.24806889372E+04  0.25500000920E-02 0.  1.
    10030    2    1    2    0    0  0.00000000000E+00  0.00000000000E+00 -0.10996754454E+04  0.38617024289E+04  0.37018184132E+04 0.  0.
        4    1    3    3  502    0 -0.17833203482E+04  0.38688555777E+03 -0.87297666914E+03  0.20228696885E+04  0.12699999809E+01 0. -1.
       -4    1    3    3    0  502  0.17833203482E+04 -0.38688555777E+03 -0.22669877626E+03  0.18388327404E+04  0.12699999809E+01 0.  1.
</event>
<event>
 5   0  0.1496000E-07  0.3717040E+04  0.7818609E-02  0.8064196E-01
        1   -1    0    0  501    0  0.00000000000E+00  0.00000000000E+00  0.20799188895E+04  0.20799188895E+04  0.50400001928E-02 0. -1.
       -1   -1    0    0    0  501  0.00000000000E+00  0.00000000000E+00 -0.16606878602E+04  0.16606878602E+04  0.50400001928E-02 0.  1.
    10030    2    1    2    0    0  0.00000000000E+00  0.00000000000E+00  0.41923102932E+03  0.37406067497E+04  0.37170397092E+04 0.  0.
        2    1    3    3  502    0 -0.15333217400E+04  0.69859243873E+03 -0.57956900975E+03  0.17818549860E+04  0.25500000920E-02 0.  1.
       -2    1    3    3    0  502  0.15333217400E+04 -0.69859243873E+03  0.99880003907E+03  0.19587517637E+04  0.25500000920E-02 0. -1.
</event>
<event>
 5   0  0.1496000E-07  0.3496768E+04  0.7818609E-02  0.8114556E-01
        1   -1    0    0  501    0  0.00000000000E+00  0.00000000000E+00  0.17696420572E+04  0.17696420572E+04  0.50400001928E-02 0. -1.
       -1   -1    0    0    0  501  0.00000000000E+00  0.00000000000E+00 -0.17273815201E+04  0.17273815202E+04  0.50400001928E-02 0.  1.
    10030    2    1    2    0    0  0.00000000000E+00  0.00000000000E+00  0.42260537016E+02  0.34970235773E+04  0.34967682147E+04 0.  0.
        3    1    3    3  502    0 -0.96707783369E+03  0.97604470394E+03 -0.10601259056E+04  0.17354451148E+04  0.10100000352E+00 0.  1.
       -3    1    3    3    0  502  0.96707783369E+03 -0.97604470394E+03  0.11023864426E+04  0.17615784625E+04  0.10100000352E+00 0. -1.
</event>
<event>
 5   0  0.1496000E-07  0.3672592E+04  0.7818609E-02  0.8074063E-01
       -1   -1    0    0    0  501  0.00000000000E+00  0.00000000000E+00  0.16276950000E+04  0.16276950001E+04  0.50400001928E-02 0.  1.
        1   -1    0    0  501    0  0.00000000000E+00  0.00000000000E+00 -0.20716312034E+04  0.20716312034E+04  0.50400001928E-02 0. -1.
    10030    2    1    2    0    0  0.00000000000E+00  0.00000000000E+00 -0.44393620334E+03  0.36993262034E+04  0.36725924096E+04 0.  0.
        5    1    3    3  502    0  0.81569810038E+03 -0.16100048482E+04 -0.56278392606E+03  0.18905625723E+04  0.46999998093E+01 0. -1.
       -5    1    3    3    0  502 -0.81569810038E+03  0.16100048482E+04  0.11884772272E+03  0.18087636312E+04  0.46999998093E+01 0.  1.
</event>
<event>
 5   0  0.4687817E-07  0.3701219E+04  0.7818609E-02  0.8067692E-01
        2   -1    0    0  501    0  0.00000000000E+00  0.00000000000E+00  0.25651112902E+04  0.25651112902E+04  0.25500000920E-02 0.  1.
       -2   -1    0    0    0  501  0.00000000000E+00  0.00000000000E+00 -0.13351292383E+04  0.13351292383E+04  0.25500000920E-02 0. -1.
    10030    2    1    2    0    0  0.00000000000E+00  0.00000000000E+00  0.12299820519E+04  0.39002405285E+04  0.37012187631E+04 0.  0.
        4    1    3    3  502    0 -0.51702616041E+03  0.91399317559E+03  0.22207589686E+04  0.24565161479E+04  0.12699999809E+01 0.  1.
       -4    1    3    3    0  502  0.51702616041E+03 -0.91399317559E+03 -0.99077691664E+03  0.14437243806E+04  0.12699999809E+01 0. -1.
</event>
<event>
 5   0  0.4857514E-07  0.3693827E+04  0.7818609E-02  0.8069331E-01
        2   -1    0    0  501    0  0.00000000000E+00  0.00000000000E+00  0.13059513798E+04  0.13059513798E+04  0.25500000920E-02 0. -1.
       -2   -1    0    0    0  501  0.00000000000E+00  0.00000000000E+00 -0.26119572947E+04  0.26119572947E+04  0.25500000920E-02 0.  1.
    10030    2    1    2    0    0  0.00000000000E+00  0.00000000000E+00 -0.13060059149E+04  0.39179086745E+04  0.36938268682E+04 0.  0.
        5    1    3    3  502    0  0.13140019173E+04 -0.48185127182E+03 -0.19312175362E+04  0.23850377249E+04  0.46999998093E+01 0.  1.
       -5    1    3    3    0  502 -0.13140019173E+04  0.48185127182E+03  0.62521162134E+03  0.15328709496E+04  0.46999998093E+01 0. -1.
</event>
<event>
 5   0  0.4824268E-07  0.3707766E+04  0.7818609E-02  0.8066243E-01
       -2   -1    0    0    0  501  0.00000000000E+00  0.00000000000E+00  0.14819306277E+04  0.14819306277E+04  0.25500000920E-02 0.  1.
        2   -1    0    0  501    0  0.00000000000E+00  0.00000000000E+00 -0.23191920776E+04  0.23191920776E+04  0.25500000920E-02 0. -1.
    10030    2    1    2    0    0  0.00000000000E+00  0.00000000000E+00 -0.83726144982E+03  0.38011227053E+04  0.37077657808E+04 0.  0.
        1    1    3    3  502    0 -0.40492225619E+00  0.11897859478E+04 -0.18761490346E+04  0.22216043675E+04  0.50400001928E-02 0. -1.
       -1    1    3    3    0  502  0.40492225619E+00 -0.11897859478E+04  0.10388875848E+04  0.15795183378E+04  0.50400001928E-02 0.  1.
</event>
<event>
 5   0  0.4824268E-07  0.3681958E+04  0.7818609E-02  0.8071972E-01
        2   -1    0    0  501    0  0.00000000000E+00  0.00000000000E+00  0.21191816317E+04  0.21191816317E+04  0.25500000920E-02 0. -1.
       -2   -1    0    0    0  501  0.00000000000E+00  0.00000000000E+00 -0.15992986967E+04  0.15992986967E+04  0.25500000920E-02 0.  1.
    10030    2    1    2    0    0  0.00000000000E+00  0.00000000000E+00  0.51988293495E+03  0.37184803284E+04  0.36819584037E+04 0.  0.
        1    1    3    3  502    0 -0.12584214676E+04  0.19560930581E+03 -0.10826497973E+04  0.16715316851E+04  0.50400001928E-02 0.  1.
       -1    1    3    3    0  502  0.12584214676E+04 -0.19560930581E+03  0.16025327322E+04  0.20469486434E+04  0.50400001928E-02 0. -1.
</event>
<event>
 5   0  0.1496000E-07  0.3632106E+04  0.7818609E-02  0.8083177E-01
        3   -1    0    0  501    0  0.00000000000E+00  0.00000000000E+00  0.17979161385E+04  0.17979161413E+04  0.10100000352E+00 0. -1.
       -3   -1    0    0    0  501  0.00000000000E+00  0.00000000000E+00 -0.18343723654E+04  0.18343723682E+04  0.10100000352E+00 0.  1.
    10030    2    1    2    0    0  0.00000000000E+00  0.00000000000E+00 -0.36456226887E+02  0.36322885095E+04  0.36321055546E+04 0.  0.
        5    1    3    3  502    0 -0.13083422973E+04  0.16218237505E+03  0.12308195517E+04  0.18036079254E+04  0.46999998093E+01 0. -1.
       -5    1    3    3    0  502  0.13083422973E+04 -0.16218237505E+03 -0.12672757786E+04  0.18286805841E+04  0.46999998093E+01 0.  1.
</event>
<event>
 5   0  0.1496000E-07  0.3369249E+04  0.7818609E-02  0.8145495E-01
       -3   -1    0    0    0  501  0.00000000000E+00  0.00000000000E+00  0.15577754399E+04  0.15577754431E+04  0.10100000352E+00 0. -1.
        3   -1    0    0  501    0  0.00000000000E+00  0.00000000000E+00 -0.18218028345E+04  0.18218028373E+04  0.10100000352E+00 0.  1.
    10030    2    1    2    0    0  0.00000000000E+00  0.00000000000E+00 -0.26402739467E+03  0.33795782805E+04  0.33692490096E+04 0.  0.
        5    1    3    3  502    0  0.15428549083E+04 -0.17581599559E+03 -0.78718158445E+03  0.17409737130E+04  0.46999998093E+01 0.  1.
       -5    1    3    3    0  502 -0.15428549083E+04  0.17581599559E+03  0.52315418978E+03  0.16386045675E+04  0.46999998093E+01 0. -1.
</event>
<event>
 5   0  0.4687817E-07  0.3713932E+04  0.7818609E-02  0.8064881E-01
       -2   -1    0    0    0  501  0.00000000000E+00  0.00000000000E+00  0.20891677290E+04  0.20891677290E+04  0.25500000920E-02 0. -1.
        2   -1    0    0  501    0  0.00000000000E+00  0.00000000000E+00 -0.16505721381E+04  0.16505721381E+04  0.25500000920E-02 0.  1.
    10030    2    1    2    0    0  0.00000000000E+00  0.00000000000E+00  0.43859559092E+03  0.37397398670E+04  0.37139316338E+04 0.  0.
        4    1    3    3  502    0  0.37951254523E+03  0.70557129318E+03 -0.14675927449E+04  0.16720319074E+04  0.12699999809E+01 0.  1.
       -4    1    3    3    0  502 -0.37951254523E+03 -0.70557129318E+03  0.19061883358E+04  0.20677079596E+04  0.12699999809E+01 0. -1.
</event>
<event>
 5   0  0.1522273E-07  0.3589605E+04  0.7818609E-02  0.8092877E-01
        1   -1    0    0  501    0  0.00000000000E+00  0.00000000000E+00  0.25792905464E+04  0.25792905464E+04  0.50400001928E-02 0.  1.
       -1   -1    0    0    0  501  0.00000000000E+00  0.00000000000E+00 -0.12489153251E+04  0.12489153251E+04  0.50400001928E-02 0. -1.
    10030    2    1    2    0    0  0.00000000000E+00  0.00000000000E+00  0.13303752213E+04  0.38282058715E+04  0.35896047087E+04 0.  0.
        4    1    3    3  502    0  0.10466119825E+04 -0.16110442457E+03  0.22106357604E+04  0.24511759128E+04  0.12699999809E+01 0.  1.
       -4    1    3    3    0  502 -0.10466119825E+04  0.16110442457E+03 -0.88026053907E+03  0.13770299587E+04  0.12699999809E+01 0. -1.
</event>
<event>
 5   0  0.4687817E-07  0.3711688E+04  0.7818609E-02  0.8065377E-01
        2   -1    0    0  501    0  0.00000000000E+00  0.00000000000E+00  0.26347047473E+04  0.26347047473E+04  0.25500000920E-02 0. -1.
       -2   -1    0    0    0  501  0.00000000000E+00  0.00000000000E+00 -0.13072268456E+04  0.13072268456E+04  0.25500000920E-02 0.  1.
    10030    2    1    2    0    0  0.00000000000E+00  0.00000000000E+00  0.13274779017E+04  0.39419315929E+04  0.37116879049E+04 0.  0.
        4    1    3    3  502    0  0.75027611832E+03  0.16968430809E+04  0.61666722396E+03  0.19551140051E+04  0.12699999809E+01 0. -1.
       -4    1    3    3    0  502 -0.75027611832E+03 -0.16968430809E+04  0.71081067779E+03  0.19868175878E+04  0.12699999809E+01 0.  1.
</event>
<event>
 5   0  0.1496000E-07  0.3696446E+04  0.7818609E-02  0.8068750E-01
       -1   -1    0    0    0  501  0.00000000000E+00  0.00000000000E+00  0.17950120609E+04  0.17950120609E+04  0.50400001928E-02 0.  1.
        1   -1    0    0  501    0  0.00000000000E+00  0.00000000000E+00 -0.19030112556E+04  0.19030112556E+04  0.50400001928E-02 0. -1.
    10030    2    1    2    0    0  0.00000000000E+00  0.00000000000E+00 -0.10799919474E+03  0.36980233165E+04  0.36964459449E+04 0.  0.
        3    1    3    3  502    0 -0.49933082839E+03  0.19185978811E+03 -0.18238748436E+04  0.19007001104E+04  0.10100000352E+00 0. -1.
       -3    1    3    3    0  502  0.49933082839E+03 -0.19185978811E+03  0.17158756489E+04  0.17973232061E+04  0.10100000352E+00 0.  1.
</event>
<event>
 5   0  0.1522273E-07  0.3793028E+04  0.7818609E-02  0.8047653E-01
       -1   -1    0    0    0  501  0.00000000000E+00  0.00000000000E+00  0.22447495556E+04  0.22447495556E+04  0.50400001928E-02 0.  1.
        1   -1    0    0  501    0  0.00000000000E+00  0.00000000000E+00 -0.16023013443E+04  0.16023013443E+04  0.50400001928E-02 0. -1.
    10030    2    1    2    0    0  0.00000000000E+00  0.00000000000E+00  0.64244821129E+03  0.38470508998E+04  0.37930279358E+04 0.  0.
        4    1    3    3  502    0  0.58131651192E+03 -0.13186530760E+04  0.15716618791E+04  0.21323455388E+04  0.12699999809E+01 0.  1.
       -4    1    3    3    0  502 -0.58131651192E+03  0.13186530760E+04 -0.92921366781E+03  0.17147053610E+04  0.12699999809E+01 0. -1.
</event>
<event>
 5   0  0.1496000E-07  0.3693801E+04  0.7818609E-02  0.8069337E-01
       -1   -1    0    0    0  501  0.00000000000E+00  0.00000000000E+00  0.20052844782E+04  0.20052844782E+04  0.50400001928E-02 0. -1.
        1   -1    0    0  501    0  0.00000000000E+00  0.00000000000E+00 -0.17010261872E+04  0.17010261872E+04  0.50400001928E-02 0.  1.
    10030    2    1    2    0    0  0.00000000000E+00  0.00000000000E+00  0.30425829099E+03  0.37063106655E+04  0.36938009748E+04 0.  0.
        2    1    3    3  502    0  0.14479502671E+04  0.34571322185E+03 -0.94471697318E+03  0.17631130897E+04  0.25500000920E-02 0.  1.
       -2    1    3    3    0  502 -0.14479502671E+04 -0.34571322185E+03  0.12489752642E+04  0.19431975757E+04  0.25500000920E-02 0. -1.
</event>
<event>
 5   0  0.4824268E-07  0.3682418E+04  0.7818609E-02  0.8071869E-01
        2   -1    0    0  501    0  0.00000000000E+00  0.00000000000E+00  0.13374755138E+04  0.13374755138E+04  0.25500000920E-02 0. -1.
       -2   -1    0    0    0  501  0.00000000000E+00  0.00000000000E+00 -0.25346643192E+04  0.25346643192E+04  0.25500000920E-02 0.  1.
    10030    2    1    2    0    0  0.00000000000E+00  0.00000000000E+00 -0.11971888054E+04  0.38721398330E+04  0.36824184784E+04 0.  0.
        1    1    3    3  502    0  0.12549604081E+03 -0.83420953883E+03 -0.23194932271E+04  0.24681376869E+04  0.50400001928E-02 0.  1.
       -1    1    3    3    0  502 -0.12549604081E+03  0.83420953883E+03  0.11223044217E+04  0.14040021460E+04  0.50400001928E-02 0. -1.
</event>
<event>
 5   0  0.1496000E-07  0.3688725E+04  0.7818609E-02  0.8070465E-01
       -1   -1    0    0    0  501  0.00000000000E+00  0.00000000000E+00  0.32281372983E+04  0.32281372983E+04  0.50400001928E-02 0.  1.
        1   -1    0    0  501    0  0.00000000000E+00  0.00000000000E+00 -0.10537575013E+04  0.10537575013E+04  0.50400001928E-02 0. -1.
    10030    2    1    2    0    0  0.00000000000E+00  0.00000000000E+00  0.21743797971E+04  0.42818947996E+04  0.36887254673E+04 0.  0.
        3    1    3    3  502    0  0.79480055151E+02  0.13889083413E+04  0.24928154980E+04  0.28547351150E+04  0.10100000352E+00 0.  1.
       -3    1    3    3    0  502 -0.79480055151E+02 -0.13889083413E+04 -0.31843570089E+03  0.14271596846E+04  0.10100000352E+00 0. -1.
</event>
<event>
 5   0  0.4824268E-07  0.3705137E+04  0.7818609E-02  0.8066824E-01
       -2   -1    0    0    0  501  0.00000000000E+00  0.00000000000E+00  0.16991782726E+04  0.16991782726E+04  0.25500000920E-02 0. -1.
        2   -1    0    0  501    0  0.00000000000E+00  0.00000000000E+00 -0.20198054012E+04  0.20198054012E+04  0.25500000920E-02 0.  1.
    10030    2    1    2    0    0  0.00000000000E+00  0.00000000000E+00 -0.32062712862E+03  0.37189836738E+04  0.37051366790E+04 0.  0.
        1    1    3    3  502    0 -0.39421473690E+03 -0.23112404621E+03 -0.19623464559E+04  0.20148516562E+04  0.50400001928E-02 0.  1.
       -1    1    3    3    0  502  0.39421473690E+03  0.23112404621E+03  0.16417193273E+04  0.17041320175E+04  0.50400001928E-02 0. -1.
</event>
<event>
 5   0  0.4758908E-07  0.3692969E+04  0.7818609E-02  0.8069522E-01
       -2   -1    0    0    0  501  0.00000000000E+00  0.00000000000E+00  0.15926139701E+04  0.15926139701E+04  0.25500000920E-02 0.  1.
        2   -1    0    0  501    0  0.00000000000E+00  0.00000000000E+00 -0.21408230423E+04  0.21408230423E+04  0.25500000920E-02 0. -1.
    10030    2    1    2    0    0  0.00000000000E+00  0.00000000000E+00 -0.54820907225E+03  0.37334370124E+04  0.36929688245E+04 0.  0.
        2    1    3    3  502    0 -0.97802479512E+03  0.12691977089E+04 -0.12018256369E+04  0.20029428813E+04  0.25500000920E-02 0. -1.
       -2    1    3    3    0  502  0.97802479512E+03 -0.12691977089E+04  0.65361656469E+03  0.17304941311E+04  0.25500000920E-02 0.  1.
</event>
<event>
 5   0  0.4687817E-07  0.3697255E+04  0.7818609E-02  0.8068570E-01
       -2   -1    0    0    0  501  0.00000000000E+00  0.00000000000E+00  0.12159777331E+04  0.12159777331E+04  0.25500000920E-02 0.  1.
        2   -1    0    0  501    0  0.00000000000E+00  0.00000000000E+00 -0.28104333162E+04  0.28104333162E+04  0.25500000920E-02 0. -1.
    10030    2    1    2    0    0  0.00000000000E+00  0.00000000000E+00 -0.15944555832E+04  0.40264110493E+04  0.36972553781E+04 0.  0.
        4    1    3    3  502    0  0.65328632408E+03 -0.13314134914E+04 -0.19991001541E+04  0.24891460273E+04  0.12699999809E+01 0. -1.
       -4    1    3    3    0  502 -0.65328632408E+03  0.13314134914E+04  0.40464457091E+03  0.15372650220E+04  0.12699999809E+01 0.  1.
</event>
<event>
 5   0  0.1522273E-07  0.3626007E+04  0.7818609E-02  0.8084560E-01
        1   -1    0    0  501    0  0.00000000000E+00  0.00000000000E+00  0.19324987832E+04  0.19324987833E+04  0.50400001928E-02 0.  1.
       -1   -1    0    0    0  501  0.00000000000E+00  0.00000000000E+00 -0.17008974906E+04  0.17008974906E+04  0.50400001928E-02 0. -1.
    10030    2    1    2    0    0  0.00000000000E+00  0.00000000000E+00  0.23160129263E+03  0.36333962739E+04  0.36260073530E+04 0.  0.
        4    1    3    3  502    0  0.15132622288E+04 -0.74586649645E+03  0.78100680126E+03  0.18590999543E+04  0.12699999809E+01 0.  1.
       -4    1    3    3    0  502 -0.15132622288E+04  0.74586649645E+03 -0.54940550863E+03  0.17742963195E+04  0.12699999809E+01 0. -1.
</event>
<event>
 5   0  0.1496287E-07  0.3692823E+04  0.7818609E-02  0.8069554E-01
       -1   -1    0    0    0  501  0.00000000000E+00  0.00000000000E+00  0.21996804326E+04  0.21996804326E+04  0.50400001928E-02 0. -1.
        1   -1    0    0  501    0  0.00000000000E+00  0.00000000000E+00 -0.15498774109E+04  0.15498774109E+04  0.50400001928E-02 0.  1.
    10030    2    1    2    0    0  0.00000000000E+00  0.00000000000E+00  0.64980302173E+03  0.37495578435E+04  0.36928227760E+04 0.  0.
        1    1    3    3  502    0 -0.12062990872E+04 -0.35839739937E+02  0.17437946906E+04  0.21206748685E+04  0.50400001928E-02 0. -1.
       -1    1    3    3    0  502  0.12062990872E+04  0.35839739937E+02 -0.10939916689E+04  0.16288829750E+04  0.50400001928E-02 0.  1.
</event>
<event>
 5   0  0.4687817E-07  0.3701371E+04  0.7818609E-02  0.8067658E-01
        2   -1    0    0  501    0  0.00000000000E+00  0.00000000000E+00  0.20294627955E+04  0.20294627955E+04  0.25500000920E-02 0.  1.
       -2   -1    0    0    0  501  0.00000000000E+00  0.00000000000E+00 -0.16876569904E+04  0.16876569904E+04  0.25500000920E-02 0. -1.
    10030    2    1    2    0    0  0.00000000000E+00  0.00000000000E+00  0.34180580514E+03  0.37171197860E+04  0.37013711371E+04 0.  0.
        4    1    3    3  502    0  0.17048947271E+04  0.54600376823E+03  0.64220699007E+03  0.19018984138E+04  0.12699999809E+01 0. -1.
       -4    1    3    3    0  502 -0.17048947271E+04 -0.54600376823E+03 -0.30040118494E+03  0.18152213722E+04  0.12699999809E+01 0.  1.
</event>
<event>
 5   0  0.4857514E-07  0.3695528E+04  0.7818609E-02  0.8068954E-01
        2   -1    0    0  501    0  0.00000000000E+00  0.00000000000E+00  0.23218089507E+04  0.23218089507E+04  0.25500000920E-02 0.  1.
       -2   -1    0    0    0  501  0.00000000000E+00  0.00000000000E+00 -0.14705052203E+04  0.14705052203E+04  0.25500000920E-02 0. -1.
    10030    2    1    2    0    0  0.00000000000E+00  0.00000000000E+00  0.85130373039E+03  0.37923141710E+04  0.36955282072E+04 0.  0.
        5    1    3    3  502    0  0.14189785886E+04  0.99037936281E+03 -0.23928330013E+03  0.17468915550E+04  0.46999998093E+01 0. -1.
       -5    1    3    3    0  502 -0.14189785886E+04 -0.99037936281E+03  0.10905870305E+04  0.20454226161E+04  0.46999998093E+01 0.  1.
</event>
<event>
 5   0  0.1496000E-07  0.3601557E+04  0.7818609E-02  0.8090135E-01
       -1   -1    0    0    0  501  0.00000000000E+00  0.00000000000E+00  0.20475659219E+04  0.20475659220E+04  0.50400001928E-02 0.  1.
        1   -1    0    0  501    0  0.00000000000E+00  0.00000000000E+00 -0.15837359177E+04  0.15837359177E+04  0.50400001928E-02 0. -1.
    10030    2    1    2    0    0  0.00000000000E+00  0.00000000000E+00  0.46383000423E+03  0.36313018397E+04  0.36015572712E+04 0.  0.
        2    1    3    3  502    0 -0.84223566788E+03  0.91199811425E+03 -0.10833516422E+04  0.16476505277E+04  0.25500000920E-02 0. -1.
       -2    1    3    3    0  502  0.84223566788E+03 -0.91199811425E+03  0.15471816464E+04  0.19836513120E+04  0.25500000920E-02 0.  1.
</event>
<event>
 5   0  0.1496000E-07  0.3707333E+04  0.7818609E-02  0.8066339E-01
        1   -1    0    0  501    0  0.00000000000E+00  0.00000000000E+00  0.13433875364E+04  0.13433875364E+04  0.50400001928E-02 0.  1.
       -1   -1    0    0    0  501  0.00000000000E+00  0.00000000000E+00 -0.25577730004E+04  0.25577730004E+04  0.50400001928E-02 0. -1.
    10030    2    1    2    0    0  0.00000000000E+00  0.00000000000E+00 -0.12143854640E+04  0.39011605368E+04  0.37073334728E+04 0.  0.
        3    1    3    3  502    0 -0.75367264741E+03  0.11619649728E+04  0.68924922693E+03  0.15470131106E+04  0.10100000352E+00 0.  1.
       -3    1    3    3    0  502  0.75367264741E+03 -0.11619649728E+04 -0.19036346909E+04  0.23541474262E+04  0.10100000352E+00 0. -1.
</event>
<event>
 5   0  0.4758908E-07  0.3736777E+04  0.7818609E-02  0.8059860E-01
        2   -1    0    0  501    0  0.00000000000E+00  0.00000000000E+00  0.23639500205E+04  0.23639500205E+04  0.25500000920E-02 0.  1.
       -2   -1    0    0    0  501  0.00000000000E+00  0.00000000000E+00 -0.14767131486E+04  0.14767131486E+04  0.25500000920E-02 0. -1.
    10030    2    1    2    0    0  0.00000000000E+00  0.00000000000E+00  0.88723687184E+03  0.38406631691E+04  0.37367772628E+04 0.  0.
        2    1    3    3  502    0 -0.18405508033E+04 -0.32120296487E+03  0.43457182948E+03  0.19182417156E+04  0.25500000920E-02 0. -1.
       -2    1    3    3    0  502  0.18405508033E+04  0.32120296487E+03  0.45266504237E+03  0.19224214535E+04  0.25500000920E-02 0.  1.
</event>
<event>
 5   0  0.4687817E-07  0.3653982E+04  0.7818609E-02  0.8078237E-01
        2   -1    0    0  501    0  0.00000000000E+00  0.00000000000E+00  0.17976997043E+04  0.17976997044E+04  0.25500000920E-02 0.  1.
       -2   -1    0    0    0  501  0.00000000000E+00  0.00000000000E+00 -0.18567593892E+04  0.18567593892E+04  0.25500000920E-02 0. -1.
    10030    2    1    2    0    0  0.00000000000E+00  0.00000000000E+00 -0.59059684812E+02  0.36544590935E+04  0.36539818308E+04 0.  0.
        4    1    3    3  502    0 -0.15611648033E+04 -0.72720022281E+03 -0.63939509490E+03  0.18370855743E+04  0.12699999809E+01 0. -1.
       -4    1    3    3    0  502  0.15611648033E+04  0.72720022281E+03  0.58033541009E+03  0.18173735192E+04  0.12699999809E+01 0.  1.
</event>
<event>
 5   0  0.1496287E-07  0.3702534E+04  0.7818609E-02  0.8067401E-01
       -1   -1    0    0    0  501  0.00000000000E+00  0.00000000000E+00  0.12084361549E+04  0.12084361549E+04  0.50400001928E-02 0.  1.
        1   -1    0    0  501    0  0.00000000000E+00  0.00000000000E+00 -0.28360533354E+04  0.28360533354E+04  0.50400001928E-02 0. -1.
    10030    2    1    2    0    0  0.00000000000E+00  0.00000000000E+00 -0.16276171805E+04  0.40444894903E+04  0.37025339366E+04 0.  0.
        1    1    3    3  502    0 -0.90090247353E+03 -0.11410092173E+04  0.43819765858E+03  0.15184019523E+04  0.50400001928E-02 0.  1.
       -1    1    3    3    0  502  0.90090247353E+03  0.11410092173E+04 -0.20658148390E+04  0.25260875381E+04  0.50400001928E-02 0. -1.
</event>
<event>
 5   0  0.1496287E-07  0.3729728E+04  0.7818609E-02  0.8061406E-01
       -1   -1    0    0    0  501  0.00000000000E+00  0.00000000000E+00  0.17373315580E+04  0.17373315580E+04  0.50400001928E-02 0.  1.
        1   -1    0    0  501    0  0.00000000000E+00  0.00000000000E+00 -0.20017581496E+04  0.20017581496E+04  0.50400001928E-02 0. -1.
    10030    2    1    2    0    0  0.00000000000E+00  0.00000000000E+00 -0.26442659156E+03  0.37390897076E+04  0.37297279283E+04 0.  0.
        1    1    3    3  502    0 -0.61665142615E+03  0.14907362652E+04  0.80563686509E+03  0.18032205501E+04  0.50400001928E-02 0.  1.
       -1    1    3    3    0  502  0.61665142615E+03 -0.14907362652E+04 -0.10700634566E+04  0.19358691575E+04  0.50400001928E-02 0. -1.
</event>
<event>
 5   0  0.4793557E-07  0.3711813E+04  0.7818609E-02  0.8065349E-01
       -2   -1    0    0    0  501  0.00000000000E+00  0.00000000000E+00  0.20451334928E+04  0.20451334928E+04  0.25500000920E-02 0.  1.
        2   -1    0    0  501    0  0.00000000000E+00  0.00000000000E+00 -0.16841879784E+04  0.16841879784E+04  0.25500000920E-02 0. -1.
    10030    2    1    2    0    0  0.00000000000E+00  0.00000000000E+00  0.36094551440E+03  0.37293214712E+04  0.37118131649E+04 0.  0.
        3    1    3    3  502    0 -0.18325586997E+04 -0.28045293377E+03  0.93670817191E+02  0.18562595369E+04  0.10100000352E+00 0. -1.
       -3    1    3    3    0  502  0.18325586997E+04  0.28045293377E+03  0.26727469720E+03  0.18730619344E+04  0.10100000352E+00 0.  1.
</event>
<event>
 5   0  0.1496287E-07  0.3718360E+04  0.7818609E-02  0.8063905E-01
       -1   -1    0    0    0  501  0.00000000000E+00  0.00000000000E+00  0.17242316639E+04  0.17242316639E+04  0.50400001928E-02 0.  1.
        1   -1    0    0  501    0  0.00000000000E+00  0.00000000000E+00 -0.20046900465E+04  0.20046900465E+04  0.50400001928E-02 0. -1.
    10030    2    1    2    0    0  0.00000000000E+00  0.00000000000E+00 -0.28045838260E+03  0.37289217104E+04  0.37183598828E+04 0.  0.
        1    1    3    3  502    0 -0.43671450485E+03  0.25269164030E+03 -0.19347189236E+04  0.19994274024E+04  0.50400001928E-02 0. -1.
       -1    1    3    3    0  502  0.43671450485E+03 -0.25269164030E+03  0.16542605410E+04  0.17294943080E+04  0.50400001928E-02 0.  1.
</event>
<event>
 5   0  0.1496000E-07  0.3675198E+04  0.7818609E-02  0.8073481E-01
        1   -1    0    0  501    0  0.00000000000E+00  0.00000000000E+00  0.11484584495E+04  0.11484584495E+04  0.50400001928E-02 0.  1.
       -1   -1    0    0    0  501  0.00000000000E+00  0.00000000000E+00 -0.29402631276E+04  0.29402631276E+04  0.50400001928E-02 0. -1.
    10030    2    1    2    0    0  0.00000000000E+00  0.00000000000E+00 -0.17918046782E+04  0.40887215771E+04  0.36751979716E+04 0.  0.
        3    1    3    3  502    0  0.15576832245E+04  0.74998411305E+03 -0.15888111889E+04  0.23480149492E+04  0.10100000352E+00 0. -1.
       -3    1    3    3    0  502 -0.15576832245E+04 -0.74998411305E+03 -0.20299348931E+03  0.17407066279E+04  0.10100000352E+00 0.  1.
</event>
<event>
 5   0  0.1496287E-07  0.3758123E+04  0.7818609E-02  0.8055202E-01
        1   -1    0    0  501    0  0.00000000000E+00  0.00000000000E+00  0.15004381053E+04  0.15004381054E+04  0.50400001928E-02 0. -1.
       -1   -1    0    0    0  501  0.00000000000E+00  0.00000000000E+00 -0.23532271222E+04  0.23532271223E+04  0.50400001928E-02 0.  1.
    10030    2    1    2    0    0  0.00000000000E+00  0.00000000000E+00 -0.85278901690E+03  0.38536652276E+04  0.37581227467E+04 0.  0.
        1    1    3    3  502    0 -0.13609288072E+04  0.55531031619E+03 -0.16267854733E+04  0.21924706935E+04  0.50400001928E-02 0.  1.
       -1    1    3    3    0  502  0.13609288072E+04 -0.55531031619E+03  0.77399645644E+03  0.16611945341E+04  0.50400001928E-02 0. -1.
</event>
<event>
 5   0  0.1496000E-07  0.3689492E+04  0.7818609E-02  0.8070295E-01
        1   -1    0    0  501    0  0.00000000000E+00  0.00000000000E+00  0.25781436584E+04  0.25781436584E+04  0.50400001928E-02 0. -1.
       -1   -1    0    0    0  501  0.00000000000E+00  0.00000000000E+00 -0.13199759347E+04  0.13199759347E+04  0.50400001928E-02 0.  1.
    10030    2    1    2    0    0  0.00000000000E+00  0.00000000000E+00  0.12581677237E+04  0.38981195932E+04  0.36894918812E+04 0.  0.
        3    1    3    3  502    0 -0.27339310699E+03  0.17257709369E+04  0.39703483810E+01  0.17472964521E+04  0.10100000352E+00 0.  1.
       -3    1    3    3    0  502  0.27339310699E+03 -0.17257709369E+04  0.12541973753E+04  0.21508231410E+04  0.10100000352E+00 0. -1.
</event>
<event>
 5   0  0.4857514E-07  0.3676183E+04  0.7818609E-02  0.8073260E-01
        2   -1    0    0  501    0  0.00000000000E+00  0.00000000000E+00  0.17161189875E+04  0.17161189875E+04  0.25500000920E-02 0. -1.
       -2   -1    0    0    0  501  0.00000000000E+00  0.00000000000E+00 -0.19687336739E+04  0.19687336739E+04  0.25500000920E-02 0.  1.
    10030    2    1    2    0    0  0.00000000000E+00  0.00000000000E+00 -0.25261468636E+03  0.36848526614E+04  0.36761834769E+04 0.  0.
        5    1    3    3  502    0  0.14548433188E+03  0.76452025681E+03  0.15428229047E+04  0.17279992822E+04  0.46999998093E+01 0. -1.
       -5    1    3    3    0  502 -0.14548433188E+03 -0.76452025681E+03 -0.17954375911E+04  0.19568533791E+04  0.46999998093E+01 0.  1.
</event>
<event>
 5   0  0.1522273E-07  0.3683505E+04  0.7818609E-02  0.8071627E-01
        1   -1    0    0  501    0  0.00000000000E+00  0.00000000000E+00  0.22986608846E+04  0.22986608846E+04  0.50400001928E-02 0.  1.
       -1   -1    0    0    0  501  0.00000000000E+00  0.00000000000E+00 -0.14756644693E+04  0.14756644693E+04  0.50400001928E-02 0. -1.
    10030    2    1    2    0    0  0.00000000000E+00  0.00000000000E+00  0.82299641529E+03  0.37743253538E+04  0.36835049582E+04 0.  0.
        4    1    3    3  502    0  0.72302913491E+03  0.13867240363E+04 -0.58525344661E+03  0.16698197185E+04  0.12699999809E+01 0. -1.
       -4    1    3    3    0  502 -0.72302913491E+03 -0.13867240363E+04  0.14082498619E+04  0.21045056353E+04  0.12699999809E+01 0.  1.
</event>
<event>
 5   0  0.1496287E-07  0.3715878E+04  0.7818609E-02  0.8064452E-01
        1   -1    0    0  501    0  0.00000000000E+00  0.00000000000E+00  0.25369547275E+04  0.25369547275E+04  0.50400001928E-02 0.  1.
       -1   -1    0    0    0  501  0.00000000000E+00  0.00000000000E+00 -0.13606614362E+04  0.13606614362E+04  0.50400001928E-02 0. -1.
    10030    2    1    2    0    0  0.00000000000E+00  0.00000000000E+00  0.11762932913E+04  0.38976161637E+04  0.37158775346E+04 0.  0.
        1    1    3    3  502    0 -0.11842336746E+04  0.10762307314E+04 -0.40208896013E+03  0.16499568223E+04  0.50400001928E-02 0. -1.
       -1    1    3    3    0  502  0.11842336746E+04 -0.10762307314E+04  0.15783822514E+04  0.22476593414E+04  0.50400001928E-02 0.  1.
</event>
<event>
 5   0  0.1496000E-07  0.3691747E+04  0.7818609E-02  0.8069793E-01
       -1   -1    0    0    0  501  0.00000000000E+00  0.00000000000E+00  0.15734137301E+04  0.15734137301E+04  0.50400001928E-02 0. -1.
        1   -1    0    0  501    0  0.00000000000E+00  0.00000000000E+00 -0.21655139126E+04  0.21655139126E+04  0.50400001928E-02 0.  1.
    10030    2    1    2    0    0  0.00000000000E+00  0.00000000000E+00 -0.59210018250E+03  0.37389276427E+04  0.36917471867E+04 0.  0.
        3    1    3    3  502    0 -0.11425831403E+04 -0.95878605937E+03 -0.13973673513E+04  0.20438694833E+04  0.10100000352E+00 0.  1.
       -3    1    3    3    0  502  0.11425831403E+04  0.95878605937E+03  0.80526716879E+03  0.16950581593E+04  0.10100000352E+00 0. -1.
</event>
<event>
 5   0  0.4857514E-07  0.3752801E+04  0.7818609E-02  0.8056360E-01
        2   -1    0    0  501    0  0.00000000000E+00  0.00000000000E+00  0.29605339787E+04  0.29605339787E+04  0.25500000920E-02 0.  1.
       -2   -1    0    0    0  501  0.00000000000E+00  0.00000000000E+00 -0.11892717132E+04  0.11892717132E+04  0.25500000920E-02 0. -1.
    10030    2    1    2    0    0  0.00000000000E+00  0.00000000000E+00  0.17712622655E+04  0.41498056919E+04  0.37528012560E+04 0.  0.
        5    1    3    3  502    0 -0.15002289577E+03  0.18613533835E+04  0.68259331024E+03  0.19882401778E+04  0.46999998093E+01 0. -1.
       -5    1    3    3    0  502  0.15002289577E+03 -0.18613533835E+04  0.10886689553E+04  0.21615655141E+04  0.46999998093E+01 0.  1.
</event>
<event>
 5   0  0.4687817E-07  0.3706841E+04  0.7818609E-02  0.8066448E-01
       -2   -1    0    0    0  501  0.00000000000E+00  0.00000000000E+00  0.12313131113E+04  0.12313131113E+04  0.25500000920E-02 0. -1.
        2   -1    0    0  501    0  0.00000000000E+00  0.00000000000E+00 -0.27898404010E+04  0.27898404010E+04  0.25500000920E-02 0.  1.
    10030    2    1    2    0    0  0.00000000000E+00  0.00000000000E+00 -0.15585272897E+04  0.40211535124E+04  0.37068407380E+04 0.  0.
        4    1    3    3  502    0  0.84306014147E+03  0.12549368607E+04  0.38381847713E+03  0.15597868966E+04  0.12699999809E+01 0. -1.
       -4    1    3    3    0  502 -0.84306014147E+03 -0.12549368607E+04 -0.19423457669E+04  0.24613666158E+04  0.12699999809E+01 0.  1.
</event>
<event>
 5   0  0.1496000E-07  0.3729007E+04  0.7818609E-02  0.8061564E-01
       -1   -1    0    0    0  501  0.00000000000E+00  0.00000000000E+00  0.19518975749E+04  0.19518975749E+04  0.50400001928E-02 0. -1.
        1   -1    0    0  501    0  0.00000000000E+00  0.00000000000E+00 -0.17810226913E+04  0.17810226913E+04  0.50400001928E-02 0.  1.
    10030    2    1    2    0    0  0.00000000000E+00  0.00000000000E+00  0.17087488358E+03  0.37329202662E+04  0.37290073060E+04 0.  0.
        5    1    3    3  502    0 -0.36917721971E+03 -0.16547265400E+04 -0.69122462802E+03  0.18309083315E+04  0.46999998093E+01 0.  1.
       -5    1    3    3    0  502  0.36917721971E+03  0.16547265400E+04  0.86209951160E+03  0.19020119347E+04  0.46999998093E+01 0. -1.
</event>
<event>
 5   0  0.4687817E-07  0.3690801E+04  0.7818609E-02  0.8070003E-01
       -2   -1    0    0    0  501  0.00000000000E+00  0.00000000000E+00  0.18352126967E+04  0.18352126967E+04  0.25500000920E-02 0. -1.
        2   -1    0    0  501    0  0.00000000000E+00  0.00000000000E+00 -0.18556450882E+04  0.18556450882E+04  0.25500000920E-02 0.  1.
    10030    2    1    2    0    0  0.00000000000E+00  0.00000000000E+00 -0.20432391537E+02  0.36908577849E+04  0.36908012281E+04 0.  0.
        4    1    3    3  502    0 -0.95830430106E+03 -0.15390658353E+04  0.33392718188E+03  0.18435237331E+04  0.12699999809E+01 0. -1.
       -4    1    3    3    0  502  0.95830430106E+03  0.15390658353E+04 -0.35435957342E+03  0.18473340518E+04  0.12699999809E+01 0.  1.
</event>
<event>
 5   0  0.1496000E-07  0.3714311E+04  0.7818609E-02  0.8064798E-01
       -1   -1    0    0    0  501  0.00000000000E+00  0.00000000000E+00  0.19553994479E+04  0.19553994479E+04  0.50400001928E-02 0. -1.
        1   -1    0    0  501    0  0.00000000000E+00  0.00000000000E+00 -0.17638479932E+04  0.17638479932E+04  0.50400001928E-02 0.  1.
    10030    2    1    2    0    0  0.00000000000E+00  0.00000000000E+00  0.19155145470E+03  0.37192474410E+04  0.37143114527E+04 0.  0.
        5    1    3    3  502    0  0.62718606472E+03  0.15334886593E+04  0.93597092556E+03  0.19028960801E+04  0.46999998093E+01 0. -1.
       -5    1    3    3    0  502 -0.62718606472E+03 -0.15334886593E+04 -0.74441947086E+03  0.18163513610E+04  0.46999998093E+01 0.  1.
</event>
<event>
 5   0  0.4758908E-07  0.3670496E+04  0.7818609E-02  0.8074532E-01
       -2   -1    0    0    0  501  0.00000000000E+00  0.00000000000E+00  0.13665611428E+04  0.13665611428E+04  0.25500000920E-02 0. -1.
        2   -1    0    0  501    0  0.00000000000E+00  0.00000000000E+00 -0.24646794403E+04  0.24646794404E+04  0.25500000920E-02 0.  1.
    10030    2    1    2    0    0  0.00000000000E+00  0.00000000000E+00 -0.10981182976E+04  0.38312405831E+04  0.36704959624E+04 0.  0.
        2    1    3    3  502    0  0.12618435225E+04 -0.10358545300E+04 -0.14241614183E+04  0.21664439591E+04  0.25500000920E-02 0.  1.
       -2    1    3    3    0  502 -0.12618435225E+04  0.10358545300E+04  0.32604312076E+03  0.16647966240E+04  0.25500000920E-02 0. -1.
</event>
<event>
 5   0  0.4824268E-07  0.3667182E+04  0.7818609E-02  0.8075274E-01
       -2   -1    0    0    0  501  0.00000000000E+00  0.00000000000E+00  0.17631224944E+04  0.17631224944E+04  0.25500000920E-02 0.  1.
        2   -1    0    0  501    0  0.00000000000E+00  0.00000000000E+00 -0.19068762250E+04  0.19068762250E+04  0.25500000920E-02 0. -1.
    10030    2    1    2    0    0  0.00000000000E+00  0.00000000000E+00 -0.14375373062E+03  0.36699987194E+04  0.36671822242E+04 0.  0.
        1    1    3    3  502    0 -0.33443300321E+03 -0.13310408644E+04  0.11450097939E+04  0.17873339488E+04  0.50400001928E-02 0.  1.
       -1    1    3    3    0  502  0.33443300321E+03  0.13310408644E+04 -0.12887635245E+04  0.18826647706E+04  0.50400001928E-02 0. -1.
</event>
<event>
 5   0  0.1522273E-07  0.3701169E+04  0.7818609E-02  0.8067703E-01
        1   -1    0    0  501    0  0.00000000000E+00  0.00000000000E+00  0.18086260486E+04  0.18086260486E+04  0.50400001928E-02 0.  1.
       -1   -1    0    0    0  501  0.00000000000E+00  0.00000000000E+00 -0.18935167487E+04  0.18935167487E+04  0.50400001928E-02 0. -1.
    10030    2    1    2    0    0  0.00000000000E+00  0.00000000000E+00 -0.84890700090E+02  0.37021427973E+04  0.37011693910E+04 0.  0.
        4    1    3    3  502    0  0.14410902918E+04 -0.59243480490E+03  0.95628701393E+03  0.18281703129E+04  0.12699999809E+01 0.  1.
       -4    1    3    3    0  502 -0.14410902918E+04  0.59243480490E+03 -0.10411777140E+04  0.18739724844E+04  0.12699999809E+01 0. -1.
</event>
<event>
 5   0  0.4824268E-07  0.3688700E+04  0.7818609E-02  0.8070471E-01
        2   -1    0    0  501    0  0.00000000000E+00  0.00000000000E+00  0.19659051001E+04  0.19659051001E+04  0.25500000920E-02 0. -1.
       -2   -1    0    0    0  501  0.00000000000E+00  0.00000000000E+00 -0.17303111414E+04  0.17303111414E+04  0.25500000920E-02 0.  1.
    10030    2    1    2    0    0  0.00000000000E+00  0.00000000000E+00  0.23559395864E+03  0.36962162415E+04  0.36887003118E+04 0.  0.
        1    1    3    3  502    0  0.12548925617E+04 -0.33269937199E+02  0.14717589587E+04  0.19344086080E+04  0.50400001928E-02 0. -1.
       -1    1    3    3    0  502 -0.12548925617E+04  0.33269937199E+02 -0.12361650000E+04  0.17618076335E+04  0.50400001928E-02 0.  1.
</event>
<event>
 5   0  0.1496000E-07  0.3724592E+04  0.7818609E-02  0.8062534E-01
        1   -1    0    0  501    0  0.00000000000E+00  0.00000000000E+00  0.17675264227E+04  0.17675264228E+04  0.50400001928E-02 0. -1.
       -1   -1    0    0    0  501  0.00000000000E+00  0.00000000000E+00 -0.19621466855E+04  0.19621466855E+04  0.50400001928E-02 0.  1.
    10030    2    1    2    0    0  0.00000000000E+00  0.00000000000E+00 -0.19462026272E+03  0.37296731082E+04  0.37245918498E+04 0.  0.
        2    1    3    3  502    0 -0.28689744330E+03 -0.18263551016E+04  0.12718986321E+03  0.18531217881E+04  0.25500000920E-02 0. -1.
       -2    1    3    3    0  502  0.28689744330E+03  0.18263551016E+04 -0.32181012593E+03  0.18765513202E+04  0.25500000920E-02 0.  1.
</event>
<event>
 5   0  0.4687817E-07  0.3636393E+04  0.7818609E-02  0.8082206E-01
        2   -1    0    0  501    0  0.00000000000E+00  0.00000000000E+00  0.22638446042E+04  0.22638446042E+04  0.25500000920E-02 0. -1.
       -2   -1    0    0    0  501  0.00000000000E+00  0.00000000000E+00 -0.14602763558E+04  0.14602763558E+04  0.25500000920E-02 0.  1.
    10030    2    1    2    0    0  0.00000000000E+00  0.00000000000E+00  0.80356824837E+03  0.37241209600E+04  0.36363931298E+04 0.  0.
        4    1    3    3  502    0  0.18639158603E+03  0.13878362514E+04  0.15895067693E+04  0.21183400734E+04  0.12699999809E+01 0. -1.
       -4    1    3    3    0  502 -0.18639158603E+03 -0.13878362514E+04 -0.78593852091E+03  0.16057808866E+04  0.12699999809E+01 0.  1.
</event>
<event>
 5   0  0.4793557E-07  0.3720891E+04  0.7818609E-02  0.8063348E-01
       -2   -1    0    0    0  501  0.00000000000E+00  0.00000000000E+00  0.18172979834E+04  0.18172979834E+04  0.25500000920E-02 0. -1.
        2   -1    0    0  501    0  0.00000000000E+00  0.00000000000E+00 -0.19046177587E+04  0.19046177587E+04  0.25500000920E-02 0.  1.
    10030    2    1    2    0    0  0.00000000000E+00  0.00000000000E+00 -0.87319775278E+02  0.37219157421E+04  0.37208912975E+04 0.  0.
        3    1    3    3  502    0 -0.85116182718E+02 -0.50446333062E+02  0.18146644111E+04  0.18173597696E+04  0.10100000352E+00 0. -1.
       -3    1    3    3    0  502  0.85116182718E+02  0.50446333062E+02 -0.19019841863E+04  0.19045559725E+04  0.10100000352E+00 0.  1.
</event>
<event>
 5   0  0.1496000E-07  0.3547054E+04  0.7818609E-02  0.8102728E-01
       -1   -1    0    0    0  501  0.00000000000E+00  0.00000000000E+00  0.13197985619E+04  0.13197985619E+04  0.50400001928E-02 0.  1.
        1   -1    0    0  501    0  0.00000000000E+00  0.00000000000E+00 -0.23832407398E+04  0.23832407398E+04  0.50400001928E-02 0. -1.
    10030    2    1    2    0    0  0.00000000000E+00  0.00000000000E+00 -0.10634421779E+04  0.37030393017E+04  0.35470538204E+04 0.  0.
        2    1    3    3  502    0  0.14862018675E+04  0.96616342908E+03 -0.47331495761E+03  0.18347465252E+04  0.25500000920E-02 0.  1.
       -2    1    3    3    0  502 -0.14862018675E+04 -0.96616342908E+03 -0.59012722025E+03  0.18682927765E+04  0.25500000920E-02 0. -1.
</event>
<event>
 5   0  0.1522273E-07  0.3549183E+04  0.7818609E-02  0.8102232E-01
       -1   -1    0    0    0  501  0.00000000000E+00  0.00000000000E+00  0.25102068655E+04  0.25102068655E+04  0.50400001928E-02 0. -1.
        1   -1    0    0  501    0  0.00000000000E+00  0.00000000000E+00 -0.12545480209E+04  0.12545480209E+04  0.50400001928E-02 0.  1.
    10030    2    1    2    0    0  0.00000000000E+00  0.00000000000E+00  0.12556588446E+04  0.37647548865E+04  0.35491830357E+04 0.  0.
        4    1    3    3  502    0  0.17168107616E+03  0.17279839181E+04  0.10157909794E+04  0.20117742766E+04  0.12699999809E+01 0. -1.
       -4    1    3    3    0  502 -0.17168107616E+03 -0.17279839181E+04  0.23986786518E+03  0.17529806099E+04  0.12699999809E+01 0.  1.
</event>
<event>
 5   0  0.1496000E-07  0.3711257E+04  0.7818609E-02  0.8065472E-01
        1   -1    0    0  501    0  0.00000000000E+00  0.00000000000E+00  0.22836704368E+04  0.22836704368E+04  0.50400001928E-02 0. -1.
       -1   -1    0    0    0  501  0.00000000000E+00  0.00000000000E+00 -0.15078169573E+04  0.15078169573E+04  0.50400001928E-02 0.  1.
    10030    2    1    2    0    0  0.00000000000E+00  0.00000000000E+00  0.77585347952E+03  0.37914873941E+04  0.37112569351E+04 0.  0.
        3    1    3    3  502    0  0.57451808289E+03 -0.58334660135E+03 -0.13133029701E+04  0.15476204271E+04  0.10100000352E+00 0.  1.
       -3    1    3    3    0  502 -0.57451808289E+03  0.58334660135E+03  0.20891564496E+04  0.22438669671E+04  0.10100000352E+00 0. -1.
</event>
<event>
 5   0  0.1496000E-07  0.3711761E+04  0.7818609E-02  0.8065360E-01
        1   -1    0    0  501    0  0.00000000000E+00  0.00000000000E+00  0.22580606693E+04  0.22580606693E+04  0.50400001928E-02 0.  1.
       -1   -1    0    0    0  501  0.00000000000E+00  0.00000000000E+00 -0.15253323056E+04  0.15253323057E+04  0.50400001928E-02 0. -1.
    10030    2    1    2    0    0  0.00000000000E+00  0.00000000000E+00  0.73272836367E+03  0.37833929750E+04  0.37117612461E+04 0.  0.
        3    1    3    3  502    0 -0.53408517710E+03 -0.15480247029E+04  0.12565249457E+04  0.20640936041E+04  0.10100000352E+00 0.  1.
       -3    1    3    3    0  502  0.53408517710E+03  0.15480247029E+04 -0.52379658199E+03  0.17192993709E+04  0.10100000352E+00 0. -1.
</event>
<event>
 5   0  0.4793557E-07  0.3713948E+04  0.7818609E-02  0.8064878E-01
        2   -1    0    0  501    0  0.00000000000E+00  0.00000000000E+00  0.19100468589E+04  0.19100468589E+04  0.25500000920E-02 0.  1.
       -2   -1    0    0    0  501  0.00000000000E+00  0.00000000000E+00 -0.18053759081E+04  0.18053759081E+04  0.25500000920E-02 0. -1.
    10030    2    1    2    0    0  0.00000000000E+00  0.00000000000E+00  0.10467095076E+03  0.37154227670E+04  0.37139480784E+04 0.  0.
        3    1    3    3  502    0  0.61053211620E+02  0.49852163849E+03 -0.17361387050E+04  0.18073264597E+04  0.10100000352E+00 0. -1.
       -3    1    3    3    0  502 -0.61053211620E+02 -0.49852163849E+03  0.18408096558E+04  0.19080963072E+04  0.10100000352E+00 0.  1.
</event>
<event>
 5   0  0.4857514E-07  0.3723973E+04  0.7818609E-02  0.8062670E-01
       -2   -1    0    0    0  501  0.00000000000E+00  0.00000000000E+00  0.14252228965E+04  0.14252228965E+04  0.25500000920E-02 0.  1.
        2   -1    0    0  501    0  0.00000000000E+00  0.00000000000E+00 -0.24325981286E+04  0.24325981286E+04  0.25500000920E-02 0. -1.
    10030    2    1    2    0    0  0.00000000000E+00  0.00000000000E+00 -0.10073752320E+04  0.38578210251E+04  0.37239734429E+04 0.  0.
        5    1    3    3  502    0  0.11409821790E+04 -0.11818722592E+04  0.40434985206E+03  0.16917988246E+04  0.46999998093E+01 0.  1.
       -5    1    3    3    0  502 -0.11409821790E+04  0.11818722592E+04 -0.14117250841E+04  0.21660222005E+04  0.46999998093E+01 0. -1.
</event>
<event>
 5   0  0.4758908E-07  0.3678452E+04  0.7818609E-02  0.8072754E-01
        2   -1    0    0  501    0  0.00000000000E+00  0.00000000000E+00  0.20706440275E+04  0.20706440275E+04  0.25500000920E-02 0.  1.
       -2   -1    0    0    0  501  0.00000000000E+00  0.00000000000E+00 -0.16336711428E+04  0.16336711429E+04  0.25500000920E-02 0. -1.
    10030    2    1    2    0    0  0.00000000000E+00  0.00000000000E+00  0.43697288461E+03  0.37043151703E+04  0.36784515192E+04 0.  0.
        2    1    3    3  502    0 -0.15277857459E+03 -0.75826940797E+03  0.18988824421E+04  0.20503824806E+04  0.25500000920E-02 0.  1.
       -2    1    3    3    0  502  0.15277857459E+03  0.75826940797E+03 -0.14619095575E+04  0.16539326897E+04  0.25500000920E-02 0. -1.
</event>
<event>
 5   0  0.1496000E-07  0.3682218E+04  0.7818609E-02  0.8071914E-01
       -1   -1    0    0    0  501  0.00000000000E+00  0.00000000000E+00  0.16529708417E+04  0.16529708417E+04  0.50400001928E-02 0. -1.
        1   -1    0    0  501    0  0.00000000000E+00  0.00000000000E+00 -0.20506609883E+04  0.20506609883E+04  0.50400001928E-02 0.  1.
    10030    2    1    2    0    0  0.00000000000E+00  0.00000000000E+00 -0.39769014666E+03  0.37036318300E+04  0.36822182553E+04 0.  0.
        3    1    3    3  502    0 -0.10478546533E+04 -0.12157703967E+04  0.70839025826E+03  0.17543984155E+04  0.10100000352E+00 0. -1.
       -3    1    3    3    0  502  0.10478546533E+04  0.12157703967E+04 -0.11060804049E+04  0.19492334145E+04  0.10100000352E+00 0.  1.
</event>
<event>
 5   0  0.4758908E-07  0.3751300E+04  0.7818609E-02  0.8056687E-01
       -2   -1    0    0    0  501  0.00000000000E+00  0.00000000000E+00  0.22530053215E+04  0.22530053215E+04  0.25500000920E-02 0.  1.
        2   -1    0    0  501    0  0.00000000000E+00  0.00000000000E+00 -0.15614974417E+04  0.15614974417E+04  0.25500000920E-02 0. -1.
    10030    2    1    2    0    0  0.00000000000E+00  0.00000000000E+00  0.69150787975E+03  0.38145027632E+04  0.37512995325E+04 0.  0.
        2    1    3    3  502    0 -0.13497101870E+04  0.10136656741E+04  0.11773508766E+04  0.20580065049E+04  0.25500000920E-02 0.  1.
       -2    1    3    3    0  502  0.13497101870E+04 -0.10136656741E+04 -0.48584299684E+03  0.17564962583E+04  0.25500000920E-02 0. -1.
</event>
<event>
 5   0  0.1496287E-07  0.3185736E+04  0.7818609E-02  0.8192594E-01
       -1   -1    0    0    0  501  0.00000000000E+00  0.00000000000E+00  0.24979696956E+04  0.24979696956E+04  0.50400001928E-02 0.  1.
        1   -1    0    0  501    0  0.00000000000E+00  0.00000000000E+00 -0.10157163940E+04  0.10157163940E+04  0.50400001928E-02 0. -1.
    10030    2    1    2    0    0  0.00000000000E+00  0.00000000000E+00  0.14822533016E+04  0.35136860896E+04  0.31857361922E+04 0.  0.
        1    1    3    3  502    0  0.13837762928E+03 -0.37098930329E+03 -0.96057115603E+03  0.10389794884E+04  0.50400001928E-02 0. -1.
       -1    1    3    3    0  502 -0.13837762928E+03  0.37098930329E+03  0.24428244576E+04  0.24747066013E+04  0.50400001928E-02 0.  1.
</event>
<event>
 5   0  0.1496000E-07  0.3694634E+04  0.7818609E-02  0.8069152E-01
        3   -1    0    0  501    0  0.00000000000E+00  0.00000000000E+00  0.26227224810E+04  0.26227224829E+04  0.10100000352E+00 0. -1.
       -3   -1    0    0    0  501  0.00000000000E+00  0.00000000000E+00 -0.13011591838E+04  0.13011591878E+04  0.10100000352E+00 0.  1.
    10030    2    1    2    0    0  0.00000000000E+00  0.00000000000E+00  0.13215632972E+04  0.39238816707E+04  0.36946336513E+04 0.  0.
        2    1    3    3  502    0 -0.99515592916E+03  0.15439061698E+04  0.45212790084E+03  0.18916662557E+04  0.25500000920E-02 0. -1.
       -2    1    3    3    0  502  0.99515592916E+03 -0.15439061698E+04  0.86943539632E+03  0.20322154150E+04  0.25500000920E-02 0.  1.
</event>
<event>
 5   0  0.4687817E-07  0.3704104E+04  0.7818609E-02  0.8067053E-01
       -2   -1    0    0    0  501  0.00000000000E+00  0.00000000000E+00  0.15242879459E+04  0.15242879459E+04  0.25500000920E-02 0. -1.
        2   -1    0    0  501    0  0.00000000000E+00  0.00000000000E+00 -0.22502942307E+04  0.22502942307E+04  0.25500000920E-02 0.  1.
    10030    2    1    2    0    0  0.00000000000E+00  0.00000000000E+00 -0.72600628483E+03  0.37745821766E+04  0.37041038703E+04 0.  0.
        4    1    3    3  502    0 -0.91028081730E+03  0.83495953975E+03 -0.17692332588E+04  0.21577665620E+04  0.12699999809E+01 0.  1.
       -4    1    3    3    0  502  0.91028081730E+03 -0.83495953975E+03  0.10432269739E+04  0.16168156145E+04  0.12699999809E+01 0. -1.
</event>
<event>
 5   0  0.1496000E-07  0.3668721E+04  0.7818609E-02  0.8074929E-01
        1   -1    0    0  501    0  0.00000000000E+00  0.00000000000E+00  0.12246733803E+04  0.12246733803E+04  0.50400001928E-02 0.  1.
       -1   -1    0    0    0  501  0.00000000000E+00  0.00000000000E+00 -0.27475715049E+04  0.27475715049E+04  0.50400001928E-02 0. -1.
    10030    2    1    2    0    0  0.00000000000E+00  0.00000000000E+00 -0.15228981246E+04  0.39722448852E+04  0.36687205849E+04 0.  0.
        3    1    3    3  502    0  0.13121589225E+04  0.23186784197E+03 -0.21264460381E+04  0.25094414712E+04  0.10100000352E+00 0. -1.
       -3    1    3    3    0  502 -0.13121589225E+04 -0.23186784197E+03  0.60354791350E+03  0.14628034140E+04  0.10100000352E+00 0.  1.
</event>
<event>
 5   0  0.1496287E-07  0.3708717E+04  0.7818609E-02  0.8066033E-01
       -1   -1    0    0    0  501  0.00000000000E+00  0.00000000000E+00  0.15149986564E+04  0.15149986564E+04  0.50400001928E-02 0. -1.
        1   -1    0    0  501    0  0.00000000000E+00  0.00000000000E+00 -0.22697343813E+04  0.22697343813E+04  0.50400001928E-02 0.  1.
    10030    2    1    2    0    0  0.00000000000E+00  0.00000000000E+00 -0.75473572493E+03  0.37847330378E+04  0.37087165102E+04 0.  0.
        1    1    3    3  502    0 -0.43638752815E+03  0.27446008589E+03 -0.21951364014E+04  0.22548583624E+04  0.50400001928E-02 0.  1.
       -1    1    3    3    0  502  0.43638752815E+03 -0.27446008589E+03  0.14404006765E+04  0.15298746754E+04  0.50400001928E-02 0. -1.
</event>
<event>
 5   0  0.1496000E-07  0.3673012E+04  0.7818609E-02  0.8073969E-01
        1   -1    0    0  501    0  0.00000000000E+00  0.00000000000E+00  0.20207776003E+04  0.20207776003E+04  0.50400001928E-02 0.  1.
       -1   -1    0    0    0  501  0.00000000000E+00  0.00000000000E+00 -0.16690374074E+04  0.16690374074E+04  0.50400001928E-02 0. -1.
    10030    2    1    2    0    0  0.00000000000E+00  0.00000000000E+00  0.35174019291E+03  0.36898150077E+04  0.36730115203E+04 0.  0.
        2    1    3    3  502    0  0.93012261520E+03 -0.88665074155E+03  0.14939227572E+04  0.19705539377E+04  0.25500000920E-02 0.  1.
       -2    1    3    3    0  502 -0.93012261520E+03  0.88665074155E+03 -0.11421825643E+04  0.17192610701E+04  0.25500000920E-02 0. -1.
</event>
<event>
 5   0  0.1522273E-07  0.3725440E+04  0.7818609E-02  0.8062347E-01
       -1   -1    0    0    0  501  0.00000000000E+00  0.00000000000E+00  0.31350561488E+04  0.31350561488E+04  0.50400001928E-02 0. -1.
        1   -1    0    0  501    0  0.00000000000E+00  0.00000000000E+00 -0.11067507037E+04  0.11067507037E+04  0.50400001928E-02 0.  1.
    10030    2    1    2    0    0  0.00000000000E+00  0.00000000000E+00  0.20283054451E+04  0.42418068525E+04  0.37254398928E+04 0.  0.
        4    1    3    3  502    0 -0.95817766157E+03 -0.97398750318E+03 -0.42741729520E+03  0.14315876657E+04  0.12699999809E+01 0. -1.
       -4    1    3    3    0  502  0.95817766157E+03  0.97398750318E+03  0.24557227403E+04  0.28102191868E+04  0.12699999809E+01 0.  1.
</event>
<event>
 5   0  0.1496000E-07  0.3710877E+04  0.7818609E-02  0.8065556E-01
        3   -1    0    0  501    0  0.00000000000E+00  0.00000000000E+00  0.20742928722E+04  0.20742928747E+04  0.10100000352E+00 0.  1.
       -3   -1    0    0    0  501  0.00000000000E+00  0.00000000000E+00 -0.16596753584E+04  0.16596753614E+04  0.10100000352E+00 0. -1.
    10030    2    1    2    0    0  0.00000000000E+00  0.00000000000E+00  0.41461751386E+03  0.37339682361E+04  0.37108774037E+04 0.  0.
        3    1    3    3  502    0 -0.15301534939E+04 -0.10405655595E+04  0.70424153147E+02  0.18517845367E+04  0.10100000352E+00 0. -1.
       -3    1    3    3    0  502  0.15301534939E+04  0.10405655595E+04  0.34419336071E+03  0.18821836994E+04  0.10100000352E+00 0.  1.
</event>
<event>
 5   0  0.4824268E-07  0.3755655E+04  0.7818609E-02  0.8055739E-01
        2   -1    0    0  501    0  0.00000000000E+00  0.00000000000E+00  0.14218450768E+04  0.14218450768E+04  0.25500000920E-02 0. -1.
       -2   -1    0    0    0  501  0.00000000000E+00  0.00000000000E+00 -0.24800428348E+04  0.24800428348E+04  0.25500000920E-02 0.  1.
    10030    2    1    2    0    0  0.00000000000E+00  0.00000000000E+00 -0.10581977580E+04  0.39018879116E+04  0.37556553063E+04 0.  0.
        1    1    3    3  502    0 -0.16210705863E+04  0.94316460153E+03 -0.43159710485E+03  0.19245013308E+04  0.50400001928E-02 0.  1.
       -1    1    3    3    0  502  0.16210705863E+04 -0.94316460153E+03 -0.62660065316E+03  0.19773865808E+04  0.50400001928E-02 0. -1.
</event>
<event>
 5   0  0.1496000E-07  0.3673169E+04  0.7818609E-02  0.8073934E-01
        1   -1    0    0  501    0  0.00000000000E+00  0.00000000000E+00  0.16038185353E+04  0.16038185353E+04  0.50400001928E-02 0.  1.
       -1   -1    0    0    0  501  0.00000000000E+00  0.00000000000E+00 -0.21031327463E+04  0.21031327463E+04  0.50400001928E-02 0. -1.
    10030    2    1    2    0    0  0.00000000000E+00  0.00000000000E+00 -0.49931421094E+03  0.37069512816E+04  0.36731693567E+04 0.  0.
        2    1    3    3  502    0  0.73693664960E+03 -0.77425360453E+03  0.12575639183E+04  0.16504578996E+04  0.25500000920E-02 0.  1.
       -2    1    3    3    0  502 -0.73693664960E+03  0.77425360453E+03 -0.17568781292E+04  0.20564933821E+04  0.25500000920E-02 0. -1.
</event>
<event>
 5   0  0.4793557E-07  0.3672884E+04  0.7818609E-02  0.8073998E-01
        2   -1    0    0  501    0  0.00000000000E+00  0.00000000000E+00  0.25953192789E+04  0.25953192789E+04  0.25500000920E-02 0. -1.
       -2   -1    0    0    0  501  0.00000000000E+00  0.00000000000E+00 -0.12994618500E+04  0.12994618500E+04  0.25500000920E-02 0.  1.
    10030    2    1    2    0    0  0.00000000000E+00  0.00000000000E+00  0.12958574289E+04  0.38947811289E+04  0.36728835492E+04 0.  0.
        3    1    3    3  502    0 -0.16503329160E+04  0.20565899835E+02  0.15018734794E+04  0.22315119646E+04  0.10100000352E+00 0. -1.
       -3    1    3    3    0  502  0.16503329160E+04 -0.20565899835E+02 -0.20601605045E+03  0.16632691643E+04  0.10100000352E+00 0.  1.
</event>
<event>
 5   0  0.1522273E-07  0.3668267E+04  0.7818609E-02  0.8075031E-01
       -1   -1    0    0    0  501  0.00000000000E+00  0.00000000000E+00  0.22124030916E+04  0.22124030916E+04  0.50400001928E-02 0.  1.
        1   -1    0    0  501    0  0.00000000000E+00  0.00000000000E+00 -0.15205395011E+04  0.15205395011E+04  0.50400001928E-02 0. -1.
    10030    2    1    2    0    0  0.00000000000E+00  0.00000000000E+00  0.69186359048E+03  0.37329425927E+04  0.36682673257E+04 0.  0.
        4    1    3    3  502    0  0.97661133041E+03  0.24895134003E+03 -0.12135020588E+04  0.15774458215E+04  0.12699999809E+01 0. -1.
       -4    1    3    3    0  502 -0.97661133041E+03 -0.24895134003E+03  0.19053656492E+04  0.21554967712E+04  0.12699999809E+01 0.  1.
</event>
<event>
 5   0  0.4824268E-07  0.3669044E+04  0.7818609E-02  0.8074857E-01
        2   -1    0    0  501    0  0.00000000000E+00  0.00000000000E+00  0.16760424643E+04  0.16760424643E+04  0.25500000920E-02 0. -1.
       -2   -1    0    0    0  501  0.00000000000E+00  0.00000000000E+00 -0.20079867557E+04  0.20079867557E+04  0.25500000920E-02 0.  1.
    10030    2    1    2    0    0  0.00000000000E+00  0.00000000000E+00 -0.33194429141E+03  0.36840292201E+04  0.36690440556E+04 0.  0.
        1    1    3    3  502    0 -0.64346624113E+03  0.69152793519E+03 -0.17450398740E+04  0.19842942954E+04  0.50400001928E-02 0.  1.
       -1    1    3    3    0  502  0.64346624113E+03 -0.69152793519E+03  0.14130955826E+04  0.16997349247E+04  0.50400001928E-02 0. -1.
</event>
<event>
 5   0  0.1496000E-07  0.3693449E+04  0.7818609E-02  0.8069415E-01
       -1   -1    0    0    0  501  0.00000000000E+00  0.00000000000E+00  0.18039870805E+04  0.18039870806E+04  0.50400001928E-02 0. -1.
        1   -1    0    0  501    0  0.00000000000E+00  0.00000000000E+00 -0.18904743993E+04  0.18904743993E+04  0.50400001928E-02 0.  1.
    10030    2    1    2    0    0  0.00000000000E+00  0.00000000000E+00 -0.86487318731E+02  0.36944614798E+04  0.36934490073E+04 0.  0.
        3    1    3    3  502    0  0.17857588865E+04  0.10231522397E+03  0.41621674959E+03  0.18364747748E+04  0.10100000352E+00 0.  1.
       -3    1    3    3    0  502 -0.17857588865E+04 -0.10231522397E+03 -0.50270406832E+03  0.18579867050E+04  0.10100000352E+00 0. -1.
</event>
<event>
 5   0  0.4687817E-07  0.3616291E+04  0.7818609E-02  0.8086770E-01
       -2   -1    0    0    0  501  0.00000000000E+00  0.00000000000E+00  0.14626884043E+04  0.14626884043E+04  0.25500000920E-02 0. -1.
        2   -1    0    0  501    0  0.00000000000E+00  0.00000000000E+00 -0.22351925796E+04  0.22351925796E+04  0.25500000920E-02 0.  1.
    10030    2    1    2    0    0  0.00000000000E+00  0.00000000000E+00 -0.77250417529E+03  0.36978809839E+04  0.36162910655E+04 0.  0.
        4    1    3    3  502    0  0.42751382866E+03  0.14595551331E+04  0.61372726453E+03  0.16400402520E+04  0.12699999809E+01 0. -1.
       -4    1    3    3    0  502 -0.42751382866E+03 -0.14595551331E+04 -0.13862314398E+04  0.20578407319E+04  0.12699999809E+01 0.  1.
</event>
<event>
 5   0  0.4687817E-07  0.3618424E+04  0.7818609E-02  0.8086284E-01
       -2   -1    0    0    0  501  0.00000000000E+00  0.00000000000E+00  0.16749469097E+04  0.16749469097E+04  0.25500000920E-02 0.  1.
        2   -1    0    0  501    0  0.00000000000E+00  0.00000000000E+00 -0.19542398748E+04  0.19542398748E+04  0.25500000920E-02 0. -1.
    10030    2    1    2    0    0  0.00000000000E+00  0.00000000000E+00 -0.27929296504E+03  0.36291867845E+04  0.36184239879E+04 0.  0.
        4    1    3    3  502    0  0.17408208251E+04  0.15185023093E+03 -0.60979527402E+03  0.18507748450E+04  0.12699999809E+01 0. -1.
       -4    1    3    3    0  502 -0.17408208251E+04 -0.15185023093E+03  0.33050230899E+03  0.17784119396E+04  0.12699999809E+01 0.  1.
</event>
<event>
 5   0  0.4857514E-07  0.3695374E+04  0.7818609E-02  0.8068988E-01
       -2   -1    0    0    0  501  0.00000000000E+00  0.00000000000E+00  0.14354872762E+04  0.14354872762E+04  0.25500000920E-02 0. -1.
        2   -1    0    0  501    0  0.00000000000E+00  0.00000000000E+00 -0.23782500608E+04  0.23782500608E+04  0.25500000920E-02 0.  1.
    10030    2    1    2    0    0  0.00000000000E+00  0.00000000000E+00 -0.94276278462E+03  0.38137373371E+04  0.36953742447E+04 0.  0.
        5    1    3    3  502    0 -0.13533335629E+04  0.12061619466E+04 -0.10274689959E+03  0.18157415535E+04  0.46999998093E+01 0.  1.
       -5    1    3    3    0  502  0.13533335629E+04 -0.12061619466E+04 -0.84001588503E+03  0.19979957835E+04  0.46999998093E+01 0. -1.
</event>
<event>
 5   0  0.4758908E-07  0.3398701E+04  0.7818609E-02  0.8138225E-01
       -2   -1    0    0    0  501  0.00000000000E+00  0.00000000000E+00  0.11385176900E+04  0.11385176900E+04  0.25500000920E-02 0.  1.
        2   -1    0    0  501    0  0.00000000000E+00  0.00000000000E+00 -0.25364484825E+04  0.25364484825E+04  0.25500000920E-02 0. -1.
    10030    2    1    2    0    0  0.00000000000E+00  0.00000000000E+00 -0.13979307925E+04  0.36749661725E+04  0.33987006147E+04 0.  0.
        2    1    3    3  502    0 -0.88563343134E+03 -0.42958893967E+03  0.79887799473E+03  0.12677141958E+04  0.25500000920E-02 0.  1.
       -2    1    3    3    0  502  0.88563343134E+03  0.42958893967E+03 -0.21968087872E+04  0.24072519767E+04  0.25500000920E-02 0. -1.
</event>
<event>
 5   0  0.4793557E-07  0.3001145E+04  0.7818609E-02  0.8243404E-01
       -2   -1    0    0    0  501  0.00000000000E+00  0.00000000000E+00  0.13381505820E+04  0.13381505820E+04  0.25500000920E-02 0.  1.
        2   -1    0    0  501    0  0.00000000000E+00  0.00000000000E+00 -0.16827094009E+04  0.16827094009E+04  0.25500000920E-02 0. -1.
    10030    2    1    2    0    0  0.00000000000E+00  0.00000000000E+00 -0.34455881888E+03  0.30208599829E+04  0.30011454908E+04 0.  0.
        3    1    3    3  502    0 -0.68481968528E+02  0.13987711203E+04 -0.71477072274E+03  0.15723064661E+04  0.10100000352E+00 0. -1.
       -3    1    3    3    0  502  0.68481968528E+02 -0.13987711203E+04  0.37021190386E+03  0.14485535168E+04  0.10100000352E+00 0.  1.
</event>
<event>
 5   0  0.4793557E-07  0.3633787E+04  0.7818609E-02  0.8082796E-01
       -2   -1    0    0    0  501  0.00000000000E+00  0.00000000000E+00  0.12672697648E+04  0.12672697648E+04  0.25500000920E-02 0.  1.
        2   -1    0    0  501    0  0.00000000000E+00  0.00000000000E+00 -0.26048934286E+04  0.26048934286E+04  0.25500000920E-02 0. -1.
    10030    2    1    2    0    0  0.00000000000E+00  0.00000000000E+00 -0.13376236638E+04  0.38721631934E+04  0.36337873810E+04 0.  0.
        3    1    3    3  502    0  0.13026189795E+04 -0.93559555862E+03  0.24098043456E+03  0.16217974088E+04  0.10100000352E+00 0.  1.
       -3    1    3    3    0  502 -0.13026189795E+04  0.93559555862E+03 -0.15786040984E+04  0.22503657846E+04  0.10100000352E+00 0. -1.
</event>
<event>
 5   0  0.4758908E-07  0.3712211E+04  0.7818609E-02  0.8065261E-01
       -2   -1    0    0    0  501  0.00000000000E+00  0.00000000000E+00  0.25791806217E+04  0.25791806217E+04  0.25500000920E-02 0.  1.
        2   -1    0    0  501    0  0.00000000000E+00  0.00000000000E+00 -0.13357451515E+04  0.13357451515E+04  0.25500000920E-02 0. -1.
    10030    2    1    2    0    0  0.00000000000E+00  0.00000000000E+00  0.12434354702E+04  0.39149257732E+04  0.37122112064E+04 0.  0.
        2    1    3    3  502    0  0.70897389511E+03 -0.16587552645E+04  0.10826367127E+04  0.21038572345E+04  0.25500000920E-02 0.  1.
       -2    1    3    3    0  502 -0.70897389511E+03  0.16587552645E+04  0.16079875753E+03  0.18110685387E+04  0.25500000920E-02 0. -1.
</event>
<event>
 5   0  0.1496000E-07  0.3677793E+04  0.7818609E-02  0.8072901E-01
        1   -1    0    0  501    0  0.00000000000E+00  0.00000000000E+00  0.18345342022E+04  0.18345342022E+04  0.50400001928E-02 0. -1.
       -1   -1    0    0    0  501  0.00000000000E+00  0.00000000000E+00 -0.18432691278E+04  0.18432691278E+04  0.50400001928E-02 0.  1.
    10030    2    1    2    0    0  0.00000000000E+00  0.00000000000E+00 -0.87349255591E+01  0.36778033300E+04  0.36777929571E+04 0.  0.
        2    1    3    3  502    0  0.17607777387E+04 -0.50460370902E+03 -0.16739279974E+03  0.18392888565E+04  0.25500000920E-02 0. -1.
       -2    1    3    3    0  502 -0.17607777387E+04  0.50460370902E+03  0.15865787418E+03  0.18385144735E+04  0.25500000920E-02 0.  1.
</event>
<event>
 5   0  0.4793557E-07  0.3685150E+04  0.7818609E-02  0.8071261E-01
       -2   -1    0    0    0  501  0.00000000000E+00  0.00000000000E+00  0.14718775591E+04  0.14718775591E+04  0.25500000920E-02 0. -1.
        2   -1    0    0  501    0  0.00000000000E+00  0.00000000000E+00 -0.23066339513E+04  0.23066339513E+04  0.25500000920E-02 0.  1.
    10030    2    1    2    0    0  0.00000000000E+00  0.00000000000E+00 -0.83475639215E+03  0.37785115104E+04  0.36851500648E+04 0.  0.
        3    1    3    3  502    0  0.10059166190E+03  0.22740450989E+03 -0.22893512670E+04  0.23028158258E+04  0.10100000352E+00 0.  1.
       -3    1    3    3    0  502 -0.10059166190E+03 -0.22740450989E+03  0.14545948748E+04  0.14756956846E+04  0.10100000352E+00 0. -1.
</event>
<event>
 5   0  0.1496287E-07  0.3679402E+04  0.7818609E-02  0.8072542E-01
       -1   -1    0    0    0  501  0.00000000000E+00  0.00000000000E+00  0.12788687209E+04  0.12788687209E+04  0.50400001928E-02 0. -1.
        1   -1    0    0  501    0  0.00000000000E+00  0.00000000000E+00 -0.26464789979E+04  0.26464789979E+04  0.50400001928E-02 0.  1.
    10030    2    1    2    0    0  0.00000000000E+00  0.00000000000E+00 -0.13676102770E+04  0.39253477188E+04  0.36794016964E+04 0.  0.
        1    1    3    3  502    0 -0.15938450742E+03  0.18018951245E+04 -0.10412691354E+04  0.20872160582E+04  0.50400001928E-02 0.  1.
       -1    1    3    3    0  502  0.15938450742E+03 -0.18018951245E+04 -0.32634114158E+03  0.18381316606E+04  0.50400001928E-02 0. -1.
</event>
<event>
 5   0  0.4824268E-07  0.3764793E+04  0.7818609E-02  0.8053753E-01
       -2   -1    0    0    0  501  0.00000000000E+00  0.00000000000E+00  0.15022418535E+04  0.15022418535E+04  0.25500000920E-02 0.  1.
        2   -1    0    0  501    0  0.00000000000E+00  0.00000000000E+00 -0.23587522799E+04  0.23587522799E+04  0.25500000920E-02 0. -1.
    10030    2    1    2    0    0  0.00000000000E+00  0.00000000000E+00 -0.85651042647E+03  0.38609941334E+04  0.37647929010E+04 0.  0.
        1    1    3    3  502    0  0.58968413460E+03 -0.47197907110E+03 -0.21965310439E+04  0.23227656466E+04  0.50400001928E-02 0. -1.
       -1    1    3    3    0  502 -0.58968413460E+03  0.47197907110E+03  0.13400206175E+04  0.15382284867E+04  0.50400001928E-02 0.  1.
</event>
<event>
 5   0  0.4758908E-07  0.3685368E+04  0.7818609E-02  0.8071212E-01
        2   -1    0    0  501    0  0.00000000000E+00  0.00000000000E+00  0.24516375440E+04  0.24516375440E+04  0.25500000920E-02 0.  1.
       -2   -1    0    0    0  501  0.00000000000E+00  0.00000000000E+00 -0.13849860336E+04  0.13849860336E+04  0.25500000920E-02 0. -1.
    10030    2    1    2    0    0  0.00000000000E+00  0.00000000000E+00  0.10666515104E+04  0.38366235776E+04  0.36853676929E+04 0.  0.
        2    1    3    3  502    0  0.18052048310E+04  0.16229246303E+03  0.18745454553E+03  0.18221532680E+04  0.25500000920E-02 0.  1.
       -2    1    3    3    0  502 -0.18052048310E+04 -0.16229246303E+03  0.87919696487E+03  0.20144703096E+04  0.25500000920E-02 0. -1.
</event>
<event>
 5   0  0.1496000E-07  0.3708274E+04  0.7818609E-02  0.8066131E-01
        1   -1    0    0  501    0  0.00000000000E+00  0.00000000000E+00  0.19177212609E+04  0.19177212609E+04  0.50400001928E-02 0. -1.
       -1   -1    0    0    0  501  0.00000000000E+00  0.00000000000E+00 -0.17926605905E+04  0.17926605905E+04  0.50400001928E-02 0.  1.
    10030    2    1    2    0    0  0.00000000000E+00  0.00000000000E+00  0.12506067041E+03  0.37103818514E+04  0.37082736296E+04 0.  0.
        2    1    3    3  502    0 -0.76583724543E+03 -0.12590552088E+04 -0.10633189577E+04  0.18172434925E+04  0.25500000920E-02 0.  1.
       -2    1    3    3    0  502  0.76583724543E+03  0.12590552088E+04  0.11883796281E+04  0.18931383589E+04  0.25500000920E-02 0. -1.
</event>
<event>
 5   0  0.4857514E-07  0.3708602E+04  0.7818609E-02  0.8066058E-01
        2   -1    0    0  501    0  0.00000000000E+00  0.00000000000E+00  0.18697473687E+04  0.18697473687E+04  0.25500000920E-02 0.  1.
       -2   -1    0    0    0  501  0.00000000000E+00  0.00000000000E+00 -0.18389827201E+04  0.18389827201E+04  0.25500000920E-02 0. -1.
    10030    2    1    2    0    0  0.00000000000E+00  0.00000000000E+00  0.30764648580E+02  0.37087300888E+04  0.37086024872E+04 0.  0.
        5    1    3    3  502    0  0.18149589305E+03 -0.41252472006E+03 -0.17833717570E+04  0.18394440240E+04  0.46999998093E+01 0. -1.
       -5    1    3    3    0  502 -0.18149589305E+03  0.41252472006E+03  0.18141364056E+04  0.18692860648E+04  0.46999998093E+01 0.  1.
</event>
<event>
 5   0  0.1496000E-07  0.3695158E+04  0.7818609E-02  0.8069036E-01
        1   -1    0    0  501    0  0.00000000000E+00  0.00000000000E+00  0.25633520391E+04  0.25633520391E+04  0.50400001928E-02 0.  1.
       -1   -1    0    0    0  501  0.00000000000E+00  0.00000000000E+00 -0.13316735865E+04  0.13316735865E+04  0.50400001928E-02 0. -1.
    10030    2    1    2    0    0  0.00000000000E+00  0.00000000000E+00  0.12316784526E+04  0.38950256256E+04  0.36951580228E+04 0.  0.
        3    1    3    3  502    0  0.13495560211E+04 -0.59864821650E+03  0.17867167985E+04  0.23177657495E+04  0.10100000352E+00 0.  1.
       -3    1    3    3    0  502 -0.13495560211E+04  0.59864821650E+03 -0.55503834587E+03  0.15772598761E+04  0.10100000352E+00 0. -1.
</event>
<event>
 5   0  0.1496000E-07  0.3747307E+04  0.7818609E-02  0.8057558E-01
       -1   -1    0    0    0  501  0.00000000000E+00  0.00000000000E+00  0.12665523818E+04  0.12665523818E+04  0.50400001928E-02 0.  1.
        1   -1    0    0  501    0  0.00000000000E+00  0.00000000000E+00 -0.27717591564E+04  0.27717591564E+04  0.50400001928E-02 0. -1.
    10030    2    1    2    0    0  0.00000000000E+00  0.00000000000E+00 -0.15052067746E+04  0.40383115382E+04  0.37473073860E+04 0.  0.
        3    1    3    3  502    0 -0.26556063117E+03 -0.13279699662E+04 -0.21479719889E+04  0.25392538973E+04  0.10100000352E+00 0. -1.
       -3    1    3    3    0  502  0.26556063117E+03  0.13279699662E+04  0.64276521425E+03  0.14990576409E+04  0.10100000352E+00 0.  1.
</event>
<event>
 5   0  0.1522273E-07  0.3706826E+04  0.7818609E-02  0.8066451E-01
       -1   -1    0    0    0  501  0.00000000000E+00  0.00000000000E+00  0.15838937926E+04  0.15838937926E+04  0.50400001928E-02 0.  1.
        1   -1    0    0  501    0  0.00000000000E+00  0.00000000000E+00 -0.21687944409E+04  0.21687944409E+04  0.50400001928E-02 0. -1.
    10030    2    1    2    0    0  0.00000000000E+00  0.00000000000E+00 -0.58490064831E+03  0.37526882336E+04  0.37068261640E+04 0.  0.
        4    1    3    3  502    0 -0.17202832280E+04  0.37419598773E+03  0.29415057708E+03  0.17849154592E+04  0.12699999809E+01 0.  1.
       -4    1    3    3    0  502  0.17202832280E+04 -0.37419598773E+03 -0.87905122539E+03  0.19677727743E+04  0.12699999809E+01 0. -1.
</event>
<event>
 5   0  0.4687817E-07  0.3693164E+04  0.7818609E-02  0.8069479E-01
        2   -1    0    0  501    0  0.00000000000E+00  0.00000000000E+00  0.25680472030E+04  0.25680472030E+04  0.25500000920E-02 0.  1.
       -2   -1    0    0    0  501  0.00000000000E+00  0.00000000000E+00 -0.13278044320E+04  0.13278044320E+04  0.25500000920E-02 0. -1.
    10030    2    1    2    0    0  0.00000000000E+00  0.00000000000E+00  0.12402427711E+04  0.38958516350E+04  0.36931636616E+04 0.  0.
        4    1    3    3  502    0  0.48217477598E+03 -0.17811710125E+04  0.69320692661E+03  0.19711925696E+04  0.12699999809E+01 0.  1.
       -4    1    3    3    0  502 -0.48217477598E+03  0.17811710125E+04  0.54703584444E+03  0.19246590655E+04  0.12699999809E+01 0. -1.
</event>
<event>
 5   0  0.4758908E-07  0.3771580E+04  0.7818609E-02  0.8052281E-01
        2   -1    0    0  501    0  0.00000000000E+00  0.00000000000E+00  0.22747085475E+04  0.22747085475E+04  0.25500000920E-02 0.  1.
       -2   -1    0    0    0  501  0.00000000000E+00  0.00000000000E+00 -0.15633672191E+04  0.15633672191E+04  0.25500000920E-02 0. -1.
    10030    2    1    2    0    0  0.00000000000E+00  0.00000000000E+00  0.71134132835E+03  0.38380757666E+04  0.37715804519E+04 0.  0.
        2    1    3    3  502    0 -0.24477397101E+02  0.18753854290E+04  0.15590605083E+03  0.18820139072E+04  0.25500000920E-02 0. -1.
       -2    1    3    3    0  502  0.24477397101E+02 -0.18753854290E+04  0.55543527752E+03  0.19560618594E+04  0.25500000920E-02 0.  1.
</event>
<event>
 5   0  0.4687817E-07  0.3725650E+04  0.7818609E-02  0.8062301E-01
        2   -1    0    0  501    0  0.00000000000E+00  0.00000000000E+00  0.17320506101E+04  0.17320506101E+04  0.25500000920E-02 0.  1.
       -2   -1    0    0    0  501  0.00000000000E+00  0.00000000000E+00 -0.20034732567E+04  0.20034732567E+04  0.25500000920E-02 0. -1.
    10030    2    1    2    0    0  0.00000000000E+00  0.00000000000E+00 -0.27142264655E+03  0.37355238668E+04  0.37256500515E+04 0.  0.
        4    1    3    3  502    0 -0.19709308788E+03 -0.17700714469E+04 -0.68315912850E+03  0.19075394151E+04  0.12699999809E+01 0. -1.
       -4    1    3    3    0  502  0.19709308788E+03  0.17700714469E+04  0.41173648195E+03  0.18279844517E+04  0.12699999809E+01 0.  1.
</event>
<event>
 5   0  0.4824268E-07  0.3698325E+04  0.7818609E-02  0.8068333E-01
       -2   -1    0    0    0  501  0.00000000000E+00  0.00000000000E+00  0.19274882622E+04  0.19274882622E+04  0.25500000920E-02 0. -1.
        2   -1    0    0  501    0  0.00000000000E+00  0.00000000000E+00 -0.17740197064E+04  0.17740197064E+04  0.25500000920E-02 0.  1.
    10030    2    1    2    0    0  0.00000000000E+00  0.00000000000E+00  0.15346855582E+03  0.37015079686E+04  0.36983251133E+04 0.  0.
        1    1    3    3  502    0  0.95873883708E+03  0.15510568234E+04 -0.23084882632E+03  0.18380012535E+04  0.50400001928E-02 0.  1.
       -1    1    3    3    0  502 -0.95873883708E+03 -0.15510568234E+04  0.38431738213E+03  0.18635067151E+04  0.50400001928E-02 0. -1.
</event>
<event>
 5   0  0.4793557E-07  0.3758589E+04  0.7818609E-02  0.8055100E-01
        2   -1    0    0  501    0  0.00000000000E+00  0.00000000000E+00  0.23527210128E+04  0.23527210128E+04  0.25500000920E-02 0. -1.
       -2   -1    0    0    0  501  0.00000000000E+00  0.00000000000E+00 -0.15011329974E+04  0.15011329974E+04  0.25500000920E-02 0.  1.
    10030    2    1    2    0    0  0.00000000000E+00  0.00000000000E+00  0.85158801539E+03  0.38538540102E+04  0.37585886426E+04 0.  0.
        3    1    3    3  502    0 -0.80556435978E+03  0.85508024068E+03  0.19298235771E+04  0.22592731585E+04  0.10100000352E+00 0. -1.
       -3    1    3    3    0  502  0.80556435978E+03 -0.85508024068E+03 -0.10782355617E+04  0.15945808517E+04  0.10100000352E+00 0.  1.
</event>
<event>
 5   0  0.1496287E-07  0.3676132E+04  0.7818609E-02  0.8073272E-01
       -1   -1    0    0    0  501  0.00000000000E+00  0.00000000000E+00  0.16971472377E+04  0.16971472377E+04  0.50400001928E-02 0. -1.
        1   -1    0    0  501    0  0.00000000000E+00  0.00000000000E+00 -0.19906860535E+04  0.19906860536E+04  0.50400001928E-02 0.  1.
    10030    2    1    2    0    0  0.00000000000E+00  0.00000000000E+00 -0.29353881586E+03  0.36878332912E+04  0.36761323898E+04 0.  0.
        1    1    3    3  502    0  0.84727256628E+03  0.14480065171E+04  0.60654928400E+03  0.17839550749E+04  0.50400001928E-02 0. -1.
       -1    1    3    3    0  502 -0.84727256628E+03 -0.14480065171E+04 -0.90008809986E+03  0.19038782164E+04  0.50400001928E-02 0.  1.
</event>
<event>
 5   0  0.4758908E-07  0.3708868E+04  0.7818609E-02  0.8065999E-01
       -2   -1    0    0    0  501  0.00000000000E+00  0.00000000000E+00  0.34533003049E+04  0.34533003049E+04  0.25500000920E-02 0. -1.
        2   -1    0    0  501    0  0.00000000000E+00  0.00000000000E+00 -0.99583757397E+03  0.99583757397E+03  0.25500000920E-02 0.  1.
    10030    2    1    2    0    0  0.00000000000E+00  0.00000000000E+00  0.24574627310E+04  0.44491378789E+04  0.37088683977E+04 0.  0.
        2    1    3    3  502    0 -0.77410191134E+03  0.31808428475E+03  0.32138752436E+04  0.33210548719E+04  0.25500000920E-02 0. -1.
       -2    1    3    3    0  502  0.77410191134E+03 -0.31808428475E+03 -0.75641251260E+03  0.11280830069E+04  0.25500000920E-02 0.  1.
</event>
<event>
 5   0  0.1522273E-07  0.3754128E+04  0.7818609E-02  0.8056071E-01
        1   -1    0    0  501    0  0.00000000000E+00  0.00000000000E+00  0.19109503476E+04  0.19109503476E+04  0.50400001928E-02 0. -1.
       -1   -1    0    0    0  501  0.00000000000E+00  0.00000000000E+00 -0.18437788093E+04  0.18437788093E+04  0.50400001928E-02 0.  1.
    10030    2    1    2    0    0  0.00000000000E+00  0.00000000000E+00  0.67171538296E+02  0.37547291570E+04  0.37541282646E+04 0.  0.
        4    1    3    3  502    0 -0.18344532311E+04  0.31296901625E+03  0.27898168309E+03  0.18817546744E+04  0.12699999809E+01 0.  1.
       -4    1    3    3    0  502  0.18344532311E+04 -0.31296901625E+03 -0.21181014480E+03  0.18729744826E+04  0.12699999809E+01 0. -1.
</event>
<event>
 5   0  0.4687817E-07  0.3697197E+04  0.7818609E-02  0.8068583E-01
        2   -1    0    0  501    0  0.00000000000E+00  0.00000000000E+00  0.14532955515E+04  0.14532955515E+04  0.25500000920E-02 0. -1.
       -2   -1    0    0    0  501  0.00000000000E+00  0.00000000000E+00 -0.23514262104E+04  0.23514262104E+04  0.25500000920E-02 0.  1.
    10030    2    1    2    0    0  0.00000000000E+00  0.00000000000E+00 -0.89813065884E+03  0.38047217619E+04  0.36971974528E+04 0.  0.
        4    1    3    3  502    0 -0.17794920023E+03 -0.15185981316E+04 -0.15182764782E+04  0.21547555036E+04  0.12699999809E+01 0.  1.
       -4    1    3    3    0  502  0.17794920023E+03  0.15185981316E+04  0.62014581934E+03  0.16499662583E+04  0.12699999809E+01 0. -1.
</event>
<event>
 5   0  0.4687817E-07  0.3714834E+04  0.7818609E-02  0.8064682E-01
       -2   -1    0    0    0  501  0.00000000000E+00  0.00000000000E+00  0.21165239181E+04  0.21165239181E+04  0.25500000920E-02 0. -1.
        2   -1    0    0  501    0  0.00000000000E+00  0.00000000000E+00 -0.16300302666E+04  0.16300302666E+04  0.25500000920E-02 0.  1.
    10030    2    1    2    0    0  0.00000000000E+00  0.00000000000E+00  0.48649365147E+03  0.37465541847E+04  0.37148340725E+04 0.  0.
        4    1    3    3  502    0  0.25445761108E+03  0.16619419334E+02  0.20987859219E+04  0.21142206223E+04  0.12699999809E+01 0. -1.
       -4    1    3    3    0  502 -0.25445761108E+03 -0.16619419334E+02 -0.16122922704E+04  0.16323335624E+04  0.12699999809E+01 0.  1.
</event>
<event>
 5   0  0.1496287E-07  0.3656977E+04  0.7818609E-02  0.8077564E-01
        1   -1    0    0  501    0  0.00000000000E+00  0.00000000000E+00  0.29504083880E+04  0.29504083880E+04  0.50400001928E-02 0.  1.
       -1   -1    0    0    0  501  0.00000000000E+00  0.00000000000E+00 -0.11331892289E+04  0.11331892289E+04  0.50400001928E-02 0. -1.
    10030    2    1    2    0    0  0.00000000000E+00  0.00000000000E+00  0.18172191591E+04  0.40835976170E+04  0.36569774439E+04 0.  0.
        1    1    3    3  502    0 -0.51768865314E+03  0.38645427691E+03 -0.10015053319E+04  0.11917891506E+04  0.50400001928E-02 0. -1.
       -1    1    3    3    0  502  0.51768865314E+03 -0.38645427691E+03  0.28187244910E+04  0.28918084663E+04  0.50400001928E-02 0.  1.
</event>
<event>
 5   0  0.1496000E-07  0.3673199E+04  0.7818609E-02  0.8073927E-01
        1   -1    0    0  501    0  0.00000000000E+00  0.00000000000E+00  0.25581599344E+04  0.25581599344E+04  0.50400001928E-02 0. -1.
       -1   -1    0    0    0  501  0.00000000000E+00  0.00000000000E+00 -0.13185639896E+04  0.13185639896E+04  0.50400001928E-02 0.  1.
    10030    2    1    2    0    0  0.00000000000E+00  0.00000000000E+00  0.12395959449E+04  0.38767239240E+04  0.36731989160E+04 0.  0.
        5    1    3    3  502    0  0.22589736280E+03 -0.73900232888E+03 -0.11386276803E+04  0.13760992497E+04  0.46999998093E+01 0.  1.
       -5    1    3    3    0  502 -0.22589736280E+03  0.73900232888E+03  0.23782236251E+04  0.25006246743E+04  0.46999998093E+01 0. -1.
</event>
<event>
 5   0  0.4793557E-07  0.3721030E+04  0.7818609E-02  0.8063317E-01
       -2   -1    0    0    0  501  0.00000000000E+00  0.00000000000E+00  0.17328071959E+04  0.17328071959E+04  0.25500000920E-02 0.  1.
        2   -1    0    0  501    0  0.00000000000E+00  0.00000000000E+00 -0.19976346158E+04  0.19976346158E+04  0.25500000920E-02 0. -1.
    10030    2    1    2    0    0  0.00000000000E+00  0.00000000000E+00 -0.26482741999E+03  0.37304418117E+04  0.37210297698E+04 0.  0.
        3    1    3    3  502    0 -0.10426440827E+04  0.48765243098E+03 -0.15978237045E+04  0.19692516796E+04  0.10100000352E+00 0. -1.
       -3    1    3    3    0  502  0.10426440827E+04 -0.48765243098E+03  0.13329962845E+04  0.17611901321E+04  0.10100000352E+00 0.  1.
</event>
<event>
 5   0  0.1496000E-07  0.3692524E+04  0.7818609E-02  0.8069621E-01
        1   -1    0    0  501    0  0.00000000000E+00  0.00000000000E+00  0.19162570005E+04  0.19162570005E+04  0.50400001928E-02 0. -1.
       -1   -1    0    0    0  501  0.00000000000E+00  0.00000000000E+00 -0.17788236616E+04  0.17788236616E+04  0.50400001928E-02 0.  1.
    10030    2    1    2    0    0  0.00000000000E+00  0.00000000000E+00  0.13743333887E+03  0.36950806621E+04  0.36925239575E+04 0.  0.
        5    1    3    3  502    0 -0.19931736020E+03  0.17505114321E+04 -0.48361071235E+03  0.18269972893E+04  0.46999998093E+01 0.  1.
       -5    1    3    3    0  502  0.19931736020E+03 -0.17505114321E+04  0.62104405122E+03  0.18680833728E+04  0.46999998093E+01 0. -1.
</event>
<event>
 5   0  0.1522273E-07  0.3699658E+04  0.7818609E-02  0.8068038E-01
       -1   -1    0    0    0  501  0.00000000000E+00  0.00000000000E+00  0.20047135585E+04  0.20047135585E+04  0.50400001928E-02 0. -1.
        1   -1    0    0  501    0  0.00000000000E+00  0.00000000000E+00 -0.17069112418E+04  0.17069112418E+04  0.50400001928E-02 0.  1.
    10030    2    1    2    0    0  0.00000000000E+00  0.00000000000E+00  0.29780231675E+03  0.37116248003E+04  0.36996584218E+04 0.  0.
        4    1    3    3  502    0 -0.11516804936E+04 -0.41998230061E+03  0.15387026022E+04  0.19673231568E+04  0.12699999809E+01 0. -1.
       -4    1    3    3    0  502  0.11516804936E+04  0.41998230061E+03 -0.12409002855E+04  0.17443016435E+04  0.12699999809E+01 0.  1.
</event>
<event>
 5   0  0.4687817E-07  0.3715072E+04  0.7818609E-02  0.8064630E-01
       -2   -1    0    0    0  501  0.00000000000E+00  0.00000000000E+00  0.17500417760E+04  0.17500417760E+04  0.25500000920E-02 0. -1.
        2   -1    0    0  501    0  0.00000000000E+00  0.00000000000E+00 -0.19716327081E+04  0.19716327081E+04  0.25500000920E-02 0.  1.
    10030    2    1    2    0    0  0.00000000000E+00  0.00000000000E+00 -0.22159093210E+03  0.37216744840E+04  0.37150717925E+04 0.  0.
        4    1    3    3  502    0  0.17225918620E+04 -0.31047504666E+02  0.58480979066E+03  0.18194204502E+04  0.12699999809E+01 0.  1.
       -4    1    3    3    0  502 -0.17225918620E+04  0.31047504666E+02 -0.80640072276E+03  0.19022540338E+04  0.12699999809E+01 0. -1.
</event>
<event>
 5   0  0.4824268E-07  0.3694271E+04  0.7818609E-02  0.8069233E-01
       -2   -1    0    0    0  501  0.00000000000E+00  0.00000000000E+00  0.13355112972E+04  0.13355112972E+04  0.25500000920E-02 0.  1.
        2   -1    0    0  501    0  0.00000000000E+00  0.00000000000E+00 -0.25547588315E+04  0.25547588315E+04  0.25500000920E-02 0. -1.
    10030    2    1    2    0    0  0.00000000000E+00  0.00000000000E+00 -0.12192475343E+04  0.38902701288E+04  0.36942708516E+04 0.  0.
        1    1    3    3  502    0 -0.11326185015E+04 -0.85987727732E+03 -0.18510213025E+04  0.23342008192E+04  0.50400001928E-02 0. -1.
       -1    1    3    3    0  502  0.11326185015E+04  0.85987727732E+03  0.63177376817E+03  0.15560693096E+04  0.50400001928E-02 0.  1.
</event>
<event>
 5   0  0.1496000E-07  0.3674322E+04  0.7818609E-02  0.8073676E-01
       -1   -1    0    0    0  501  0.00000000000E+00  0.00000000000E+00  0.34750416846E+04  0.34750416846E+04  0.50400001928E-02 0. -1.
        1   -1    0    0  501    0  0.00000000000E+00  0.00000000000E+00 -0.97125730798E+03  0.97125730799E+03  0.50400001928E-02 0.  1.
    10030    2    1    2    0    0  0.00000000000E+00  0.00000000000E+00  0.25037843766E+04  0.44462989925E+04  0.36743215056E+04 0.  0.
        2    1    3    3  502    0 -0.42667452009E+03  0.17178735805E+04  0.65657817907E+03  0.18879183483E+04  0.25500000920E-02 0.  1.
       -2    1    3    3    0  502  0.42667452009E+03 -0.17178735805E+04  0.18472061975E+04  0.25583806442E+04  0.25500000920E-02 0. -1.
</event>
<event>
 5   0  0.4758908E-07  0.3712928E+04  0.7818609E-02  0.8065103E-01
        2   -1    0    0  501    0  0.00000000000E+00  0.00000000000E+00  0.12381385255E+04  0.12381385255E+04  0.25500000920E-02 0.  1.
       -2   -1    0    0    0  501  0.00000000000E+00  0.00000000000E+00 -0.27835812881E+04  0.27835812881E+04  0.25500000920E-02 0. -1.
    10030    2    1    2    0    0  0.00000000000E+00  0.00000000000E+00 -0.15454427626E+04  0.40217198137E+04  0.37129283493E+04 0.  0.
        2    1    3    3  502    0  0.13378623430E+04  0.16065078223E+03  0.61050178118E+03  0.14793230707E+04  0.25500000920E-02 0.  1.
       -2    1    3    3    0  502 -0.13378623430E+04 -0.16065078223E+03 -0.21559445438E+04  0.25423967429E+04  0.25500000920E-02 0. -1.
</event>
<event>
 5   0  0.4824268E-07  0.3670235E+04  0.7818609E-02  0.8074590E-01
       -2   -1    0    0    0  501  0.00000000000E+00  0.00000000000E+00  0.11251913803E+04  0.11251913803E+04  0.25500000920E-02 0. -1.
        2   -1    0    0  501    0  0.00000000000E+00  0.00000000000E+00 -0.29929638098E+04  0.29929638098E+04  0.25500000920E-02 0.  1.
    10030    2    1    2    0    0  0.00000000000E+00  0.00000000000E+00 -0.18677724295E+04  0.41181551900E+04  0.36702354585E+04 0.  0.
        1    1    3    3  502    0  0.99378374465E+03  0.11012748783E+04  0.27835687509E+03  0.15092697037E+04  0.50400001928E-02 0. -1.
       -1    1    3    3    0  502 -0.99378374465E+03 -0.11012748783E+04 -0.21461293046E+04  0.26088854863E+04  0.50400001928E-02 0.  1.
</event>
<event>
 5   0  0.4793557E-07  0.3654049E+04  0.7818609E-02  0.8078222E-01
       -2   -1    0    0    0  501  0.00000000000E+00  0.00000000000E+00  0.19043293625E+04  0.19043293625E+04  0.25500000920E-02 0. -1.
        2   -1    0    0  501    0  0.00000000000E+00  0.00000000000E+00 -0.17528581806E+04  0.17528581806E+04  0.25500000920E-02 0.  1.
    10030    2    1    2    0    0  0.00000000000E+00  0.00000000000E+00  0.15147118185E+03  0.36571875431E+04  0.36540494258E+04 0.  0.
        3    1    3    3  502    0 -0.37000458797E+03  0.15213502960E+03  0.18599529795E+04  0.19024914083E+04  0.10100000352E+00 0. -1.
       -3    1    3    3    0  502  0.37000458797E+03 -0.15213502960E+03 -0.17084817977E+04  0.17546961348E+04  0.10100000352E+00 0.  1.
</event>
<event>
 5   0  0.4758908E-07  0.3713093E+04  0.7818609E-02  0.8065066E-01
       -2   -1    0    0    0  501  0.00000000000E+00  0.00000000000E+00  0.29263307901E+04  0.29263307901E+04  0.25500000920E-02 0.  1.
        2   -1    0    0  501    0  0.00000000000E+00  0.00000000000E+00 -0.11778452058E+04  0.11778452058E+04  0.25500000920E-02 0. -1.
    10030    2    1    2    0    0  0.00000000000E+00  0.00000000000E+00  0.17484855843E+04  0.41041759959E+04  0.37130928842E+04 0.  0.
        2    1    3    3  502    0 -0.10126370464E+04  0.10618714405E+04  0.21314793870E+04  0.25877034453E+04  0.25500000920E-02 0.  1.
       -2    1    3    3    0  502  0.10126370464E+04 -0.10618714405E+04 -0.38299380262E+03  0.15164725506E+04  0.25500000920E-02 0. -1.
</event>
<event>
 5   0  0.1496000E-07  0.3680355E+04  0.7818609E-02  0.8072329E-01
        1   -1    0    0  501    0  0.00000000000E+00  0.00000000000E+00  0.92183898165E+03  0.92183898166E+03  0.50400001928E-02 0.  1.
       -1   -1    0    0    0  501  0.00000000000E+00  0.00000000000E+00 -0.36733681744E+04  0.36733681744E+04  0.50400001928E-02 0. -1.
    10030    2    1    2    0    0  0.00000000000E+00  0.00000000000E+00 -0.27515291927E+04  0.45952071561E+04  0.36803554052E+04 0.  0.
        5    1    3    3  502    0 -0.16857223482E+04 -0.65033540391E+03 -0.18112225693E+04  0.25583481504E+04  0.46999998093E+01 0. -1.
       -5    1    3    3    0  502  0.16857223482E+04  0.65033540391E+03 -0.94030662345E+03  0.20368590057E+04  0.46999998093E+01 0.  1.
</event>
<event>
 5   0  0.4687817E-07  0.3687753E+04  0.7818609E-02  0.8070681E-01
        2   -1    0    0  501    0  0.00000000000E+00  0.00000000000E+00  0.35609010409E+04  0.35609010409E+04  0.25500000920E-02 0. -1.
       -2   -1    0    0    0  501  0.00000000000E+00  0.00000000000E+00 -0.95478110469E+03  0.95478110470E+03  0.25500000920E-02 0.  1.
    10030    2    1    2    0    0  0.00000000000E+00  0.00000000000E+00  0.26061199362E+04  0.45156821456E+04  0.36877532616E+04 0.  0.
        4    1    3    3  502    0 -0.24915339338E+03  0.14473828054E+04  0.26681993185E+04  0.30456991997E+04  0.12699999809E+01 0. -1.
       -4    1    3    3    0  502  0.24915339338E+03 -0.14473828054E+04 -0.62079382315E+02  0.14699829459E+04  0.12699999809E+01 0.  1.
</event>
<event>
 5   0  0.1496000E-07  0.3721455E+04  0.7818609E-02  0.8063224E-01
       -1   -1    0    0    0  501  0.00000000000E+00  0.00000000000E+00  0.22655752548E+04  0.22655752548E+04  0.50400001928E-02 0.  1.
        1   -1    0    0  501    0  0.00000000000E+00  0.00000000000E+00 -0.15282240475E+04  0.15282240476E+04  0.50400001928E-02 0. -1.
    10030    2    1    2    0    0  0.00000000000E+00  0.00000000000E+00  0.73735120726E+03  0.37937993024E+04  0.37214548692E+04 0.  0.
        3    1    3    3  502    0 -0.18026209995E+04 -0.11893438034E+03 -0.85769038389E+02  0.18085751831E+04  0.10100000352E+00 0. -1.
       -3    1    3    3    0  502  0.18026209995E+04  0.11893438034E+03  0.82312024565E+03  0.19852241193E+04  0.10100000352E+00 0.  1.
</event>
<event>
 5   0  0.1496000E-07  0.3714726E+04  0.7818609E-02  0.8064706E-01
        1   -1    0    0  501    0  0.00000000000E+00  0.00000000000E+00  0.24159230867E+04  0.24159230867E+04  0.50400001928E-02 0.  1.
       -1   -1    0    0    0  501  0.00000000000E+00  0.00000000000E+00 -0.14279419679E+04  0.14279419679E+04  0.50400001928E-02 0. -1.
    10030    2    1    2    0    0  0.00000000000E+00  0.00000000000E+00  0.98798111879E+03  0.38438650546E+04  0.37147263516E+04 0.  0.
        3    1    3    3  502    0  0.43515806156E+03 -0.17936247706E+04  0.70942434697E+03  0.19773050525E+04  0.10100000352E+00 0. -1.
       -3    1    3    3    0  502 -0.43515806156E+03  0.17936247706E+04  0.27855677183E+03  0.18665600021E+04  0.10100000352E+00 0.  1.
</event>
<event>
 5   0  0.4793557E-07  0.3782878E+04  0.7818609E-02  0.8049839E-01
        2   -1    0    0  501    0  0.00000000000E+00  0.00000000000E+00  0.20428634613E+04  0.20428634613E+04  0.25500000920E-02 0.  1.
       -2   -1    0    0    0  501  0.00000000000E+00  0.00000000000E+00 -0.17512383144E+04  0.17512383144E+04  0.25500000920E-02 0. -1.
    10030    2    1    2    0    0  0.00000000000E+00  0.00000000000E+00  0.29162514688E+03  0.37941017757E+04  0.37828776161E+04 0.  0.
        3    1    3    3  502    0 -0.92103246922E+03 -0.14648936615E+04  0.91183686283E+03  0.19559296315E+04  0.10100000352E+00 0.  1.
       -3    1    3    3    0  502  0.92103246922E+03  0.14648936615E+04 -0.62021171595E+03  0.18381721442E+04  0.10100000352E+00 0. -1.
</event>
<event>
 5   0  0.1496000E-07  0.3706266E+04  0.7818609E-02  0.8066575E-01
       -1   -1    0    0    0  501  0.00000000000E+00  0.00000000000E+00  0.20281364975E+04  0.20281364975E+04  0.50400001928E-02 0. -1.
        1   -1    0    0  501    0  0.00000000000E+00  0.00000000000E+00 -0.16932298891E+04  0.16932298891E+04  0.50400001928E-02 0.  1.
    10030    2    1    2    0    0  0.00000000000E+00  0.00000000000E+00  0.33490660843E+03  0.37213663866E+04  0.37062656876E+04 0.  0.
        3    1    3    3  502    0 -0.91766553656E+03  0.16710601337E+03  0.17752478653E+04  0.20053776328E+04  0.10100000352E+00 0. -1.
       -3    1    3    3    0  502  0.91766553656E+03 -0.16710601337E+03 -0.14403412569E+04  0.17159887538E+04  0.10100000352E+00 0.  1.
</event>
<event>
 5   0  0.1522273E-07  0.3679561E+04  0.7818609E-02  0.8072507E-01
       -1   -1    0    0    0  501  0.00000000000E+00  0.00000000000E+00  0.18728349952E+04  0.18728349952E+04  0.50400001928E-02 0.  1.
        1   -1    0    0  501    0  0.00000000000E+00  0.00000000000E+00 -0.18073092956E+04  0.18073092956E+04  0.50400001928E-02 0. -1.
    10030    2    1    2    0    0  0.00000000000E+00  0.00000000000E+00  0.65525699579E+02  0.36801442908E+04  0.36795608955E+04 0.  0.
        4    1    3    3  502    0 -0.30232213309E+03  0.11747640091E+04  0.14162107516E+04  0.18647047099E+04  0.12699999809E+01 0.  1.
       -4    1    3    3    0  502  0.30232213309E+03 -0.11747640091E+04 -0.13506850521E+04  0.18154395809E+04  0.12699999809E+01 0. -1.
</event>
<event>
 5   0  0.1496000E-07  0.3690959E+04  0.7818609E-02  0.8069968E-01
        1   -1    0    0  501    0  0.00000000000E+00  0.00000000000E+00  0.30601985016E+04  0.30601985016E+04  0.50400001928E-02 0. -1.
       -1   -1    0    0    0  501  0.00000000000E+00  0.00000000000E+00 -0.11129324237E+04  0.11129324237E+04  0.50400001928E-02 0.  1.
    10030    2    1    2    0    0  0.00000000000E+00  0.00000000000E+00  0.19472660779E+04  0.41731309253E+04  0.36909587564E+04 0.  0.
        5    1    3    3  502    0  0.57281224331E+03 -0.12701664837E+04 -0.39454646849E+03  0.14481456309E+04  0.46999998093E+01 0.  1.
       -5    1    3    3    0  502 -0.57281224331E+03  0.12701664837E+04  0.23418125464E+04  0.27249852944E+04  0.46999998093E+01 0. -1.
</event>
<event>
 5   0  0.1522273E-07  0.3666273E+04  0.7818609E-02  0.8075477E-01
        1   -1    0    0  501    0  0.00000000000E+00  0.00000000000E+00  0.22451775828E+04  0.22451775828E+04  0.50400001928E-02 0.  1.
       -1   -1    0    0    0  501  0.00000000000E+00  0.00000000000E+00 -0.14967144138E+04  0.14967144138E+04  0.50400001928E-02 0. -1.
    10030    2    1    2    0    0  0.00000000000E+00  0.00000000000E+00  0.74846316899E+03  0.37418919966E+04  0.36662731211E+04 0.  0.
        4    1    3    3  502    0  0.14450092943E+04  0.10265926058E+04  0.85125126001E+03  0.19663607399E+04  0.12699999809E+01 0.  1.
       -4    1    3    3    0  502 -0.14450092943E+04 -0.10265926058E+04 -0.10278809102E+03  0.17755312567E+04  0.12699999809E+01 0. -1.
</event>
<event>
 5   0  0.4793557E-07  0.3763563E+04  0.7818609E-02  0.8054020E-01
        2   -1    0    0  501    0  0.00000000000E+00  0.00000000000E+00  0.14062381572E+04  0.14062381572E+04  0.25500000920E-02 0. -1.
       -2   -1    0    0    0  501  0.00000000000E+00  0.00000000000E+00 -0.25181377513E+04  0.25181377513E+04  0.25500000920E-02 0.  1.
    10030    2    1    2    0    0  0.00000000000E+00  0.00000000000E+00 -0.11118995941E+04  0.39243759085E+04  0.37635628816E+04 0.  0.
        3    1    3    3  502    0  0.15917327218E+04 -0.54769831113E+03  0.32113021590E+03  0.17136834957E+04  0.10100000352E+00 0. -1.
       -3    1    3    3    0  502 -0.15917327218E+04  0.54769831113E+03 -0.14330298100E+04  0.22106924128E+04  0.10100000352E+00 0.  1.
</event>
<event>
 5   0  0.1496287E-07  0.3635863E+04  0.7818609E-02  0.8082326E-01
        1   -1    0    0  501    0  0.00000000000E+00  0.00000000000E+00  0.18602047133E+04  0.18602047134E+04  0.50400001928E-02 0. -1.
       -1   -1    0    0    0  501  0.00000000000E+00  0.00000000000E+00 -0.17766186942E+04  0.17766186942E+04  0.50400001928E-02 0.  1.
    10030    2    1    2    0    0  0.00000000000E+00  0.00000000000E+00  0.83586019183E+02  0.36368234075E+04  0.36358627415E+04 0.  0.
        1    1    3    3  502    0  0.16845675610E+04 -0.59518149393E+03 -0.29425050103E+03  0.18106883320E+04  0.50400001928E-02 0.  1.
       -1    1    3    3    0  502 -0.16845675610E+04  0.59518149393E+03  0.37783652021E+03  0.18261350756E+04  0.50400001928E-02 0. -1.
</event>
<event>
 5   0  0.4793557E-07  0.3692523E+04  0.7818609E-02  0.8069621E-01
       -2   -1    0    0    0  501  0.00000000000E+00  0.00000000000E+00  0.12759929383E+04  0.12759929383E+04  0.25500000920E-02 0. -1.
        2   -1    0    0  501    0  0.00000000000E+00  0.00000000000E+00 -0.26713950932E+04  0.26713950932E+04  0.25500000920E-02 0.  1.
    10030    2    1    2    0    0  0.00000000000E+00  0.00000000000E+00 -0.13954021550E+04  0.39473880315E+04  0.36925228635E+04 0.  0.
        3    1    3    3  502    0 -0.60851411639E+03  0.15626286125E+04 -0.15234011101E+04  0.22655790789E+04  0.10100000352E+00 0.  1.
       -3    1    3    3    0  502  0.60851411639E+03 -0.15626286125E+04  0.12799895509E+03  0.16818089526E+04  0.10100000352E+00 0. -1.
</event>
<event>
 5   0  0.4687817E-07  0.3713784E+04  0.7818609E-02  0.8064914E-01
        2   -1    0    0  501    0  0.00000000000E+00  0.00000000000E+00  0.23034356599E+04  0.23034356599E+04  0.25500000920E-02 0.  1.
       -2   -1    0    0    0  501  0.00000000000E+00  0.00000000000E+00 -0.14969150763E+04  0.14969150763E+04  0.25500000920E-02 0. -1.
    10030    2    1    2    0    0  0.00000000000E+00  0.00000000000E+00  0.80652058360E+03  0.38003507361E+04  0.37137838205E+04 0.  0.
        4    1    3    3  502    0  0.38796483949E+03 -0.12832243149E+04 -0.91154906665E+03  0.16211430143E+04  0.12699999809E+01 0. -1.
       -4    1    3    3    0  502 -0.38796483949E+03  0.12832243149E+04  0.17180696502E+04  0.21792077218E+04  0.12699999809E+01 0.  1.
</event>
<event>
 5   0  0.1496287E-07  0.3711032E+04  0.7818609E-02  0.8065521E-01
        1   -1    0    0  501    0  0.00000000000E+00  0.00000000000E+00  0.15490037011E+04  0.15490037011E+04  0.50400001928E-02 0.  1.
       -1   -1    0    0    0  501  0.00000000000E+00  0.00000000000E+00 -0.22226796391E+04  0.22226796391E+04  0.50400001928E-02 0. -1.
    10030    2    1    2    0    0  0.00000000000E+00  0.00000000000E+00 -0.67367593798E+03  0.37716833402E+04  0.37110316556E+04 0.  0.
        1    1    3    3  502    0  0.39387851652E+03 -0.15188412236E+04 -0.13434389930E+04  0.20656348361E+04  0.50400001928E-02 0.  1.
       -1    1    3    3    0  502 -0.39387851652E+03  0.15188412236E+04  0.66976305504E+03  0.17060485040E+04  0.50400001928E-02 0. -1.
</event>
<event>
 5   0  0.1496287E-07  0.3648758E+04  0.7818609E-02  0.8079414E-01
       -1   -1    0    0    0  501  0.00000000000E+00  0.00000000000E+00  0.18583959266E+04  0.18583959266E+04  0.50400001928E-02 0. -1.
        1   -1    0    0  501    0  0.00000000000E+00  0.00000000000E+00 -0.17909846704E+04  0.17909846704E+04  0.50400001928E-02 0.  1.
    10030    2    1    2    0    0  0.00000000000E+00  0.00000000000E+00  0.67411256216E+02  0.36493805971E+04  0.36487579345E+04 0.  0.
        1    1    3    3  502    0 -0.17060672907E+04 -0.33939344771E+03  0.58380412629E+03  0.18348517026E+04  0.50400001928E-02 0.  1.
       -1    1    3    3    0  502  0.17060672907E+04  0.33939344771E+03 -0.51639287007E+03  0.18145288945E+04  0.50400001928E-02 0. -1.
</event>
<event>
 5   0  0.4758908E-07  0.3737689E+04  0.7818609E-02  0.8059661E-01
        2   -1    0    0  501    0  0.00000000000E+00  0.00000000000E+00  0.14756187581E+04  0.14756187581E+04  0.25500000920E-02 0. -1.
       -2   -1    0    0    0  501  0.00000000000E+00  0.00000000000E+00 -0.23668571732E+04  0.23668571732E+04  0.25500000920E-02 0.  1.
    10030    2    1    2    0    0  0.00000000000E+00  0.00000000000E+00 -0.89123841507E+03  0.38424759313E+04  0.37376885063E+04 0.  0.
        2    1    3    3  502    0  0.28630581194E+03  0.41521985411E+03  0.14043304277E+04  0.14921536433E+04  0.25500000920E-02 0. -1.
       -2    1    3    3    0  502 -0.28630581194E+03 -0.41521985411E+03 -0.22955688428E+04  0.23503222879E+04  0.25500000920E-02 0.  1.
</event>
<event>
 5   0  0.4793557E-07  0.3589428E+04  0.7818609E-02  0.8092918E-01
       -2   -1    0    0    0  501  0.00000000000E+00  0.00000000000E+00  0.13316673445E+04  0.13316673445E+04  0.25500000920E-02 0.  1.
        2   -1    0    0  501    0  0.00000000000E+00  0.00000000000E+00 -0.24187715313E+04  0.24187715313E+04  0.25500000920E-02 0. -1.
    10030    2    1    2    0    0  0.00000000000E+00  0.00000000000E+00 -0.10871041868E+04  0.37504388759E+04  0.35894284014E+04 0.  0.
        3    1    3    3  502    0 -0.54960265226E+03  0.11564489328E+04  0.77046158511E+03  0.14943387414E+04  0.10100000352E+00 0.  1.
       -3    1    3    3    0  502  0.54960265226E+03 -0.11564489328E+04 -0.18575657719E+04  0.22561001345E+04  0.10100000352E+00 0. -1.
</event>
<event>
 5   0  0.1522273E-07  0.3686911E+04  0.7818609E-02  0.8070869E-01
       -1   -1    0    0    0  501  0.00000000000E+00  0.00000000000E+00  0.23822178044E+04  0.23822178044E+04  0.50400001928E-02 0.  1.
        1   -1    0    0  501    0  0.00000000000E+00  0.00000000000E+00 -0.14265399657E+04  0.14265399657E+04  0.50400001928E-02 0. -1.
    10030    2    1    2    0    0  0.00000000000E+00  0.00000000000E+00  0.95567783869E+03  0.38087577701E+04  0.36869113930E+04 0.  0.
        4    1    3    3  502    0  0.18145260255E+04  0.67336028738E+02  0.80661531046E+03  0.19868741052E+04  0.12699999809E+01 0. -1.
       -4    1    3    3    0  502 -0.18145260255E+04 -0.67336028738E+02  0.14906252823E+03  0.18218836649E+04  0.12699999809E+01 0.  1.
</event>
<event>
 5   0  0.1496000E-07  0.3721394E+04  0.7818609E-02  0.8063237E-01
       -1   -1    0    0    0  501  0.00000000000E+00  0.00000000000E+00  0.16431171914E+04  0.16431171914E+04  0.50400001928E-02 0. -1.
        1   -1    0    0  501    0  0.00000000000E+00  0.00000000000E+00 -0.21070886074E+04  0.21070886074E+04  0.50400001928E-02 0.  1.
    10030    2    1    2    0    0  0.00000000000E+00  0.00000000000E+00 -0.46397141604E+03  0.37502057988E+04  0.37213941015E+04 0.  0.
        2    1    3    3  502    0  0.12270814143E+03 -0.13250582784E+04  0.10786048992E+04  0.17129580432E+04  0.25500000920E-02 0. -1.
       -2    1    3    3    0  502 -0.12270814143E+03  0.13250582784E+04 -0.15425763153E+04  0.20372477556E+04  0.25500000920E-02 0.  1.
</event>
<event>
 5   0  0.1496287E-07  0.3722084E+04  0.7818609E-02  0.8063085E-01
       -1   -1    0    0    0  501  0.00000000000E+00  0.00000000000E+00  0.16236117484E+04  0.16236117485E+04  0.50400001928E-02 0. -1.
        1   -1    0    0  501    0  0.00000000000E+00  0.00000000000E+00 -0.21331934680E+04  0.21331934680E+04  0.50400001928E-02 0.  1.
    10030    2    1    2    0    0  0.00000000000E+00  0.00000000000E+00 -0.50958171956E+03  0.37568052165E+04  0.37220843496E+04 0.  0.
        1    1    3    3  502    0  0.74886785984E+02  0.61140231808E+03  0.15177394740E+04  0.16379725078E+04  0.50400001928E-02 0. -1.
       -1    1    3    3    0  502 -0.74886785984E+02 -0.61140231808E+03 -0.20273211936E+04  0.21188327087E+04  0.50400001928E-02 0.  1.
</event>
<event>
 5   0  0.4758908E-07  0.3745592E+04  0.7818609E-02  0.8057932E-01
        2   -1    0    0  501    0  0.00000000000E+00  0.00000000000E+00  0.18622568654E+04  0.18622568654E+04  0.25500000920E-02 0. -1.
       -2   -1    0    0    0  501  0.00000000000E+00  0.00000000000E+00 -0.18833949435E+04  0.18833949435E+04  0.25500000920E-02 0.  1.
    10030    2    1    2    0    0  0.00000000000E+00  0.00000000000E+00 -0.21138078087E+02  0.37456518089E+04  0.37455921635E+04 0.  0.
        2    1    3    3  502    0  0.16918992507E+04  0.69675370681E+03 -0.40979508678E+03  0.18750788825E+04  0.25500000920E-02 0.  1.
       -2    1    3    3    0  502 -0.16918992507E+04 -0.69675370681E+03  0.38865700869E+03  0.18705729264E+04  0.25500000920E-02 0. -1.
</event>
<event>
 5   0  0.1496000E-07  0.3729848E+04  0.7818609E-02  0.8061379E-01
        1   -1    0    0  501    0  0.00000000000E+00  0.00000000000E+00  0.23773070520E+04  0.23773070520E+04  0.50400001928E-02 0.  1.
       -1   -1    0    0    0  501  0.00000000000E+00  0.00000000000E+00 -0.14629755902E+04  0.14629755902E+04  0.50400001928E-02 0. -1.
    10030    2    1    2    0    0  0.00000000000E+00  0.00000000000E+00  0.91433146176E+03  0.38402826422E+04  0.37298483549E+04 0.  0.
        5    1    3    3  502    0 -0.21698033613E+03 -0.58264571635E+03 -0.13531197109E+04  0.14891311356E+04  0.46999998093E+01 0. -1.
       -5    1    3    3    0  502  0.21698033613E+03  0.58264571635E+03  0.22674511726E+04  0.23511515067E+04  0.46999998093E+01 0.  1.
</event>
<event>
 5   0  0.1496000E-07  0.3712885E+04  0.7818609E-02  0.8065112E-01
       -1   -1    0    0    0  501  0.00000000000E+00  0.00000000000E+00  0.27483968703E+04  0.27483968703E+04  0.50400001928E-02 0.  1.
        1   -1    0    0  501    0  0.00000000000E+00  0.00000000000E+00 -0.12539599450E+04  0.12539599450E+04  0.50400001928E-02 0. -1.
    10030    2    1    2    0    0  0.00000000000E+00  0.00000000000E+00  0.14944369253E+04  0.40023568153E+04  0.37128854484E+04 0.  0.
        3    1    3    3  502    0  0.12267657263E+04 -0.15231674553E+03 -0.74576168009E+03  0.14437157033E+04  0.10100000352E+00 0. -1.
       -3    1    3    3    0  502 -0.12267657263E+04  0.15231674553E+03  0.22401986054E+04  0.25586411120E+04  0.10100000352E+00 0.  1.
</event>
<event>
 5   0  0.4793557E-07  0.3701529E+04  0.7818609E-02  0.8067623E-01
        2   -1    0    0  501    0  0.00000000000E+00  0.00000000000E+00  0.25459997451E+04  0.25459997451E+04  0.25500000920E-02 0.  1.
       -2   -1    0    0    0  501  0.00000000000E+00  0.00000000000E+00 -0.13453765771E+04  0.13453765771E+04  0.25500000920E-02 0. -1.
    10030    2    1    2    0    0  0.00000000000E+00  0.00000000000E+00  0.12006231681E+04  0.38913763222E+04  0.37015285612E+04 0.  0.
        3    1    3    3  502    0 -0.16167743796E+04 -0.32884776751E+03  0.14819088912E+04  0.22176911915E+04  0.10100000352E+00 0. -1.
       -3    1    3    3    0  502  0.16167743796E+04  0.32884776751E+03 -0.28128572313E+03  0.16736851308E+04  0.10100000352E+00 0.  1.
</event>
<event>
 5   0  0.4793557E-07  0.3718664E+04  0.7818609E-02  0.8063838E-01
        2   -1    0    0  501    0  0.00000000000E+00  0.00000000000E+00  0.21793075322E+04  0.21793075322E+04  0.25500000920E-02 0. -1.
       -2   -1    0    0    0  501  0.00000000000E+00  0.00000000000E+00 -0.15863369660E+04  0.15863369660E+04  0.25500000920E-02 0.  1.
    10030    2    1    2    0    0  0.00000000000E+00  0.00000000000E+00  0.59297056618E+03  0.37656444982E+04  0.37186643293E+04 0.  0.
        3    1    3    3  502    0 -0.74047019917E+03  0.11734745306E+04  0.15497712654E+04  0.20801753712E+04  0.10100000352E+00 0. -1.
       -3    1    3    3    0  502  0.74047019917E+03 -0.11734745306E+04 -0.95680069919E+03  0.16854691270E+04  0.10100000352E+00 0.  1.
</event>
<event>
 5   0  0.1496287E-07  0.3702307E+04  0.7818609E-02  0.8067451E-01
        1   -1    0    0  501    0  0.00000000000E+00  0.00000000000E+00  0.22250887781E+04  0.22250887781E+04  0.50400001928E-02 0. -1.
       -1   -1    0    0    0  501  0.00000000000E+00  0.00000000000E+00 -0.15400597186E+04  0.15400597186E+04  0.50400001928E-02 0.  1.
    10030    2    1    2    0    0  0.00000000000E+00  0.00000000000E+00  0.68502905951E+03  0.37651484967E+04  0.37023071712E+04 0.  0.
        1    1    3    3  502    0 -0.15072429737E+04  0.96944629139E+03  0.81424350413E+03  0.19684003601E+04  0.50400001928E-02 0. -1.
       -1    1    3    3    0  502  0.15072429737E+04 -0.96944629139E+03 -0.12921444462E+03  0.17967481366E+04  0.50400001928E-02 0.  1.
</event>
<event>
 5   0  0.4824268E-07  0.3719000E+04  0.7818609E-02  0.8063764E-01
        2   -1    0    0  501    0  0.00000000000E+00  0.00000000000E+00  0.20282124659E+04  0.20282124659E+04  0.25500000920E-02 0.  1.
       -2   -1    0    0    0  501  0.00000000000E+00  0.00000000000E+00 -0.17048211799E+04  0.17048211799E+04  0.25500000920E-02 0. -1.
    10030    2    1    2    0    0  0.00000000000E+00  0.00000000000E+00  0.32339128598E+03  0.37330336458E+04  0.37189996339E+04 0.  0.
        1    1    3    3  502    0 -0.11053745864E+04  0.81706062362E+03 -0.10953473640E+04  0.17576196650E+04  0.50400001928E-02 0. -1.
       -1    1    3    3    0  502  0.11053745864E+04 -0.81706062362E+03  0.14187386499E+04  0.19754139808E+04  0.50400001928E-02 0.  1.
</event>
<event>
 5   0  0.1522273E-07  0.3736302E+04  0.7818609E-02  0.8059964E-01
       -1   -1    0    0    0  501  0.00000000000E+00  0.00000000000E+00  0.14954834687E+04  0.14954834687E+04  0.50400001928E-02 0.  1.
        1   -1    0    0  501    0  0.00000000000E+00  0.00000000000E+00 -0.23336850485E+04  0.23336850485E+04  0.50400001928E-02 0. -1.
    10030    2    1    2    0    0  0.00000000000E+00  0.00000000000E+00 -0.83820157984E+03  0.38291685172E+04  0.37363015998E+04 0.  0.
        4    1    3    3  502    0 -0.16954037461E+04  0.47688162279E+03 -0.10576241820E+04  0.20543564607E+04  0.12699999809E+01 0. -1.
       -4    1    3    3    0  502  0.16954037461E+04 -0.47688162279E+03  0.21942260216E+03  0.17748120565E+04  0.12699999809E+01 0.  1.
</event>
<event>
 5   0  0.1496287E-07  0.3714517E+04  0.7818609E-02  0.8064752E-01
       -1   -1    0    0    0  501  0.00000000000E+00  0.00000000000E+00  0.28086901316E+04  0.28086901316E+04  0.50400001928E-02 0. -1.
        1   -1    0    0  501    0  0.00000000000E+00  0.00000000000E+00 -0.12281205375E+04  0.12281205375E+04  0.50400001928E-02 0.  1.
    10030    2    1    2    0    0  0.00000000000E+00  0.00000000000E+00  0.15805695942E+04  0.40368106691E+04  0.37145174837E+04 0.  0.
        1    1    3    3  502    0 -0.21458531922E+03  0.33613086377E+03 -0.11810434769E+04  0.12465530518E+04  0.50400001928E-02 0.  1.
       -1    1    3    3    0  502  0.21458531922E+03 -0.33613086377E+03  0.27616130710E+04  0.27902576173E+04  0.50400001928E-02 0. -1.
</event>
<event>
 5   0  0.1496000E-07  0.3704194E+04  0.7818609E-02  0.8067033E-01
       -1   -1    0    0    0  501  0.00000000000E+00  0.00000000000E+00  0.19374860096E+04  0.19374860096E+04  0.50400001928E-02 0. -1.
        1   -1    0    0  501    0  0.00000000000E+00  0.00000000000E+00 -0.17704710011E+04  0.17704710011E+04  0.50400001928E-02 0.  1.
    10030    2    1    2    0    0  0.00000000000E+00  0.00000000000E+00  0.16701500851E+03  0.37079570107E+04  0.37041937287E+04 0.  0.
        2    1    3    3  502    0  0.12243026804E+04 -0.12346359971E+04 -0.55512160654E+03  0.18252131647E+04  0.25500000920E-02 0.  1.
       -2    1    3    3    0  502 -0.12243026804E+04  0.12346359971E+04  0.72213661505E+03  0.18827438460E+04  0.25500000920E-02 0. -1.
</event>
<event>
 5   0  0.4824268E-07  0.3716834E+04  0.7818609E-02  0.8064241E-01
       -2   -1    0    0    0  501  0.00000000000E+00  0.00000000000E+00  0.16287990134E+04  0.16287990134E+04  0.25500000920E-02 0.  1.
        2   -1    0    0  501    0  0.00000000000E+00  0.00000000000E+00 -0.21204056455E+04  0.21204056455E+04  0.25500000920E-02 0. -1.
    10030    2    1    2    0    0  0.00000000000E+00  0.00000000000E+00 -0.49160663207E+03  0.37492046590E+04  0.37168344722E+04 0.  0.
        1    1    3    3  502    0  0.94624284275E+03 -0.29179621298E+03 -0.18321387546E+04  0.20826072514E+04  0.50400001928E-02 0. -1.
       -1    1    3    3    0  502 -0.94624284275E+03  0.29179621298E+03  0.13405321225E+04  0.16665974076E+04  0.50400001928E-02 0.  1.
</event>
<event>
 5   0  0.1522273E-07  0.3699002E+04  0.7818609E-02  0.8068183E-01
        1   -1    0    0  501    0  0.00000000000E+00  0.00000000000E+00  0.15228105668E+04  0.15228105668E+04  0.50400001928E-02 0. -1.
       -1   -1    0    0    0  501  0.00000000000E+00  0.00000000000E+00 -0.22462763320E+04  0.22462763320E+04  0.50400001928E-02 0.  1.
    10030    2    1    2    0    0  0.00000000000E+00  0.00000000000E+00 -0.72346576523E+03  0.37690868988E+04  0.36990016677E+04 0.  0.
        4    1    3    3  502    0  0.65451367595E+02 -0.17218294559E+04  0.32306562653E+03  0.17530982769E+04  0.12699999809E+01 0.  1.
       -4    1    3    3    0  502 -0.65451367595E+02  0.17218294559E+04 -0.10465313918E+04  0.20159886219E+04  0.12699999809E+01 0. -1.
</event>
<event>
 5   0  0.1496000E-07  0.3731207E+04  0.7818609E-02  0.8061081E-01
        1   -1    0    0  501    0  0.00000000000E+00  0.00000000000E+00  0.28654983558E+04  0.28654983559E+04  0.50400001928E-02 0.  1.
       -1   -1    0    0    0  501  0.00000000000E+00  0.00000000000E+00 -0.12146148166E+04  0.12146148167E+04  0.50400001928E-02 0. -1.
    10030    2    1    2    0    0  0.00000000000E+00  0.00000000000E+00  0.16508835392E+04  0.40801131725E+04  0.37312071827E+04 0.  0.
        2    1    3    3  502    0  0.44472857796E+01 -0.12999708109E+04 -0.63779293851E+03  0.14480068093E+04  0.25500000920E-02 0. -1.
       -2    1    3    3    0  502 -0.44472857796E+01  0.12999708109E+04  0.22886764777E+04  0.26321063632E+04  0.25500000920E-02 0.  1.
</event>
<event>
 5   0  0.4758908E-07  0.3661660E+04  0.7818609E-02  0.8076512E-01
       -2   -1    0    0    0  501  0.00000000000E+00  0.00000000000E+00  0.18330666712E+04  0.18330666713E+04  0.25500000920E-02 0. -1.
        2   -1    0    0  501    0  0.00000000000E+00  0.00000000000E+00 -0.18285959861E+04  0.18285959861E+04  0.25500000920E-02 0.  1.
    10030    2    1    2    0    0  0.00000000000E+00  0.00000000000E+00  0.44706851262E+01  0.36616626574E+04  0.36616599281E+04 0.  0.
        2    1    3    3  502    0  0.50899395351E+03  0.17101381847E+04  0.41246838925E+03  0.18313322003E+04  0.25500000920E-02 0. -1.
       -2    1    3    3    0  502 -0.50899395351E+03 -0.17101381847E+04 -0.40799770412E+03  0.18303304571E+04  0.25500000920E-02 0.  1.
</event>
<event>
 5   0  0.1496000E-07  0.3464364E+04  0.7818609E-02  0.8122287E-01
       -1   -1    0    0    0  501  0.00000000000E+00  0.00000000000E+00  0.12853875680E+04  0.12853875680E+04  0.50400001928E-02 0. -1.
        1   -1    0    0  501    0  0.00000000000E+00  0.00000000000E+00 -0.23342805017E+04  0.23342805017E+04  0.50400001928E-02 0.  1.
    10030    2    1    2    0    0  0.00000000000E+00  0.00000000000E+00 -0.10488929337E+04  0.36196680697E+04  0.34643643787E+04 0.  0.
        3    1    3    3  502    0 -0.16106470185E+04  0.63418818584E+03 -0.45773552218E+03  0.17905028042E+04  0.10100000352E+00 0.  1.
       -3    1    3    3    0  502  0.16106470185E+04 -0.63418818584E+03 -0.59115741156E+03  0.18291652656E+04  0.10100000352E+00 0. -1.
</event>
<event>
 5   0  0.4857514E-07  0.3711559E+04  0.7818609E-02  0.8065405E-01
       -2   -1    0    0    0  501  0.00000000000E+00  0.00000000000E+00  0.18665733428E+04  0.18665733428E+04  0.25500000920E-02 0. -1.
        2   -1    0    0  501    0  0.00000000000E+00  0.00000000000E+00 -0.18450485363E+04  0.18450485363E+04  0.25500000920E-02 0.  1.
    10030    2    1    2    0    0  0.00000000000E+00  0.00000000000E+00  0.21524806537E+02  0.37116218791E+04  0.37115594642E+04 0.  0.
        5    1    3    3  502    0  0.17849489531E+04 -0.50764213431E+03  0.23132837935E+02  0.18558826794E+04  0.46999998093E+01 0. -1.
       -5    1    3    3    0  502 -0.17849489531E+04  0.50764213431E+03 -0.16080313984E+01  0.18557391997E+04  0.46999998093E+01 0.  1.
</event>
<event>
 5   0  0.1496000E-07  0.3689489E+04  0.7818609E-02  0.8070295E-01
        1   -1    0    0  501    0  0.00000000000E+00  0.00000000000E+00  0.14158815111E+04  0.14158815111E+04  0.50400001928E-02 0. -1.
       -1   -1    0    0    0  501  0.00000000000E+00  0.00000000000E+00 -0.24035077554E+04  0.24035077554E+04  0.50400001928E-02 0.  1.
    10030    2    1    2    0    0  0.00000000000E+00  0.00000000000E+00 -0.98762624439E+03  0.38193892665E+04  0.36894889579E+04 0.  0.
        3    1    3    3  502    0 -0.79212235555E+02 -0.14049875412E+04  0.74100309551E+03  0.15903930857E+04  0.10100000352E+00 0. -1.
       -3    1    3    3    0  502  0.79212235555E+02  0.14049875412E+04 -0.17286293399E+04  0.22289961808E+04  0.10100000352E+00 0.  1.
</event>
<event>
 5   0  0.4758908E-07  0.3724567E+04  0.7818609E-02  0.8062539E-01
       -2   -1    0    0    0  501  0.00000000000E+00  0.00000000000E+00  0.10615598903E+04  0.10615598903E+04  0.25500000920E-02 0. -1.
        2   -1    0    0  501    0  0.00000000000E+00  0.00000000000E+00 -0.32669841659E+04  0.32669841659E+04  0.25500000920E-02 0.  1.
    10030    2    1    2    0    0  0.00000000000E+00  0.00000000000E+00 -0.22054242755E+04  0.43285440562E+04  0.37245667415E+04 0.  0.
        2    1    3    3  502    0  0.32023568878E+03  0.16934556332E+04 -0.19226379152E+04  0.25820300988E+04  0.25500000920E-02 0.  1.
       -2    1    3    3    0  502 -0.32023568878E+03 -0.16934556332E+04 -0.28278636031E+03  0.17465139574E+04  0.25500000920E-02 0. -1.
</event>
<event>
 5   0  0.4758908E-07  0.3579433E+04  0.7818609E-02  0.8095219E-01
        2   -1    0    0  501    0  0.00000000000E+00  0.00000000000E+00  0.14315114584E+04  0.14315114584E+04  0.25500000920E-02 0. -1.
       -2   -1    0    0    0  501  0.00000000000E+00  0.00000000000E+00 -0.22375545707E+04  0.22375545707E+04  0.25500000920E-02 0.  1.
    10030    2    1    2    0    0  0.00000000000E+00  0.00000000000E+00 -0.80604311236E+03  0.36690660291E+04  0.35794329198E+04 0.  0.
        2    1    3    3  502    0 -0.15049643969E+04 -0.93938994023E+03 -0.64496972670E+03  0.18876856847E+04  0.25500000920E-02 0.  1.
       -2    1    3    3    0  502  0.15049643969E+04  0.93938994023E+03 -0.16107338566E+03  0.17813803444E+04  0.25500000920E-02 0. -1.
</event>
<event>
 5   0  0.1496287E-07  0.3693125E+04  0.7818609E-02  0.8069487E-01
       -1   -1    0    0    0  501  0.00000000000E+00  0.00000000000E+00  0.25774043416E+04  0.25774043416E+04  0.50400001928E-02 0.  1.
        1   -1    0    0  501    0  0.00000000000E+00  0.00000000000E+00 -0.13229564946E+04  0.13229564946E+04  0.50400001928E-02 0. -1.
    10030    2    1    2    0    0  0.00000000000E+00  0.00000000000E+00  0.12544478471E+04  0.39003608362E+04  0.36931254042E+04 0.  0.
        1    1    3    3  502    0 -0.14628769535E+04  0.44664951895E+01 -0.56284574926E+03  0.15674260008E+04  0.50400001928E-02 0. -1.
       -1    1    3    3    0  502  0.14628769535E+04 -0.44664951895E+01  0.18172935963E+04  0.23329348353E+04  0.50400001928E-02 0.  1.
</event>
<event>
 5   0  0.4793557E-07  0.3686055E+04  0.7818609E-02  0.8071059E-01
       -2   -1    0    0    0  501  0.00000000000E+00  0.00000000000E+00  0.30364076976E+04  0.30364076976E+04  0.25500000920E-02 0.  1.
        2   -1    0    0  501    0  0.00000000000E+00  0.00000000000E+00 -0.11186742881E+04  0.11186742881E+04  0.25500000920E-02 0. -1.
    10030    2    1    2    0    0  0.00000000000E+00  0.00000000000E+00  0.19177334096E+04  0.41550819857E+04  0.36860554632E+04 0.  0.
        3    1    3    3  502    0 -0.15601331665E+04  0.80567487627E+03  0.15901469117E+04  0.23689015840E+04  0.10100000352E+00 0.  1.
       -3    1    3    3    0  502  0.15601331665E+04 -0.80567487627E+03  0.32758649787E+03  0.17861804017E+04  0.10100000352E+00 0. -1.
</event>
<event>
 5   0  0.4758908E-07  0.3174258E+04  0.7818609E-02  0.8195649E-01
        2   -1    0    0  501    0  0.00000000000E+00  0.00000000000E+00  0.20685233613E+04  0.20685233613E+04  0.25500000920E-02 0.  1.
       -2   -1    0    0    0  501  0.00000000000E+00  0.00000000000E+00 -0.12177662217E+04  0.12177662217E+04  0.25500000920E-02 0. -1.
    10030    2    1    2    0    0  0.00000000000E+00  0.00000000000E+00  0.85075713956E+03  0.32862895829E+04  0.31742576317E+04 0.  0.
        2    1    3    3  502    0  0.56293164380E+03  0.13011780203E+04  0.11640167703E+04  0.18343640090E+04  0.25500000920E-02 0.  1.
       -2    1    3    3    0  502 -0.56293164380E+03 -0.13011780203E+04 -0.31325963070E+03  0.14519255739E+04  0.25500000920E-02 0. -1.
</event>
<event>
 5   0  0.1496000E-07  0.3182296E+04  0.7818609E-02  0.8193508E-01
       -1   -1    0    0    0  501  0.00000000000E+00  0.00000000000E+00  0.21676930294E+04  0.21676930294E+04  0.50400001928E-02 0. -1.
        1   -1    0    0  501    0  0.00000000000E+00  0.00000000000E+00 -0.11679478109E+04  0.11679478109E+04  0.50400001928E-02 0.  1.
    10030    2    1    2    0    0  0.00000000000E+00  0.00000000000E+00  0.99974521844E+03  0.33356408403E+04  0.31822962328E+04 0.  0.
        3    1    3    3  502    0 -0.43486832634E+03  0.70879927725E+03  0.19217971612E+04  0.20939940821E+04  0.10100000352E+00 0. -1.
       -3    1    3    3    0  502  0.43486832634E+03 -0.70879927725E+03 -0.92205194280E+03  0.12416467582E+04  0.10100000352E+00 0.  1.
</event>
<event>
 5   0  0.1496000E-07  0.3675792E+04  0.7818609E-02  0.8073348E-01
        1   -1    0    0  501    0  0.00000000000E+00  0.00000000000E+00  0.21137997845E+04  0.21137997845E+04  0.50400001928E-02 0.  1.
       -1   -1    0    0    0  501  0.00000000000E+00  0.00000000000E+00 -0.15980044437E+04  0.15980044437E+04  0.50400001928E-02 0. -1.
    10030    2    1    2    0    0  0.00000000000E+00  0.00000000000E+00  0.51579534076E+03  0.37118042282E+04  0.36757918596E+04 0.  0.
        5    1    3    3  502    0 -0.38984395766E+03  0.13973005473E+04 -0.88161368790E+03  0.16975546870E+04  0.46999998093E+01 0. -1.
       -5    1    3    3    0  502  0.38984395766E+03 -0.13973005473E+04  0.13974090287E+04  0.20142495412E+04  0.46999998093E+01 0.  1.
</event>
<event>
 5   0  0.1522273E-07  0.3775083E+04  0.7818609E-02  0.8051523E-01
        1   -1    0    0  501    0  0.00000000000E+00  0.00000000000E+00  0.16770165633E+04  0.16770165633E+04  0.50400001928E-02 0.  1.
       -1   -1    0    0    0  501  0.00000000000E+00  0.00000000000E+00 -0.21244946062E+04  0.21244946062E+04  0.50400001928E-02 0. -1.
    10030    2    1    2    0    0  0.00000000000E+00  0.00000000000E+00 -0.44747804297E+03  0.38015111695E+04  0.37750828564E+04 0.  0.
        4    1    3    3  502    0  0.14621186204E+04 -0.32575304372E+03 -0.13802148517E+04  0.20368850128E+04  0.12699999809E+01 0. -1.
       -4    1    3    3    0  502 -0.14621186204E+04  0.32575304372E+03  0.93273680876E+03  0.17646261567E+04  0.12699999809E+01 0.  1.
</event>
<event>
 5   0  0.4793557E-07  0.3690179E+04  0.7818609E-02  0.8070142E-01
        2   -1    0    0  501    0  0.00000000000E+00  0.00000000000E+00  0.28107436010E+04  0.28107436010E+04  0.25500000920E-02 0. -1.
       -2   -1    0    0    0  501  0.00000000000E+00  0.00000000000E+00 -0.12111938213E+04  0.12111938213E+04  0.25500000920E-02 0.  1.
    10030    2    1    2    0    0  0.00000000000E+00  0.00000000000E+00  0.15995497797E+04  0.40219374223E+04  0.36901790107E+04 0.  0.
        3    1    3    3  502    0 -0.40097646857E+03  0.77905555480E+03  0.25695323556E+04  0.27148123734E+04  0.10100000352E+00 0. -1.
       -3    1    3    3    0  502  0.40097646857E+03 -0.77905555480E+03 -0.96998257591E+03  0.13071250489E+04  0.10100000352E+00 0.  1.
</event>
<event>
 5   0  0.4758908E-07  0.3113984E+04  0.7818609E-02  0.8211911E-01
       -2   -1    0    0    0  501  0.00000000000E+00  0.00000000000E+00  0.10615322939E+04  0.10615322939E+04  0.25500000920E-02 0. -1.
        2   -1    0    0  501    0  0.00000000000E+00  0.00000000000E+00 -0.22837029846E+04  0.22837029846E+04  0.25500000920E-02 0.  1.
    10030    2    1    2    0    0  0.00000000000E+00  0.00000000000E+00 -0.12221706907E+04  0.33452352785E+04  0.31139842439E+04 0.  0.
        2    1    3    3  502    0 -0.13844836946E+03 -0.23127214724E+03 -0.22584478854E+04  0.22744761173E+04  0.25500000920E-02 0.  1.
       -2    1    3    3    0  502  0.13844836946E+03  0.23127214724E+03  0.10362771947E+04  0.10707591612E+04  0.25500000920E-02 0. -1.
</event>
<event>
 5   0  0.4687817E-07  0.3675776E+04  0.7818609E-02  0.8073352E-01
       -2   -1    0    0    0  501  0.00000000000E+00  0.00000000000E+00  0.14828454820E+04  0.14828454820E+04  0.25500000920E-02 0. -1.
        2   -1    0    0  501    0  0.00000000000E+00  0.00000000000E+00 -0.22779391797E+04  0.22779391797E+04  0.25500000920E-02 0.  1.
    10030    2    1    2    0    0  0.00000000000E+00  0.00000000000E+00 -0.79509369762E+03  0.37607846617E+04  0.36757757390E+04 0.  0.
        4    1    3    3  502    0  0.18317148347E+04 -0.77722964919E+02 -0.52940766281E+03  0.19082699446E+04  0.12699999809E+01 0. -1.
       -4    1    3    3    0  502 -0.18317148347E+04  0.77722964919E+02 -0.26568603481E+03  0.18525147171E+04  0.12699999809E+01 0.  1.
</event>
<event>
 5   0  0.1496000E-07  0.3653899E+04  0.7818609E-02  0.8078256E-01
       -1   -1    0    0    0  501  0.00000000000E+00  0.00000000000E+00  0.15490836787E+04  0.15490836787E+04  0.50400001928E-02 0.  1.
        1   -1    0    0  501    0  0.00000000000E+00  0.00000000000E+00 -0.21546577407E+04  0.21546577407E+04  0.50400001928E-02 0. -1.
    10030    2    1    2    0    0  0.00000000000E+00  0.00000000000E+00 -0.60557406197E+03  0.37037414194E+04  0.36538993633E+04 0.  0.
        2    1    3    3  502    0 -0.82403508649E+03  0.12300438522E+04 -0.13877631635E+04  0.20292679222E+04  0.25500000920E-02 0. -1.
       -2    1    3    3    0  502  0.82403508649E+03 -0.12300438522E+04  0.78218910154E+03  0.16744734971E+04  0.25500000920E-02 0.  1.
</event>
<event>
 5   0  0.4793557E-07  0.3692592E+04  0.7818609E-02  0.8069605E-01
       -2   -1    0    0    0  501  0.00000000000E+00  0.00000000000E+00  0.20862529110E+04  0.20862529110E+04  0.25500000920E-02 0.  1.
        2   -1    0    0  501    0  0.00000000000E+00  0.00000000000E+00 -0.16339387168E+04  0.16339387168E+04  0.25500000920E-02 0. -1.
    10030    2    1    2    0    0  0.00000000000E+00  0.00000000000E+00  0.45231419418E+03  0.37201916277E+04  0.36925922625E+04 0.  0.
        3    1    3    3  502    0 -0.57259224998E+03 -0.12914863566E+04 -0.97142873711E+03  0.17144890479E+04  0.10100000352E+00 0. -1.
       -3    1    3    3    0  502  0.57259224998E+03  0.12914863566E+04  0.14237429313E+04  0.20057025798E+04  0.10100000352E+00 0.  1.
</event>
<event>
 5   0  0.4758908E-07  0.3661537E+04  0.7818609E-02  0.8076539E-01
        2   -1    0    0  501    0  0.00000000000E+00  0.00000000000E+00  0.21787096760E+04  0.21787096760E+04  0.25500000920E-02 0. -1.
       -2   -1    0    0    0  501  0.00000000000E+00  0.00000000000E+00 -0.15383939898E+04  0.15383939898E+04  0.25500000920E-02 0.  1.
    10030    2    1    2    0    0  0.00000000000E+00  0.00000000000E+00  0.64031568624E+03  0.37171036658E+04  0.36615373116E+04 0.  0.
        2    1    3    3  502    0  0.69988164084E+03 -0.88366330286E+03 -0.11443078540E+04  0.16062800530E+04  0.25500000920E-02 0.  1.
       -2    1    3    3    0  502 -0.69988164084E+03  0.88366330286E+03  0.17846235402E+04  0.21108236128E+04  0.25500000920E-02 0. -1.
</event>
<event>
 5   0  0.1496287E-07  0.3644648E+04  0.7818609E-02  0.8080340E-01
        1   -1    0    0  501    0  0.00000000000E+00  0.00000000000E+00  0.20535164981E+04  0.20535164981E+04  0.50400001928E-02 0.  1.
       -1   -1    0    0    0  501  0.00000000000E+00  0.00000000000E+00 -0.16171599294E+04  0.16171599294E+04  0.50400001928E-02 0. -1.
    10030    2    1    2    0    0  0.00000000000E+00  0.00000000000E+00  0.43635656875E+03  0.36706764275E+04  0.36446479090E+04 0.  0.
        1    1    3    3  502    0 -0.15615485259E+04  0.66577704141E+03  0.88561133719E+03  0.19146802104E+04  0.50400001928E-02 0.  1.
       -1    1    3    3    0  502  0.15615485259E+04 -0.66577704141E+03 -0.44925476844E+03  0.17559962171E+04  0.50400001928E-02 0. -1.
</event>
<event>
 5   0  0.1496000E-07  0.3864189E+04  0.7818609E-02  0.8032519E-01
        1   -1    0    0  501    0  0.00000000000E+00  0.00000000000E+00  0.23083207798E+04  0.23083207798E+04  0.50400001928E-02 0. -1.
       -1   -1    0    0    0  501  0.00000000000E+00  0.00000000000E+00 -0.16171883422E+04  0.16171883422E+04  0.50400001928E-02 0.  1.
    10030    2    1    2    0    0  0.00000000000E+00  0.00000000000E+00  0.69113243758E+03  0.39255091221E+04  0.38641891544E+04 0.  0.
        5    1    3    3  502    0  0.12367265333E+03  0.14757870240E+04 -0.91498126080E+03  0.17408202271E+04  0.46999998093E+01 0.  1.
       -5    1    3    3    0  502 -0.12367265333E+03 -0.14757870240E+04  0.16061136984E+04  0.21846888949E+04  0.46999998093E+01 0. -1.
</event>
<event>
 5   0  0.1522273E-07  0.3674299E+04  0.7818609E-02  0.8073681E-01
        1   -1    0    0  501    0  0.00000000000E+00  0.00000000000E+00  0.15422051808E+04  0.15422051808E+04  0.50400001928E-02 0.  1.
       -1   -1    0    0    0  501  0.00000000000E+00  0.00000000000E+00 -0.21885018831E+04  0.21885018831E+04  0.50400001928E-02 0. -1.
    10030    2    1    2    0    0  0.00000000000E+00  0.00000000000E+00 -0.64629670226E+03  0.37307070639E+04  0.36742993576E+04 0.  0.
        4    1    3    3  502    0  0.55574925178E+03 -0.85766627864E+02  0.14526741288E+04  0.15577152765E+04  0.12699999809E+01 0.  1.
       -4    1    3    3    0  502 -0.55574925178E+03  0.85766627864E+02 -0.20989708311E+04  0.21729917873E+04  0.12699999809E+01 0. -1.
</event>
<event>
 5   0  0.1496000E-07  0.3688193E+04  0.7818609E-02  0.8070583E-01
       -1   -1    0    0    0  501  0.00000000000E+00  0.00000000000E+00  0.14337337428E+04  0.14337337428E+04  0.50400001928E-02 0. -1.
        1   -1    0    0  501    0  0.00000000000E+00  0.00000000000E+00 -0.23719135930E+04  0.23719135930E+04  0.50400001928E-02 0.  1.
    10030    2    1    2    0    0  0.00000000000E+00  0.00000000000E+00 -0.93817985028E+03  0.38056473358E+04  0.36881933535E+04 0.  0.
        3    1    3    3  502    0  0.12451385328E+04  0.12590610474E+04  0.62173326222E+02  0.17718550222E+04  0.10100000352E+00 0. -1.
       -3    1    3    3    0  502 -0.12451385328E+04 -0.12590610474E+04 -0.10003531765E+04  0.20337923136E+04  0.10100000352E+00 0.  1.
</event>
<event>
 5   0  0.4793557E-07  0.3741721E+04  0.7818609E-02  0.8058778E-01
        2   -1    0    0  501    0  0.00000000000E+00  0.00000000000E+00  0.25577175433E+04  0.25577175433E+04  0.25500000920E-02 0. -1.
       -2   -1    0    0    0  501  0.00000000000E+00  0.00000000000E+00 -0.13684539307E+04  0.13684539307E+04  0.25500000920E-02 0.  1.
    10030    2    1    2    0    0  0.00000000000E+00  0.00000000000E+00  0.11892636126E+04  0.39261714739E+04  0.37417207943E+04 0.  0.
        3    1    3    3  502    0  0.99172625559E+03 -0.15836566835E+04  0.69210430539E+03  0.19926108092E+04  0.10100000352E+00 0. -1.
       -3    1    3    3    0  502 -0.99172625559E+03  0.15836566835E+04  0.49715930720E+03  0.19335606647E+04  0.10100000352E+00 0.  1.
</event>
<event>
 5   0  0.1522273E-07  0.3787234E+04  0.7818609E-02  0.8048900E-01
        1   -1    0    0  501    0  0.00000000000E+00  0.00000000000E+00  0.25229096714E+04  0.25229096714E+04  0.50400001928E-02 0.  1.
       -1   -1    0    0    0  501  0.00000000000E+00  0.00000000000E+00 -0.14212895165E+04  0.14212895165E+04  0.50400001928E-02 0. -1.
    10030    2    1    2    0    0  0.00000000000E+00  0.00000000000E+00  0.11016201548E+04  0.39441991879E+04  0.37872338545E+04 0.  0.
        4    1    3    3  502    0 -0.16107684049E+04 -0.39971575337E+03 -0.39881266541E+03  0.17068686806E+04  0.12699999809E+01 0.  1.
       -4    1    3    3    0  502  0.16107684049E+04  0.39971575337E+03  0.15004328203E+04  0.22373305073E+04  0.12699999809E+01 0. -1.
</event>
<event>
 5   0  0.4824268E-07  0.3651643E+04  0.7818609E-02  0.8078764E-01
        2   -1    0    0  501    0  0.00000000000E+00  0.00000000000E+00  0.26341919316E+04  0.26341919316E+04  0.25500000920E-02 0. -1.
       -2   -1    0    0    0  501  0.00000000000E+00  0.00000000000E+00 -0.12655206222E+04  0.12655206222E+04  0.25500000920E-02 0.  1.
    10030    2    1    2    0    0  0.00000000000E+00  0.00000000000E+00  0.13686713093E+04  0.38997125538E+04  0.36516430342E+04 0.  0.
        1    1    3    3  502    0  0.95623325881E+03  0.56326476315E+03 -0.86397481492E+03  0.14064500416E+04  0.50400001928E-02 0.  1.
       -1    1    3    3    0  502 -0.95623325881E+03 -0.56326476315E+03  0.22326461243E+04  0.24932625122E+04  0.50400001928E-02 0. -1.
</event>
<event>
 5   0  0.1496000E-07  0.3706630E+04  0.7818609E-02  0.8066494E-01
        1   -1    0    0  501    0  0.00000000000E+00  0.00000000000E+00  0.16540140399E+04  0.16540140399E+04  0.50400001928E-02 0. -1.
       -1   -1    0    0    0  501  0.00000000000E+00  0.00000000000E+00 -0.20766312667E+04  0.20766312667E+04  0.50400001928E-02 0.  1.
    10030    2    1    2    0    0  0.00000000000E+00  0.00000000000E+00 -0.42261722681E+03  0.37306453066E+04  0.37066304217E+04 0.  0.
        2    1    3    3  502    0 -0.15307753095E+04  0.35913313990E+03 -0.11987498788E+04  0.19771825743E+04  0.25500000920E-02 0.  1.
       -2    1    3    3    0  502  0.15307753095E+04 -0.35913313990E+03  0.77613265197E+03  0.17534627323E+04  0.25500000920E-02 0. -1.
</event>
<event>
 5   0  0.1496000E-07  0.3620482E+04  0.7818609E-02  0.8085816E-01
       -1   -1    0    0    0  501  0.00000000000E+00  0.00000000000E+00  0.28468483936E+04  0.28468483936E+04  0.50400001928E-02 0.  1.
        1   -1    0    0  501    0  0.00000000000E+00  0.00000000000E+00 -0.11510876156E+04  0.11510876156E+04  0.50400001928E-02 0. -1.
    10030    2    1    2    0    0  0.00000000000E+00  0.00000000000E+00  0.16957607780E+04  0.39979360092E+04  0.36204816969E+04 0.  0.
        3    1    3    3  502    0  0.50553985545E+03 -0.17023834320E+04  0.12356171462E+04  0.21634300629E+04  0.10100000352E+00 0.  1.
       -3    1    3    3    0  502 -0.50553985545E+03  0.17023834320E+04  0.46014363186E+03  0.18345059463E+04  0.10100000352E+00 0. -1.
</event>
<event>
 5   0  0.4687817E-07  0.3665377E+04  0.7818609E-02  0.8075678E-01
       -2   -1    0    0    0  501  0.00000000000E+00  0.00000000000E+00  0.16092976600E+04  0.16092976600E+04  0.25500000920E-02 0. -1.
        2   -1    0    0  501    0  0.00000000000E+00  0.00000000000E+00 -0.20870891345E+04  0.20870891345E+04  0.25500000920E-02 0.  1.
    10030    2    1    2    0    0  0.00000000000E+00  0.00000000000E+00 -0.47779147451E+03  0.36963867944E+04  0.36653772850E+04 0.  0.
        4    1    3    3  502    0  0.49476141861E+03 -0.75276682920E+03  0.13706329175E+04  0.16401472397E+04  0.12699999809E+01 0. -1.
       -4    1    3    3    0  502 -0.49476141861E+03  0.75276682920E+03 -0.18484243920E+04  0.20562395547E+04  0.12699999809E+01 0.  1.
</event>
<event>
 5   0  0.1522273E-07  0.3811106E+04  0.7818609E-02  0.8043776E-01
       -1   -1    0    0    0  501  0.00000000000E+00  0.00000000000E+00  0.27561107106E+04  0.27561107106E+04  0.50400001928E-02 0. -1.
        1   -1    0    0  501    0  0.00000000000E+00  0.00000000000E+00 -0.13174838576E+04  0.13174838576E+04  0.50400001928E-02 0.  1.
    10030    2    1    2    0    0  0.00000000000E+00  0.00000000000E+00  0.14386268530E+04  0.40735945682E+04  0.38111055462E+04 0.  0.
        4    1    3    3  502    0  0.15679112837E+03  0.17493250082E+04 -0.70792786025E+02  0.17577641120E+04  0.12699999809E+01 0.  1.
       -4    1    3    3    0  502 -0.15679112837E+03 -0.17493250082E+04  0.15094196391E+04  0.23158304562E+04  0.12699999809E+01 0. -1.
</event>
<event>
 5   0  0.4758908E-07  0.3657021E+04  0.7818609E-02  0.8077554E-01
       -2   -1    0    0    0  501  0.00000000000E+00  0.00000000000E+00  0.17383907119E+04  0.17383907119E+04  0.25500000920E-02 0.  1.
        2   -1    0    0  501    0  0.00000000000E+00  0.00000000000E+00 -0.19233020327E+04  0.19233020327E+04  0.25500000920E-02 0. -1.
    10030    2    1    2    0    0  0.00000000000E+00  0.00000000000E+00 -0.18491132082E+03  0.36616927446E+04  0.36570208585E+04 0.  0.
        2    1    3    3  502    0  0.66658523527E+03  0.13525120492E+04  0.94318947463E+03  0.17785474703E+04  0.25500000920E-02 0.  1.
       -2    1    3    3    0  502 -0.66658523527E+03 -0.13525120492E+04 -0.11281007954E+04  0.18831452742E+04  0.25500000920E-02 0. -1.
</event>
<event>
 5   0  0.1496000E-07  0.3669289E+04  0.7818609E-02  0.8074802E-01
       -1   -1    0    0    0  501  0.00000000000E+00  0.00000000000E+00  0.16832476003E+04  0.16832476003E+04  0.50400001928E-02 0. -1.
        1   -1    0    0  501    0  0.00000000000E+00  0.00000000000E+00 -0.19996590587E+04  0.19996590587E+04  0.50400001928E-02 0.  1.
    10030    2    1    2    0    0  0.00000000000E+00  0.00000000000E+00 -0.31641145843E+03  0.36829066590E+04  0.36692894745E+04 0.  0.
        5    1    3    3  502    0 -0.15581020953E+04 -0.64233459944E+03 -0.88589514774E+03  0.19039716856E+04  0.46999998093E+01 0. -1.
       -5    1    3    3    0  502  0.15581020953E+04  0.64233459944E+03  0.56948368931E+03  0.17789349733E+04  0.46999998093E+01 0.  1.
</event>
<event>
 5   0  0.4793557E-07  0.3703783E+04  0.7818609E-02  0.8067124E-01
       -2   -1    0    0    0  501  0.00000000000E+00  0.00000000000E+00  0.19327206444E+04  0.19327206444E+04  0.25500000920E-02 0. -1.
        2   -1    0    0  501    0  0.00000000000E+00  0.00000000000E+00 -0.17744430089E+04  0.17744430090E+04  0.25500000920E-02 0.  1.
    10030    2    1    2    0    0  0.00000000000E+00  0.00000000000E+00  0.15827763545E+03  0.37071636534E+04  0.37037832743E+04 0.  0.
        3    1    3    3  502    0 -0.18054084623E+04 -0.25150067476E+03 -0.24788605552E+03  0.18396194747E+04  0.10100000352E+00 0.  1.
       -3    1    3    3    0  502  0.18054084623E+04  0.25150067476E+03  0.40616369097E+03  0.18675441786E+04  0.10100000352E+00 0. -1.
</event>
<event>
 5   0  0.1496000E-07  0.3661291E+04  0.7818609E-02  0.8076595E-01
        1   -1    0    0  501    0  0.00000000000E+00  0.00000000000E+00  0.94601176138E+03  0.94601176139E+03  0.50400001928E-02 0. -1.
       -1   -1    0    0    0  501  0.00000000000E+00  0.00000000000E+00 -0.35425171504E+04  0.35425171504E+04  0.50400001928E-02 0.  1.
    10030    2    1    2    0    0  0.00000000000E+00  0.00000000000E+00 -0.25965053890E+04  0.44885289118E+04  0.36612909686E+04 0.  0.
        2    1    3    3  502    0  0.46009681679E+03 -0.11888671430E+03  0.86907883398E+03  0.99051559873E+03  0.25500000920E-02 0. -1.
       -2    1    3    3    0  502 -0.46009681679E+03  0.11888671430E+03 -0.34655842230E+04  0.34980133131E+04  0.25500000920E-02 0.  1.
</event>
<event>
 5   0  0.4758908E-07  0.3696332E+04  0.7818609E-02  0.8068775E-01
        2   -1    0    0  501    0  0.00000000000E+00  0.00000000000E+00  0.12731867247E+04  0.12731867247E+04  0.25500000920E-02 0.  1.
       -2   -1    0    0    0  501  0.00000000000E+00  0.00000000000E+00 -0.26828100011E+04  0.26828100011E+04  0.25500000920E-02 0. -1.
    10030    2    1    2    0    0  0.00000000000E+00  0.00000000000E+00 -0.14096232765E+04  0.39559967258E+04  0.36963322784E+04 0.  0.
        2    1    3    3  502    0  0.64512997267E+03  0.71376276567E+03  0.98403623750E+03  0.13762184725E+04  0.25500000920E-02 0.  1.
       -2    1    3    3    0  502 -0.64512997267E+03 -0.71376276567E+03 -0.23936595140E+04  0.25797782533E+04  0.25500000920E-02 0. -1.
</event>
<event>
 5   0  0.4824268E-07  0.3745113E+04  0.7818609E-02  0.8058037E-01
        2   -1    0    0  501    0  0.00000000000E+00  0.00000000000E+00  0.18965882114E+04  0.18965882114E+04  0.25500000920E-02 0. -1.
       -2   -1    0    0    0  501  0.00000000000E+00  0.00000000000E+00 -0.18488295336E+04  0.18488295336E+04  0.25500000920E-02 0.  1.
    10030    2    1    2    0    0  0.00000000000E+00  0.00000000000E+00  0.47758677857E+02  0.37454177450E+04  0.37451132417E+04 0.  0.
        1    1    3    3  502    0  0.13273346317E+04 -0.67581517276E+03 -0.11110807347E+04  0.18582367371E+04  0.50400001928E-02 0.  1.
       -1    1    3    3    0  502 -0.13273346317E+04  0.67581517276E+03  0.11588394125E+04  0.18871810078E+04  0.50400001928E-02 0. -1.
</event>
<event>
 5   0  0.1496000E-07  0.3729713E+04  0.7818609E-02  0.8061409E-01
       -1   -1    0    0    0  501  0.00000000000E+00  0.00000000000E+00  0.23909799026E+04  0.23909799026E+04  0.50400001928E-02 0. -1.
        1   -1    0    0  501    0  0.00000000000E+00  0.00000000000E+00 -0.14545037963E+04  0.14545037963E+04  0.50400001928E-02 0.  1.
    10030    2    1    2    0    0  0.00000000000E+00  0.00000000000E+00  0.93647610630E+03  0.38454836989E+04  0.37297127746E+04 0.  0.
        3    1    3    3  502    0  0.18580627275E+03  0.18550864015E+04  0.42425470724E+03  0.19120307515E+04  0.10100000352E+00 0.  1.
       -3    1    3    3    0  502 -0.18580627275E+03 -0.18550864015E+04  0.51222139906E+03  0.19334529474E+04  0.10100000352E+00 0. -1.
</event>
<event>
 5   0  0.1522273E-07  0.3703345E+04  0.7818609E-02  0.8067221E-01
       -1   -1    0    0    0  501  0.00000000000E+00  0.00000000000E+00  0.20975940345E+04  0.20975940345E+04  0.50400001928E-02 0. -1.
        1   -1    0    0  501    0  0.00000000000E+00  0.00000000000E+00 -0.16345827620E+04  0.16345827620E+04  0.50400001928E-02 0.  1.
    10030    2    1    2    0    0  0.00000000000E+00  0.00000000000E+00  0.46301127249E+03  0.37321767965E+04  0.37033450017E+04 0.  0.
        4    1    3    3  502    0  0.11915572507E+04 -0.12755875315E+04  0.85418096300E+03  0.19433370687E+04  0.12699999809E+01 0.  1.
       -4    1    3    3    0  502 -0.11915572507E+04  0.12755875315E+04 -0.39116969051E+03  0.17888397278E+04  0.12699999809E+01 0. -1.
</event>
<event>
 5   0  0.4758908E-07  0.3706351E+04  0.7818609E-02  0.8066556E-01
       -2   -1    0    0    0  501  0.00000000000E+00  0.00000000000E+00  0.20269348096E+04  0.20269348096E+04  0.25500000920E-02 0. -1.
        2   -1    0    0  501    0  0.00000000000E+00  0.00000000000E+00 -0.16943113896E+04  0.16943113896E+04  0.25500000920E-02 0.  1.
    10030    2    1    2    0    0  0.00000000000E+00  0.00000000000E+00  0.33262342003E+03  0.37212461992E+04  0.37063506223E+04 0.  0.
        2    1    3    3  502    0 -0.10341361297E+04 -0.13176675651E+04 -0.62970080816E+03  0.17894715574E+04  0.25500000920E-02 0.  1.
       -2    1    3    3    0  502  0.10341361297E+04  0.13176675651E+04  0.96232422819E+03  0.19317746419E+04  0.25500000920E-02 0. -1.
</event>
<event>
 5   0  0.4687817E-07  0.3714958E+04  0.7818609E-02  0.8064655E-01
        2   -1    0    0  501    0  0.00000000000E+00  0.00000000000E+00  0.25675726475E+04  0.25675726475E+04  0.25500000920E-02 0. -1.
       -2   -1    0    0    0  501  0.00000000000E+00  0.00000000000E+00 -0.13437703693E+04  0.13437703693E+04  0.25500000920E-02 0.  1.
    10030    2    1    2    0    0  0.00000000000E+00  0.00000000000E+00  0.12238022783E+04  0.39113430168E+04  0.37149578973E+04 0.  0.
        4    1    3    3  502    0  0.64729145493E+03  0.45336647432E+03 -0.11579427496E+04  0.14019131257E+04  0.12699999809E+01 0.  1.
       -4    1    3    3    0  502 -0.64729145493E+03 -0.45336647432E+03  0.23817450279E+04  0.25094298911E+04  0.12699999809E+01 0. -1.
</event>
<event>
 5   0  0.4793557E-07  0.3695231E+04  0.7818609E-02  0.8069019E-01
        2   -1    0    0  501    0  0.00000000000E+00  0.00000000000E+00  0.14691615987E+04  0.14691615987E+04  0.25500000920E-02 0. -1.
       -2   -1    0    0    0  501  0.00000000000E+00  0.00000000000E+00 -0.23235590423E+04  0.23235590423E+04  0.25500000920E-02 0.  1.
    10030    2    1    2    0    0  0.00000000000E+00  0.00000000000E+00 -0.85439744356E+03  0.37927206410E+04  0.36952313688E+04 0.  0.
        3    1    3    3  502    0 -0.15726147653E+04 -0.86604293292E+03 -0.87521924288E+03  0.19972872340E+04  0.10100000352E+00 0.  1.
       -3    1    3    3    0  502  0.15726147653E+04  0.86604293292E+03  0.20821799327E+02  0.17954334071E+04  0.10100000352E+00 0. -1.
</event>
<event>
 5   0  0.4857514E-07  0.3224375E+04  0.7818609E-02  0.8182409E-01
       -2   -1    0    0    0  501  0.00000000000E+00  0.00000000000E+00  0.14293382096E+04  0.14293382096E+04  0.25500000920E-02 0.  1.
        2   -1    0    0  501    0  0.00000000000E+00  0.00000000000E+00 -0.18184279727E+04  0.18184279727E+04  0.25500000920E-02 0. -1.
    10030    2    1    2    0    0  0.00000000000E+00  0.00000000000E+00 -0.38908976307E+03  0.32477661823E+04  0.32243750296E+04 0.  0.
        5    1    3    3  502    0  0.12332045614E+03 -0.54051663597E+03 -0.17193832259E+04  0.18065621871E+04  0.46999998093E+01 0. -1.
       -5    1    3    3    0  502 -0.12332045614E+03  0.54051663597E+03  0.13302934628E+04  0.14412039952E+04  0.46999998093E+01 0.  1.
</event>
<event>
 5   0  0.1522273E-07  0.3690295E+04  0.7818609E-02  0.8070116E-01
        1   -1    0    0  501    0  0.00000000000E+00  0.00000000000E+00  0.23379906480E+04  0.23379906480E+04  0.50400001928E-02 0. -1.
       -1   -1    0    0    0  501  0.00000000000E+00  0.00000000000E+00 -0.14561944070E+04  0.14561944070E+04  0.50400001928E-02 0.  1.
    10030    2    1    2    0    0  0.00000000000E+00  0.00000000000E+00  0.88179624098E+03  0.37941850551E+04  0.36902947879E+04 0.  0.
        4    1    3    3  502    0  0.12674477138E+04 -0.13397188297E+04  0.38186173872E+03  0.18833720424E+04  0.12699999809E+01 0.  1.
       -4    1    3    3    0  502 -0.12674477138E+04  0.13397188297E+04  0.49993450226E+03  0.19108130126E+04  0.12699999809E+01 0. -1.
</event>
<event>
 5   0  0.1496000E-07  0.3727045E+04  0.7818609E-02  0.8061995E-01
       -1   -1    0    0    0  501  0.00000000000E+00  0.00000000000E+00  0.13457973037E+04  0.13457973038E+04  0.50400001928E-02 0. -1.
        1   -1    0    0  501    0  0.00000000000E+00  0.00000000000E+00 -0.25804161068E+04  0.25804161068E+04  0.50400001928E-02 0.  1.
    10030    2    1    2    0    0  0.00000000000E+00  0.00000000000E+00 -0.12346188031E+04  0.39262134106E+04  0.37270454997E+04 0.  0.
        5    1    3    3  502    0 -0.11432145655E+04 -0.64719288654E+03  0.77502267618E+03  0.15252804377E+04  0.46999998093E+01 0. -1.
       -5    1    3    3    0  502  0.11432145655E+04  0.64719288654E+03 -0.20096414793E+04  0.24009329729E+04  0.46999998093E+01 0.  1.
</event>
<event>
 5   0  0.1496287E-07  0.3727224E+04  0.7818609E-02  0.8061955E-01
        1   -1    0    0  501    0  0.00000000000E+00  0.00000000000E+00  0.27429860677E+04  0.27429860677E+04  0.50400001928E-02 0. -1.
       -1   -1    0    0    0  501  0.00000000000E+00  0.00000000000E+00 -0.12661564007E+04  0.12661564007E+04  0.50400001928E-02 0.  1.
    10030    2    1    2    0    0  0.00000000000E+00  0.00000000000E+00  0.14768296670E+04  0.40091424684E+04  0.37272238283E+04 0.  0.
        1    1    3    3  502    0 -0.13551553730E+04 -0.12205640226E+04  0.32625220968E+03  0.18527447538E+04  0.50400001928E-02 0.  1.
       -1    1    3    3    0  502  0.13551553730E+04  0.12205640226E+04  0.11505774573E+04  0.21563977146E+04  0.50400001928E-02 0. -1.
</event>
<event>
 5   0  0.4687817E-07  0.3719976E+04  0.7818609E-02  0.8063549E-01
       -2   -1    0    0    0  501  0.00000000000E+00  0.00000000000E+00  0.23812453815E+04  0.23812453815E+04  0.25500000920E-02 0. -1.
        2   -1    0    0  501    0  0.00000000000E+00  0.00000000000E+00 -0.14528348060E+04  0.14528348060E+04  0.25500000920E-02 0.  1.
    10030    2    1    2    0    0  0.00000000000E+00  0.00000000000E+00  0.92841057549E+03  0.38340801875E+04  0.37199764364E+04 0.  0.
        4    1    3    3  502    0 -0.11380660789E+04  0.12009928828E+04 -0.41154937783E+03  0.17049788291E+04  0.12699999809E+01 0.  1.
       -4    1    3    3    0  502  0.11380660789E+04 -0.12009928828E+04  0.13399599533E+04  0.21291013583E+04  0.12699999809E+01 0. -1.
</event>
<event>
 5   0  0.4687817E-07  0.3678329E+04  0.7818609E-02  0.8072782E-01
        2   -1    0    0  501    0  0.00000000000E+00  0.00000000000E+00  0.23844596941E+04  0.23844596941E+04  0.25500000920E-02 0.  1.
       -2   -1    0    0    0  501  0.00000000000E+00  0.00000000000E+00 -0.14185709758E+04  0.14185709758E+04  0.25500000920E-02 0. -1.
    10030    2    1    2    0    0  0.00000000000E+00  0.00000000000E+00  0.96588871823E+03  0.38030306699E+04  0.36783285960E+04 0.  0.
        4    1    3    3  502    0  0.30420188274E+03 -0.32531206238E+03 -0.13619713955E+04  0.14329460627E+04  0.12699999809E+01 0. -1.
       -4    1    3    3    0  502 -0.30420188274E+03  0.32531206238E+03  0.23278601137E+04  0.23700846072E+04  0.12699999809E+01 0.  1.
</event>
<event>
 5   0  0.4758908E-07  0.3444170E+04  0.7818609E-02  0.8127150E-01
        2   -1    0    0  501    0  0.00000000000E+00  0.00000000000E+00  0.20000838049E+04  0.20000838049E+04  0.25500000920E-02 0.  1.
       -2   -1    0    0    0  501  0.00000000000E+00  0.00000000000E+00 -0.14827260058E+04  0.14827260058E+04  0.25500000920E-02 0. -1.
    10030    2    1    2    0    0  0.00000000000E+00  0.00000000000E+00  0.51735779904E+03  0.34828098107E+04  0.34441697236E+04 0.  0.
        2    1    3    3  502    0 -0.67765645759E+03  0.25654194724E+03  0.18384295959E+04  0.19760707033E+04  0.25500000920E-02 0.  1.
       -2    1    3    3    0  502  0.67765645759E+03 -0.25654194724E+03 -0.13210717969E+04  0.15067391074E+04  0.25500000920E-02 0. -1.
</event>
<event>
 5   0  0.1496000E-07  0.3702769E+04  0.7818609E-02  0.8067348E-01
       -1   -1    0    0    0  501  0.00000000000E+00  0.00000000000E+00  0.23882154012E+04  0.23882154012E+04  0.50400001928E-02 0. -1.
        1   -1    0    0  501    0  0.00000000000E+00  0.00000000000E+00 -0.14352244782E+04  0.14352244782E+04  0.50400001928E-02 0.  1.
    10030    2    1    2    0    0  0.00000000000E+00  0.00000000000E+00  0.95299092296E+03  0.38234398794E+04  0.37027693436E+04 0.  0.
        2    1    3    3  502    0  0.21075035682E+03 -0.15555261662E+03 -0.14159938719E+04  0.14400176994E+04  0.25500000920E-02 0.  1.
       -2    1    3    3    0  502 -0.21075035682E+03  0.15555261662E+03  0.23689847949E+04  0.23834221799E+04  0.25500000920E-02 0. -1.
</event>
<event>
 5   0  0.1496000E-07  0.3753577E+04  0.7818609E-02  0.8056191E-01
        1   -1    0    0  501    0  0.00000000000E+00  0.00000000000E+00  0.20521376647E+04  0.20521376647E+04  0.50400001928E-02 0.  1.
       -1   -1    0    0    0  501  0.00000000000E+00  0.00000000000E+00 -0.17164227125E+04  0.17164227125E+04  0.50400001928E-02 0. -1.
    10030    2    1    2    0    0  0.00000000000E+00  0.00000000000E+00  0.33571495216E+03  0.37685603772E+04  0.37535773320E+04 0.  0.
        3    1    3    3  502    0 -0.16165468689E+04 -0.95345777284E+03  0.17337329173E+03  0.18847715544E+04  0.10100000352E+00 0.  1.
       -3    1    3    3    0  502  0.16165468689E+04  0.95345777284E+03  0.16234166043E+03  0.18837888228E+04  0.10100000352E+00 0. -1.
</event>
<event>
 5   0  0.4857514E-07  0.3637003E+04  0.7818609E-02  0.8082068E-01
        2   -1    0    0  501    0  0.00000000000E+00  0.00000000000E+00  0.12745929540E+04  0.12745929540E+04  0.25500000920E-02 0. -1.
       -2   -1    0    0    0  501  0.00000000000E+00  0.00000000000E+00 -0.25945132822E+04  0.25945132822E+04  0.25500000920E-02 0.  1.
    10030    2    1    2    0    0  0.00000000000E+00  0.00000000000E+00 -0.13199203282E+04  0.38691062362E+04  0.36370033537E+04 0.  0.
        5    1    3    3  502    0  0.89480220794E+03 -0.14749755117E+04 -0.12717266715E+04  0.21432532674E+04  0.46999998093E+01 0.  1.
       -5    1    3    3    0  502 -0.89480220794E+03  0.14749755117E+04 -0.48193656717E+02  0.17258529688E+04  0.46999998093E+01 0. -1.
</event>
<event>
 5   0  0.4824268E-07  0.3649761E+04  0.7818609E-02  0.8079188E-01
       -2   -1    0    0    0  501  0.00000000000E+00  0.00000000000E+00  0.16277977801E+04  0.16277977801E+04  0.25500000920E-02 0. -1.
        2   -1    0    0  501    0  0.00000000000E+00  0.00000000000E+00 -0.20458242029E+04  0.20458242029E+04  0.25500000920E-02 0.  1.
    10030    2    1    2    0    0  0.00000000000E+00  0.00000000000E+00 -0.41802642280E+03  0.36736219830E+04  0.36497605926E+04 0.  0.
        1    1    3    3  502    0  0.63498594270E+03  0.12589399600E+04 -0.13750563503E+04  0.19694966201E+04  0.50400001928E-02 0.  1.
       -1    1    3    3    0  502 -0.63498594270E+03 -0.12589399600E+04  0.95702992746E+03  0.17041253628E+04  0.50400001928E-02 0. -1.
</event>
<event>
 5   0  0.1522273E-07  0.3689179E+04  0.7818609E-02  0.8070364E-01
        1   -1    0    0  501    0  0.00000000000E+00  0.00000000000E+00  0.25897484356E+04  0.25897484356E+04  0.50400001928E-02 0.  1.
       -1   -1    0    0    0  501  0.00000000000E+00  0.00000000000E+00 -0.13138379935E+04  0.13138379935E+04  0.50400001928E-02 0. -1.
    10030    2    1    2    0    0  0.00000000000E+00  0.00000000000E+00  0.12759104421E+04  0.39035864291E+04  0.36891787098E+04 0.  0.
        4    1    3    3  502    0 -0.35872013678E+03  0.17559336162E+04  0.17609516538E+03  0.18008315083E+04  0.12699999809E+01 0. -1.
       -4    1    3    3    0  502  0.35872013678E+03 -0.17559336162E+04  0.10998152767E+04  0.21027549208E+04  0.12699999809E+01 0.  1.
</event>
<event>
 5   0  0.1522273E-07  0.3679982E+04  0.7818609E-02  0.8072413E-01
        1   -1    0    0  501    0  0.00000000000E+00  0.00000000000E+00  0.23657754872E+04  0.23657754872E+04  0.50400001928E-02 0.  1.
       -1   -1    0    0    0  501  0.00000000000E+00  0.00000000000E+00 -0.14310599358E+04  0.14310599358E+04  0.50400001928E-02 0. -1.
    10030    2    1    2    0    0  0.00000000000E+00  0.00000000000E+00  0.93471555137E+03  0.37968354230E+04  0.36799818025E+04 0.  0.
        4    1    3    3  502    0  0.36438145057E+03  0.15277887012E+04  0.14562564406E+04  0.21418675474E+04  0.12699999809E+01 0.  1.
       -4    1    3    3    0  502 -0.36438145057E+03 -0.15277887012E+04 -0.52154088926E+03  0.16549678755E+04  0.12699999809E+01 0. -1.
</event>
<event>
 5   0  0.1496000E-07  0.3659807E+04  0.7818609E-02  0.8076928E-01
        1   -1    0    0  501    0  0.00000000000E+00  0.00000000000E+00  0.24394779309E+04  0.24394779309E+04  0.50400001928E-02 0. -1.
       -1   -1    0    0    0  501  0.00000000000E+00  0.00000000000E+00 -0.13726489106E+04  0.13726489107E+04  0.50400001928E-02 0.  1.
    10030    2    1    2    0    0  0.00000000000E+00  0.00000000000E+00  0.10668290203E+04  0.38121268416E+04  0.36598069481E+04 0.  0.
        5    1    3    3  502    0  0.14759375072E+03 -0.13613846632E+04  0.17977590801E+04  0.22598920143E+04  0.46999998093E+01 0. -1.
       -5    1    3    3    0  502 -0.14759375072E+03  0.13613846632E+04 -0.73093005983E+03  0.15522348272E+04  0.46999998093E+01 0.  1.
</event>
<event>
 5   0  0.4687817E-07  0.3701227E+04  0.7818609E-02  0.8067690E-01
        2   -1    0    0  501    0  0.00000000000E+00  0.00000000000E+00  0.99438875298E+03  0.99438875299E+03  0.25500000920E-02 0. -1.
       -2   -1    0    0    0  501  0.00000000000E+00  0.00000000000E+00 -0.34440964763E+04  0.34440964763E+04  0.25500000920E-02 0.  1.
    10030    2    1    2    0    0  0.00000000000E+00  0.00000000000E+00 -0.24497077234E+04  0.44384852293E+04  0.37012272561E+04 0.  0.
        4    1    3    3  502    0 -0.13958287874E+04 -0.70075238103E+03 -0.34461036965E+02  0.15622359230E+04  0.12699999809E+01 0. -1.
       -4    1    3    3    0  502  0.13958287874E+04  0.70075238103E+03 -0.24152466864E+04  0.28762493063E+04  0.12699999809E+01 0.  1.
</event>
<event>
 5   0  0.1496000E-07  0.3687218E+04  0.7818609E-02  0.8070800E-01
        3   -1    0    0  501    0  0.00000000000E+00  0.00000000000E+00  0.16529699920E+04  0.16529699951E+04  0.10100000352E+00 0. -1.
       -3   -1    0    0    0  501  0.00000000000E+00  0.00000000000E+00 -0.20562350284E+04  0.20562350309E+04  0.10100000352E+00 0.  1.
    10030    2    1    2    0    0  0.00000000000E+00  0.00000000000E+00 -0.40326503638E+03  0.37092050260E+04  0.36872183602E+04 0.  0.
        2    1    3    3  502    0  0.17995531694E+04 -0.17279703570E+03  0.16197039500E+03  0.18150715782E+04  0.25500000920E-02 0. -1.
       -2    1    3    3    0  502 -0.17995531694E+04  0.17279703570E+03 -0.56523543138E+03  0.18941334478E+04  0.25500000920E-02 0.  1.
</event>
<event>
 5   0  0.4793557E-07  0.3699460E+04  0.7818609E-02  0.8068082E-01
       -2   -1    0    0    0  501  0.00000000000E+00  0.00000000000E+00  0.14546257289E+04  0.14546257289E+04  0.25500000920E-02 0.  1.
        2   -1    0    0  501    0  0.00000000000E+00  0.00000000000E+00 -0.23521518890E+04  0.23521518890E+04  0.25500000920E-02 0. -1.
    10030    2    1    2    0    0  0.00000000000E+00  0.00000000000E+00 -0.89752616007E+03  0.38067776180E+04  0.36994597747E+04 0.  0.
        3    1    3    3  502    0  0.77323496537E+03  0.14515330988E+03 -0.21714050286E+04  0.23095370972E+04  0.10100000352E+00 0. -1.
       -3    1    3    3    0  502 -0.77323496537E+03 -0.14515330988E+03  0.12738788685E+04  0.14972405207E+04  0.10100000352E+00 0.  1.
</event>
<event>
 5   0  0.4793557E-07  0.3076094E+04  0.7818609E-02  0.8222330E-01
        2   -1    0    0  501    0  0.00000000000E+00  0.00000000000E+00  0.20500207536E+04  0.20500207536E+04  0.25500000920E-02 0. -1.
       -2   -1    0    0    0  501  0.00000000000E+00  0.00000000000E+00 -0.11539336982E+04  0.11539336982E+04  0.25500000920E-02 0.  1.
    10030    2    1    2    0    0  0.00000000000E+00  0.00000000000E+00  0.89608705543E+03  0.32039544519E+04  0.30760936460E+04 0.  0.
        3    1    3    3  502    0 -0.71610068657E+03 -0.11374835755E+04 -0.33064037140E+03  0.13841936798E+04  0.10100000352E+00 0.  1.
       -3    1    3    3    0  502  0.71610068657E+03  0.11374835755E+04  0.12267274268E+04  0.18197607721E+04  0.10100000352E+00 0. -1.
</event>
<event>
 5   0  0.1496000E-07  0.3692487E+04  0.7818609E-02  0.8069629E-01
        1   -1    0    0  501    0  0.00000000000E+00  0.00000000000E+00  0.14328651973E+04  0.14328651973E+04  0.50400001928E-02 0.  1.
       -1   -1    0    0    0  501  0.00000000000E+00  0.00000000000E+00 -0.23788802235E+04  0.23788802236E+04  0.50400001928E-02 0. -1.
    10030    2    1    2    0    0  0.00000000000E+00  0.00000000000E+00 -0.94601502623E+03  0.38117454209E+04  0.36924867940E+04 0.  0.
        5    1    3    3  502    0  0.13169947584E+04 -0.96995978625E+03 -0.13569915445E+04  0.21252635890E+04  0.46999998093E+01 0. -1.
       -5    1    3    3    0  502 -0.13169947584E+04  0.96995978625E+03  0.41097651832E+03  0.16864818319E+04  0.46999998093E+01 0.  1.
</event>
<event>
 5   0  0.4793557E-07  0.3353306E+04  0.7818609E-02  0.8149463E-01
        2   -1    0    0  501    0  0.00000000000E+00  0.00000000000E+00  0.14813042830E+04  0.14813042830E+04  0.25500000920E-02 0.  1.
       -2   -1    0    0    0  501  0.00000000000E+00  0.00000000000E+00 -0.18977636705E+04  0.18977636705E+04  0.25500000920E-02 0. -1.
    10030    2    1    2    0    0  0.00000000000E+00  0.00000000000E+00 -0.41645938756E+03  0.33790679535E+04  0.33533061019E+04 0.  0.
        3    1    3    3  502    0 -0.54493202867E+03  0.87301838666E+03 -0.15420502266E+04  0.18539231189E+04  0.10100000352E+00 0. -1.
       -3    1    3    3    0  502  0.54493202867E+03 -0.87301838666E+03  0.11255908391E+04  0.15251448346E+04  0.10100000352E+00 0.  1.
</event>
<event>
 5   0  0.4758908E-07  0.3715173E+04  0.7818609E-02  0.8064608E-01
        2   -1    0    0  501    0  0.00000000000E+00  0.00000000000E+00  0.25689586122E+04  0.25689586122E+04  0.25500000920E-02 0.  1.
       -2   -1    0    0    0  501  0.00000000000E+00  0.00000000000E+00 -0.13432009818E+04  0.13432009818E+04  0.25500000920E-02 0. -1.
    10030    2    1    2    0    0  0.00000000000E+00  0.00000000000E+00  0.12257576305E+04  0.39121595940E+04  0.37151730673E+04 0.  0.
        2    1    3    3  502    0 -0.16102017437E+04 -0.87710301991E+03  0.29949480608E+03  0.18578903364E+04  0.25500000920E-02 0. -1.
       -2    1    3    3    0  502  0.16102017437E+04  0.87710301991E+03  0.92626282438E+03  0.20542692576E+04  0.25500000920E-02 0.  1.
</event>
<event>
 5   0  0.4824268E-07  0.3712702E+04  0.7818609E-02  0.8065153E-01
       -2   -1    0    0    0  501  0.00000000000E+00  0.00000000000E+00  0.21488009295E+04  0.21488009295E+04  0.25500000920E-02 0. -1.
        2   -1    0    0  501    0  0.00000000000E+00  0.00000000000E+00 -0.16037034819E+04  0.16037034819E+04  0.25500000920E-02 0.  1.
    10030    2    1    2    0    0  0.00000000000E+00  0.00000000000E+00  0.54509744766E+03  0.37525044114E+04  0.37127022679E+04 0.  0.
        1    1    3    3  502    0 -0.44742359376E+03 -0.15959304937E+04 -0.57239037924E+03  0.17535144023E+04  0.50400001928E-02 0.  1.
       -1    1    3    3    0  502  0.44742359376E+03  0.15959304937E+04  0.11174878269E+04  0.19989900090E+04  0.50400001928E-02 0. -1.
</event>
<event>
 5   0  0.1496000E-07  0.3677297E+04  0.7818609E-02  0.8073012E-01
       -1   -1    0    0    0  501  0.00000000000E+00  0.00000000000E+00  0.16441161377E+04  0.16441161377E+04  0.50400001928E-02 0.  1.
        1   -1    0    0  501    0  0.00000000000E+00  0.00000000000E+00 -0.20561974927E+04  0.20561974928E+04  0.50400001928E-02 0. -1.
    10030    2    1    2    0    0  0.00000000000E+00  0.00000000000E+00 -0.41208135509E+03  0.37003136304E+04  0.36772965505E+04 0.  0.
        3    1    3    3  502    0 -0.13125542960E+04  0.12130782277E+04 -0.64033207401E+03  0.18985211986E+04  0.10100000352E+00 0. -1.
       -3    1    3    3    0  502  0.13125542960E+04 -0.12130782277E+04  0.22825071892E+03  0.18017924318E+04  0.10100000352E+00 0.  1.
</event>
<event>
 5   0  0.4687817E-07  0.3708993E+04  0.7818609E-02  0.8065972E-01
        2   -1    0    0  501    0  0.00000000000E+00  0.00000000000E+00  0.23508115085E+04  0.23508115085E+04  0.25500000920E-02 0.  1.
       -2   -1    0    0    0  501  0.00000000000E+00  0.00000000000E+00 -0.14629656357E+04  0.14629656357E+04  0.25500000920E-02 0. -1.
    10030    2    1    2    0    0  0.00000000000E+00  0.00000000000E+00  0.88784587276E+03  0.38137771442E+04  0.37089925602E+04 0.  0.
        4    1    3    3  502    0 -0.65601759285E+03 -0.17206526522E+04  0.66955376342E+03  0.19594153430E+04  0.12699999809E+01 0. -1.
       -4    1    3    3    0  502  0.65601759285E+03  0.17206526522E+04  0.21829210933E+03  0.18543618011E+04  0.12699999809E+01 0.  1.
</event>
<event>
 5   0  0.4687817E-07  0.3687608E+04  0.7818609E-02  0.8070714E-01
        2   -1    0    0  501    0  0.00000000000E+00  0.00000000000E+00  0.15957551809E+04  0.15957551809E+04  0.25500000920E-02 0.  1.
       -2   -1    0    0    0  501  0.00000000000E+00  0.00000000000E+00 -0.21304101042E+04  0.21304101042E+04  0.25500000920E-02 0. -1.
    10030    2    1    2    0    0  0.00000000000E+00  0.00000000000E+00 -0.53465492327E+03  0.37261652851E+04  0.36876078757E+04 0.  0.
        4    1    3    3  502    0  0.17506708940E+04  0.18825361519E+02  0.31699953848E+03  0.17792395268E+04  0.12699999809E+01 0.  1.
       -4    1    3    3    0  502 -0.17506708940E+04 -0.18825361519E+02 -0.85165446175E+03  0.19469257583E+04  0.12699999809E+01 0. -1.
</event>
<event>
 5   0  0.4857514E-07  0.3701812E+04  0.7818609E-02  0.8067560E-01
       -2   -1    0    0    0  501  0.00000000000E+00  0.00000000000E+00  0.17985988661E+04  0.17985988661E+04  0.25500000920E-02 0.  1.
        2   -1    0    0  501    0  0.00000000000E+00  0.00000000000E+00 -0.19047342260E+04  0.19047342260E+04  0.25500000920E-02 0. -1.
    10030    2    1    2    0    0  0.00000000000E+00  0.00000000000E+00 -0.10613535993E+03  0.37033330921E+04  0.37018118910E+04 0.  0.
        5    1    3    3  502    0 -0.63286875513E+03 -0.15181397702E+04  0.79613891011E+03  0.18273287820E+04  0.46999998093E+01 0.  1.
       -5    1    3    3    0  502  0.63286875513E+03  0.15181397702E+04 -0.90227427003E+03  0.18760043101E+04  0.46999998093E+01 0. -1.
</event>
<event>
 5   0  0.1522273E-07  0.3752734E+04  0.7818609E-02  0.8056375E-01
        1   -1    0    0  501    0  0.00000000000E+00  0.00000000000E+00  0.16281562152E+04  0.16281562152E+04  0.50400001928E-02 0.  1.
       -1   -1    0    0    0  501  0.00000000000E+00  0.00000000000E+00 -0.21624176108E+04  0.21624176108E+04  0.50400001928E-02 0. -1.
    10030    2    1    2    0    0  0.00000000000E+00  0.00000000000E+00 -0.53426139560E+03  0.37905738259E+04  0.37527342953E+04 0.  0.
        4    1    3    3  502    0  0.91751689693E+02  0.16470496994E+04  0.63606724086E+03  0.17679859255E+04  0.12699999809E+01 0.  1.
       -4    1    3    3    0  502 -0.91751689693E+02 -0.16470496994E+04 -0.11703286365E+04  0.20225879005E+04  0.12699999809E+01 0. -1.
</event>
<event>
 5   0  0.1496000E-07  0.3615801E+04  0.7818609E-02  0.8086882E-01
        1   -1    0    0  501    0  0.00000000000E+00  0.00000000000E+00  0.25360254575E+04  0.25360254575E+04  0.50400001928E-02 0. -1.
       -1   -1    0    0    0  501  0.00000000000E+00  0.00000000000E+00 -0.12888292818E+04  0.12888292819E+04  0.50400001928E-02 0.  1.
    10030    2    1    2    0    0  0.00000000000E+00  0.00000000000E+00  0.12471961757E+04  0.38248547394E+04  0.36158008071E+04 0.  0.
        2    1    3    3  502    0 -0.42961988222E+03  0.17541440116E+04  0.71152686025E+03  0.19410988974E+04  0.25500000920E-02 0.  1.
       -2    1    3    3    0  502  0.42961988222E+03 -0.17541440116E+04  0.53566931544E+03  0.18837558420E+04  0.25500000920E-02 0. -1.
</event>
<event>
 5   0  0.4793557E-07  0.3686108E+04  0.7818609E-02  0.8071048E-01
        2   -1    0    0  501    0  0.00000000000E+00  0.00000000000E+00  0.24240317737E+04  0.24240317737E+04  0.25500000920E-02 0.  1.
       -2   -1    0    0    0  501  0.00000000000E+00  0.00000000000E+00 -0.14013213972E+04  0.14013213972E+04  0.25500000920E-02 0. -1.
    10030    2    1    2    0    0  0.00000000000E+00  0.00000000000E+00  0.10227103765E+04  0.38253531709E+04  0.36861077532E+04 0.  0.
        3    1    3    3  502    0 -0.15109240819E+03 -0.68495489424E+03  0.22801024246E+04  0.23855521792E+04  0.10100000352E+00 0.  1.
       -3    1    3    3    0  502  0.15109240819E+03  0.68495489424E+03 -0.12573920481E+04  0.14398009917E+04  0.10100000352E+00 0. -1.
</event>
<event>
 5   0  0.4687817E-07  0.3711564E+04  0.7818609E-02  0.8065404E-01
        2   -1    0    0  501    0  0.00000000000E+00  0.00000000000E+00  0.21104350974E+04  0.21104350974E+04  0.25500000920E-02 0. -1.
       -2   -1    0    0    0  501  0.00000000000E+00  0.00000000000E+00 -0.16318561382E+04  0.16318561382E+04  0.25500000920E-02 0.  1.
    10030    2    1    2    0    0  0.00000000000E+00  0.00000000000E+00  0.47857895919E+03  0.37422912356E+04  0.37115638040E+04 0.  0.
        4    1    3    3  502    0  0.11951282027E+04  0.15270560710E+03 -0.11838754479E+04  0.16891456753E+04  0.12699999809E+01 0.  1.
       -4    1    3    3    0  502 -0.11951282027E+04 -0.15270560710E+03  0.16624544071E+04  0.20531455603E+04  0.12699999809E+01 0. -1.
</event>
<event>
 5   0  0.4687817E-07  0.3711467E+04  0.7818609E-02  0.8065425E-01
        2   -1    0    0  501    0  0.00000000000E+00  0.00000000000E+00  0.23362250581E+04  0.23362250581E+04  0.25500000920E-02 0. -1.
       -2   -1    0    0    0  501  0.00000000000E+00  0.00000000000E+00 -0.14740643302E+04  0.14740643302E+04  0.25500000920E-02 0.  1.
    10030    2    1    2    0    0  0.00000000000E+00  0.00000000000E+00  0.86216072784E+03  0.38102893883E+04  0.37114665702E+04 0.  0.
        4    1    3    3  502    0  0.10778773740E+04  0.82748691300E+03 -0.86636991832E+03  0.16115683891E+04  0.12699999809E+01 0.  1.
       -4    1    3    3    0  502 -0.10778773740E+04 -0.82748691300E+03  0.17285306462E+04  0.21987209992E+04  0.12699999809E+01 0. -1.
</event>
<event>
 5   0  0.1496000E-07  0.3732823E+04  0.7818609E-02  0.8060726E-01
        1   -1    0    0  501    0  0.00000000000E+00  0.00000000000E+00  0.14750697852E+04  0.14750697852E+04  0.50400001928E-02 0.  1.
       -1   -1    0    0    0  501  0.00000000000E+00  0.00000000000E+00 -0.23615781319E+04  0.23615781319E+04  0.50400001928E-02 0. -1.
    10030    2    1    2    0    0  0.00000000000E+00  0.00000000000E+00 -0.88650834666E+03  0.38366479171E+04  0.37328233538E+04 0.  0.
        3    1    3    3  502    0 -0.10724043797E+04 -0.90557227853E+03  0.82115761572E+03  0.16261648580E+04  0.10100000352E+00 0.  1.
       -3    1    3    3    0  502  0.10724043797E+04  0.90557227853E+03 -0.17076659624E+04  0.22104830591E+04  0.10100000352E+00 0. -1.
</event>
<event>
 5   0  0.1496287E-07  0.3700540E+04  0.7818609E-02  0.8067842E-01
        1   -1    0    0  501    0  0.00000000000E+00  0.00000000000E+00  0.24658075857E+04  0.24658075857E+04  0.50400001928E-02 0. -1.
       -1   -1    0    0    0  501  0.00000000000E+00  0.00000000000E+00 -0.13883888267E+04  0.13883888267E+04  0.50400001928E-02 0.  1.
    10030    2    1    2    0    0  0.00000000000E+00  0.00000000000E+00  0.10774187590E+04  0.38541964124E+04  0.37005403394E+04 0.  0.
        1    1    3    3  502    0  0.16883009627E+04  0.10153150307E+03 -0.24266230978E+03  0.17086701798E+04  0.50400001928E-02 0.  1.
       -1    1    3    3    0  502 -0.16883009627E+04 -0.10153150307E+03  0.13200810688E+04  0.21455262326E+04  0.50400001928E-02 0. -1.
</event>
<event>
 5   0  0.1522273E-07  0.3698660E+04  0.7818609E-02  0.8068259E-01
       -1   -1    0    0    0  501  0.00000000000E+00  0.00000000000E+00  0.18713320158E+04  0.18713320158E+04  0.50400001928E-02 0. -1.
        1   -1    0    0  501    0  0.00000000000E+00  0.00000000000E+00 -0.18275870877E+04  0.18275870877E+04  0.50400001928E-02 0.  1.
    10030    2    1    2    0    0  0.00000000000E+00  0.00000000000E+00  0.43744928021E+02  0.36989191035E+04  0.36986604218E+04 0.  0.
        4    1    3    3  502    0  0.39946626841E+03  0.17783018171E+04 -0.29134261357E+03  0.18457553423E+04  0.12699999809E+01 0.  1.
       -4    1    3    3    0  502 -0.39946626841E+03 -0.17783018171E+04  0.33508754159E+03  0.18531637612E+04  0.12699999809E+01 0. -1.
</event>
<event>
 5   0  0.4824268E-07  0.3747767E+04  0.7818609E-02  0.8057458E-01
       -2   -1    0    0    0  501  0.00000000000E+00  0.00000000000E+00  0.30340254147E+04  0.30340254147E+04  0.25500000920E-02 0.  1.
        2   -1    0    0  501    0  0.00000000000E+00  0.00000000000E+00 -0.11573535653E+04  0.11573535653E+04  0.25500000920E-02 0. -1.
    10030    2    1    2    0    0  0.00000000000E+00  0.00000000000E+00  0.18766718494E+04  0.41913789800E+04  0.37477674052E+04 0.  0.
        1    1    3    3  502    0 -0.50915213951E+03 -0.86971090277E+03  0.27051457909E+04  0.28867709825E+04  0.50400001928E-02 0.  1.
       -1    1    3    3    0  502  0.50915213951E+03  0.86971090277E+03 -0.82847394142E+03  0.13046079975E+04  0.50400001928E-02 0. -1.
</event>
<event>
 5   0  0.4687817E-07  0.3705448E+04  0.7818609E-02  0.8066755E-01
       -2   -1    0    0    0  501  0.00000000000E+00  0.00000000000E+00  0.18890188361E+04  0.18890188361E+04  0.25500000920E-02 0. -1.
        2   -1    0    0  501    0  0.00000000000E+00  0.00000000000E+00 -0.18171268798E+04  0.18171268798E+04  0.25500000920E-02 0.  1.
    10030    2    1    2    0    0  0.00000000000E+00  0.00000000000E+00  0.71891956271E+02  0.37061457159E+04  0.37054483689E+04 0.  0.
        4    1    3    3  502    0  0.12193240715E+04 -0.31952356435E+03  0.13940449516E+04  0.18794173138E+04  0.12699999809E+01 0. -1.
       -4    1    3    3    0  502 -0.12193240715E+04  0.31952356435E+03 -0.13221529953E+04  0.18267284022E+04  0.12699999809E+01 0.  1.
</event>
<event>
 5   0  0.1496000E-07  0.3692318E+04  0.7818609E-02  0.8069666E-01
        1   -1    0    0  501    0  0.00000000000E+00  0.00000000000E+00  0.17483149611E+04  0.17483149611E+04  0.50400001928E-02 0.  1.
       -1   -1    0    0    0  501  0.00000000000E+00  0.00000000000E+00 -0.19494785316E+04  0.19494785316E+04  0.50400001928E-02 0. -1.
    10030    2    1    2    0    0  0.00000000000E+00  0.00000000000E+00 -0.20116357049E+03  0.36977934927E+04  0.36923176911E+04 0.  0.
        5    1    3    3  502    0 -0.47011503366E+03 -0.17796801862E+04 -0.24225069409E+03  0.18566036731E+04  0.46999998093E+01 0. -1.
       -5    1    3    3    0  502  0.47011503366E+03  0.17796801862E+04  0.41087123599E+02  0.18411898196E+04  0.46999998093E+01 0.  1.
</event>
<event>
 5   0  0.4824268E-07  0.3669448E+04  0.7818609E-02  0.8074766E-01
        2   -1    0    0  501    0  0.00000000000E+00  0.00000000000E+00  0.36139576519E+04  0.36139576519E+04  0.25500000920E-02 0.  1.
       -2   -1    0    0    0  501  0.00000000000E+00  0.00000000000E+00 -0.93144749851E+03  0.93144749851E+03  0.25500000920E-02 0. -1.
    10030    2    1    2    0    0  0.00000000000E+00  0.00000000000E+00  0.26825101534E+04  0.45454051504E+04  0.36694478138E+04 0.  0.
        1    1    3    3  502    0  0.11152449272E+04  0.13842718724E+04  0.19037904778E+04  0.26046877064E+04  0.50400001928E-02 0.  1.
       -1    1    3    3    0  502 -0.11152449272E+04 -0.13842718724E+04  0.77871967565E+03  0.19407174441E+04  0.50400001928E-02 0. -1.
</event>
<event>
 5   0  0.1496000E-07  0.3700706E+04  0.7818609E-02  0.8067805E-01
       -1   -1    0    0    0  501  0.00000000000E+00  0.00000000000E+00  0.21487825618E+04  0.21487825618E+04  0.50400001928E-02 0. -1.
        1   -1    0    0  501    0  0.00000000000E+00  0.00000000000E+00 -0.15933705183E+04  0.15933705183E+04  0.50400001928E-02 0.  1.
    10030    2    1    2    0    0  0.00000000000E+00  0.00000000000E+00  0.55541204357E+03  0.37421530801E+04  0.37007063024E+04 0.  0.
        3    1    3    3  502    0  0.56773836230E+03 -0.96440187790E+03 -0.12123676480E+04  0.16499191357E+04  0.10100000352E+00 0.  1.
       -3    1    3    3    0  502 -0.56773836230E+03  0.96440187790E+03  0.17677796916E+04  0.20922339444E+04  0.10100000352E+00 0. -1.
</event>
<event>
 5   0  0.1496000E-07  0.3721075E+04  0.7818609E-02  0.8063307E-01
        3   -1    0    0  501    0  0.00000000000E+00  0.00000000000E+00  0.15375955341E+04  0.15375955374E+04  0.10100000352E+00 0.  1.
       -3   -1    0    0    0  501  0.00000000000E+00  0.00000000000E+00 -0.22513072524E+04  0.22513072546E+04  0.10100000352E+00 0. -1.
    10030    2    1    2    0    0  0.00000000000E+00  0.00000000000E+00 -0.71371171824E+03  0.37889027920E+04  0.37210751068E+04 0.  0.
        3    1    3    3  502    0 -0.31951932747E+03  0.73313650652E+03 -0.20673631726E+04  0.22166578977E+04  0.10100000352E+00 0. -1.
       -3    1    3    3    0  502  0.31951932747E+03 -0.73313650652E+03  0.13536514543E+04  0.15722448944E+04  0.10100000352E+00 0.  1.
</event>
<event>
 5   0  0.1496000E-07  0.3711811E+04  0.7818609E-02  0.8065349E-01
        1   -1    0    0  501    0  0.00000000000E+00  0.00000000000E+00  0.16455519331E+04  0.16455519331E+04  0.50400001928E-02 0. -1.
       -1   -1    0    0    0  501  0.00000000000E+00  0.00000000000E+00 -0.20931488591E+04  0.20931488591E+04  0.50400001928E-02 0.  1.
    10030    2    1    2    0    0  0.00000000000E+00  0.00000000000E+00 -0.44759692603E+03  0.37387007922E+04  0.37118109604E+04 0.  0.
        5    1    3    3  502    0  0.85350238708E+03  0.57177304305E+03  0.13330287682E+04  0.16829671786E+04  0.46999998093E+01 0. -1.
       -5    1    3    3    0  502 -0.85350238708E+03 -0.57177304305E+03 -0.17806256942E+04  0.20557336137E+04  0.46999998093E+01 0.  1.
</event>
<event>
 5   0  0.1496000E-07  0.3736917E+04  0.7818609E-02  0.8059830E-01
        1   -1    0    0  501    0  0.00000000000E+00  0.00000000000E+00  0.19896057585E+04  0.19896057585E+04  0.50400001928E-02 0.  1.
       -1   -1    0    0    0  501  0.00000000000E+00  0.00000000000E+00 -0.17546876150E+04  0.17546876150E+04  0.50400001928E-02 0. -1.
    10030    2    1    2    0    0  0.00000000000E+00  0.00000000000E+00  0.23491814353E+03  0.37442933734E+04  0.37369166879E+04 0.  0.
        2    1    3    3  502    0  0.41511592615E+03  0.47171903755E+03 -0.16456440915E+04  0.17615290399E+04  0.25500000920E-02 0. -1.
       -2    1    3    3    0  502 -0.41511592615E+03 -0.47171903755E+03  0.18805622350E+04  0.19827643335E+04  0.25500000920E-02 0.  1.
</event>
<event>
 5   0  0.4857514E-07  0.3665430E+04  0.7818609E-02  0.8075666E-01
       -2   -1    0    0    0  501  0.00000000000E+00  0.00000000000E+00  0.33244419556E+04  0.33244419556E+04  0.25500000920E-02 0. -1.
        2   -1    0    0  501    0  0.00000000000E+00  0.00000000000E+00 -0.10103485433E+04  0.10103485433E+04  0.25500000920E-02 0.  1.
    10030    2    1    2    0    0  0.00000000000E+00  0.00000000000E+00  0.23140934123E+04  0.43347904990E+04  0.36654304453E+04 0.  0.
        5    1    3    3  502    0  0.35496652038E+03 -0.11512232349E+04 -0.47629172525E+03  0.12954505257E+04  0.46999998093E+01 0.  1.
       -5    1    3    3    0  502 -0.35496652038E+03  0.11512232349E+04  0.27903851375E+04  0.30393399732E+04  0.46999998093E+01 0. -1.
</event>
<event>
 5   0  0.4687817E-07  0.3661867E+04  0.7818609E-02  0.8076466E-01
        2   -1    0    0  501    0  0.00000000000E+00  0.00000000000E+00  0.23244746060E+04  0.23244746060E+04  0.25500000920E-02 0. -1.
       -2   -1    0    0    0  501  0.00000000000E+00  0.00000000000E+00 -0.14421827209E+04  0.14421827209E+04  0.25500000920E-02 0.  1.
    10030    2    1    2    0    0  0.00000000000E+00  0.00000000000E+00  0.88229188504E+03  0.37666573269E+04  0.36618667982E+04 0.  0.
        4    1    3    3  502    0  0.34301714528E+03 -0.25137277878E+03 -0.13906775775E+04  0.14542471500E+04  0.12699999809E+01 0.  1.
       -4    1    3    3    0  502 -0.34301714528E+03  0.25137277878E+03  0.22729694625E+04  0.23124101769E+04  0.12699999809E+01 0. -1.
</event>
<event>
 5   0  0.1496287E-07  0.3651307E+04  0.7818609E-02  0.8078839E-01
        1   -1    0    0  501    0  0.00000000000E+00  0.00000000000E+00  0.20476256671E+04  0.20476256671E+04  0.50400001928E-02 0.  1.
       -1   -1    0    0    0  501  0.00000000000E+00  0.00000000000E+00 -0.16277439638E+04  0.16277439638E+04  0.50400001928E-02 0. -1.
    10030    2    1    2    0    0  0.00000000000E+00  0.00000000000E+00  0.41988170335E+03  0.36753696309E+04  0.36513067906E+04 0.  0.
        1    1    3    3  502    0 -0.37799220503E+03 -0.13825277509E+04  0.13482111152E+04  0.19677231259E+04  0.50400001928E-02 0.  1.
       -1    1    3    3    0  502  0.37799220503E+03  0.13825277509E+04 -0.92832941189E+03  0.17076465050E+04  0.50400001928E-02 0. -1.
</event>
<event>
 5   0  0.4857514E-07  0.3385247E+04  0.7818609E-02  0.8141537E-01
       -2   -1    0    0    0  501  0.00000000000E+00  0.00000000000E+00  0.21705769999E+04  0.21705769999E+04  0.25500000920E-02 0.  1.
        2   -1    0    0  501    0  0.00000000000E+00  0.00000000000E+00 -0.13199136189E+04  0.13199136189E+04  0.25500000920E-02 0. -1.
    10030    2    1    2    0    0  0.00000000000E+00  0.00000000000E+00  0.85066338099E+03  0.34904906188E+04  0.33852468997E+04 0.  0.
        5    1    3    3  502    0 -0.16449368384E+03  0.13743426039E+04 -0.57916078431E+03  0.15004416247E+04  0.46999998093E+01 0. -1.
       -5    1    3    3    0  502  0.16449368384E+03 -0.13743426039E+04  0.14298241653E+04  0.19900489941E+04  0.46999998093E+01 0.  1.
</event>
<event>
 5   0  0.1496000E-07  0.3431275E+04  0.7818609E-02  0.8130273E-01
       -1   -1    0    0    0  501  0.00000000000E+00  0.00000000000E+00  0.19090239580E+04  0.19090239580E+04  0.50400001928E-02 0.  1.
        1   -1    0    0  501    0  0.00000000000E+00  0.00000000000E+00 -0.15418416518E+04  0.15418416518E+04  0.50400001928E-02 0. -1.
    10030    2    1    2    0    0  0.00000000000E+00  0.00000000000E+00  0.36718230622E+03  0.34508656098E+04  0.34312753621E+04 0.  0.
        5    1    3    3  502    0  0.27941974256E+03 -0.16847571337E+04  0.34856602103E+03  0.17429866187E+04  0.46999998093E+01 0.  1.
       -5    1    3    3    0  502 -0.27941974256E+03  0.16847571337E+04  0.18616285185E+02  0.17078789911E+04  0.46999998093E+01 0. -1.
</event>
<event>
 5   0  0.4793557E-07  0.3695885E+04  0.7818609E-02  0.8068874E-01
       -2   -1    0    0    0  501  0.00000000000E+00  0.00000000000E+00  0.15104152390E+04  0.15104152390E+04  0.25500000920E-02 0.  1.
        2   -1    0    0  501    0  0.00000000000E+00  0.00000000000E+00 -0.22608954514E+04  0.22608954514E+04  0.25500000920E-02 0. -1.
    10030    2    1    2    0    0  0.00000000000E+00  0.00000000000E+00 -0.75048021240E+03  0.37713106904E+04  0.36958847079E+04 0.  0.
        3    1    3    3  502    0 -0.53320050413E+03  0.17447305701E+04 -0.67535701872E+03  0.19453777661E+04  0.10100000352E+00 0. -1.
       -3    1    3    3    0  502  0.53320050413E+03 -0.17447305701E+04 -0.75123193673E+02  0.18259329243E+04  0.10100000352E+00 0.  1.
</event>
<event>
 5   0  0.4857514E-07  0.3693170E+04  0.7818609E-02  0.8069477E-01
        2   -1    0    0  501    0  0.00000000000E+00  0.00000000000E+00  0.15988875214E+04  0.15988875214E+04  0.25500000920E-02 0.  1.
       -2   -1    0    0    0  501  0.00000000000E+00  0.00000000000E+00 -0.21326555265E+04  0.21326555265E+04  0.25500000920E-02 0. -1.
    10030    2    1    2    0    0  0.00000000000E+00  0.00000000000E+00 -0.53376800515E+03  0.37315430479E+04  0.36931700793E+04 0.  0.
        5    1    3    3  502    0  0.13587056462E+04 -0.99993257211E+03  0.49185653829E+03  0.17572396325E+04  0.46999998093E+01 0. -1.
       -5    1    3    3    0  502 -0.13587056462E+04  0.99993257211E+03 -0.10256245434E+04  0.19743034154E+04  0.46999998093E+01 0.  1.
</event>
<event>
 5   0  0.1522273E-07  0.3646831E+04  0.7818609E-02  0.8079848E-01
       -1   -1    0    0    0  501  0.00000000000E+00  0.00000000000E+00  0.23772363292E+04  0.23772363292E+04  0.50400001928E-02 0.  1.
        1   -1    0    0  501    0  0.00000000000E+00  0.00000000000E+00 -0.13986171072E+04  0.13986171072E+04  0.50400001928E-02 0. -1.
    10030    2    1    2    0    0  0.00000000000E+00  0.00000000000E+00  0.97861922200E+03  0.37758534363E+04  0.36468306227E+04 0.  0.
        4    1    3    3  502    0  0.70577899600E+03 -0.75281023807E+03  0.20458243242E+04  0.22913415338E+04  0.12699999809E+01 0.  1.
       -4    1    3    3    0  502 -0.70577899600E+03  0.75281023807E+03 -0.10672051022E+04  0.14845119026E+04  0.12699999809E+01 0. -1.
</event>
<event>
 5   0  0.4793557E-07  0.3700037E+04  0.7818609E-02  0.8067954E-01
       -2   -1    0    0    0  501  0.00000000000E+00  0.00000000000E+00  0.24725879158E+04  0.24725879158E+04  0.25500000920E-02 0.  1.
        2   -1    0    0  501    0  0.00000000000E+00  0.00000000000E+00 -0.13842045842E+04  0.13842045842E+04  0.25500000920E-02 0. -1.
    10030    2    1    2    0    0  0.00000000000E+00  0.00000000000E+00  0.10883833316E+04  0.38567925000E+04  0.37000365014E+04 0.  0.
        3    1    3    3  502    0  0.75760832092E+03  0.13398877949E+04  0.16139750881E+04  0.22302881576E+04  0.10100000352E+00 0.  1.
       -3    1    3    3    0  502 -0.75760832092E+03 -0.13398877949E+04 -0.52559175650E+03  0.16265043423E+04  0.10100000352E+00 0. -1.
</event>
<event>
 5   0  0.4758908E-07  0.3638176E+04  0.7818609E-02  0.8081802E-01
        2   -1    0    0  501    0  0.00000000000E+00  0.00000000000E+00  0.16472512931E+04  0.16472512931E+04  0.25500000920E-02 0. -1.
       -2   -1    0    0    0  501  0.00000000000E+00  0.00000000000E+00 -0.20088506623E+04  0.20088506623E+04  0.25500000920E-02 0.  1.
    10030    2    1    2    0    0  0.00000000000E+00  0.00000000000E+00 -0.36159936916E+03  0.36561019554E+04  0.36381763845E+04 0.  0.
        2    1    3    3  502    0 -0.10252216101E+04  0.10506710398E+04 -0.12603799226E+04  0.19348246776E+04  0.25500000920E-02 0.  1.
       -2    1    3    3    0  502  0.10252216101E+04 -0.10506710398E+04  0.89878055340E+03  0.17212772778E+04  0.25500000920E-02 0. -1.
</event>
<event>
 5   0  0.4687817E-07  0.3716950E+04  0.7818609E-02  0.8064216E-01
       -2   -1    0    0    0  501  0.00000000000E+00  0.00000000000E+00  0.17116091381E+04  0.17116091381E+04  0.25500000920E-02 0. -1.
        2   -1    0    0  501    0  0.00000000000E+00  0.00000000000E+00 -0.20179428977E+04  0.20179428977E+04  0.25500000920E-02 0.  1.
    10030    2    1    2    0    0  0.00000000000E+00  0.00000000000E+00 -0.30633375961E+03  0.37295520359E+04  0.37169500960E+04 0.  0.
        4    1    3    3  502    0 -0.47345305445E+03 -0.51481390706E+03  0.15745119361E+04  0.17228698743E+04  0.12699999809E+01 0. -1.
       -4    1    3    3    0  502  0.47345305445E+03  0.51481390706E+03 -0.18808456957E+04  0.20066821616E+04  0.12699999809E+01 0.  1.
</event>
<event>
 5   0  0.4857514E-07  0.3701892E+04  0.7818609E-02  0.8067543E-01
        2   -1    0    0  501    0  0.00000000000E+00  0.00000000000E+00  0.21887398747E+04  0.21887398747E+04  0.25500000920E-02 0.  1.
       -2   -1    0    0    0  501  0.00000000000E+00  0.00000000000E+00 -0.15652843680E+04  0.15652843680E+04  0.25500000920E-02 0. -1.
    10030    2    1    2    0    0  0.00000000000E+00  0.00000000000E+00  0.62345550667E+03  0.37540242427E+04  0.37018915767E+04 0.  0.
        5    1    3    3  502    0 -0.96146398727E+00  0.18483718168E+04  0.21289279552E+03  0.18605979496E+04  0.46999998093E+01 0.  1.
       -5    1    3    3    0  502  0.96146398727E+00 -0.18483718168E+04  0.41056271115E+03  0.18934262931E+04  0.46999998093E+01 0. -1.
</event>
<event>
 5   0  0.4824268E-07  0.3576738E+04  0.7818609E-02  0.8095841E-01
       -2   -1    0    0    0  501  0.00000000000E+00  0.00000000000E+00  0.16435481147E+04  0.16435481147E+04  0.25500000920E-02 0. -1.
        2   -1    0    0  501    0  0.00000000000E+00  0.00000000000E+00 -0.19459505555E+04  0.19459505555E+04  0.25500000920E-02 0.  1.
    10030    2    1    2    0    0  0.00000000000E+00  0.00000000000E+00 -0.30240244075E+03  0.35894986702E+04  0.35767378248E+04 0.  0.
        1    1    3    3  502    0  0.15604909886E+04 -0.65955438062E+03  0.42365938929E+03  0.17463193822E+04  0.50400001928E-02 0. -1.
       -1    1    3    3    0  502 -0.15604909886E+04  0.65955438062E+03 -0.72606183004E+03  0.18431792880E+04  0.50400001928E-02 0.  1.
</event>
<event>
 5   0  0.4824268E-07  0.3694103E+04  0.7818609E-02  0.8069270E-01
        2   -1    0    0  501    0  0.00000000000E+00  0.00000000000E+00  0.15667448603E+04  0.15667448603E+04  0.25500000920E-02 0. -1.
       -2   -1    0    0    0  501  0.00000000000E+00  0.00000000000E+00 -0.21775081469E+04  0.21775081469E+04  0.25500000920E-02 0.  1.
    10030    2    1    2    0    0  0.00000000000E+00  0.00000000000E+00 -0.61076328669E+03  0.37442530072E+04  0.36941032456E+04 0.  0.
        1    1    3    3  502    0 -0.16072366832E+04 -0.52979142560E+03 -0.10555036114E+04  0.19944865465E+04  0.50400001928E-02 0.  1.
       -1    1    3    3    0  502  0.16072366832E+04  0.52979142560E+03  0.44474032469E+03  0.17497664607E+04  0.50400001928E-02 0. -1.
</event>
<event>
 5   0  0.1496287E-07  0.3323784E+04  0.7818609E-02  0.8156870E-01
        1   -1    0    0  501    0  0.00000000000E+00  0.00000000000E+00  0.15903129064E+04  0.15903129064E+04  0.50400001928E-02 0.  1.
       -1   -1    0    0    0  501  0.00000000000E+00  0.00000000000E+00 -0.17366932814E+04  0.17366932814E+04  0.50400001928E-02 0. -1.
    10030    2    1    2    0    0  0.00000000000E+00  0.00000000000E+00 -0.14638037504E+03  0.33270061878E+04  0.33237844333E+04 0.  0.
        1    1    3    3  502    0  0.75903448156E+03  0.20050394622E+03 -0.15393797921E+04  0.17280119562E+04  0.50400001928E-02 0. -1.
       -1    1    3    3    0  502 -0.75903448156E+03 -0.20050394622E+03  0.13929994170E+04  0.15989942315E+04  0.50400001928E-02 0.  1.
</event>
<event>
 5   0  0.1496000E-07  0.3714385E+04  0.7818609E-02  0.8064782E-01
       -1   -1    0    0    0  501  0.00000000000E+00  0.00000000000E+00  0.20854774713E+04  0.20854774713E+04  0.50400001928E-02 0. -1.
        1   -1    0    0  501    0  0.00000000000E+00  0.00000000000E+00 -0.16538961262E+04  0.16538961262E+04  0.50400001928E-02 0.  1.
    10030    2    1    2    0    0  0.00000000000E+00  0.00000000000E+00  0.43158134508E+03  0.37393735975E+04  0.37143845311E+04 0.  0.
        2    1    3    3  502    0 -0.62610019754E+03 -0.31075108503E+03  0.19480046017E+04  0.20696109834E+04  0.25500000920E-02 0. -1.
       -2    1    3    3    0  502  0.62610019754E+03  0.31075108503E+03 -0.15164232567E+04  0.16697626141E+04  0.25500000920E-02 0.  1.
</event>
<event>
 5   0  0.4824268E-07  0.3716950E+04  0.7818609E-02  0.8064216E-01
       -2   -1    0    0    0  501  0.00000000000E+00  0.00000000000E+00  0.19343498890E+04  0.19343498890E+04  0.25500000920E-02 0.  1.
        2   -1    0    0  501    0  0.00000000000E+00  0.00000000000E+00 -0.17855766705E+04  0.17855766705E+04  0.25500000920E-02 0. -1.
    10030    2    1    2    0    0  0.00000000000E+00  0.00000000000E+00  0.14877321848E+03  0.37199265595E+04  0.37169503813E+04 0.  0.
        1    1    3    3  502    0  0.17516098838E+04 -0.56316193223E+03 -0.18781837612E+03  0.18494767610E+04  0.50400001928E-02 0. -1.
       -1    1    3    3    0  502 -0.17516098838E+04  0.56316193223E+03  0.33659159460E+03  0.18704497985E+04  0.50400001928E-02 0.  1.
</event>
<event>
 5   0  0.1496000E-07  0.3316756E+04  0.7818609E-02  0.8158645E-01
        1   -1    0    0  501    0  0.00000000000E+00  0.00000000000E+00  0.21633541884E+04  0.21633541884E+04  0.50400001928E-02 0. -1.
       -1   -1    0    0    0  501  0.00000000000E+00  0.00000000000E+00 -0.12712745762E+04  0.12712745762E+04  0.50400001928E-02 0.  1.
    10030    2    1    2    0    0  0.00000000000E+00  0.00000000000E+00  0.89207961222E+03  0.34346287646E+04  0.33167557517E+04 0.  0.
        5    1    3    3  502    0  0.13066717887E+01  0.58622517410E+03 -0.11603918772E+04  0.13000742521E+04  0.46999998093E+01 0.  1.
       -5    1    3    3    0  502 -0.13066717887E+01 -0.58622517410E+03  0.20524714895E+04  0.21345545126E+04  0.46999998093E+01 0. -1.
</event>
<event>
 5   0  0.4857514E-07  0.3671009E+04  0.7818609E-02  0.8074417E-01
        2   -1    0    0  501    0  0.00000000000E+00  0.00000000000E+00  0.24267963358E+04  0.24267963358E+04  0.25500000920E-02 0.  1.
       -2   -1    0    0    0  501  0.00000000000E+00  0.00000000000E+00 -0.13882819187E+04  0.13882819187E+04  0.25500000920E-02 0. -1.
    10030    2    1    2    0    0  0.00000000000E+00  0.00000000000E+00  0.10385144171E+04  0.38150782545E+04  0.36710093834E+04 0.  0.
        5    1    3    3  502    0  0.14445466705E+04 -0.41366388010E+03  0.16147725610E+04  0.22057527972E+04  0.46999998093E+01 0.  1.
       -5    1    3    3    0  502 -0.14445466705E+04  0.41366388010E+03 -0.57625814392E+03  0.16093254572E+04  0.46999998093E+01 0. -1.
</event>
<event>
 5   0  0.1496000E-07  0.3704918E+04  0.7818609E-02  0.8066873E-01
        1   -1    0    0  501    0  0.00000000000E+00  0.00000000000E+00  0.19211366245E+04  0.19211366245E+04  0.50400001928E-02 0. -1.
       -1   -1    0    0    0  501  0.00000000000E+00  0.00000000000E+00 -0.17862368055E+04  0.17862368055E+04  0.50400001928E-02 0.  1.
    10030    2    1    2    0    0  0.00000000000E+00  0.00000000000E+00  0.13489981892E+03  0.37073734300E+04  0.37049183241E+04 0.  0.
        3    1    3    3  502    0  0.10622463683E+04 -0.79992701108E+03 -0.12231156946E+04  0.18067270360E+04  0.10100000352E+00 0.  1.
       -3    1    3    3    0  502 -0.10622463683E+04  0.79992701108E+03  0.13580155135E+04  0.19006463940E+04  0.10100000352E+00 0. -1.
</event>
<event>
 5   0  0.4758908E-07  0.3861410E+04  0.7818609E-02  0.8033103E-01
        2   -1    0    0  501    0  0.00000000000E+00  0.00000000000E+00  0.22603113208E+04  0.22603113208E+04  0.25500000920E-02 0.  1.
       -2   -1    0    0    0  501  0.00000000000E+00  0.00000000000E+00 -0.16491632515E+04  0.16491632515E+04  0.25500000920E-02 0. -1.
    10030    2    1    2    0    0  0.00000000000E+00  0.00000000000E+00  0.61114806935E+03  0.39094745723E+04  0.38614102954E+04 0.  0.
        2    1    3    3  502    0  0.79527289419E+03 -0.13603369379E+03  0.20814477118E+04  0.22323504920E+04  0.25500000920E-02 0.  1.
       -2    1    3    3    0  502 -0.79527289419E+03  0.13603369379E+03 -0.14702996425E+04  0.16771240803E+04  0.25500000920E-02 0. -1.
</event>
<event>
 5   0  0.1522273E-07  0.3738633E+04  0.7818609E-02  0.8059454E-01
       -1   -1    0    0    0  501  0.00000000000E+00  0.00000000000E+00  0.20965072807E+04  0.20965072807E+04  0.50400001928E-02 0.  1.
        1   -1    0    0  501    0  0.00000000000E+00  0.00000000000E+00 -0.16667459568E+04  0.16667459568E+04  0.50400001928E-02 0. -1.
    10030    2    1    2    0    0  0.00000000000E+00  0.00000000000E+00  0.42976132386E+03  0.37632532375E+04  0.37386334581E+04 0.  0.
        4    1    3    3  502    0 -0.90337063743E+03 -0.16194220710E+04 -0.22761018840E+02  0.18544880775E+04  0.12699999809E+01 0. -1.
       -4    1    3    3    0  502  0.90337063743E+03  0.16194220710E+04  0.45252234270E+03  0.19087651600E+04  0.12699999809E+01 0.  1.
</event>
<event>
 5   0  0.1496000E-07  0.3696828E+04  0.7818609E-02  0.8068665E-01
       -1   -1    0    0    0  501  0.00000000000E+00  0.00000000000E+00  0.14161503972E+04  0.14161503972E+04  0.50400001928E-02 0. -1.
        1   -1    0    0  501    0  0.00000000000E+00  0.00000000000E+00 -0.24126215743E+04  0.24126215743E+04  0.50400001928E-02 0.  1.
    10030    2    1    2    0    0  0.00000000000E+00  0.00000000000E+00 -0.99647117713E+03  0.38287719715E+04  0.36968283708E+04 0.  0.
        5    1    3    3  502    0 -0.85627351711E+03 -0.11007964370E+04 -0.17546512279E+04  0.22413790740E+04  0.46999998093E+01 0.  1.
       -5    1    3    3    0  502  0.85627351711E+03  0.11007964370E+04  0.75818005077E+03  0.15873928975E+04  0.46999998093E+01 0. -1.
</event>
<event>
 5   0  0.1496000E-07  0.3755458E+04  0.7818609E-02  0.8055782E-01
        1   -1    0    0  501    0  0.00000000000E+00  0.00000000000E+00  0.27338829749E+04  0.27338829749E+04  0.50400001928E-02 0. -1.
       -1   -1    0    0    0  501  0.00000000000E+00  0.00000000000E+00 -0.12896916633E+04  0.12896916634E+04  0.50400001928E-02 0.  1.
    10030    2    1    2    0    0  0.00000000000E+00  0.00000000000E+00  0.14441913115E+04  0.40235746382E+04  0.37554579381E+04 0.  0.
        3    1    3    3  502    0 -0.10443573304E+04  0.14730680824E+04  0.17029737199E+03  0.18137290354E+04  0.10100000352E+00 0.  1.
       -3    1    3    3    0  502  0.10443573304E+04 -0.14730680824E+04  0.12738939395E+04  0.22098456028E+04  0.10100000352E+00 0. -1.
</event>
<event>
 5   0  0.1496000E-07  0.3688787E+04  0.7818609E-02  0.8070451E-01
        1   -1    0    0  501    0  0.00000000000E+00  0.00000000000E+00  0.26510954910E+04  0.26510954910E+04  0.50400001928E-02 0. -1.
       -1   -1    0    0    0  501  0.00000000000E+00  0.00000000000E+00 -0.12831631726E+04  0.12831631726E+04  0.50400001928E-02 0.  1.
    10030    2    1    2    0    0  0.00000000000E+00  0.00000000000E+00  0.13679323184E+04  0.39342586636E+04  0.36887873894E+04 0.  0.
        2    1    3    3  502    0 -0.71539111030E+03  0.15780631590E+04  0.96595722204E+01  0.17326745458E+04  0.25500000920E-02 0.  1.
       -2    1    3    3    0  502  0.71539111030E+03 -0.15780631590E+04  0.13582727462E+04  0.22015841177E+04  0.25500000920E-02 0. -1.
</event>
<event>
 5   0  0.4793557E-07  0.3667236E+04  0.7818609E-02  0.8075262E-01
        2   -1    0    0  501    0  0.00000000000E+00  0.00000000000E+00  0.30208022096E+04  0.30208022096E+04  0.25500000920E-02 0. -1.
       -2   -1    0    0    0  501  0.00000000000E+00  0.00000000000E+00 -0.11130006690E+04  0.11130006690E+04  0.25500000920E-02 0.  1.
    10030    2    1    2    0    0  0.00000000000E+00  0.00000000000E+00  0.19078015406E+04  0.41338028786E+04  0.36672359511E+04 0.  0.
        3    1    3    3  502    0 -0.88595817922E+03  0.50603383682E+02  0.27626230483E+04  0.29016493094E+04  0.10100000352E+00 0. -1.
       -3    1    3    3    0  502  0.88595817922E+03 -0.50603383682E+02 -0.85482150771E+03  0.12321535692E+04  0.10100000352E+00 0.  1.
</event>
<event>
 5   0  0.4824268E-07  0.3419583E+04  0.7818609E-02  0.8133117E-01
        2   -1    0    0  501    0  0.00000000000E+00  0.00000000000E+00  0.94525806175E+03  0.94525806176E+03  0.25500000920E-02 0.  1.
       -2   -1    0    0    0  501  0.00000000000E+00  0.00000000000E+00 -0.30926857673E+04  0.30926857673E+04  0.25500000920E-02 0. -1.
    10030    2    1    2    0    0  0.00000000000E+00  0.00000000000E+00 -0.21474277056E+04  0.40379438291E+04  0.34195825208E+04 0.  0.
        1    1    3    3  502    0 -0.13730940670E+04 -0.48583112178E+03 -0.21311774417E+04  0.25813439298E+04  0.50400001928E-02 0. -1.
       -1    1    3    3    0  502  0.13730940670E+04  0.48583112178E+03 -0.16250263856E+02  0.14565998993E+04  0.50400001928E-02 0.  1.
</event>
<event>
 5   0  0.1496000E-07  0.3584858E+04  0.7818609E-02  0.8093969E-01
       -1   -1    0    0    0  501  0.00000000000E+00  0.00000000000E+00  0.22688519374E+04  0.22688519374E+04  0.50400001928E-02 0.  1.
        1   -1    0    0  501    0  0.00000000000E+00  0.00000000000E+00 -0.14160474752E+04  0.14160474752E+04  0.50400001928E-02 0. -1.
    10030    2    1    2    0    0  0.00000000000E+00  0.00000000000E+00  0.85280446218E+03  0.36848994126E+04  0.35848581883E+04 0.  0.
        2    1    3    3  502    0  0.12931675145E+03  0.86919531704E+03  0.20322340853E+04  0.22140909419E+04  0.25500000920E-02 0.  1.
       -2    1    3    3    0  502 -0.12931675145E+03 -0.86919531704E+03 -0.11794296232E+04  0.14708084707E+04  0.25500000920E-02 0. -1.
</event>
<event>
 5   0  0.1522273E-07  0.3777674E+04  0.7818609E-02  0.8050963E-01
        1   -1    0    0  501    0  0.00000000000E+00  0.00000000000E+00  0.31482873363E+04  0.31482873363E+04  0.50400001928E-02 0. -1.
       -1   -1    0    0    0  501  0.00000000000E+00  0.00000000000E+00 -0.11332212598E+04  0.11332212599E+04  0.50400001928E-02 0.  1.
    10030    2    1    2    0    0  0.00000000000E+00  0.00000000000E+00  0.20150660764E+04  0.42815085961E+04  0.37776744918E+04 0.  0.
        4    1    3    3  502    0 -0.13052868204E+04  0.71727709815E+03  0.23241207153E+04  0.27603983102E+04  0.12699999809E+01 0. -1.
       -4    1    3    3    0  502  0.13052868204E+04 -0.71727709815E+03 -0.30905463886E+03  0.15211102859E+04  0.12699999809E+01 0.  1.
</event>
<event>
 5   0  0.1496000E-07  0.3665664E+04  0.7818609E-02  0.8075614E-01
        1   -1    0    0  501    0  0.00000000000E+00  0.00000000000E+00  0.22405117740E+04  0.22405117740E+04  0.50400001928E-02 0. -1.
       -1   -1    0    0    0  501  0.00000000000E+00  0.00000000000E+00 -0.14993326394E+04  0.14993326395E+04  0.50400001928E-02 0.  1.
    10030    2    1    2    0    0  0.00000000000E+00  0.00000000000E+00  0.74117913460E+03  0.37398444135E+04  0.36656636135E+04 0.  0.
        3    1    3    3  502    0  0.44168297291E+03  0.11102152595E+04 -0.10473597961E+04  0.15889066441E+04  0.10100000352E+00 0.  1.
       -3    1    3    3    0  502 -0.44168297291E+03 -0.11102152595E+04  0.17885389307E+04  0.21509377694E+04  0.10100000352E+00 0. -1.
</event>
<event>
 5   0  0.1522273E-07  0.3722134E+04  0.7818609E-02  0.8063074E-01
       -1   -1    0    0    0  501  0.00000000000E+00  0.00000000000E+00  0.17705782483E+04  0.17705782483E+04  0.50400001928E-02 0.  1.
        1   -1    0    0  501    0  0.00000000000E+00  0.00000000000E+00 -0.19561804756E+04  0.19561804756E+04  0.50400001928E-02 0. -1.
    10030    2    1    2    0    0  0.00000000000E+00  0.00000000000E+00 -0.18560222722E+03  0.37267587239E+04  0.37221341189E+04 0.  0.
        4    1    3    3  502    0 -0.98578103525E+03 -0.49701528726E+03 -0.15929218120E+04  0.19380892542E+04  0.12699999809E+01 0. -1.
       -4    1    3    3    0  502  0.98578103525E+03  0.49701528726E+03  0.14073195848E+04  0.17886694697E+04  0.12699999809E+01 0.  1.
</event>
<event>
 5   0  0.4758908E-07  0.3697885E+04  0.7818609E-02  0.8068431E-01
        2   -1    0    0  501    0  0.00000000000E+00  0.00000000000E+00  0.14645542077E+04  0.14645542077E+04  0.25500000920E-02 0.  1.
       -2   -1    0    0    0  501  0.00000000000E+00  0.00000000000E+00 -0.23342181029E+04  0.23342181029E+04  0.25500000920E-02 0. -1.
    10030    2    1    2    0    0  0.00000000000E+00  0.00000000000E+00 -0.86966389521E+03  0.37987723105E+04  0.36978853115E+04 0.  0.
        2    1    3    3  502    0  0.73725090957E+03  0.39210098404E+03  0.12598124661E+04  0.15114263247E+04  0.25500000920E-02 0.  1.
       -2    1    3    3    0  502 -0.73725090957E+03 -0.39210098404E+03 -0.21294763613E+04  0.22873459858E+04  0.25500000920E-02 0. -1.
</event>
<event>
 5   0  0.4824268E-07  0.3633904E+04  0.7818609E-02  0.8082770E-01
       -2   -1    0    0    0  501  0.00000000000E+00  0.00000000000E+00  0.18887745027E+04  0.18887745027E+04  0.25500000920E-02 0. -1.
        2   -1    0    0  501    0  0.00000000000E+00  0.00000000000E+00 -0.17478602444E+04  0.17478602444E+04  0.25500000920E-02 0.  1.
    10030    2    1    2    0    0  0.00000000000E+00  0.00000000000E+00  0.14091425831E+03  0.36366347472E+04  0.36339036113E+04 0.  0.
        1    1    3    3  502    0 -0.32121313496E+03  0.17685310043E+03  0.18513616727E+04  0.18873248105E+04  0.50400001928E-02 0. -1.
       -1    1    3    3    0  502  0.32121313496E+03 -0.17685310043E+03 -0.17104474144E+04  0.17493099367E+04  0.50400001928E-02 0.  1.
</event>
<event>
 5   0  0.1496287E-07  0.3585775E+04  0.7818609E-02  0.8093758E-01
       -1   -1    0    0    0  501  0.00000000000E+00  0.00000000000E+00  0.16745265416E+04  0.16745265416E+04  0.50400001928E-02 0. -1.
        1   -1    0    0  501    0  0.00000000000E+00  0.00000000000E+00 -0.19196148669E+04  0.19196148669E+04  0.50400001928E-02 0.  1.
    10030    2    1    2    0    0  0.00000000000E+00  0.00000000000E+00 -0.24508832533E+03  0.35941414084E+04  0.35857752546E+04 0.  0.
        1    1    3    3  502    0 -0.86762075656E+03 -0.96908045095E+03 -0.13593450254E+04  0.18814094705E+04  0.50400001928E-02 0.  1.
       -1    1    3    3    0  502  0.86762075656E+03  0.96908045095E+03  0.11142567000E+04  0.17127319379E+04  0.50400001928E-02 0. -1.
</event>
<event>
 5   0  0.4758908E-07  0.3177720E+04  0.7818609E-02  0.8194726E-01
        2   -1    0    0  501    0  0.00000000000E+00  0.00000000000E+00  0.21989876688E+04  0.21989876688E+04  0.25500000920E-02 0. -1.
       -2   -1    0    0    0  501  0.00000000000E+00  0.00000000000E+00 -0.11480173001E+04  0.11480173001E+04  0.25500000920E-02 0.  1.
    10030    2    1    2    0    0  0.00000000000E+00  0.00000000000E+00  0.10509703687E+04  0.33470049689E+04  0.31777198658E+04 0.  0.
        2    1    3    3  502    0 -0.39800137529E+03  0.10859658224E+04 -0.62192893506E+03  0.13132107456E+04  0.25500000920E-02 0.  1.
       -2    1    3    3    0  502  0.39800137529E+03 -0.10859658224E+04  0.16728993038E+04  0.20337942233E+04  0.25500000920E-02 0. -1.
</event>
<event>
 5   0  0.1496000E-07  0.3485623E+04  0.7818609E-02  0.8117206E-01
        1   -1    0    0  501    0  0.00000000000E+00  0.00000000000E+00  0.22415583900E+04  0.22415583900E+04  0.50400001928E-02 0. -1.
       -1   -1    0    0    0  501  0.00000000000E+00  0.00000000000E+00 -0.13550357758E+04  0.13550357758E+04  0.50400001928E-02 0.  1.
    10030    2    1    2    0    0  0.00000000000E+00  0.00000000000E+00  0.88652261423E+03  0.35965941659E+04  0.34856229355E+04 0.  0.
        3    1    3    3  502    0  0.13812349220E+04 -0.10305805964E+04  0.71131164034E+03  0.18643686693E+04  0.10100000352E+00 0. -1.
       -3    1    3    3    0  502 -0.13812349220E+04  0.10305805964E+04  0.17521097389E+03  0.17322254965E+04  0.10100000352E+00 0.  1.
</event>
<event>
 5   0  0.4824268E-07  0.3702407E+04  0.7818609E-02  0.8067429E-01
       -2   -1    0    0    0  501  0.00000000000E+00  0.00000000000E+00  0.21770049095E+04  0.21770049095E+04  0.25500000920E-02 0.  1.
        2   -1    0    0  501    0  0.00000000000E+00  0.00000000000E+00 -0.15741600215E+04  0.15741600215E+04  0.25500000920E-02 0. -1.
    10030    2    1    2    0    0  0.00000000000E+00  0.00000000000E+00  0.60284488791E+03  0.37511649310E+04  0.37024068362E+04 0.  0.
        1    1    3    3  502    0  0.11122387302E+04 -0.56904121768E+03 -0.10826095352E+04  0.16531564675E+04  0.50400001928E-02 0. -1.
       -1    1    3    3    0  502 -0.11122387302E+04  0.56904121768E+03  0.16854544231E+04  0.20980084635E+04  0.50400001928E-02 0.  1.
</event>
<event>
 5   0  0.1496000E-07  0.3426947E+04  0.7818609E-02  0.8131324E-01
       -1   -1    0    0    0  501  0.00000000000E+00  0.00000000000E+00  0.12972144920E+04  0.12972144920E+04  0.50400001928E-02 0.  1.
        1   -1    0    0  501    0  0.00000000000E+00  0.00000000000E+00 -0.22633048182E+04  0.22633048182E+04  0.50400001928E-02 0. -1.
    10030    2    1    2    0    0  0.00000000000E+00  0.00000000000E+00 -0.96609032627E+03  0.35605193102E+04  0.34269472187E+04 0.  0.
        3    1    3    3  502    0  0.60747669698E+03 -0.82443027914E+03 -0.19103736547E+04  0.21675425563E+04  0.10100000352E+00 0. -1.
       -3    1    3    3    0  502 -0.60747669698E+03  0.82443027914E+03  0.94428332841E+03  0.13929767540E+04  0.10100000352E+00 0.  1.
</event>
<event>
 5   0  0.4857514E-07  0.3783496E+04  0.7818609E-02  0.8049706E-01
       -2   -1    0    0    0  501  0.00000000000E+00  0.00000000000E+00  0.26109238254E+04  0.26109238254E+04  0.25500000920E-02 0.  1.
        2   -1    0    0  501    0  0.00000000000E+00  0.00000000000E+00 -0.13706684245E+04  0.13706684245E+04  0.25500000920E-02 0. -1.
    10030    2    1    2    0    0  0.00000000000E+00  0.00000000000E+00  0.12402554010E+04  0.39815922499E+04  0.37834961854E+04 0.  0.
        5    1    3    3  502    0  0.52916183887E+02 -0.11817324875E+04 -0.93344525516E+03  0.15068622794E+04  0.46999998093E+01 0. -1.
       -5    1    3    3    0  502 -0.52916183887E+02  0.11817324875E+04  0.21737006561E+04  0.24747299705E+04  0.46999998093E+01 0.  1.
</event>
<event>
 5   0  0.4824268E-07  0.3787125E+04  0.7818609E-02  0.8048923E-01
       -2   -1    0    0    0  501  0.00000000000E+00  0.00000000000E+00  0.21695241223E+04  0.21695241223E+04  0.25500000920E-02 0.  1.
        2   -1    0    0  501    0  0.00000000000E+00  0.00000000000E+00 -0.16527031641E+04  0.16527031641E+04  0.25500000920E-02 0. -1.
    10030    2    1    2    0    0  0.00000000000E+00  0.00000000000E+00  0.51682095815E+03  0.38222272864E+04  0.37871252324E+04 0.  0.
        1    1    3    3  502    0  0.10398438539E+04 -0.12013980616E+04  0.12979802764E+04  0.20516786642E+04  0.50400001928E-02 0.  1.
       -1    1    3    3    0  502 -0.10398438539E+04  0.12013980616E+04 -0.78115931827E+03  0.17705486222E+04  0.50400001928E-02 0. -1.
</event>
<event>
 5   0  0.1496000E-07  0.3677474E+04  0.7818609E-02  0.8072972E-01
        1   -1    0    0  501    0  0.00000000000E+00  0.00000000000E+00  0.25599532129E+04  0.25599532129E+04  0.50400001928E-02 0.  1.
       -1   -1    0    0    0  501  0.00000000000E+00  0.00000000000E+00 -0.13207088447E+04  0.13207088447E+04  0.50400001928E-02 0. -1.
    10030    2    1    2    0    0  0.00000000000E+00  0.00000000000E+00  0.12392443682E+04  0.38806620576E+04  0.36774735079E+04 0.  0.
        2    1    3    3  502    0 -0.51841640878E+03  0.14278032398E+04  0.17130056546E+04  0.22894903444E+04  0.25500000920E-02 0.  1.
       -2    1    3    3    0  502  0.51841640878E+03 -0.14278032398E+04 -0.47376128640E+03  0.15911717132E+04  0.25500000920E-02 0. -1.
</event>
<event>
 5   0  0.4758908E-07  0.3713384E+04  0.7818609E-02  0.8065002E-01
       -2   -1    0    0    0  501  0.00000000000E+00  0.00000000000E+00  0.15905195280E+04  0.15905195280E+04  0.25500000920E-02 0. -1.
        2   -1    0    0  501    0  0.00000000000E+00  0.00000000000E+00 -0.21674081216E+04  0.21674081216E+04  0.25500000920E-02 0.  1.
    10030    2    1    2    0    0  0.00000000000E+00  0.00000000000E+00 -0.57688859356E+03  0.37579276496E+04  0.37133838706E+04 0.  0.
        2    1    3    3  502    0  0.14844523335E+04  0.17190393606E+03  0.82666048631E+03  0.17077813833E+04  0.25500000920E-02 0. -1.
       -2    1    3    3    0  502 -0.14844523335E+04 -0.17190393606E+03 -0.14035490799E+04  0.20501462663E+04  0.25500000920E-02 0.  1.
</event>
<event>
 5   0  0.4824268E-07  0.3681290E+04  0.7818609E-02  0.8072121E-01
        2   -1    0    0  501    0  0.00000000000E+00  0.00000000000E+00  0.20662649676E+04  0.20662649676E+04  0.25500000920E-02 0. -1.
       -2   -1    0    0    0  501  0.00000000000E+00  0.00000000000E+00 -0.16396613639E+04  0.16396613639E+04  0.25500000920E-02 0.  1.
    10030    2    1    2    0    0  0.00000000000E+00  0.00000000000E+00  0.42660360369E+03  0.37059263316E+04  0.36812904450E+04 0.  0.
        1    1    3    3  502    0  0.36455255527E+03  0.73118975317E+03  0.18737147056E+04  0.20440997576E+04  0.50400001928E-02 0. -1.
       -1    1    3    3    0  502 -0.36455255527E+03 -0.73118975317E+03 -0.14471111019E+04  0.16618265740E+04  0.50400001928E-02 0.  1.
</event>
<event>
 5   0  0.1496000E-07  0.3674523E+04  0.7818609E-02  0.8073631E-01
       -1   -1    0    0    0  501  0.00000000000E+00  0.00000000000E+00  0.11564148907E+04  0.11564148908E+04  0.50400001928E-02 0.  1.
        1   -1    0    0  501    0  0.00000000000E+00  0.00000000000E+00 -0.29189606818E+04  0.29189606818E+04  0.50400001928E-02 0. -1.
    10030    2    1    2    0    0  0.00000000000E+00  0.00000000000E+00 -0.17625457910E+04  0.40753755725E+04  0.36745228795E+04 0.  0.
        2    1    3    3  502    0  0.21213950257E+03 -0.16721805674E+04 -0.16920004764E+04  0.23883166939E+04  0.25500000920E-02 0. -1.
       -2    1    3    3    0  502 -0.21213950257E+03  0.16721805674E+04 -0.70545314648E+02  0.16870588786E+04  0.25500000920E-02 0.  1.
</event>
<event>
 5   0  0.1522273E-07  0.3738467E+04  0.7818609E-02  0.8059490E-01
       -1   -1    0    0    0  501  0.00000000000E+00  0.00000000000E+00  0.19514774589E+04  0.19514774589E+04  0.50400001928E-02 0. -1.
        1   -1    0    0  501    0  0.00000000000E+00  0.00000000000E+00 -0.17904558871E+04  0.17904558871E+04  0.50400001928E-02 0.  1.
    10030    2    1    2    0    0  0.00000000000E+00  0.00000000000E+00  0.16102157177E+03  0.37419333459E+04  0.37384672286E+04 0.  0.
        4    1    3    3  502    0 -0.11688108492E+04  0.12700765591E+04  0.79868520492E+03  0.19018709043E+04  0.12699999809E+01 0.  1.
       -4    1    3    3    0  502  0.11688108492E+04 -0.12700765591E+04 -0.63766363315E+03  0.18400624416E+04  0.12699999809E+01 0. -1.
</event>
<event>
 5   0  0.4857514E-07  0.3664263E+04  0.7818609E-02  0.8075928E-01
        2   -1    0    0  501    0  0.00000000000E+00  0.00000000000E+00  0.17805509956E+04  0.17805509956E+04  0.25500000920E-02 0.  1.
       -2   -1    0    0    0  501  0.00000000000E+00  0.00000000000E+00 -0.18852067008E+04  0.18852067008E+04  0.25500000920E-02 0. -1.
    10030    2    1    2    0    0  0.00000000000E+00  0.00000000000E+00 -0.10465570525E+03  0.36657576964E+04  0.36642634556E+04 0.  0.
        5    1    3    3  502    0 -0.52599735264E+03 -0.13803380798E+04  0.10319398182E+04  0.18019235022E+04  0.46999998093E+01 0.  1.
       -5    1    3    3    0  502  0.52599735264E+03  0.13803380798E+04 -0.11365955235E+04  0.18638341942E+04  0.46999998093E+01 0. -1.
</event>
<event>
 5   0  0.1496000E-07  0.3671792E+04  0.7818609E-02  0.8074242E-01
       -1   -1    0    0    0  501  0.00000000000E+00  0.00000000000E+00  0.20716048462E+04  0.20716048462E+04  0.50400001928E-02 0.  1.
        1   -1    0    0  501    0  0.00000000000E+00  0.00000000000E+00 -0.16270059316E+04  0.16270059316E+04  0.50400001928E-02 0. -1.
    10030    2    1    2    0    0  0.00000000000E+00  0.00000000000E+00  0.44459891463E+03  0.36986107778E+04  0.36717915914E+04 0.  0.
        5    1    3    3  502    0 -0.10928921776E+04 -0.10610405374E+04 -0.81001327610E+03  0.17252141697E+04  0.46999998093E+01 0. -1.
       -5    1    3    3    0  502  0.10928921776E+04  0.10610405374E+04  0.12546121907E+04  0.19733966081E+04  0.46999998093E+01 0.  1.
</event>
<event>
 5   0  0.1496000E-07  0.3651590E+04  0.7818609E-02  0.8078776E-01
       -1   -1    0    0    0  501  0.00000000000E+00  0.00000000000E+00  0.27770202254E+04  0.27770202254E+04  0.50400001928E-02 0. -1.
        1   -1    0    0  501    0  0.00000000000E+00  0.00000000000E+00 -0.12003971725E+04  0.12003971725E+04  0.50400001928E-02 0.  1.
    10030    2    1    2    0    0  0.00000000000E+00  0.00000000000E+00  0.15766230528E+04  0.39774173979E+04  0.36515899149E+04 0.  0.
        3    1    3    3  502    0 -0.33263163879E+03  0.12501547919E+04 -0.61506026902E+03  0.14324210120E+04  0.10100000352E+00 0.  1.
       -3    1    3    3    0  502  0.33263163879E+03 -0.12501547919E+04  0.21916833219E+04  0.25449963859E+04  0.10100000352E+00 0. -1.
</event>
<event>
 5   0  0.4793557E-07  0.3809803E+04  0.7818609E-02  0.8044055E-01
       -2   -1    0    0    0  501  0.00000000000E+00  0.00000000000E+00  0.18582721181E+04  0.18582721181E+04  0.25500000920E-02 0.  1.
        2   -1    0    0  501    0  0.00000000000E+00  0.00000000000E+00 -0.19527006223E+04  0.19527006223E+04  0.25500000920E-02 0. -1.
    10030    2    1    2    0    0  0.00000000000E+00  0.00000000000E+00 -0.94428504174E+02  0.38109727404E+04  0.38098026833E+04 0.  0.
        3    1    3    3  502    0  0.15393450687E+04 -0.84130736914E+03 -0.78991637347E+03  0.19238890865E+04  0.10100000352E+00 0.  1.
       -3    1    3    3    0  502 -0.15393450687E+04  0.84130736914E+03  0.69548786929E+03  0.18870836538E+04  0.10100000352E+00 0. -1.
</event>
<event>
 5   0  0.4857514E-07  0.3690575E+04  0.7818609E-02  0.8070054E-01
        2   -1    0    0  501    0  0.00000000000E+00  0.00000000000E+00  0.24489928038E+04  0.24489928038E+04  0.25500000920E-02 0. -1.
       -2   -1    0    0    0  501  0.00000000000E+00  0.00000000000E+00 -0.13904025898E+04  0.13904025898E+04  0.25500000920E-02 0.  1.
    10030    2    1    2    0    0  0.00000000000E+00  0.00000000000E+00  0.10585902140E+04  0.38393953935E+04  0.36905749886E+04 0.  0.
        5    1    3    3  502    0 -0.17856412404E+03  0.18303877285E+04  0.37200484945E+03  0.18763299499E+04  0.46999998093E+01 0. -1.
       -5    1    3    3    0  502  0.17856412404E+03 -0.18303877285E+04  0.68658536456E+03  0.19630654436E+04  0.46999998093E+01 0.  1.
</event>
<event>
 5   0  0.1496000E-07  0.3709632E+04  0.7818609E-02  0.8065831E-01
        1   -1    0    0  501    0  0.00000000000E+00  0.00000000000E+00  0.20021296734E+04  0.20021296734E+04  0.50400001928E-02 0.  1.
       -1   -1    0    0    0  501  0.00000000000E+00  0.00000000000E+00 -0.17183414039E+04  0.17183414039E+04  0.50400001928E-02 0. -1.
    10030    2    1    2    0    0  0.00000000000E+00  0.00000000000E+00  0.28378826950E+03  0.37204710774E+04  0.37096319569E+04 0.  0.
        5    1    3    3  502    0 -0.45028084845E+03 -0.45117888122E+03 -0.16050348657E+04  0.17269841445E+04  0.46999998093E+01 0. -1.
       -5    1    3    3    0  502  0.45028084845E+03  0.45117888122E+03  0.18888231352E+04  0.19934869328E+04  0.46999998093E+01 0.  1.
</event>
<event>
 5   0  0.1496000E-07  0.3645608E+04  0.7818609E-02  0.8080124E-01
        1   -1    0    0  501    0  0.00000000000E+00  0.00000000000E+00  0.17081936252E+04  0.17081936253E+04  0.50400001928E-02 0.  1.
       -1   -1    0    0    0  501  0.00000000000E+00  0.00000000000E+00 -0.19451039350E+04  0.19451039350E+04  0.50400001928E-02 0. -1.
    10030    2    1    2    0    0  0.00000000000E+00  0.00000000000E+00 -0.23691030977E+03  0.36532975603E+04  0.36456078463E+04 0.  0.
        2    1    3    3  502    0  0.77059406449E+03 -0.31369341454E+03  0.15068151946E+04  0.17212526837E+04  0.25500000920E-02 0.  1.
       -2    1    3    3    0  502 -0.77059406449E+03  0.31369341454E+03 -0.17437255043E+04  0.19320448766E+04  0.25500000920E-02 0. -1.
</event>
<event>
 5   0  0.4687817E-07  0.3486615E+04  0.7818609E-02  0.8116969E-01
        2   -1    0    0  501    0  0.00000000000E+00  0.00000000000E+00  0.90925674436E+03  0.90925674436E+03  0.25500000920E-02 0. -1.
       -2   -1    0    0    0  501  0.00000000000E+00  0.00000000000E+00 -0.33424239481E+04  0.33424239481E+04  0.25500000920E-02 0.  1.
    10030    2    1    2    0    0  0.00000000000E+00  0.00000000000E+00 -0.24331672038E+04  0.42516806925E+04  0.34866152741E+04 0.  0.
        4    1    3    3  502    0 -0.36102325553E+03  0.46800486152E+02  0.86238838099E+03  0.93607874087E+03  0.12699999809E+01 0. -1.
       -4    1    3    3    0  502  0.36102325553E+03 -0.46800486152E+02 -0.32955555847E+04  0.33156019516E+04  0.12699999809E+01 0.  1.
</event>
<event>
 5   0  0.4857514E-07  0.3624108E+04  0.7818609E-02  0.8084992E-01
        2   -1    0    0  501    0  0.00000000000E+00  0.00000000000E+00  0.13892827335E+04  0.13892827335E+04  0.25500000920E-02 0. -1.
       -2   -1    0    0    0  501  0.00000000000E+00  0.00000000000E+00 -0.23634781586E+04  0.23634781586E+04  0.25500000920E-02 0.  1.
    10030    2    1    2    0    0  0.00000000000E+00  0.00000000000E+00 -0.97419542507E+03  0.37527608921E+04  0.36241078332E+04 0.  0.
        5    1    3    3  502    0 -0.34233761350E+03 -0.15272812609E+02  0.13554186047E+04  0.13980736691E+04  0.46999998093E+01 0. -1.
       -5    1    3    3    0  502  0.34233761350E+03  0.15272812609E+02 -0.23296140297E+04  0.23546872230E+04  0.46999998093E+01 0.  1.
</event>
<event>
 5   0  0.1496287E-07  0.3621487E+04  0.7818609E-02  0.8085587E-01
        1   -1    0    0  501    0  0.00000000000E+00  0.00000000000E+00  0.22177211314E+04  0.22177211314E+04  0.50400001928E-02 0.  1.
       -1   -1    0    0    0  501  0.00000000000E+00  0.00000000000E+00 -0.14784510449E+04  0.14784510449E+04  0.50400001928E-02 0. -1.
    10030    2    1    2    0    0  0.00000000000E+00  0.00000000000E+00  0.73927008649E+03  0.36961721763E+04  0.36214870559E+04 0.  0.
        1    1    3    3  502    0  0.10080223395E+04  0.84471290252E+03  0.16399489092E+04  0.21021611141E+04  0.50400001928E-02 0.  1.
       -1    1    3    3    0  502 -0.10080223395E+04 -0.84471290252E+03 -0.90067882275E+03  0.15940110622E+04  0.50400001928E-02 0. -1.
</event>
<event>
 5   0  0.4758908E-07  0.3720985E+04  0.7818609E-02  0.8063327E-01
       -2   -1    0    0    0  501  0.00000000000E+00  0.00000000000E+00  0.16269450250E+04  0.16269450250E+04  0.25500000920E-02 0. -1.
        2   -1    0    0  501    0  0.00000000000E+00  0.00000000000E+00 -0.21275652308E+04  0.21275652308E+04  0.25500000920E-02 0.  1.
    10030    2    1    2    0    0  0.00000000000E+00  0.00000000000E+00 -0.50062020583E+03  0.37545102558E+04  0.37209846372E+04 0.  0.
        2    1    3    3  502    0 -0.15752713495E+04 -0.98070470510E+03 -0.11429899791E+03  0.18591196315E+04  0.25500000920E-02 0.  1.
       -2    1    3    3    0  502  0.15752713495E+04  0.98070470510E+03 -0.38632120792E+03  0.18953906244E+04  0.25500000920E-02 0. -1.
</event>
<event>
 5   0  0.1496000E-07  0.3691086E+04  0.7818609E-02  0.8069940E-01
       -1   -1    0    0    0  501  0.00000000000E+00  0.00000000000E+00  0.21652059640E+04  0.21652059640E+04  0.50400001928E-02 0. -1.
        1   -1    0    0  501    0  0.00000000000E+00  0.00000000000E+00 -0.15730740116E+04  0.15730740116E+04  0.50400001928E-02 0.  1.
    10030    2    1    2    0    0  0.00000000000E+00  0.00000000000E+00  0.59213195241E+03  0.37382799757E+04  0.36910861447E+04 0.  0.
        2    1    3    3  502    0  0.42178539009E+03 -0.11366135451E+03  0.21120923046E+04  0.21567929251E+04  0.25500000920E-02 0. -1.
       -2    1    3    3    0  502 -0.42178539009E+03  0.11366135451E+03 -0.15199603522E+04  0.15814870505E+04  0.25500000920E-02 0.  1.
</event>
<event>
 5   0  0.4824268E-07  0.3975310E+04  0.7818609E-02  0.8009546E-01
        2   -1    0    0  501    0  0.00000000000E+00  0.00000000000E+00  0.27016986983E+04  0.27016986983E+04  0.25500000920E-02 0.  1.
       -2   -1    0    0    0  501  0.00000000000E+00  0.00000000000E+00 -0.14623288927E+04  0.14623288927E+04  0.25500000920E-02 0. -1.
    10030    2    1    2    0    0  0.00000000000E+00  0.00000000000E+00  0.12393698057E+04  0.41640275910E+04  0.39753098324E+04 0.  0.
        1    1    3    3  502    0 -0.13661975759E+04  0.13376231560E+04  0.11886471680E+04  0.22513581710E+04  0.50400001928E-02 0.  1.
       -1    1    3    3    0  502  0.13661975759E+04 -0.13376231560E+04  0.50722637605E+02  0.19126694200E+04  0.50400001928E-02 0. -1.
</event>
<event>
 5   0  0.1496000E-07  0.3716783E+04  0.7818609E-02  0.8064253E-01
       -1   -1    0    0    0  501  0.00000000000E+00  0.00000000000E+00  0.16071032630E+04  0.16071032631E+04  0.50400001928E-02 0. -1.
        1   -1    0    0  501    0  0.00000000000E+00  0.00000000000E+00 -0.21489709009E+04  0.21489709009E+04  0.50400001928E-02 0.  1.
    10030    2    1    2    0    0  0.00000000000E+00  0.00000000000E+00 -0.54186763789E+03  0.37560741640E+04  0.37167825587E+04 0.  0.
        3    1    3    3  502    0 -0.65739284387E+03  0.17318847843E+04 -0.42092072738E+03  0.18996748475E+04  0.10100000352E+00 0.  1.
       -3    1    3    3    0  502  0.65739284387E+03 -0.17318847843E+04 -0.12094691051E+03  0.18563993165E+04  0.10100000352E+00 0. -1.
</event>
<event>
 5   0  0.1496000E-07  0.3365228E+04  0.7818609E-02  0.8146494E-01
        1   -1    0    0  501    0  0.00000000000E+00  0.00000000000E+00  0.20646816472E+04  0.20646816472E+04  0.50400001928E-02 0. -1.
       -1   -1    0    0    0  501  0.00000000000E+00  0.00000000000E+00 -0.13712472596E+04  0.13712472596E+04  0.50400001928E-02 0.  1.
    10030    2    1    2    0    0  0.00000000000E+00  0.00000000000E+00  0.69343438757E+03  0.34359289069E+04  0.33652275113E+04 0.  0.
        3    1    3    3  502    0 -0.29282237204E+02 -0.92916517868E+03 -0.10852402613E+04  0.14289687938E+04  0.10100000352E+00 0.  1.
       -3    1    3    3    0  502  0.29282237204E+02  0.92916517868E+03  0.17786746489E+04  0.20069601131E+04  0.10100000352E+00 0. -1.
</event>
<event>
 5   0  0.4687817E-07  0.3685392E+04  0.7818609E-02  0.8071207E-01
       -2   -1    0    0    0  501  0.00000000000E+00  0.00000000000E+00  0.19225408935E+04  0.19225408935E+04  0.25500000920E-02 0.  1.
        2   -1    0    0  501    0  0.00000000000E+00  0.00000000000E+00 -0.17661674674E+04  0.17661674674E+04  0.25500000920E-02 0. -1.
    10030    2    1    2    0    0  0.00000000000E+00  0.00000000000E+00  0.15637342611E+03  0.36887083609E+04  0.36853923432E+04 0.  0.
        4    1    3    3  502    0  0.85706216257E+03 -0.90062083116E+02  0.17084127505E+04  0.19134634745E+04  0.12699999809E+01 0.  1.
       -4    1    3    3    0  502 -0.85706216257E+03  0.90062083116E+02 -0.15520393244E+04  0.17752448864E+04  0.12699999809E+01 0. -1.
</event>
<event>
 5   0  0.4824268E-07  0.3742816E+04  0.7818609E-02  0.8058539E-01
        2   -1    0    0  501    0  0.00000000000E+00  0.00000000000E+00  0.29160124863E+04  0.29160124863E+04  0.25500000920E-02 0. -1.
       -2   -1    0    0    0  501  0.00000000000E+00  0.00000000000E+00 -0.12010127916E+04  0.12010127916E+04  0.25500000920E-02 0.  1.
    10030    2    1    2    0    0  0.00000000000E+00  0.00000000000E+00  0.17149996946E+04  0.41170252779E+04  0.37428162106E+04 0.  0.
        1    1    3    3  502    0 -0.51783417113E+03  0.11298077070E+04 -0.68151047094E+03  0.14174181477E+04  0.50400001928E-02 0.  1.
       -1    1    3    3    0  502  0.51783417113E+03 -0.11298077070E+04  0.23965101656E+04  0.26996071302E+04  0.50400001928E-02 0. -1.
</event>
<event>
 5   0  0.1496000E-07  0.3110100E+04  0.7818609E-02  0.8212972E-01
       -1   -1    0    0    0  501  0.00000000000E+00  0.00000000000E+00  0.85770457539E+03  0.85770457541E+03  0.50400001928E-02 0. -1.
        1   -1    0    0  501    0  0.00000000000E+00  0.00000000000E+00 -0.28193625706E+04  0.28193625706E+04  0.50400001928E-02 0.  1.
    10030    2    1    2    0    0  0.00000000000E+00  0.00000000000E+00 -0.19616579952E+04  0.36770671460E+04  0.31100997904E+04 0.  0.
        2    1    3    3  502    0 -0.48016941528E+03  0.71044616422E+03  0.55292001389E+03  0.10203023872E+04  0.25500000920E-02 0. -1.
       -2    1    3    3    0  502  0.48016941528E+03 -0.71044616422E+03 -0.25145780091E+04  0.26567647588E+04  0.25500000920E-02 0.  1.
</event>
<event>
 5   0  0.1522273E-07  0.3714070E+04  0.7818609E-02  0.8064851E-01
       -1   -1    0    0    0  501  0.00000000000E+00  0.00000000000E+00  0.14294235858E+04  0.14294235858E+04  0.50400001928E-02 0. -1.
        1   -1    0    0  501    0  0.00000000000E+00  0.00000000000E+00 -0.24125658614E+04  0.24125658614E+04  0.50400001928E-02 0.  1.
    10030    2    1    2    0    0  0.00000000000E+00  0.00000000000E+00 -0.98314227559E+03  0.38419894472E+04  0.37140697595E+04 0.  0.
        4    1    3    3  502    0  0.11830351373E+03  0.96816091273E+03  0.11431239001E+04  0.15026859746E+04  0.12699999809E+01 0. -1.
       -4    1    3    3    0  502 -0.11830351373E+03 -0.96816091273E+03 -0.21262661757E+04  0.23393034726E+04  0.12699999809E+01 0.  1.
</event>
<event>
 5   0  0.1496000E-07  0.3711108E+04  0.7818609E-02  0.8065505E-01
       -1   -1    0    0    0  501  0.00000000000E+00  0.00000000000E+00  0.18421013484E+04  0.18421013484E+04  0.50400001928E-02 0. -1.
        1   -1    0    0  501    0  0.00000000000E+00  0.00000000000E+00 -0.18691051185E+04  0.18691051185E+04  0.50400001928E-02 0.  1.
    10030    2    1    2    0    0  0.00000000000E+00  0.00000000000E+00 -0.27003770118E+02  0.37112064669E+04  0.37111082221E+04 0.  0.
        5    1    3    3  502    0 -0.13078388130E+04  0.34182495682E+03  0.12576620923E+04  0.18463538909E+04  0.46999998093E+01 0. -1.
       -5    1    3    3    0  502  0.13078388130E+04 -0.34182495682E+03 -0.12846658625E+04  0.18648525760E+04  0.46999998093E+01 0.  1.
</event>
<event>
 5   0  0.4758908E-07  0.3679449E+04  0.7818609E-02  0.8072531E-01
        2   -1    0    0  501    0  0.00000000000E+00  0.00000000000E+00  0.29368379581E+04  0.29368379581E+04  0.25500000920E-02 0.  1.
       -2   -1    0    0    0  501  0.00000000000E+00  0.00000000000E+00 -0.11524595460E+04  0.11524595460E+04  0.25500000920E-02 0. -1.
    10030    2    1    2    0    0  0.00000000000E+00  0.00000000000E+00  0.17843784121E+04  0.40892975041E+04  0.36794493826E+04 0.  0.
        2    1    3    3  502    0 -0.12011083642E+04  0.12468123350E+04  0.15839199403E+04  0.23464877324E+04  0.25500000920E-02 0.  1.
       -2    1    3    3    0  502  0.12011083642E+04 -0.12468123350E+04  0.20045847185E+03  0.17428097717E+04  0.25500000920E-02 0. -1.
</event>
<event>
 5   0  0.1522273E-07  0.3685874E+04  0.7818609E-02  0.8071100E-01
        1   -1    0    0  501    0  0.00000000000E+00  0.00000000000E+00  0.18257616710E+04  0.18257616710E+04  0.50400001928E-02 0. -1.
       -1   -1    0    0    0  501  0.00000000000E+00  0.00000000000E+00 -0.18602738472E+04  0.18602738472E+04  0.50400001928E-02 0.  1.
    10030    2    1    2    0    0  0.00000000000E+00  0.00000000000E+00 -0.34512176127E+02  0.36860355182E+04  0.36858739467E+04 0.  0.
        4    1    3    3  502    0  0.10849294860E+04  0.58054857854E+03  0.13547757847E+04  0.18301714896E+04  0.12699999809E+01 0. -1.
       -4    1    3    3    0  502 -0.10849294860E+04 -0.58054857854E+03 -0.13892879609E+04  0.18558640286E+04  0.12699999809E+01 0.  1.
</event>
<event>
 5   0  0.4857514E-07  0.3662643E+04  0.7818609E-02  0.8076291E-01
        2   -1    0    0  501    0  0.00000000000E+00  0.00000000000E+00  0.23375455034E+04  0.23375455034E+04  0.25500000920E-02 0. -1.
       -2   -1    0    0    0  501  0.00000000000E+00  0.00000000000E+00 -0.14347264002E+04  0.14347264002E+04  0.25500000920E-02 0.  1.
    10030    2    1    2    0    0  0.00000000000E+00  0.00000000000E+00  0.90281910314E+03  0.37722719036E+04  0.36626428957E+04 0.  0.
        5    1    3    3  502    0  0.12494530291E+04 -0.13212987018E+04  0.22871311661E+03  0.18328379391E+04  0.46999998093E+01 0.  1.
       -5    1    3    3    0  502 -0.12494530291E+04  0.13212987018E+04  0.67410598653E+03  0.19394339645E+04  0.46999998093E+01 0. -1.
</event>
<event>
 5   0  0.1496000E-07  0.3707896E+04  0.7818609E-02  0.8066214E-01
        1   -1    0    0  501    0  0.00000000000E+00  0.00000000000E+00  0.22812433606E+04  0.22812433606E+04  0.50400001928E-02 0.  1.
       -1   -1    0    0    0  501  0.00000000000E+00  0.00000000000E+00 -0.15066888982E+04  0.15066888982E+04  0.50400001928E-02 0. -1.
    10030    2    1    2    0    0  0.00000000000E+00  0.00000000000E+00  0.77455446236E+03  0.37879322588E+04  0.37078964632E+04 0.  0.
        5    1    3    3  502    0 -0.22488009559E+03 -0.16337799892E+04 -0.47793600976E+03  0.17170477658E+04  0.46999998093E+01 0. -1.
       -5    1    3    3    0  502  0.22488009559E+03  0.16337799892E+04  0.12524904721E+04  0.20708844930E+04  0.46999998093E+01 0.  1.
</event>
<event>
 5   0  0.1496287E-07  0.3697971E+04  0.7818609E-02  0.8068412E-01
       -1   -1    0    0    0  501  0.00000000000E+00  0.00000000000E+00  0.33042532540E+04  0.33042532540E+04  0.50400001928E-02 0. -1.
        1   -1    0    0  501    0  0.00000000000E+00  0.00000000000E+00 -0.10346503774E+04  0.10346503774E+04  0.50400001928E-02 0.  1.
    10030    2    1    2    0    0  0.00000000000E+00  0.00000000000E+00  0.22696028766E+04  0.43389036315E+04  0.36979707281E+04 0.  0.
        1    1    3    3  502    0 -0.26298444132E+03  0.10891949641E+04  0.28605158536E+04  0.30721421573E+04  0.50400001928E-02 0. -1.
       -1    1    3    3    0  502  0.26298444132E+03 -0.10891949641E+04 -0.59091297696E+03  0.12667614742E+04  0.50400001928E-02 0.  1.
</event>
<event>
 5   0  0.4758908E-07  0.3828381E+04  0.7818609E-02  0.8040092E-01
       -2   -1    0    0    0  501  0.00000000000E+00  0.00000000000E+00  0.11817509510E+04  0.11817509510E+04  0.25500000920E-02 0.  1.
        2   -1    0    0  501    0  0.00000000000E+00  0.00000000000E+00 -0.31005897177E+04  0.31005897177E+04  0.25500000920E-02 0. -1.
    10030    2    1    2    0    0  0.00000000000E+00  0.00000000000E+00 -0.19188387666E+04  0.42823406687E+04  0.38283807792E+04 0.  0.
        2    1    3    3  502    0 -0.15152266330E+04  0.11412573892E+04 -0.67260801529E+03  0.20126553903E+04  0.25500000920E-02 0. -1.
       -2    1    3    3    0  502  0.15152266330E+04 -0.11412573892E+04 -0.12462307514E+04  0.22696852785E+04  0.25500000920E-02 0.  1.
</event>
<event>
 5   0  0.1496000E-07  0.3712851E+04  0.7818609E-02  0.8065120E-01
        1   -1    0    0  501    0  0.00000000000E+00  0.00000000000E+00  0.13704892776E+04  0.13704892776E+04  0.50400001928E-02 0.  1.
       -1   -1    0    0    0  501  0.00000000000E+00  0.00000000000E+00 -0.25146606976E+04  0.25146606976E+04  0.50400001928E-02 0. -1.
    10030    2    1    2    0    0  0.00000000000E+00  0.00000000000E+00 -0.11441714201E+04  0.38851499752E+04  0.37128509385E+04 0.  0.
        5    1    3    3  502    0 -0.33664713072E+03  0.11770083069E+04  0.88824652657E+03  0.15125091164E+04  0.46999998093E+01 0.  1.
       -5    1    3    3    0  502  0.33664713072E+03 -0.11770083069E+04 -0.20324179466E+04  0.23726408588E+04  0.46999998093E+01 0. -1.
</event>
<event>
 5   0  0.4824268E-07  0.3701427E+04  0.7818609E-02  0.8067646E-01
        2   -1    0    0  501    0  0.00000000000E+00  0.00000000000E+00  0.20150066111E+04  0.20150066111E+04  0.25500000920E-02 0. -1.
       -2   -1    0    0    0  501  0.00000000000E+00  0.00000000000E+00 -0.16998162102E+04  0.16998162102E+04  0.25500000920E-02 0.  1.
    10030    2    1    2    0    0  0.00000000000E+00  0.00000000000E+00  0.31519040093E+03  0.37148228213E+04  0.37014272389E+04 0.  0.
        1    1    3    3  502    0  0.11185529653E+04  0.83957058218E+03  0.13740466352E+04  0.19606232821E+04  0.50400001928E-02 0. -1.
       -1    1    3    3    0  502 -0.11185529653E+04 -0.83957058218E+03 -0.10588562342E+04  0.17541995392E+04  0.50400001928E-02 0.  1.
</event>
<event>
 5   0  0.1496287E-07  0.3716473E+04  0.7818609E-02  0.8064321E-01
       -1   -1    0    0    0  501  0.00000000000E+00  0.00000000000E+00  0.13030497624E+04  0.13030497624E+04  0.50400001928E-02 0.  1.
        1   -1    0    0  501    0  0.00000000000E+00  0.00000000000E+00 -0.26499704955E+04  0.26499704955E+04  0.50400001928E-02 0. -1.
    10030    2    1    2    0    0  0.00000000000E+00  0.00000000000E+00 -0.13469207331E+04  0.39530202580E+04  0.37164732877E+04 0.  0.
        1    1    3    3  502    0  0.64535307455E+03  0.16353969614E+04 -0.13134546133E+04  0.21945766867E+04  0.50400001928E-02 0. -1.
       -1    1    3    3    0  502 -0.64535307455E+03 -0.16353969614E+04 -0.33466119785E+02  0.17584435713E+04  0.50400001928E-02 0.  1.
</event>
<event>
 5   0  0.1496000E-07  0.3666367E+04  0.7818609E-02  0.8075456E-01
       -1   -1    0    0    0  501  0.00000000000E+00  0.00000000000E+00  0.30546649530E+04  0.30546649530E+04  0.50400001928E-02 0. -1.
        1   -1    0    0  501    0  0.00000000000E+00  0.00000000000E+00 -0.11001409087E+04  0.11001409087E+04  0.50400001928E-02 0.  1.
    10030    2    1    2    0    0  0.00000000000E+00  0.00000000000E+00  0.19545240443E+04  0.41548058616E+04  0.36663670722E+04 0.  0.
        2    1    3    3  502    0  0.97733766779E+03  0.11346517631E+04  0.21754465755E+04  0.26410587542E+04  0.25500000920E-02 0.  1.
       -2    1    3    3    0  502 -0.97733766779E+03 -0.11346517631E+04 -0.22092253119E+03  0.15137471074E+04  0.25500000920E-02 0. -1.
</event>
<event>
 5   0  0.4687817E-07  0.3383865E+04  0.7818609E-02  0.8141878E-01
       -2   -1    0    0    0  501  0.00000000000E+00  0.00000000000E+00  0.10342841137E+04  0.10342841137E+04  0.25500000920E-02 0.  1.
        2   -1    0    0  501    0  0.00000000000E+00  0.00000000000E+00 -0.27677454945E+04  0.27677454945E+04  0.25500000920E-02 0. -1.
    10030    2    1    2    0    0  0.00000000000E+00  0.00000000000E+00 -0.17334613807E+04  0.38020296082E+04  0.33838647702E+04 0.  0.
        4    1    3    3  502    0  0.16573790740E+04 -0.66466898372E+01 -0.48457602879E+03  0.17267788261E+04  0.12699999809E+01 0.  1.
       -4    1    3    3    0  502 -0.16573790740E+04  0.66466898372E+01 -0.12488853520E+04  0.20752507821E+04  0.12699999809E+01 0. -1.
</event>
<event>
 5   0  0.4758908E-07  0.3719937E+04  0.7818609E-02  0.8063558E-01
       -2   -1    0    0    0  501  0.00000000000E+00  0.00000000000E+00  0.16699362888E+04  0.16699362888E+04  0.25500000920E-02 0. -1.
        2   -1    0    0  501    0  0.00000000000E+00  0.00000000000E+00 -0.20716258987E+04  0.20716258987E+04  0.25500000920E-02 0.  1.
    10030    2    1    2    0    0  0.00000000000E+00  0.00000000000E+00 -0.40168960986E+03  0.37415621875E+04  0.37199372387E+04 0.  0.
        2    1    3    3  502    0 -0.13637790091E+04 -0.11864366674E+04  0.23983240563E+03  0.18234705192E+04  0.25500000920E-02 0.  1.
       -2    1    3    3    0  502  0.13637790091E+04  0.11864366674E+04 -0.64152201548E+03  0.19180916683E+04  0.25500000920E-02 0. -1.
</event>
<event>
 5   0  0.4687817E-07  0.3711122E+04  0.7818609E-02  0.8065502E-01
       -2   -1    0    0    0  501  0.00000000000E+00  0.00000000000E+00  0.14599844081E+04  0.14599844081E+04  0.25500000920E-02 0. -1.
        2   -1    0    0  501    0  0.00000000000E+00  0.00000000000E+00 -0.23583167779E+04  0.23583167779E+04  0.25500000920E-02 0.  1.
    10030    2    1    2    0    0  0.00000000000E+00  0.00000000000E+00 -0.89833236988E+03  0.38183011860E+04  0.37111215152E+04 0.  0.
        4    1    3    3  502    0 -0.30243826214E+03 -0.90431526263E+03 -0.20869455031E+04  0.22944712119E+04  0.12699999809E+01 0.  1.
       -4    1    3    3    0  502  0.30243826214E+03  0.90431526263E+03  0.11886131332E+04  0.15238299741E+04  0.12699999809E+01 0. -1.
</event>
<event>
 5   0  0.1496000E-07  0.3708454E+04  0.7818609E-02  0.8066091E-01
       -1   -1    0    0    0  501  0.00000000000E+00  0.00000000000E+00  0.16340055432E+04  0.16340055432E+04  0.50400001928E-02 0. -1.
        1   -1    0    0  501    0  0.00000000000E+00  0.00000000000E+00 -0.21041288782E+04  0.21041288782E+04  0.50400001928E-02 0.  1.
    10030    2    1    2    0    0  0.00000000000E+00  0.00000000000E+00 -0.47012333499E+03  0.37381344213E+04  0.37084542605E+04 0.  0.
        2    1    3    3  502    0  0.55236647197E+03 -0.12663682248E+04  0.10115092776E+04  0.17122932630E+04  0.25500000920E-02 0. -1.
       -2    1    3    3    0  502 -0.55236647197E+03  0.12663682248E+04 -0.14816326125E+04  0.20258411583E+04  0.25500000920E-02 0.  1.
</event>
<event>
 5   0  0.4824268E-07  0.3695434E+04  0.7818609E-02  0.8068974E-01
        2   -1    0    0  501    0  0.00000000000E+00  0.00000000000E+00  0.15940794018E+04  0.15940794018E+04  0.25500000920E-02 0.  1.
       -2   -1    0    0    0  501  0.00000000000E+00  0.00000000000E+00 -0.21417113240E+04  0.21417113240E+04  0.25500000920E-02 0. -1.
    10030    2    1    2    0    0  0.00000000000E+00  0.00000000000E+00 -0.54763192226E+03  0.37357907258E+04  0.36954338886E+04 0.  0.
        1    1    3    3  502    0 -0.89747900231E+03  0.56790657233E+03  0.12546719369E+04  0.16438333564E+04  0.50400001928E-02 0.  1.
       -1    1    3    3    0  502  0.89747900231E+03 -0.56790657233E+03 -0.18023038592E+04  0.20919573694E+04  0.50400001928E-02 0. -1.
</event>
<event>
 5   0  0.1522273E-07  0.3693521E+04  0.7818609E-02  0.8069399E-01
       -1   -1    0    0    0  501  0.00000000000E+00  0.00000000000E+00  0.22405322601E+04  0.22405322601E+04  0.50400001928E-02 0. -1.
        1   -1    0    0  501    0  0.00000000000E+00  0.00000000000E+00 -0.15221935709E+04  0.15221935709E+04  0.50400001928E-02 0.  1.
    10030    2    1    2    0    0  0.00000000000E+00  0.00000000000E+00  0.71833868913E+03  0.37627258310E+04  0.36935207062E+04 0.  0.
        4    1    3    3  502    0 -0.14880328719E+04 -0.88753862017E+03 -0.29199048185E+03  0.17570505640E+04  0.12699999809E+01 0.  1.
       -4    1    3    3    0  502  0.14880328719E+04  0.88753862017E+03  0.10103291710E+04  0.20056752670E+04  0.12699999809E+01 0. -1.
</event>
<event>
 5   0  0.1496000E-07  0.3671696E+04  0.7818609E-02  0.8074263E-01
       -1   -1    0    0    0  501  0.00000000000E+00  0.00000000000E+00  0.30123266458E+04  0.30123266458E+04  0.50400001928E-02 0.  1.
        1   -1    0    0  501    0  0.00000000000E+00  0.00000000000E+00 -0.11188488237E+04  0.11188488237E+04  0.50400001928E-02 0. -1.
    10030    2    1    2    0    0  0.00000000000E+00  0.00000000000E+00  0.18934778221E+04  0.41311754695E+04  0.36716961335E+04 0.  0.
        2    1    3    3  502    0  0.12034049453E+04  0.55298906766E+02  0.25054130799E+04  0.27799885130E+04  0.25500000920E-02 0.  1.
       -2    1    3    3    0  502 -0.12034049453E+04 -0.55298906766E+02 -0.61193525779E+03  0.13511869564E+04  0.25500000920E-02 0. -1.
</event>
<event>
 5   0  0.1496287E-07  0.3664614E+04  0.7818609E-02  0.8075849E-01
       -1   -1    0    0    0  501  0.00000000000E+00  0.00000000000E+00  0.13198067557E+04  0.13198067557E+04  0.50400001928E-02 0.  1.
        1   -1    0    0  501    0  0.00000000000E+00  0.00000000000E+00 -0.25438180264E+04  0.25438180264E+04  0.50400001928E-02 0. -1.
    10030    2    1    2    0    0  0.00000000000E+00  0.00000000000E+00 -0.12240112707E+04  0.38636247821E+04  0.36646136039E+04 0.  0.
        1    1    3    3  502    0 -0.17201594315E+04 -0.47140868373E+03 -0.16948129086E+03  0.17916189676E+04  0.50400001928E-02 0.  1.
       -1    1    3    3    0  502  0.17201594315E+04  0.47140868373E+03 -0.10545299799E+04  0.20720058145E+04  0.50400001928E-02 0. -1.
</event>
<event>
 5   0  0.4824268E-07  0.3511631E+04  0.7818609E-02  0.8111039E-01
       -2   -1    0    0    0  501  0.00000000000E+00  0.00000000000E+00  0.15965713594E+04  0.15965713594E+04  0.25500000920E-02 0. -1.
        2   -1    0    0  501    0  0.00000000000E+00  0.00000000000E+00 -0.19309429739E+04  0.19309429739E+04  0.25500000920E-02 0.  1.
    10030    2    1    2    0    0  0.00000000000E+00  0.00000000000E+00 -0.33437161448E+03  0.35275143333E+04  0.35116311018E+04 0.  0.
        1    1    3    3  502    0  0.16150869512E+04  0.64269420197E+03  0.81576268882E+02  0.17401771131E+04  0.50400001928E-02 0. -1.
       -1    1    3    3    0  502 -0.16150869512E+04 -0.64269420197E+03 -0.41594788337E+03  0.17873372203E+04  0.50400001928E-02 0.  1.
</event>
<event>
 5   0  0.1496000E-07  0.3662435E+04  0.7818609E-02  0.8076338E-01
        1   -1    0    0  501    0  0.00000000000E+00  0.00000000000E+00  0.13705858904E+04  0.13705858904E+04  0.50400001928E-02 0. -1.
       -1   -1    0    0    0  501  0.00000000000E+00  0.00000000000E+00 -0.24466594757E+04  0.24466594757E+04  0.50400001928E-02 0.  1.
    10030    2    1    2    0    0  0.00000000000E+00  0.00000000000E+00 -0.10760735853E+04  0.38172453661E+04  0.36624346853E+04 0.  0.
        3    1    3    3  502    0  0.14140005334E+04 -0.84280934678E+03  0.29814161571E+03  0.16729057166E+04  0.10100000352E+00 0. -1.
       -3    1    3    3    0  502 -0.14140005334E+04  0.84280934678E+03 -0.13742152010E+04  0.21443396495E+04  0.10100000352E+00 0.  1.
</event>
<event>
 5   0  0.1496000E-07  0.3620046E+04  0.7818609E-02  0.8085915E-01
       -1   -1    0    0    0  501  0.00000000000E+00  0.00000000000E+00  0.22676367284E+04  0.22676367284E+04  0.50400001928E-02 0.  1.
        1   -1    0    0  501    0  0.00000000000E+00  0.00000000000E+00 -0.14447565335E+04  0.14447565335E+04  0.50400001928E-02 0. -1.
    10030    2    1    2    0    0  0.00000000000E+00  0.00000000000E+00  0.82288019490E+03  0.37123932620E+04  0.36200458445E+04 0.  0.
        5    1    3    3  502    0  0.55581798139E+03  0.72412969882E+03 -0.11913974231E+04  0.15009155069E+04  0.46999998093E+01 0. -1.
       -5    1    3    3    0  502 -0.55581798139E+03 -0.72412969882E+03  0.20142776179E+04  0.22114777551E+04  0.46999998093E+01 0.  1.
</event>
<event>
 5   0  0.1496000E-07  0.3651090E+04  0.7818609E-02  0.8078888E-01
        1   -1    0    0  501    0  0.00000000000E+00  0.00000000000E+00  0.17934281329E+04  0.17934281329E+04  0.50400001928E-02 0. -1.
       -1   -1    0    0    0  501  0.00000000000E+00  0.00000000000E+00 -0.18582366194E+04  0.18582366194E+04  0.50400001928E-02 0.  1.
    10030    2    1    2    0    0  0.00000000000E+00  0.00000000000E+00 -0.64808486464E+02  0.36516647524E+04  0.36510896077E+04 0.  0.
        3    1    3    3  502    0 -0.87636368603E+03  0.11647434742E+04 -0.11316556959E+04  0.18453415118E+04  0.10100000352E+00 0.  1.
       -3    1    3    3    0  502  0.87636368603E+03 -0.11647434742E+04  0.10668472095E+04  0.18063232406E+04  0.10100000352E+00 0. -1.
</event>
<event>
 5   0  0.4758908E-07  0.3824081E+04  0.7818609E-02  0.8041007E-01
       -2   -1    0    0    0  501  0.00000000000E+00  0.00000000000E+00  0.17592926957E+04  0.17592926957E+04  0.25500000920E-02 0.  1.
        2   -1    0    0  501    0  0.00000000000E+00  0.00000000000E+00 -0.20780509226E+04  0.20780509226E+04  0.25500000920E-02 0. -1.
    10030    2    1    2    0    0  0.00000000000E+00  0.00000000000E+00 -0.31875822691E+03  0.38373436183E+04  0.38240814894E+04 0.  0.
        2    1    3    3  502    0 -0.12717755149E+04 -0.41189396493E+03 -0.15311717741E+04  0.20326230837E+04  0.25500000920E-02 0. -1.
       -2    1    3    3    0  502  0.12717755149E+04  0.41189396493E+03  0.12124135471E+04  0.18047205346E+04  0.25500000920E-02 0.  1.
</event>
<event>
 5   0  0.4758908E-07  0.3702633E+04  0.7818609E-02  0.8067379E-01
       -2   -1    0    0    0  501  0.00000000000E+00  0.00000000000E+00  0.27774103920E+04  0.27774103920E+04  0.25500000920E-02 0.  1.
        2   -1    0    0  501    0  0.00000000000E+00  0.00000000000E+00 -0.12340173890E+04  0.12340173890E+04  0.25500000920E-02 0. -1.
    10030    2    1    2    0    0  0.00000000000E+00  0.00000000000E+00  0.15433930030E+04  0.40114277810E+04  0.37026329659E+04 0.  0.
        2    1    3    3  502    0  0.15574851628E+04  0.38842694095E+03  0.17709738108E+04  0.23901848797E+04  0.25500000920E-02 0.  1.
       -2    1    3    3    0  502 -0.15574851628E+04 -0.38842694095E+03 -0.22758080776E+03  0.16212429013E+04  0.25500000920E-02 0. -1.
</event>
<event>
 5   0  0.4687817E-07  0.3682578E+04  0.7818609E-02  0.8071834E-01
        2   -1    0    0  501    0  0.00000000000E+00  0.00000000000E+00  0.15269235707E+04  0.15269235707E+04  0.25500000920E-02 0.  1.
       -2   -1    0    0    0  501  0.00000000000E+00  0.00000000000E+00 -0.22203770712E+04  0.22203770712E+04  0.25500000920E-02 0. -1.
    10030    2    1    2    0    0  0.00000000000E+00  0.00000000000E+00 -0.69345350048E+03  0.37473006420E+04  0.36825784912E+04 0.  0.
        4    1    3    3  502    0 -0.13531694327E+04  0.95713009255E+03 -0.11628061870E+04  0.20246692000E+04  0.12699999809E+01 0. -1.
       -4    1    3    3    0  502  0.13531694327E+04 -0.95713009255E+03  0.46935268656E+03  0.17226314420E+04  0.12699999809E+01 0.  1.
</event>
<event>
 5   0  0.1496000E-07  0.3101272E+04  0.7818609E-02  0.8215389E-01
        1   -1    0    0  501    0  0.00000000000E+00  0.00000000000E+00  0.12695513812E+04  0.12695513812E+04  0.50400001928E-02 0. -1.
       -1   -1    0    0    0  501  0.00000000000E+00  0.00000000000E+00 -0.18939542323E+04  0.18939542323E+04  0.50400001928E-02 0.  1.
    10030    2    1    2    0    0  0.00000000000E+00  0.00000000000E+00 -0.62440285109E+03  0.31635056136E+04  0.31012721336E+04 0.  0.
        3    1    3    3  502    0  0.10543324805E+04  0.10985781780E+04 -0.61131113167E+03  0.16407901458E+04  0.10100000352E+00 0. -1.
       -3    1    3    3    0  502 -0.10543324805E+04 -0.10985781780E+04 -0.13091719417E+02  0.15227154678E+04  0.10100000352E+00 0.  1.
</event>
<event>
 5   0  0.1522273E-07  0.3123545E+04  0.7818609E-02  0.8209306E-01
        1   -1    0    0  501    0  0.00000000000E+00  0.00000000000E+00  0.25442960006E+04  0.25442960006E+04  0.50400001928E-02 0. -1.
       -1   -1    0    0    0  501  0.00000000000E+00  0.00000000000E+00 -0.95866702939E+03  0.95866702940E+03  0.50400001928E-02 0.  1.
    10030    2    1    2    0    0  0.00000000000E+00  0.00000000000E+00  0.15856289712E+04  0.35029630300E+04  0.31235445819E+04 0.  0.
        4    1    3    3  502    0  0.28487364665E+03  0.80956519016E+03 -0.67051424653E+03  0.10891004358E+04  0.12699999809E+01 0.  1.
       -4    1    3    3    0  502 -0.28487364665E+03 -0.80956519016E+03  0.22561432177E+04  0.24138625941E+04  0.12699999809E+01 0. -1.
</event>
<event>
 5   0  0.4857514E-07  0.3649190E+04  0.7818609E-02  0.8079316E-01
       -2   -1    0    0    0  501  0.00000000000E+00  0.00000000000E+00  0.15922685976E+04  0.15922685976E+04  0.25500000920E-02 0.  1.
        2   -1    0    0  501    0  0.00000000000E+00  0.00000000000E+00 -0.20908204639E+04  0.20908204639E+04  0.25500000920E-02 0. -1.
    10030    2    1    2    0    0  0.00000000000E+00  0.00000000000E+00 -0.49855186633E+03  0.36830890616E+04  0.36491904680E+04 0.  0.
        5    1    3    3  502    0  0.12072502106E+04  0.35198770078E+02 -0.16296183792E+04  0.20283910314E+04  0.46999998093E+01 0. -1.
       -5    1    3    3    0  502 -0.12072502106E+04 -0.35198770078E+02  0.11310665129E+04  0.16546980302E+04  0.46999998093E+01 0.  1.
</event>
<event>
 5   0  0.1496000E-07  0.3691066E+04  0.7818609E-02  0.8069945E-01
        1   -1    0    0  501    0  0.00000000000E+00  0.00000000000E+00  0.20592788897E+04  0.20592788897E+04  0.50400001928E-02 0.  1.
       -1   -1    0    0    0  501  0.00000000000E+00  0.00000000000E+00 -0.16539734964E+04  0.16539734964E+04  0.50400001928E-02 0. -1.
    10030    2    1    2    0    0  0.00000000000E+00  0.00000000000E+00  0.40530539335E+03  0.37132523861E+04  0.36910663529E+04 0.  0.
        5    1    3    3  502    0  0.13043529312E+04  0.18922092789E+03  0.15022493932E+04  0.19984785358E+04  0.46999998093E+01 0.  1.
       -5    1    3    3    0  502 -0.13043529312E+04 -0.18922092789E+03 -0.10969439999E+04  0.17147738503E+04  0.46999998093E+01 0. -1.
</event>
<event>
 5   0  0.1496000E-07  0.3691571E+04  0.7818609E-02  0.8069832E-01
       -1   -1    0    0    0  501  0.00000000000E+00  0.00000000000E+00  0.21651912947E+04  0.21651912947E+04  0.50400001928E-02 0.  1.
        1   -1    0    0  501    0  0.00000000000E+00  0.00000000000E+00 -0.15734983181E+04  0.15734983181E+04  0.50400001928E-02 0. -1.
    10030    2    1    2    0    0  0.00000000000E+00  0.00000000000E+00  0.59169297665E+03  0.37386896128E+04  0.36915714056E+04 0.  0.
        2    1    3    3  502    0  0.15105230733E+04  0.56585570045E+03 -0.61285275678E+03  0.17255321295E+04  0.25500000920E-02 0. -1.
       -2    1    3    3    0  502 -0.15105230733E+04 -0.56585570045E+03  0.12045457334E+04  0.20131574833E+04  0.25500000920E-02 0.  1.
</event>
<event>
 5   0  0.4793557E-07  0.3711271E+04  0.7818609E-02  0.8065469E-01
       -2   -1    0    0    0  501  0.00000000000E+00  0.00000000000E+00  0.18157546328E+04  0.18157546328E+04  0.25500000920E-02 0. -1.
        2   -1    0    0  501    0  0.00000000000E+00  0.00000000000E+00 -0.18963927795E+04  0.18963927795E+04  0.25500000920E-02 0.  1.
    10030    2    1    2    0    0  0.00000000000E+00  0.00000000000E+00 -0.80638146707E+02  0.37121474123E+04  0.37112714668E+04 0.  0.
        3    1    3    3  502    0  0.95338622192E+03  0.52001585912E+03 -0.15453410107E+04  0.18887669606E+04  0.10100000352E+00 0.  1.
       -3    1    3    3    0  502 -0.95338622192E+03 -0.52001585912E+03  0.14647028640E+04  0.18233804518E+04  0.10100000352E+00 0. -1.
</event>
<event>
 5   0  0.1496000E-07  0.3677920E+04  0.7818609E-02  0.8072873E-01
       -1   -1    0    0    0  501  0.00000000000E+00  0.00000000000E+00  0.20600823356E+04  0.20600823356E+04  0.50400001928E-02 0. -1.
        1   -1    0    0  501    0  0.00000000000E+00  0.00000000000E+00 -0.16415720173E+04  0.16415720173E+04  0.50400001928E-02 0.  1.
    10030    2    1    2    0    0  0.00000000000E+00  0.00000000000E+00  0.41851031833E+03  0.37016543530E+04  0.36779198009E+04 0.  0.
        3    1    3    3  502    0  0.48245719810E+03 -0.10264197356E+02  0.19952214760E+04  0.20527491445E+04  0.10100000352E+00 0. -1.
       -3    1    3    3    0  502 -0.48245719810E+03  0.10264197356E+02 -0.15767111576E+04  0.16489052085E+04  0.10100000352E+00 0.  1.
</event>
<event>
 5   0  0.1496000E-07  0.3709831E+04  0.7818609E-02  0.8065787E-01
        1   -1    0    0  501    0  0.00000000000E+00  0.00000000000E+00  0.17042892381E+04  0.17042892381E+04  0.50400001928E-02 0.  1.
       -1   -1    0    0    0  501  0.00000000000E+00  0.00000000000E+00 -0.20188544354E+04  0.20188544354E+04  0.50400001928E-02 0. -1.
    10030    2    1    2    0    0  0.00000000000E+00  0.00000000000E+00 -0.31456519724E+03  0.37231436735E+04  0.37098312024E+04 0.  0.
        3    1    3    3  502    0 -0.18155855715E+04  0.34154579817E+03  0.97700470974E+01  0.18474577028E+04  0.10100000352E+00 0. -1.
       -3    1    3    3    0  502  0.18155855715E+04 -0.34154579817E+03 -0.32433524434E+03  0.18756859707E+04  0.10100000352E+00 0.  1.
</event>
<event>
 5   0  0.1496000E-07  0.3451266E+04  0.7818609E-02  0.8125437E-01
        1   -1    0    0  501    0  0.00000000000E+00  0.00000000000E+00  0.23576551831E+04  0.23576551831E+04  0.50400001928E-02 0. -1.
       -1   -1    0    0    0  501  0.00000000000E+00  0.00000000000E+00 -0.12630384373E+04  0.12630384373E+04  0.50400001928E-02 0.  1.
    10030    2    1    2    0    0  0.00000000000E+00  0.00000000000E+00  0.10946167458E+04  0.36206936204E+04  0.34512659232E+04 0.  0.
        3    1    3    3  502    0 -0.23856107733E+03  0.10642839180E+04  0.19501902036E+04  0.22344693970E+04  0.10100000352E+00 0. -1.
       -3    1    3    3    0  502  0.23856107733E+03 -0.10642839180E+04 -0.85557345773E+03  0.13862242234E+04  0.10100000352E+00 0.  1.
</event>
<event>
 5   0  0.1496000E-07  0.3670432E+04  0.7818609E-02  0.8074546E-01
       -1   -1    0    0    0  501  0.00000000000E+00  0.00000000000E+00  0.11642549953E+04  0.11642549953E+04  0.50400001928E-02 0. -1.
        1   -1    0    0  501    0  0.00000000000E+00  0.00000000000E+00 -0.28928523474E+04  0.28928523474E+04  0.50400001928E-02 0.  1.
    10030    2    1    2    0    0  0.00000000000E+00  0.00000000000E+00 -0.17285973521E+04  0.40571073427E+04  0.36704320161E+04 0.  0.
        2    1    3    3  502    0 -0.27815323050E+03 -0.70505452135E+03 -0.27117681949E+04  0.28156984641E+04  0.25500000920E-02 0.  1.
       -2    1    3    3    0  502  0.27815323050E+03  0.70505452135E+03  0.98317084282E+03  0.12414088786E+04  0.25500000920E-02 0. -1.
</event>
<event>
 5   0  0.1522273E-07  0.3706572E+04  0.7818609E-02  0.8066507E-01
        1   -1    0    0  501    0  0.00000000000E+00  0.00000000000E+00  0.12834170140E+04  0.12834170140E+04  0.50400001928E-02 0. -1.
       -1   -1    0    0    0  501  0.00000000000E+00  0.00000000000E+00 -0.26761908390E+04  0.26761908390E+04  0.50400001928E-02 0.  1.
    10030    2    1    2    0    0  0.00000000000E+00  0.00000000000E+00 -0.13927738250E+04  0.39596078530E+04  0.37065719232E+04 0.  0.
        4    1    3    3  502    0 -0.98875000428E+03 -0.91293862257E+03 -0.20575717170E+04  0.24585944121E+04  0.12699999809E+01 0.  1.
       -4    1    3    3    0  502  0.98875000428E+03  0.91293862257E+03  0.66479789200E+03  0.15010134409E+04  0.12699999809E+01 0. -1.
</event>
<event>
 5   0  0.1522273E-07  0.3685052E+04  0.7818609E-02  0.8071282E-01
        1   -1    0    0  501    0  0.00000000000E+00  0.00000000000E+00  0.17604937788E+04  0.17604937788E+04  0.50400001928E-02 0.  1.
       -1   -1    0    0    0  501  0.00000000000E+00  0.00000000000E+00 -0.19283810732E+04  0.19283810732E+04  0.50400001928E-02 0. -1.
    10030    2    1    2    0    0  0.00000000000E+00  0.00000000000E+00 -0.16788729443E+03  0.36888748520E+04  0.36850524461E+04 0.  0.
        4    1    3    3  502    0  0.77972154292E+03 -0.10252809884E+04  0.12348956944E+04  0.17844146880E+04  0.12699999809E+01 0.  1.
       -4    1    3    3    0  502 -0.77972154292E+03  0.10252809884E+04 -0.14027829888E+04  0.19044601640E+04  0.12699999809E+01 0. -1.
</event>
<event>
 5   0  0.4793557E-07  0.3673497E+04  0.7818609E-02  0.8073861E-01
        2   -1    0    0  501    0  0.00000000000E+00  0.00000000000E+00  0.21096338261E+04  0.21096338261E+04  0.25500000920E-02 0. -1.
       -2   -1    0    0    0  501  0.00000000000E+00  0.00000000000E+00 -0.15991612735E+04  0.15991612735E+04  0.25500000920E-02 0.  1.
    10030    2    1    2    0    0  0.00000000000E+00  0.00000000000E+00  0.51047255261E+03  0.37087950996E+04  0.36734968169E+04 0.  0.
        3    1    3    3  502    0 -0.15936322988E+03 -0.14489661439E+04 -0.87297408814E+03  0.16991125019E+04  0.10100000352E+00 0.  1.
       -3    1    3    3    0  502  0.15936322988E+03  0.14489661439E+04  0.13834466408E+04  0.20096825977E+04  0.10100000352E+00 0. -1.
</event>
<event>
 5   0  0.4687817E-07  0.3719098E+04  0.7818609E-02  0.8063743E-01
       -2   -1    0    0    0  501  0.00000000000E+00  0.00000000000E+00  0.11789369822E+04  0.11789369822E+04  0.25500000920E-02 0.  1.
        2   -1    0    0  501    0  0.00000000000E+00  0.00000000000E+00 -0.29330854281E+04  0.29330854281E+04  0.25500000920E-02 0. -1.
    10030    2    1    2    0    0  0.00000000000E+00  0.00000000000E+00 -0.17541484459E+04  0.41120224103E+04  0.37190982149E+04 0.  0.
        4    1    3    3  502    0  0.12426936975E+04  0.13719044018E+04 -0.68080350541E+03  0.19722840413E+04  0.12699999809E+01 0.  1.
       -4    1    3    3    0  502 -0.12426936975E+04 -0.13719044018E+04 -0.10733449404E+04  0.21397383690E+04  0.12699999809E+01 0. -1.
</event>
<event>
 5   0  0.4687817E-07  0.3725566E+04  0.7818609E-02  0.8062320E-01
        2   -1    0    0  501    0  0.00000000000E+00  0.00000000000E+00  0.15981568354E+04  0.15981568354E+04  0.25500000920E-02 0.  1.
       -2   -1    0    0    0  501  0.00000000000E+00  0.00000000000E+00 -0.21712266986E+04  0.21712266986E+04  0.25500000920E-02 0. -1.
    10030    2    1    2    0    0  0.00000000000E+00  0.00000000000E+00 -0.57306986326E+03  0.37693835340E+04  0.37255661527E+04 0.  0.
        4    1    3    3  502    0  0.15697817879E+04  0.11398350650E+03 -0.12946229468E+04  0.20379541919E+04  0.12699999809E+01 0. -1.
       -4    1    3    3    0  502 -0.15697817879E+04 -0.11398350650E+03  0.72155308350E+03  0.17314293420E+04  0.12699999809E+01 0.  1.
</event>
<event>
 5   0  0.1496000E-07  0.3651005E+04  0.7818609E-02  0.8078907E-01
       -1   -1    0    0    0  501  0.00000000000E+00  0.00000000000E+00  0.16864374238E+04  0.16864374238E+04  0.50400001928E-02 0.  1.
        1   -1    0    0  501    0  0.00000000000E+00  0.00000000000E+00 -0.19760355221E+04  0.19760355221E+04  0.50400001928E-02 0. -1.
    10030    2    1    2    0    0  0.00000000000E+00  0.00000000000E+00 -0.28959809830E+03  0.36624729459E+04  0.36510054808E+04 0.  0.
        5    1    3    3  502    0 -0.35829596859E+03 -0.14284908095E+04 -0.12268324996E+04  0.19167947376E+04  0.46999998093E+01 0. -1.
       -5    1    3    3    0  502  0.35829596859E+03  0.14284908095E+04  0.93723440127E+03  0.17456782083E+04  0.46999998093E+01 0.  1.
</event>
<event>
 5   0  0.1496000E-07  0.3716208E+04  0.7818609E-02  0.8064379E-01
       -1   -1    0    0    0  501  0.00000000000E+00  0.00000000000E+00  0.14016809260E+04  0.14016809260E+04  0.50400001928E-02 0. -1.
        1   -1    0    0  501    0  0.00000000000E+00  0.00000000000E+00 -0.24631506367E+04  0.24631506367E+04  0.50400001928E-02 0.  1.
    10030    2    1    2    0    0  0.00000000000E+00  0.00000000000E+00 -0.10614697107E+04  0.38648315626E+04  0.37162084254E+04 0.  0.
        3    1    3    3  502    0  0.11558609855E+04  0.46792150932E+03  0.90188594568E+03  0.15389488054E+04  0.10100000352E+00 0. -1.
       -3    1    3    3    0  502 -0.11558609855E+04 -0.46792150932E+03 -0.19633556564E+04  0.23258827572E+04  0.10100000352E+00 0.  1.
</event>
<event>
 5   0  0.4687817E-07  0.3679835E+04  0.7818609E-02  0.8072445E-01
       -2   -1    0    0    0  501  0.00000000000E+00  0.00000000000E+00  0.18962704604E+04  0.18962704604E+04  0.25500000920E-02 0. -1.
        2   -1    0    0  501    0  0.00000000000E+00  0.00000000000E+00 -0.17852393820E+04  0.17852393820E+04  0.25500000920E-02 0.  1.
    10030    2    1    2    0    0  0.00000000000E+00  0.00000000000E+00  0.11103107837E+03  0.36815098424E+04  0.36798351620E+04 0.  0.
        4    1    3    3  502    0  0.62872221254E+03 -0.15284378881E+04  0.86451268834E+03  0.18651535592E+04  0.12699999809E+01 0. -1.
       -4    1    3    3    0  502 -0.62872221254E+03  0.15284378881E+04 -0.75348160997E+03  0.18163562832E+04  0.12699999809E+01 0.  1.
</event>
<event>
 5   0  0.4857514E-07  0.3690236E+04  0.7818609E-02  0.8070129E-01
       -2   -1    0    0    0  501  0.00000000000E+00  0.00000000000E+00  0.16791386590E+04  0.16791386590E+04  0.25500000920E-02 0.  1.
        2   -1    0    0  501    0  0.00000000000E+00  0.00000000000E+00 -0.20275042323E+04  0.20275042323E+04  0.25500000920E-02 0. -1.
    10030    2    1    2    0    0  0.00000000000E+00  0.00000000000E+00 -0.34836557333E+03  0.37066428913E+04  0.36902361646E+04 0.  0.
        5    1    3    3  502    0 -0.71747064283E+03 -0.47599646533E+03  0.14649739297E+04  0.16992667428E+04  0.46999998093E+01 0.  1.
       -5    1    3    3    0  502  0.71747064283E+03  0.47599646533E+03 -0.18133395030E+04  0.20073761485E+04  0.46999998093E+01 0. -1.
</event>
<event>
 5   0  0.1496000E-07  0.3653271E+04  0.7818609E-02  0.8078397E-01
        1   -1    0    0  501    0  0.00000000000E+00  0.00000000000E+00  0.20661444880E+04  0.20661444880E+04  0.50400001928E-02 0.  1.
       -1   -1    0    0    0  501  0.00000000000E+00  0.00000000000E+00 -0.16148903669E+04  0.16148903669E+04  0.50400001928E-02 0. -1.
    10030    2    1    2    0    0  0.00000000000E+00  0.00000000000E+00  0.45125412108E+03  0.36810348549E+04  0.36532707703E+04 0.  0.
        5    1    3    3  502    0 -0.12112268332E+04 -0.13473358957E+04  0.46018426513E+03  0.18692715440E+04  0.46999998093E+01 0. -1.
       -5    1    3    3    0  502  0.12112268332E+04  0.13473358957E+04 -0.89301440547E+01  0.18117633109E+04  0.46999998093E+01 0.  1.
</event>
<event>
 5   0  0.1496000E-07  0.3694243E+04  0.7818609E-02  0.8069239E-01
        1   -1    0    0  501    0  0.00000000000E+00  0.00000000000E+00  0.25726526565E+04  0.25726526565E+04  0.50400001928E-02 0. -1.
       -1   -1    0    0    0  501  0.00000000000E+00  0.00000000000E+00 -0.13262020804E+04  0.13262020804E+04  0.50400001928E-02 0.  1.
    10030    2    1    2    0    0  0.00000000000E+00  0.00000000000E+00  0.12464505761E+04  0.38988547369E+04  0.36942427128E+04 0.  0.
        3    1    3    3  502    0 -0.11163980536E+04  0.11734658638E+04 -0.31392636356E+03  0.16498231783E+04  0.10100000352E+00 0.  1.
       -3    1    3    3    0  502  0.11163980536E+04 -0.11734658638E+04  0.15603769396E+04  0.22490315586E+04  0.10100000352E+00 0. -1.
</event>
<event>
 5   0  0.4758908E-07  0.3654483E+04  0.7818609E-02  0.8078125E-01
        2   -1    0    0  501    0  0.00000000000E+00  0.00000000000E+00  0.29858608770E+04  0.29858608770E+04  0.25500000920E-02 0.  1.
       -2   -1    0    0    0  501  0.00000000000E+00  0.00000000000E+00 -0.11182070503E+04  0.11182070503E+04  0.25500000920E-02 0. -1.
    10030    2    1    2    0    0  0.00000000000E+00  0.00000000000E+00  0.18676538267E+04  0.41040679273E+04  0.36544825537E+04 0.  0.
        2    1    3    3  502    0  0.11560016077E+04 -0.14102847191E+04  0.10646384995E+04  0.21115628905E+04  0.25500000920E-02 0. -1.
       -2    1    3    3    0  502 -0.11560016077E+04  0.14102847191E+04  0.80301532718E+03  0.19925050368E+04  0.25500000920E-02 0.  1.
</event>
<event>
 5   0  0.4857514E-07  0.3752391E+04  0.7818609E-02  0.8056449E-01
       -2   -1    0    0    0  501  0.00000000000E+00  0.00000000000E+00  0.15264662703E+04  0.15264662703E+04  0.25500000920E-02 0.  1.
        2   -1    0    0  501    0  0.00000000000E+00  0.00000000000E+00 -0.23060519270E+04  0.23060519270E+04  0.25500000920E-02 0. -1.
    10030    2    1    2    0    0  0.00000000000E+00  0.00000000000E+00 -0.77958565673E+03  0.38325181973E+04  0.37523914956E+04 0.  0.
        5    1    3    3  502    0 -0.59718427772E+03  0.16641735733E+04  0.25129315993E+03  0.17858536014E+04  0.46999998093E+01 0.  1.
       -5    1    3    3    0  502  0.59718427772E+03 -0.16641735733E+04 -0.10308788167E+04  0.20466645959E+04  0.46999998093E+01 0. -1.
</event>
<event>
 5   0  0.4824268E-07  0.3718616E+04  0.7818609E-02  0.8063849E-01
       -2   -1    0    0    0  501  0.00000000000E+00  0.00000000000E+00  0.16100975757E+04  0.16100975757E+04  0.25500000920E-02 0.  1.
        2   -1    0    0  501    0  0.00000000000E+00  0.00000000000E+00 -0.21470911955E+04  0.21470911955E+04  0.25500000920E-02 0. -1.
    10030    2    1    2    0    0  0.00000000000E+00  0.00000000000E+00 -0.53699361984E+03  0.37571887712E+04  0.37186160483E+04 0.  0.
        1    1    3    3  502    0 -0.24590081647E+02 -0.98077850819E+03 -0.18642767836E+04  0.21066701403E+04  0.50400001928E-02 0. -1.
       -1    1    3    3    0  502  0.24590081647E+02  0.98077850819E+03  0.13272831637E+04  0.16505186309E+04  0.50400001928E-02 0.  1.
</event>
<event>
 5   0  0.4687817E-07  0.3566289E+04  0.7818609E-02  0.8098258E-01
       -2   -1    0    0    0  501  0.00000000000E+00  0.00000000000E+00  0.14468340147E+04  0.14468340147E+04  0.25500000920E-02 0. -1.
        2   -1    0    0  501    0  0.00000000000E+00  0.00000000000E+00 -0.21976288609E+04  0.21976288609E+04  0.25500000920E-02 0.  1.
    10030    2    1    2    0    0  0.00000000000E+00  0.00000000000E+00 -0.75079484629E+03  0.36444628756E+04  0.35662889325E+04 0.  0.
        4    1    3    3  502    0  0.15438759021E+04 -0.60586753389E+03 -0.10447156386E+04  0.19601175088E+04  0.12699999809E+01 0.  1.
       -4    1    3    3    0  502 -0.15438759021E+04  0.60586753389E+03  0.29392079230E+03  0.16843453668E+04  0.12699999809E+01 0. -1.
</event>
<event>
 5   0  0.4857514E-07  0.3749450E+04  0.7818609E-02  0.8057091E-01
       -2   -1    0    0    0  501  0.00000000000E+00  0.00000000000E+00  0.16369333236E+04  0.16369333236E+04  0.25500000920E-02 0. -1.
        2   -1    0    0  501    0  0.00000000000E+00  0.00000000000E+00 -0.21470601478E+04  0.21470601478E+04  0.25500000920E-02 0.  1.
    10030    2    1    2    0    0  0.00000000000E+00  0.00000000000E+00 -0.51012682421E+03  0.37839934714E+04  0.37494502550E+04 0.  0.
        5    1    3    3  502    0 -0.81228987796E+03 -0.16315866743E+04  0.18793654506E+03  0.18322751313E+04  0.46999998093E+01 0. -1.
       -5    1    3    3    0  502  0.81228987796E+03  0.16315866743E+04 -0.69806336927E+03  0.19517183401E+04  0.46999998093E+01 0.  1.
</event>
<event>
 5   0  0.4793557E-07  0.3701339E+04  0.7818609E-02  0.8067665E-01
       -2   -1    0    0    0  501  0.00000000000E+00  0.00000000000E+00  0.27034714168E+04  0.27034714168E+04  0.25500000920E-02 0.  1.
        2   -1    0    0  501    0  0.00000000000E+00  0.00000000000E+00 -0.12668813875E+04  0.12668813875E+04  0.25500000920E-02 0. -1.
    10030    2    1    2    0    0  0.00000000000E+00  0.00000000000E+00  0.14365900293E+04  0.39703528043E+04  0.37013390116E+04 0.  0.
        3    1    3    3  502    0 -0.13089186831E+04 -0.97303476016E+03  0.16564535030E+04  0.23246296439E+04  0.10100000352E+00 0.  1.
       -3    1    3    3    0  502  0.13089186831E+04  0.97303476016E+03 -0.21986347374E+03  0.16457231604E+04  0.10100000352E+00 0. -1.
</event>
<event>
 5   0  0.1522273E-07  0.3701998E+04  0.7818609E-02  0.8067519E-01
        1   -1    0    0  501    0  0.00000000000E+00  0.00000000000E+00  0.19229968437E+04  0.19229968437E+04  0.50400001928E-02 0.  1.
       -1   -1    0    0    0  501  0.00000000000E+00  0.00000000000E+00 -0.17816969379E+04  0.17816969379E+04  0.50400001928E-02 0. -1.
    10030    2    1    2    0    0  0.00000000000E+00  0.00000000000E+00  0.14129990582E+03  0.37046937815E+04  0.37019981566E+04 0.  0.
        4    1    3    3  502    0 -0.13269628127E+04 -0.10629526888E+04 -0.66165966955E+03  0.18244160315E+04  0.12699999809E+01 0. -1.
       -4    1    3    3    0  502  0.13269628127E+04  0.10629526888E+04  0.80295957537E+03  0.18802777500E+04  0.12699999809E+01 0.  1.
</event>
<event>
 5   0  0.4857514E-07  0.3711267E+04  0.7818609E-02  0.8065469E-01
        2   -1    0    0  501    0  0.00000000000E+00  0.00000000000E+00  0.18768177831E+04  0.18768177831E+04  0.25500000920E-02 0.  1.
       -2   -1    0    0    0  501  0.00000000000E+00  0.00000000000E+00 -0.18346887418E+04  0.18346887418E+04  0.25500000920E-02 0. -1.
    10030    2    1    2    0    0  0.00000000000E+00  0.00000000000E+00  0.42129041337E+02  0.37115065249E+04  0.37112674154E+04 0.  0.
        5    1    3    3  502    0 -0.17736918281E+04 -0.33869487167E+03  0.44847648495E+03  0.18606047847E+04  0.46999998093E+01 0.  1.
       -5    1    3    3    0  502  0.17736918281E+04  0.33869487167E+03 -0.40634744361E+03  0.18509017403E+04  0.46999998093E+01 0. -1.
</event>
<event>
 5   0  0.1496000E-07  0.3724441E+04  0.7818609E-02  0.8062567E-01
        1   -1    0    0  501    0  0.00000000000E+00  0.00000000000E+00  0.19825510440E+04  0.19825510440E+04  0.50400001928E-02 0. -1.
       -1   -1    0    0    0  501  0.00000000000E+00  0.00000000000E+00 -0.17491935702E+04  0.17491935702E+04  0.50400001928E-02 0.  1.
    10030    2    1    2    0    0  0.00000000000E+00  0.00000000000E+00  0.23335747372E+03  0.37317446142E+04  0.37244411870E+04 0.  0.
        5    1    3    3  502    0 -0.87654995700E+03 -0.71281387119E+03  0.15999194006E+04  0.19586239099E+04  0.46999998093E+01 0. -1.
       -5    1    3    3    0  502  0.87654995700E+03  0.71281387119E+03 -0.13665619269E+04  0.17731207043E+04  0.46999998093E+01 0.  1.
</event>
<event>
 5   0  0.1496000E-07  0.3451471E+04  0.7818609E-02  0.8125388E-01
        1   -1    0    0  501    0  0.00000000000E+00  0.00000000000E+00  0.28769958263E+04  0.28769958263E+04  0.50400001928E-02 0.  1.
       -1   -1    0    0    0  501  0.00000000000E+00  0.00000000000E+00 -0.10351642373E+04  0.10351642373E+04  0.50400001928E-02 0. -1.
    10030    2    1    2    0    0  0.00000000000E+00  0.00000000000E+00  0.18418315889E+04  0.39121600636E+04  0.34514711010E+04 0.  0.
        5    1    3    3  502    0  0.15167246754E+04  0.60774352020E+03  0.15503116932E+04  0.22523974701E+04  0.46999998093E+01 0.  1.
       -5    1    3    3    0  502 -0.15167246754E+04 -0.60774352020E+03  0.29151989571E+03  0.16597625935E+04  0.46999998093E+01 0. -1.
</event>
<event>
 5   0  0.1496000E-07  0.3673701E+04  0.7818609E-02  0.8073815E-01
        1   -1    0    0  501    0  0.00000000000E+00  0.00000000000E+00  0.18803818484E+04  0.18803818485E+04  0.50400001928E-02 0. -1.
       -1   -1    0    0    0  501  0.00000000000E+00  0.00000000000E+00 -0.17943273276E+04  0.17943273276E+04  0.50400001928E-02 0.  1.
    10030    2    1    2    0    0  0.00000000000E+00  0.00000000000E+00  0.86054520844E+02  0.36747091761E+04  0.36737014234E+04 0.  0.
        5    1    3    3  502    0 -0.10830059171E+04  0.88525811889E+03  0.12339061112E+04  0.18652426477E+04  0.46999998093E+01 0. -1.
       -5    1    3    3    0  502  0.10830059171E+04 -0.88525811889E+03 -0.11478515904E+04  0.18094665283E+04  0.46999998093E+01 0.  1.
</event>
<event>
 5   0  0.1496287E-07  0.3876126E+04  0.7818609E-02  0.8030013E-01
        1   -1    0    0  501    0  0.00000000000E+00  0.00000000000E+00  0.22666868048E+04  0.22666868048E+04  0.50400001928E-02 0.  1.
       -1   -1    0    0    0  501  0.00000000000E+00  0.00000000000E+00 -0.16570831265E+04  0.16570831265E+04  0.50400001928E-02 0. -1.
    10030    2    1    2    0    0  0.00000000000E+00  0.00000000000E+00  0.60960367831E+03  0.39237699314E+04  0.38761261370E+04 0.  0.
        1    1    3    3  502    0 -0.22035175427E+03 -0.17461073776E+04 -0.51674161121E+03  0.18342485553E+04  0.50400001928E-02 0.  1.
       -1    1    3    3    0  502  0.22035175427E+03  0.17461073776E+04  0.11263452895E+04  0.20895213761E+04  0.50400001928E-02 0. -1.
</event>
<event>
 5   0  0.4793557E-07  0.3664088E+04  0.7818609E-02  0.8075967E-01
        2   -1    0    0  501    0  0.00000000000E+00  0.00000000000E+00  0.22331131729E+04  0.22331131729E+04  0.25500000920E-02 0.  1.
       -2   -1    0    0    0  501  0.00000000000E+00  0.00000000000E+00 -0.15030073299E+04  0.15030073299E+04  0.25500000920E-02 0. -1.
    10030    2    1    2    0    0  0.00000000000E+00  0.00000000000E+00  0.73010584306E+03  0.37361205028E+04  0.36640881361E+04 0.  0.
        3    1    3    3  502    0 -0.10657161449E+04  0.99788895017E+03 -0.76343471833E+03  0.16475332585E+04  0.10100000352E+00 0. -1.
       -3    1    3    3    0  502  0.10657161449E+04 -0.99788895017E+03  0.14935405614E+04  0.20885872443E+04  0.10100000352E+00 0.  1.
</event>
<event>
 5   0  0.1496000E-07  0.3747650E+04  0.7818609E-02  0.8057483E-01
       -1   -1    0    0    0  501  0.00000000000E+00  0.00000000000E+00  0.29399923520E+04  0.29399923520E+04  0.50400001928E-02 0.  1.
        1   -1    0    0  501    0  0.00000000000E+00  0.00000000000E+00 -0.11942958704E+04  0.11942958704E+04  0.50400001928E-02 0. -1.
    10030    2    1    2    0    0  0.00000000000E+00  0.00000000000E+00  0.17456964815E+04  0.41342882224E+04  0.37476503172E+04 0.  0.
        2    1    3    3  502    0  0.13512327449E+04  0.17129601797E+03 -0.54679170370E+03  0.14677034523E+04  0.25500000920E-02 0. -1.
       -2    1    3    3    0  502 -0.13512327449E+04 -0.17129601797E+03  0.22924881852E+04  0.26665847701E+04  0.25500000920E-02 0.  1.
</event>
<event>
 5   0  0.1522273E-07  0.3758831E+04  0.7818609E-02  0.8055048E-01
       -1   -1    0    0    0  501  0.00000000000E+00  0.00000000000E+00  0.16530009101E+04  0.16530009101E+04  0.50400001928E-02 0. -1.
        1   -1    0    0  501    0  0.00000000000E+00  0.00000000000E+00 -0.21368428893E+04  0.21368428893E+04  0.50400001928E-02 0.  1.
    10030    2    1    2    0    0  0.00000000000E+00  0.00000000000E+00 -0.48384197915E+03  0.37898437994E+04  0.37588313294E+04 0.  0.
        4    1    3    3  502    0 -0.29853801521E+03  0.13946747688E+04  0.99208830749E+03  0.17373783353E+04  0.12699999809E+01 0. -1.
       -4    1    3    3    0  502  0.29853801521E+03 -0.13946747688E+04 -0.14759302866E+04  0.20524654641E+04  0.12699999809E+01 0.  1.
</event>
<event>
 5   0  0.4758908E-07  0.3282008E+04  0.7818609E-02  0.8167489E-01
       -2   -1    0    0    0  501  0.00000000000E+00  0.00000000000E+00  0.15377070207E+04  0.15377070207E+04  0.25500000920E-02 0. -1.
        2   -1    0    0  501    0  0.00000000000E+00  0.00000000000E+00 -0.17512402859E+04  0.17512402859E+04  0.25500000920E-02 0.  1.
    10030    2    1    2    0    0  0.00000000000E+00  0.00000000000E+00 -0.21353326524E+03  0.32889473066E+04  0.32820082160E+04 0.  0.
        2    1    3    3  502    0  0.11978901727E+04  0.13317593251E+03  0.10092385966E+04  0.15720175698E+04  0.25500000920E-02 0. -1.
       -2    1    3    3    0  502 -0.11978901727E+04 -0.13317593251E+03 -0.12227718619E+04  0.17169297368E+04  0.25500000920E-02 0.  1.
</event>
<event>
 5   0  0.4758908E-07  0.3671051E+04  0.7818609E-02  0.8074408E-01
        2   -1    0    0  501    0  0.00000000000E+00  0.00000000000E+00  0.22862719352E+04  0.22862719352E+04  0.25500000920E-02 0. -1.
       -2   -1    0    0    0  501  0.00000000000E+00  0.00000000000E+00 -0.14736452359E+04  0.14736452359E+04  0.25500000920E-02 0.  1.
    10030    2    1    2    0    0  0.00000000000E+00  0.00000000000E+00  0.81262669930E+03  0.37599171711E+04  0.36710509369E+04 0.  0.
        2    1    3    3  502    0  0.10698734866E+04 -0.12649971826E+04 -0.40294432918E+03  0.17050546272E+04  0.25500000920E-02 0.  1.
       -2    1    3    3    0  502 -0.10698734866E+04  0.12649971826E+04  0.12155710285E+04  0.20548625440E+04  0.25500000920E-02 0. -1.
</event>
<event>
 5   0  0.1496287E-07  0.3624828E+04  0.7818609E-02  0.8084828E-01
        1   -1    0    0  501    0  0.00000000000E+00  0.00000000000E+00  0.13407344889E+04  0.13407344889E+04  0.50400001928E-02 0. -1.
       -1   -1    0    0    0  501  0.00000000000E+00  0.00000000000E+00 -0.24500331056E+04  0.24500331057E+04  0.50400001928E-02 0.  1.
    10030    2    1    2    0    0  0.00000000000E+00  0.00000000000E+00 -0.11092986167E+04  0.37907675946E+04  0.36248276559E+04 0.  0.
        1    1    3    3  502    0 -0.12920488101E+04  0.72920587938E+03 -0.16433207898E+04  0.22139635409E+04  0.50400001928E-02 0.  1.
       -1    1    3    3    0  502  0.12920488101E+04 -0.72920587938E+03  0.53402217310E+03  0.15768040536E+04  0.50400001928E-02 0. -1.
</event>
<event>
 5   0  0.4857514E-07  0.3618817E+04  0.7818609E-02  0.8086195E-01
       -2   -1    0    0    0  501  0.00000000000E+00  0.00000000000E+00  0.10798051008E+04  0.10798051008E+04  0.25500000920E-02 0.  1.
        2   -1    0    0  501    0  0.00000000000E+00  0.00000000000E+00 -0.30319910517E+04  0.30319910517E+04  0.25500000920E-02 0. -1.
    10030    2    1    2    0    0  0.00000000000E+00  0.00000000000E+00 -0.19521859508E+04  0.41117961525E+04  0.36188171566E+04 0.  0.
        5    1    3    3  502    0 -0.13816493303E+04 -0.11446761642E+04 -0.12418313740E+04  0.21820645371E+04  0.46999998093E+01 0. -1.
       -5    1    3    3    0  502  0.13816493303E+04  0.11446761642E+04 -0.71035457684E+03  0.19297316154E+04  0.46999998093E+01 0.  1.
</event>
<event>
 5   0  0.1496000E-07  0.3725565E+04  0.7818609E-02  0.8062320E-01
        1   -1    0    0  501    0  0.00000000000E+00  0.00000000000E+00  0.31454540323E+04  0.31454540323E+04  0.50400001928E-02 0.  1.
       -1   -1    0    0    0  501  0.00000000000E+00  0.00000000000E+00 -0.11031664747E+04  0.11031664747E+04  0.50400001928E-02 0. -1.
    10030    2    1    2    0    0  0.00000000000E+00  0.00000000000E+00  0.20422875576E+04  0.42486205070E+04  0.37255654261E+04 0.  0.
        3    1    3    3  502    0  0.10765676481E+04  0.54473025955E+03 -0.59734736380E+03  0.13463108258E+04  0.10100000352E+00 0. -1.
       -3    1    3    3    0  502 -0.10765676481E+04 -0.54473025955E+03  0.26396349214E+04  0.29023096811E+04  0.10100000352E+00 0.  1.
</event>
<event>
 5   0  0.4687817E-07  0.3660392E+04  0.7818609E-02  0.8076797E-01
        2   -1    0    0  501    0  0.00000000000E+00  0.00000000000E+00  0.18794073223E+04  0.18794073223E+04  0.25500000920E-02 0. -1.
       -2   -1    0    0    0  501  0.00000000000E+00  0.00000000000E+00 -0.17822731439E+04  0.17822731439E+04  0.25500000920E-02 0.  1.
    10030    2    1    2    0    0  0.00000000000E+00  0.00000000000E+00  0.97134178347E+02  0.36616804662E+04  0.36603918899E+04 0.  0.
        4    1    3    3  502    0  0.74199059583E+03 -0.14814899629E+03  0.17156222859E+04  0.18750625617E+04  0.12699999809E+01 0. -1.
       -4    1    3    3    0  502 -0.74199059583E+03  0.14814899629E+03 -0.16184881076E+04  0.17866179045E+04  0.12699999809E+01 0.  1.
</event>
<event>
 5   0  0.1496000E-07  0.3666440E+04  0.7818609E-02  0.8075440E-01
        1   -1    0    0  501    0  0.00000000000E+00  0.00000000000E+00  0.25607313964E+04  0.25607313964E+04  0.50400001928E-02 0.  1.
       -1   -1    0    0    0  501  0.00000000000E+00  0.00000000000E+00 -0.13123969410E+04  0.13123969411E+04  0.50400001928E-02 0. -1.
    10030    2    1    2    0    0  0.00000000000E+00  0.00000000000E+00  0.12483344553E+04  0.38731283374E+04  0.36664402635E+04 0.  0.
        2    1    3    3  502    0  0.49510876881E+02 -0.15552903066E+04 -0.39965208160E+03  0.16065805461E+04  0.25500000920E-02 0. -1.
       -2    1    3    3    0  502 -0.49510876881E+02  0.15552903066E+04  0.16479865369E+04  0.22665477914E+04  0.25500000920E-02 0.  1.
</event>
<event>
 5   0  0.1496000E-07  0.3687462E+04  0.7818609E-02  0.8070746E-01
       -1   -1    0    0    0  501  0.00000000000E+00  0.00000000000E+00  0.12559365542E+04  0.12559365542E+04  0.50400001928E-02 0.  1.
        1   -1    0    0  501    0  0.00000000000E+00  0.00000000000E+00 -0.27066209803E+04  0.27066209803E+04  0.50400001928E-02 0. -1.
    10030    2    1    2    0    0  0.00000000000E+00  0.00000000000E+00 -0.14506844261E+04  0.39625575345E+04  0.36874621233E+04 0.  0.
        3    1    3    3  502    0  0.10308042022E+04  0.14129740574E+04 -0.98478126588E+02  0.17517850730E+04  0.10100000352E+00 0.  1.
       -3    1    3    3    0  502 -0.10308042022E+04 -0.14129740574E+04 -0.13522062995E+04  0.22107724616E+04  0.10100000352E+00 0. -1.
</event>
<event>
 5   0  0.1496287E-07  0.3635106E+04  0.7818609E-02  0.8082497E-01
       -1   -1    0    0    0  501  0.00000000000E+00  0.00000000000E+00  0.13541716991E+04  0.13541716991E+04  0.50400001928E-02 0. -1.
        1   -1    0    0  501    0  0.00000000000E+00  0.00000000000E+00 -0.24394982187E+04  0.24394982187E+04  0.50400001928E-02 0.  1.
    10030    2    1    2    0    0  0.00000000000E+00  0.00000000000E+00 -0.10853265195E+04  0.37936699178E+04  0.36351062971E+04 0.  0.
        1    1    3    3  502    0  0.14719493868E+04 -0.39761533455E+03  0.48981751404E+03  0.16014537610E+04  0.50400001928E-02 0.  1.
       -1    1    3    3    0  502 -0.14719493868E+04  0.39761533455E+03 -0.15751440336E+04  0.21922161568E+04  0.50400001928E-02 0. -1.
</event>
<event>
 5   0  0.1496000E-07  0.3753976E+04  0.7818609E-02  0.8056104E-01
        1   -1    0    0  501    0  0.00000000000E+00  0.00000000000E+00  0.16047187339E+04  0.16047187339E+04  0.50400001928E-02 0.  1.
       -1   -1    0    0    0  501  0.00000000000E+00  0.00000000000E+00 -0.21954524499E+04  0.21954524499E+04  0.50400001928E-02 0. -1.
    10030    2    1    2    0    0  0.00000000000E+00  0.00000000000E+00 -0.59073371599E+03  0.38001711839E+04  0.37539758528E+04 0.  0.
        3    1    3    3  502    0 -0.37682502765E+03  0.13866356419E+04  0.92710625721E+03  0.17100530773E+04  0.10100000352E+00 0.  1.
       -3    1    3    3    0  502  0.37682502765E+03 -0.13866356419E+04 -0.15178399732E+04  0.20901181066E+04  0.10100000352E+00 0. -1.
</event>
<event>
 5   0  0.4687817E-07  0.3703283E+04  0.7818609E-02  0.8067235E-01
       -2   -1    0    0    0  501  0.00000000000E+00  0.00000000000E+00  0.15531610505E+04  0.15531610505E+04  0.25500000920E-02 0.  1.
        2   -1    0    0  501    0  0.00000000000E+00  0.00000000000E+00 -0.22074826133E+04  0.22074826133E+04  0.25500000920E-02 0. -1.
    10030    2    1    2    0    0  0.00000000000E+00  0.00000000000E+00 -0.65432156283E+03  0.37606436638E+04  0.37032828758E+04 0.  0.
        4    1    3    3  502    0 -0.13429479043E+04 -0.58728217404E+03  0.82180810361E+03  0.16804105444E+04  0.12699999809E+01 0.  1.
       -4    1    3    3    0  502  0.13429479043E+04  0.58728217404E+03 -0.14761296664E+04  0.20802331193E+04  0.12699999809E+01 0. -1.
</event>
<event>
 5   0  0.4824268E-07  0.3266448E+04  0.7818609E-02  0.8171485E-01
       -2   -1    0    0    0  501  0.00000000000E+00  0.00000000000E+00  0.12934323361E+04  0.12934323361E+04  0.25500000920E-02 0. -1.
        2   -1    0    0  501    0  0.00000000000E+00  0.00000000000E+00 -0.20622812792E+04  0.20622812792E+04  0.25500000920E-02 0.  1.
    10030    2    1    2    0    0  0.00000000000E+00  0.00000000000E+00 -0.76884894318E+03  0.33557136153E+04  0.32664484032E+04 0.  0.
        1    1    3    3  502    0 -0.94579747930E+03  0.11535964170E+04 -0.10675038520E+04  0.18343614800E+04  0.50400001928E-02 0.  1.
       -1    1    3    3    0  502  0.94579747930E+03 -0.11535964170E+04  0.29865490879E+03  0.15213521354E+04  0.50400001928E-02 0. -1.
</event>
<event>
 5   0  0.1496000E-07  0.3684991E+04  0.7818609E-02  0.8071296E-01
        1   -1    0    0  501    0  0.00000000000E+00  0.00000000000E+00  0.19512047122E+04  0.19512047122E+04  0.50400001928E-02 0.  1.
       -1   -1    0    0    0  501  0.00000000000E+00  0.00000000000E+00 -0.17398425636E+04  0.17398425636E+04  0.50400001928E-02 0. -1.
    10030    2    1    2    0    0  0.00000000000E+00  0.00000000000E+00  0.21136214864E+03  0.36910472758E+04  0.36849906424E+04 0.  0.
        2    1    3    3  502    0  0.13431195816E+04  0.87159178962E+02  0.13660106762E+04  0.19176944753E+04  0.25500000920E-02 0.  1.
       -2    1    3    3    0  502 -0.13431195816E+04 -0.87159178962E+02 -0.11546485276E+04  0.17733528005E+04  0.25500000920E-02 0. -1.
</event>
<event>
 5   0  0.1496000E-07  0.3613516E+04  0.7818609E-02  0.8087403E-01
        1   -1    0    0  501    0  0.00000000000E+00  0.00000000000E+00  0.17914690059E+04  0.17914690059E+04  0.50400001928E-02 0.  1.
       -1   -1    0    0    0  501  0.00000000000E+00  0.00000000000E+00 -0.18221772746E+04  0.18221772746E+04  0.50400001928E-02 0. -1.
    10030    2    1    2    0    0  0.00000000000E+00  0.00000000000E+00 -0.30708268634E+02  0.36136462805E+04  0.36135158008E+04 0.  0.
        2    1    3    3  502    0 -0.13156398151E+04  0.85614192520E+03 -0.91008582688E+03  0.18144264470E+04  0.25500000920E-02 0. -1.
       -2    1    3    3    0  502  0.13156398151E+04 -0.85614192520E+03  0.87937755825E+03  0.17992198335E+04  0.25500000920E-02 0.  1.
</event>
<event>
 5   0  0.1496000E-07  0.3669949E+04  0.7818609E-02  0.8074654E-01
        3   -1    0    0  501    0  0.00000000000E+00  0.00000000000E+00  0.29843678331E+04  0.29843678348E+04  0.10100000352E+00 0. -1.
       -3   -1    0    0    0  501  0.00000000000E+00  0.00000000000E+00 -0.11282559635E+04  0.11282559680E+04  0.10100000352E+00 0.  1.
    10030    2    1    2    0    0  0.00000000000E+00  0.00000000000E+00  0.18561118696E+04  0.41126238028E+04  0.36699486741E+04 0.  0.
        5    1    3    3  502    0 -0.12606550893E+04 -0.13139781051E+04  0.67419367506E+03  0.19417386323E+04  0.46999998093E+01 0. -1.
       -5    1    3    3    0  502  0.12606550893E+04  0.13139781051E+04  0.11819181945E+04  0.21708851705E+04  0.46999998093E+01 0.  1.
</event>
<event>
 5   0  0.4687817E-07  0.3739879E+04  0.7818609E-02  0.8059181E-01
       -2   -1    0    0    0  501  0.00000000000E+00  0.00000000000E+00  0.17326348234E+04  0.17326348234E+04  0.25500000920E-02 0. -1.
        2   -1    0    0  501    0  0.00000000000E+00  0.00000000000E+00 -0.20181245625E+04  0.20181245625E+04  0.25500000920E-02 0.  1.
    10030    2    1    2    0    0  0.00000000000E+00  0.00000000000E+00 -0.28548973907E+03  0.37507593860E+04  0.37398785515E+04 0.  0.
        4    1    3    3  502    0  0.28576482326E+03  0.16306205177E+04 -0.10148070256E+04  0.19417568640E+04  0.12699999809E+01 0.  1.
       -4    1    3    3    0  502 -0.28576482326E+03 -0.16306205177E+04  0.72931728651E+03  0.18090025219E+04  0.12699999809E+01 0. -1.
</event>
<event>
 5   0  0.1496000E-07  0.3719714E+04  0.7818609E-02  0.8063607E-01
        1   -1    0    0  501    0  0.00000000000E+00  0.00000000000E+00  0.17653914693E+04  0.17653914693E+04  0.50400001928E-02 0. -1.
       -1   -1    0    0    0  501  0.00000000000E+00  0.00000000000E+00 -0.19593770610E+04  0.19593770610E+04  0.50400001928E-02 0.  1.
    10030    2    1    2    0    0  0.00000000000E+00  0.00000000000E+00 -0.19398559163E+03  0.37247685303E+04  0.37197137248E+04 0.  0.
        3    1    3    3  502    0  0.15847229150E+04 -0.36434806833E+03 -0.10009771862E+04  0.19094636864E+04  0.10100000352E+00 0.  1.
       -3    1    3    3    0  502 -0.15847229150E+04  0.36434806833E+03  0.80699159458E+03  0.18153048439E+04  0.10100000352E+00 0. -1.
</event>
<event>
 5   0  0.4687817E-07  0.3754939E+04  0.7818609E-02  0.8055895E-01
       -2   -1    0    0    0  501  0.00000000000E+00  0.00000000000E+00  0.22627115011E+04  0.22627115011E+04  0.25500000920E-02 0.  1.
        2   -1    0    0  501    0  0.00000000000E+00  0.00000000000E+00 -0.15578173546E+04  0.15578173546E+04  0.25500000920E-02 0. -1.
    10030    2    1    2    0    0  0.00000000000E+00  0.00000000000E+00  0.70489414657E+03  0.38205288557E+04  0.37549387451E+04 0.  0.
        4    1    3    3  502    0  0.15876046673E+04 -0.12122834307E+03  0.13646636676E+04  0.20970201309E+04  0.12699999809E+01 0.  1.
       -4    1    3    3    0  502 -0.15876046673E+04  0.12122834307E+03 -0.65976952106E+03  0.17235087248E+04  0.12699999809E+01 0. -1.
</event>
<event>
 5   0  0.1496000E-07  0.3693972E+04  0.7818609E-02  0.8069299E-01
        1   -1    0    0  501    0  0.00000000000E+00  0.00000000000E+00  0.20599941932E+04  0.20599941932E+04  0.50400001928E-02 0. -1.
       -1   -1    0    0    0  501  0.00000000000E+00  0.00000000000E+00 -0.16560031137E+04  0.16560031137E+04  0.50400001928E-02 0.  1.
    10030    2    1    2    0    0  0.00000000000E+00  0.00000000000E+00  0.40399107956E+03  0.37159973069E+04  0.36939717368E+04 0.  0.
        3    1    3    3  502    0  0.55798072059E+03 -0.13556553903E+04  0.13321768120E+04  0.19808682668E+04  0.10100000352E+00 0. -1.
       -3    1    3    3    0  502 -0.55798072059E+03  0.13556553903E+04 -0.92818573247E+03  0.17351290401E+04  0.10100000352E+00 0.  1.
</event>
<event>
 5   0  0.1496000E-07  0.3701204E+04  0.7818609E-02  0.8067695E-01
        1   -1    0    0  501    0  0.00000000000E+00  0.00000000000E+00  0.10062415692E+04  0.10062415692E+04  0.50400001928E-02 0.  1.
       -1   -1    0    0    0  501  0.00000000000E+00  0.00000000000E+00 -0.34034846315E+04  0.34034846315E+04  0.50400001928E-02 0. -1.
    10030    2    1    2    0    0  0.00000000000E+00  0.00000000000E+00 -0.23972430623E+04  0.44097262007E+04  0.37012039751E+04 0.  0.
        3    1    3    3  502    0  0.12043358507E+04  0.91959663758E+03  0.67126512205E+02  0.15167691967E+04  0.10100000352E+00 0.  1.
       -3    1    3    3    0  502 -0.12043358507E+04 -0.91959663758E+03 -0.24643695746E+04  0.28929570040E+04  0.10100000352E+00 0. -1.
</event>
<event>
 5   0  0.4687817E-07  0.3693764E+04  0.7818609E-02  0.8069345E-01
       -2   -1    0    0    0  501  0.00000000000E+00  0.00000000000E+00  0.15091083576E+04  0.15091083576E+04  0.25500000920E-02 0.  1.
        2   -1    0    0  501    0  0.00000000000E+00  0.00000000000E+00 -0.22602576494E+04  0.22602576494E+04  0.25500000920E-02 0. -1.
    10030    2    1    2    0    0  0.00000000000E+00  0.00000000000E+00 -0.75114929184E+03  0.37693660069E+04  0.36937643178E+04 0.  0.
        4    1    3    3  502    0 -0.51578185108E+03 -0.10417670694E+04  0.10889516177E+04  0.15928360818E+04  0.12699999809E+01 0.  1.
       -4    1    3    3    0  502  0.51578185108E+03  0.10417670694E+04 -0.18401009095E+04  0.21765299252E+04  0.12699999809E+01 0. -1.
</event>
<event>
 5   0  0.4824268E-07  0.3446344E+04  0.7818609E-02  0.8126625E-01
       -2   -1    0    0    0  501  0.00000000000E+00  0.00000000000E+00  0.17284855097E+04  0.17284855097E+04  0.25500000920E-02 0. -1.
        2   -1    0    0  501    0  0.00000000000E+00  0.00000000000E+00 -0.17178752665E+04  0.17178752665E+04  0.25500000920E-02 0.  1.
    10030    2    1    2    0    0  0.00000000000E+00  0.00000000000E+00  0.10610243210E+02  0.34463607762E+04  0.34463444434E+04 0.  0.
        1    1    3    3  502    0  0.12994342277E+04  0.57353110562E+02  0.11355776210E+04  0.17266601358E+04  0.50400001928E-02 0. -1.
       -1    1    3    3    0  502 -0.12994342277E+04 -0.57353110562E+02 -0.11249673777E+04  0.17197006404E+04  0.50400001928E-02 0.  1.
</event>
<event>
 5   0  0.4758908E-07  0.3598731E+04  0.7818609E-02  0.8090783E-01
       -2   -1    0    0    0  501  0.00000000000E+00  0.00000000000E+00  0.15609026859E+04  0.15609026859E+04  0.25500000920E-02 0. -1.
        2   -1    0    0  501    0  0.00000000000E+00  0.00000000000E+00 -0.20742583767E+04  0.20742583767E+04  0.25500000920E-02 0.  1.
    10030    2    1    2    0    0  0.00000000000E+00  0.00000000000E+00 -0.51335569080E+03  0.36351610625E+04  0.35987305936E+04 0.  0.
        2    1    3    3  502    0  0.69204017494E+03  0.13594331751E+04 -0.12206641995E+04  0.19537142189E+04  0.25500000920E-02 0.  1.
       -2    1    3    3    0  502 -0.69204017494E+03 -0.13594331751E+04  0.70730850866E+03  0.16814468436E+04  0.25500000920E-02 0. -1.
</event>
<event>
 5   0  0.4687817E-07  0.3692961E+04  0.7818609E-02  0.8069524E-01
       -2   -1    0    0    0  501  0.00000000000E+00  0.00000000000E+00  0.19549741189E+04  0.19549741189E+04  0.25500000920E-02 0.  1.
        2   -1    0    0  501    0  0.00000000000E+00  0.00000000000E+00 -0.17440075081E+04  0.17440075081E+04  0.25500000920E-02 0. -1.
    10030    2    1    2    0    0  0.00000000000E+00  0.00000000000E+00  0.21096661077E+03  0.36989816270E+04  0.36929606234E+04 0.  0.
        4    1    3    3  502    0 -0.16708263736E+04  0.49422322860E+03  0.71768399988E+03  0.18844068847E+04  0.12699999809E+01 0.  1.
       -4    1    3    3    0  502  0.16708263736E+04 -0.49422322860E+03 -0.50671738911E+03  0.18145747424E+04  0.12699999809E+01 0. -1.
</event>
<event>
 5   0  0.1496287E-07  0.3520645E+04  0.7818609E-02  0.8108915E-01
       -1   -1    0    0    0  501  0.00000000000E+00  0.00000000000E+00  0.16593947810E+04  0.16593947810E+04  0.50400001928E-02 0. -1.
        1   -1    0    0  501    0  0.00000000000E+00  0.00000000000E+00 -0.18673883511E+04  0.18673883511E+04  0.50400001928E-02 0.  1.
    10030    2    1    2    0    0  0.00000000000E+00  0.00000000000E+00 -0.20799357015E+03  0.35267831321E+04  0.35206445342E+04 0.  0.
        1    1    3    3  502    0 -0.10672337033E+04  0.49433329075E+03  0.12080125133E+04  0.16860152467E+04  0.50400001928E-02 0. -1.
       -1    1    3    3    0  502  0.10672337033E+04 -0.49433329075E+03 -0.14160060834E+04  0.18407678854E+04  0.50400001928E-02 0.  1.
</event>
<event>
 5   0  0.1496000E-07  0.3678781E+04  0.7818609E-02  0.8072681E-01
       -1   -1    0    0    0  501  0.00000000000E+00  0.00000000000E+00  0.17713300073E+04  0.17713300073E+04  0.50400001928E-02 0. -1.
        1   -1    0    0  501    0  0.00000000000E+00  0.00000000000E+00 -0.19100661124E+04  0.19100661124E+04  0.50400001928E-02 0.  1.
    10030    2    1    2    0    0  0.00000000000E+00  0.00000000000E+00 -0.13873610505E+03  0.36813961197E+04  0.36787810051E+04 0.  0.
        3    1    3    3  502    0 -0.54946209422E+02 -0.18352439166E+04 -0.17998210378E+03  0.18448666313E+04  0.10100000352E+00 0.  1.
       -3    1    3    3    0  502  0.54946209422E+02  0.18352439166E+04  0.41245998728E+02  0.18365294884E+04  0.10100000352E+00 0. -1.
</event>
<event>
 5   0  0.4758908E-07  0.3682472E+04  0.7818609E-02  0.8071857E-01
        2   -1    0    0  501    0  0.00000000000E+00  0.00000000000E+00  0.21938616536E+04  0.21938616536E+04  0.25500000920E-02 0.  1.
       -2   -1    0    0    0  501  0.00000000000E+00  0.00000000000E+00 -0.15452892400E+04  0.15452892400E+04  0.25500000920E-02 0. -1.
    10030    2    1    2    0    0  0.00000000000E+00  0.00000000000E+00  0.64857241363E+03  0.37391508936E+04  0.36824724343E+04 0.  0.
        2    1    3    3  502    0 -0.17839667801E+04 -0.40469606039E+03  0.11169701281E+03  0.18327009021E+04  0.25500000920E-02 0. -1.
       -2    1    3    3    0  502  0.17839667801E+04  0.40469606039E+03  0.53687540082E+03  0.19064499915E+04  0.25500000920E-02 0.  1.
</event>
<event>
 5   0  0.1496000E-07  0.3689937E+04  0.7818609E-02  0.8070196E-01
       -1   -1    0    0    0  501  0.00000000000E+00  0.00000000000E+00  0.17427829285E+04  0.17427829286E+04  0.50400001928E-02 0.  1.
        1   -1    0    0  501    0  0.00000000000E+00  0.00000000000E+00 -0.19531456380E+04  0.19531456380E+04  0.50400001928E-02 0. -1.
    10030    2    1    2    0    0  0.00000000000E+00  0.00000000000E+00 -0.21036270949E+03  0.36959285666E+04  0.36899370591E+04 0.  0.
        2    1    3    3  502    0 -0.15079130528E+03  0.11558772974E+04  0.13272171283E+04  0.17664358607E+04  0.25500000920E-02 0.  1.
       -2    1    3    3    0  502  0.15079130528E+03 -0.11558772974E+04 -0.15375798378E+04  0.19294927059E+04  0.25500000920E-02 0. -1.
</event>
<event>
 5   0  0.1522273E-07  0.3704018E+04  0.7818609E-02  0.8067072E-01
        1   -1    0    0  501    0  0.00000000000E+00  0.00000000000E+00  0.24344326834E+04  0.24344326834E+04  0.50400001928E-02 0.  1.
       -1   -1    0    0    0  501  0.00000000000E+00  0.00000000000E+00 -0.14089268868E+04  0.14089268868E+04  0.50400001928E-02 0. -1.
    10030    2    1    2    0    0  0.00000000000E+00  0.00000000000E+00  0.10255057966E+04  0.38433595702E+04  0.37040181759E+04 0.  0.
        4    1    3    3  502    0 -0.39353428837E+03 -0.16493145634E+04 -0.26013624039E+03  0.17154533633E+04  0.12699999809E+01 0.  1.
       -4    1    3    3    0  502  0.39353428837E+03  0.16493145634E+04  0.12856420370E+04  0.21279062069E+04  0.12699999809E+01 0. -1.
</event>
<event>
 5   0  0.1522273E-07  0.3717982E+04  0.7818609E-02  0.8063988E-01
        1   -1    0    0  501    0  0.00000000000E+00  0.00000000000E+00  0.24526305014E+04  0.24526305014E+04  0.50400001928E-02 0.  1.
       -1   -1    0    0    0  501  0.00000000000E+00  0.00000000000E+00 -0.14090374730E+04  0.14090374730E+04  0.50400001928E-02 0. -1.
    10030    2    1    2    0    0  0.00000000000E+00  0.00000000000E+00  0.10435930284E+04  0.38616679744E+04  0.37179824012E+04 0.  0.
        4    1    3    3  502    0 -0.51539736888E+03 -0.17780620841E+04  0.34581587341E+03  0.18832762554E+04  0.12699999809E+01 0. -1.
       -4    1    3    3    0  502  0.51539736888E+03  0.17780620841E+04  0.69777715504E+03  0.19783917190E+04  0.12699999809E+01 0.  1.
</event>
<event>
 5   0  0.4758908E-07  0.3589008E+04  0.7818609E-02  0.8093014E-01
        2   -1    0    0  501    0  0.00000000000E+00  0.00000000000E+00  0.19494560327E+04  0.19494560327E+04  0.25500000920E-02 0. -1.
       -2   -1    0    0    0  501  0.00000000000E+00  0.00000000000E+00 -0.16518685583E+04  0.16518685583E+04  0.25500000920E-02 0.  1.
    10030    2    1    2    0    0  0.00000000000E+00  0.00000000000E+00  0.29758747443E+03  0.36013245910E+04  0.35890082899E+04 0.  0.
        2    1    3    3  502    0 -0.86127881997E+03  0.13915073097E+04 -0.59004229592E+03  0.17396102177E+04  0.25500000920E-02 0.  1.
       -2    1    3    3    0  502  0.86127881997E+03 -0.13915073097E+04  0.88762977035E+03  0.18617143733E+04  0.25500000920E-02 0. -1.
</event>
<event>
 5   0  0.1496287E-07  0.3680543E+04  0.7818609E-02  0.8072287E-01
       -1   -1    0    0    0  501  0.00000000000E+00  0.00000000000E+00  0.19048608131E+04  0.19048608131E+04  0.50400001928E-02 0. -1.
        1   -1    0    0  501    0  0.00000000000E+00  0.00000000000E+00 -0.17778725304E+04  0.17778725304E+04  0.50400001928E-02 0.  1.
    10030    2    1    2    0    0  0.00000000000E+00  0.00000000000E+00  0.12698828272E+03  0.36827333435E+04  0.36805432827E+04 0.  0.
        1    1    3    3  502    0 -0.17143773552E+04  0.88773379951E+02 -0.59994585768E+03  0.18184898848E+04  0.50400001928E-02 0.  1.
       -1    1    3    3    0  502  0.17143773552E+04 -0.88773379951E+02  0.72693414040E+03  0.18642434587E+04  0.50400001928E-02 0. -1.
</event>
<event>
 5   0  0.4758908E-07  0.3706039E+04  0.7818609E-02  0.8066625E-01
       -2   -1    0    0    0  501  0.00000000000E+00  0.00000000000E+00  0.11511546226E+04  0.11511546226E+04  0.25500000920E-02 0. -1.
        2   -1    0    0  501    0  0.00000000000E+00  0.00000000000E+00 -0.29828154955E+04  0.29828154955E+04  0.25500000920E-02 0.  1.
    10030    2    1    2    0    0  0.00000000000E+00  0.00000000000E+00 -0.18316608729E+04  0.41339701181E+04  0.37060393122E+04 0.  0.
        2    1    3    3  502    0 -0.12308768840E+03 -0.86215634657E+03 -0.27403010636E+04  0.28753632926E+04  0.25500000920E-02 0.  1.
       -2    1    3    3    0  502  0.12308768840E+03  0.86215634657E+03  0.90864019072E+03  0.12586068255E+04  0.25500000920E-02 0. -1.
</event>
<event>
 5   0  0.4758908E-07  0.3785337E+04  0.7818609E-02  0.8049309E-01
       -2   -1    0    0    0  501  0.00000000000E+00  0.00000000000E+00  0.17702711862E+04  0.17702711862E+04  0.25500000920E-02 0.  1.
        2   -1    0    0  501    0  0.00000000000E+00  0.00000000000E+00 -0.20235288837E+04  0.20235288838E+04  0.25500000920E-02 0. -1.
    10030    2    1    2    0    0  0.00000000000E+00  0.00000000000E+00 -0.25325769752E+03  0.37938000700E+04  0.37853374367E+04 0.  0.
        2    1    3    3  502    0 -0.40705956237E+03  0.67065326965E+03 -0.18528969113E+04  0.20121382307E+04  0.25500000920E-02 0. -1.
       -2    1    3    3    0  502  0.40705956237E+03 -0.67065326965E+03  0.15996392138E+04  0.17816618393E+04  0.25500000920E-02 0.  1.
</event>
<event>
 5   0  0.4758908E-07  0.3688382E+04  0.7818609E-02  0.8070541E-01
       -2   -1    0    0    0  501  0.00000000000E+00  0.00000000000E+00  0.16140834981E+04  0.16140834981E+04  0.25500000920E-02 0.  1.
        2   -1    0    0  501    0  0.00000000000E+00  0.00000000000E+00 -0.21071030413E+04  0.21071030413E+04  0.25500000920E-02 0. -1.
    10030    2    1    2    0    0  0.00000000000E+00  0.00000000000E+00 -0.49301954318E+03  0.37211865394E+04  0.36883818934E+04 0.  0.
        2    1    3    3  502    0 -0.13465575426E+04 -0.58026821780E+03  0.88196960051E+03  0.17110811776E+04  0.25500000920E-02 0.  1.
       -2    1    3    3    0  502  0.13465575426E+04  0.58026821780E+03 -0.13749891437E+04  0.20101053618E+04  0.25500000920E-02 0. -1.
</event>
<event>
 5   0  0.4824268E-07  0.3665657E+04  0.7818609E-02  0.8075616E-01
        2   -1    0    0  501    0  0.00000000000E+00  0.00000000000E+00  0.14042897403E+04  0.14042897403E+04  0.25500000920E-02 0.  1.
       -2   -1    0    0    0  501  0.00000000000E+00  0.00000000000E+00 -0.23921414296E+04  0.23921414296E+04  0.25500000920E-02 0. -1.
    10030    2    1    2    0    0  0.00000000000E+00  0.00000000000E+00 -0.98785168939E+03  0.37964311699E+04  0.36656566489E+04 0.  0.
        1    1    3    3  502    0 -0.11378621417E+04  0.13106052786E+04  0.11601869795E+03  0.17395047537E+04  0.50400001928E-02 0.  1.
       -1    1    3    3    0  502  0.11378621417E+04 -0.13106052786E+04 -0.11038703873E+04  0.20569264162E+04  0.50400001928E-02 0. -1.
</event>
<event>
 5   0  0.1496000E-07  0.3673667E+04  0.7818609E-02  0.8073823E-01
        1   -1    0    0  501    0  0.00000000000E+00  0.00000000000E+00  0.14565634884E+04  0.14565634884E+04  0.50400001928E-02 0. -1.
       -1   -1    0    0    0  501  0.00000000000E+00  0.00000000000E+00 -0.23163815373E+04  0.23163815373E+04  0.50400001928E-02 0.  1.
    10030    2    1    2    0    0  0.00000000000E+00  0.00000000000E+00 -0.85981804896E+03  0.37729450257E+04  0.36736667091E+04 0.  0.
        2    1    3    3  502    0 -0.15698223603E+04  0.95328852562E+03 -0.39986937280E+03  0.18796267638E+04  0.25500000920E-02 0.  1.
       -2    1    3    3    0  502  0.15698223603E+04 -0.95328852562E+03 -0.45994867616E+03  0.18933182619E+04  0.25500000920E-02 0. -1.
</event>
<event>
 5   0  0.4687817E-07  0.3714282E+04  0.7818609E-02  0.8064804E-01
       -2   -1    0    0    0  501  0.00000000000E+00  0.00000000000E+00  0.27222908170E+04  0.27222908170E+04  0.25500000920E-02 0. -1.
        2   -1    0    0  501    0  0.00000000000E+00  0.00000000000E+00 -0.12669373032E+04  0.12669373032E+04  0.25500000920E-02 0.  1.
    10030    2    1    2    0    0  0.00000000000E+00  0.00000000000E+00  0.14553535138E+04  0.39892281202E+04  0.37142815113E+04 0.  0.
        4    1    3    3  502    0 -0.92660218075E+03  0.16086021386E+04  0.67107118400E+03  0.19739631680E+04  0.12699999809E+01 0.  1.
       -4    1    3    3    0  502  0.92660218075E+03 -0.16086021386E+04  0.78428232979E+03  0.20152649522E+04  0.12699999809E+01 0. -1.
</event>
<event>
 5   0  0.4857514E-07  0.3698948E+04  0.7818609E-02  0.8068195E-01
        2   -1    0    0  501    0  0.00000000000E+00  0.00000000000E+00  0.12884132317E+04  0.12884132317E+04  0.25500000920E-02 0.  1.
       -2   -1    0    0    0  501  0.00000000000E+00  0.00000000000E+00 -0.26548572483E+04  0.26548572483E+04  0.25500000920E-02 0. -1.
    10030    2    1    2    0    0  0.00000000000E+00  0.00000000000E+00 -0.13664440166E+04  0.39432704800E+04  0.36989475298E+04 0.  0.
        5    1    3    3  502    0  0.15660749990E+04 -0.82782402788E+03 -0.11645959247E+03  0.17752375757E+04  0.46999998093E+01 0.  1.
       -5    1    3    3    0  502 -0.15660749990E+04  0.82782402788E+03 -0.12499844241E+04  0.21680329043E+04  0.46999998093E+01 0. -1.
</event>
<event>
 5   0  0.1496000E-07  0.3679095E+04  0.7818609E-02  0.8072610E-01
       -1   -1    0    0    0  501  0.00000000000E+00  0.00000000000E+00  0.15868949865E+04  0.15868949865E+04  0.50400001928E-02 0.  1.
        1   -1    0    0  501    0  0.00000000000E+00  0.00000000000E+00 -0.21324257682E+04  0.21324257683E+04  0.50400001928E-02 0. -1.
    10030    2    1    2    0    0  0.00000000000E+00  0.00000000000E+00 -0.54553078173E+03  0.37193207548E+04  0.36790954110E+04 0.  0.
        5    1    3    3  502    0  0.11342671488E+04 -0.11086654698E+04 -0.12147322438E+04  0.19978232161E+04  0.46999998093E+01 0. -1.
       -5    1    3    3    0  502 -0.11342671488E+04  0.11086654698E+04  0.66920146206E+03  0.17214975387E+04  0.46999998093E+01 0.  1.
</event>
<event>
 5   0  0.4857514E-07  0.3681626E+04  0.7818609E-02  0.8072046E-01
       -2   -1    0    0    0  501  0.00000000000E+00  0.00000000000E+00  0.10293055806E+04  0.10293055806E+04  0.25500000920E-02 0. -1.
        2   -1    0    0  501    0  0.00000000000E+00  0.00000000000E+00 -0.32921148028E+04  0.32921148028E+04  0.25500000920E-02 0.  1.
    10030    2    1    2    0    0  0.00000000000E+00  0.00000000000E+00 -0.22628092222E+04  0.43214203834E+04  0.36816258031E+04 0.  0.
        5    1    3    3  502    0  0.42429508036E+03  0.10113953990E+04  0.60389514216E+03  0.12520616603E+04  0.46999998093E+01 0. -1.
       -5    1    3    3    0  502 -0.42429508036E+03 -0.10113953990E+04 -0.28667043644E+04  0.30693587231E+04  0.46999998093E+01 0.  1.
</event>
<event>
 5   0  0.1496000E-07  0.3655225E+04  0.7818609E-02  0.8077958E-01
       -1   -1    0    0    0  501  0.00000000000E+00  0.00000000000E+00  0.13914253324E+04  0.13914253324E+04  0.50400001928E-02 0.  1.
        1   -1    0    0  501    0  0.00000000000E+00  0.00000000000E+00 -0.24005368290E+04  0.24005368291E+04  0.50400001928E-02 0. -1.
    10030    2    1    2    0    0  0.00000000000E+00  0.00000000000E+00 -0.10091114967E+04  0.37919621614E+04  0.36552251670E+04 0.  0.
        5    1    3    3  502    0 -0.87799616361E+03  0.77891079101E+03 -0.19578783826E+04  0.22827372023E+04  0.46999998093E+01 0. -1.
       -5    1    3    3    0  502  0.87799616361E+03 -0.77891079101E+03  0.94876688590E+03  0.15092249592E+04  0.46999998093E+01 0.  1.
</event>
<event>
 5   0  0.4857514E-07  0.3701140E+04  0.7818609E-02  0.8067709E-01
       -2   -1    0    0    0  501  0.00000000000E+00  0.00000000000E+00  0.18174941465E+04  0.18174941465E+04  0.25500000920E-02 0. -1.
        2   -1    0    0  501    0  0.00000000000E+00  0.00000000000E+00 -0.18842481952E+04  0.18842481952E+04  0.25500000920E-02 0.  1.
    10030    2    1    2    0    0  0.00000000000E+00  0.00000000000E+00 -0.66754048751E+02  0.37017423417E+04  0.37011404001E+04 0.  0.
        5    1    3    3  502    0 -0.88666305083E+03  0.60374848020E+01  0.15911962807E+04  0.18215750082E+04  0.46999998093E+01 0. -1.
       -5    1    3    3    0  502  0.88666305083E+03 -0.60374848020E+01 -0.16579503294E+04  0.18801673335E+04  0.46999998093E+01 0.  1.
</event>
<event>
 5   0  0.4758908E-07  0.3728034E+04  0.7818609E-02  0.8061777E-01
       -2   -1    0    0    0  501  0.00000000000E+00  0.00000000000E+00  0.17988831982E+04  0.17988831982E+04  0.25500000920E-02 0. -1.
        2   -1    0    0  501    0  0.00000000000E+00  0.00000000000E+00 -0.19315087133E+04  0.19315087133E+04  0.25500000920E-02 0.  1.
    10030    2    1    2    0    0  0.00000000000E+00  0.00000000000E+00 -0.13262551506E+03  0.37303919115E+04  0.37280335683E+04 0.  0.
        2    1    3    3  502    0 -0.62936160405E+03 -0.12508260654E+04 -0.12974962029E+04  0.19089678549E+04  0.25500000920E-02 0.  1.
       -2    1    3    3    0  502  0.62936160405E+03  0.12508260654E+04  0.11648706878E+04  0.18214240566E+04  0.25500000920E-02 0. -1.
</event>
<event>
 5   0  0.1496287E-07  0.3699409E+04  0.7818609E-02  0.8068093E-01
        1   -1    0    0  501    0  0.00000000000E+00  0.00000000000E+00  0.11178175571E+04  0.11178175571E+04  0.50400001928E-02 0. -1.
       -1   -1    0    0    0  501  0.00000000000E+00  0.00000000000E+00 -0.30607920853E+04  0.30607920853E+04  0.50400001928E-02 0.  1.
    10030    2    1    2    0    0  0.00000000000E+00  0.00000000000E+00 -0.19429745282E+04  0.41786096425E+04  0.36994092133E+04 0.  0.
        1    1    3    3  502    0 -0.16381329608E+04  0.47119514324E+03 -0.17827907026E+04  0.24665455904E+04  0.50400001928E-02 0. -1.
       -1    1    3    3    0  502  0.16381329608E+04 -0.47119514324E+03 -0.16018382559E+03  0.17120640521E+04  0.50400001928E-02 0.  1.
</event>
<event>
 5   0  0.1496000E-07  0.3935007E+04  0.7818609E-02  0.8017788E-01
       -1   -1    0    0    0  501  0.00000000000E+00  0.00000000000E+00  0.16494546280E+04  0.16494546280E+04  0.50400001928E-02 0.  1.
        1   -1    0    0  501    0  0.00000000000E+00  0.00000000000E+00 -0.23468789534E+04  0.23468789534E+04  0.50400001928E-02 0. -1.
    10030    2    1    2    0    0  0.00000000000E+00  0.00000000000E+00 -0.69742432539E+03  0.39963335814E+04  0.39350071670E+04 0.  0.
        3    1    3    3  502    0  0.25757905188E+03 -0.90572891882E+03 -0.21031708892E+04  0.23043479863E+04  0.10100000352E+00 0. -1.
       -3    1    3    3    0  502 -0.25757905188E+03  0.90572891882E+03  0.14057465638E+04  0.16919855952E+04  0.10100000352E+00 0.  1.
</event>
<event>
 5   0  0.4687817E-07  0.3630729E+04  0.7818609E-02  0.8083489E-01
       -2   -1    0    0    0  501  0.00000000000E+00  0.00000000000E+00  0.10561614323E+04  0.10561614323E+04  0.25500000920E-02 0. -1.
        2   -1    0    0  501    0  0.00000000000E+00  0.00000000000E+00 -0.31203075367E+04  0.31203075367E+04  0.25500000920E-02 0.  1.
    10030    2    1    2    0    0  0.00000000000E+00  0.00000000000E+00 -0.20641461044E+04  0.41764689691E+04  0.36307291154E+04 0.  0.
        4    1    3    3  502    0 -0.70264458225E+03  0.12385307459E+04  0.26317910248E+03  0.14480789586E+04  0.12699999809E+01 0. -1.
       -4    1    3    3    0  502  0.70264458225E+03 -0.12385307459E+04 -0.23273252069E+04  0.27283900104E+04  0.12699999809E+01 0.  1.
</event>
<event>
 5   0  0.4687817E-07  0.3680816E+04  0.7818609E-02  0.8072227E-01
        2   -1    0    0  501    0  0.00000000000E+00  0.00000000000E+00  0.14332172136E+04  0.14332172136E+04  0.25500000920E-02 0.  1.
       -2   -1    0    0    0  501  0.00000000000E+00  0.00000000000E+00 -0.23632851514E+04  0.23632851514E+04  0.25500000920E-02 0. -1.
    10030    2    1    2    0    0  0.00000000000E+00  0.00000000000E+00 -0.93006793783E+03  0.37965023649E+04  0.36808156485E+04 0.  0.
        4    1    3    3  502    0 -0.22714871405E+03 -0.12593252071E+04 -0.18293322896E+04  0.22324772684E+04  0.12699999809E+01 0. -1.
       -4    1    3    3    0  502  0.22714871405E+03  0.12593252071E+04  0.89926435172E+03  0.15640250965E+04  0.12699999809E+01 0.  1.
</event>
<event>
 5   0  0.4824268E-07  0.3704851E+04  0.7818609E-02  0.8066888E-01
       -2   -1    0    0    0  501  0.00000000000E+00  0.00000000000E+00  0.28798412149E+04  0.28798412149E+04  0.25500000920E-02 0. -1.
        2   -1    0    0  501    0  0.00000000000E+00  0.00000000000E+00 -0.11915516247E+04  0.11915516247E+04  0.25500000920E-02 0.  1.
    10030    2    1    2    0    0  0.00000000000E+00  0.00000000000E+00  0.16882895901E+04  0.40713928396E+04  0.37048505927E+04 0.  0.
        1    1    3    3  502    0  0.13964208472E+04 -0.11693416216E+04  0.12153972240E+04  0.21896441315E+04  0.50400001928E-02 0.  1.
       -1    1    3    3    0  502 -0.13964208472E+04  0.11693416216E+04  0.47289236609E+03  0.18817487081E+04  0.50400001928E-02 0. -1.
</event>
<event>
 5   0  0.1496000E-07  0.3675374E+04  0.7818609E-02  0.8073441E-01
        4   -1    0    0  501    0  0.00000000000E+00  0.00000000000E+00  0.16371965695E+04  0.16371970621E+04  0.12699999809E+01 0.  1.
       -4   -1    0    0    0  501  0.00000000000E+00  0.00000000000E+00 -0.20627282771E+04  0.20627286681E+04  0.12699999809E+01 0. -1.
    10030    2    1    2    0    0  0.00000000000E+00  0.00000000000E+00 -0.42553170765E+03  0.36999257302E+04  0.36753738823E+04 0.  0.
        3    1    3    3  502    0  0.73569028440E+03  0.52995214896E+03  0.13963497916E+04  0.16648970615E+04  0.10100000352E+00 0.  1.
       -3    1    3    3    0  502 -0.73569028440E+03 -0.52995214896E+03 -0.18218814993E+04  0.20350286687E+04  0.10100000352E+00 0. -1.
</event>
<event>
 5   0  0.1496000E-07  0.3690770E+04  0.7818609E-02  0.8070010E-01
       -1   -1    0    0    0  501  0.00000000000E+00  0.00000000000E+00  0.24565744281E+04  0.24565744281E+04  0.50400001928E-02 0. -1.
        1   -1    0    0  501    0  0.00000000000E+00  0.00000000000E+00 -0.13862578908E+04  0.13862578908E+04  0.50400001928E-02 0.  1.
    10030    2    1    2    0    0  0.00000000000E+00  0.00000000000E+00  0.10703165373E+04  0.38428323189E+04  0.36907699388E+04 0.  0.
        3    1    3    3  502    0  0.98149146009E+03  0.30747794461E+03 -0.10601493136E+04  0.14770865750E+04  0.10100000352E+00 0.  1.
       -3    1    3    3    0  502 -0.98149146009E+03 -0.30747794461E+03  0.21304658509E+04  0.23657457439E+04  0.10100000352E+00 0. -1.
</event>
<event>
 5   0  0.1496287E-07  0.3707059E+04  0.7818609E-02  0.8066399E-01
       -1   -1    0    0    0  501  0.00000000000E+00  0.00000000000E+00  0.15662955466E+04  0.15662955467E+04  0.50400001928E-02 0.  1.
        1   -1    0    0  501    0  0.00000000000E+00  0.00000000000E+00 -0.21934372358E+04  0.21934372358E+04  0.50400001928E-02 0. -1.
    10030    2    1    2    0    0  0.00000000000E+00  0.00000000000E+00 -0.62714168919E+03  0.37597327825E+04  0.37070586585E+04 0.  0.
        1    1    3    3  502    0 -0.99062917972E+03 -0.58682318052E+03  0.11596053280E+04  0.16341334504E+04  0.50400001928E-02 0.  1.
       -1    1    3    3    0  502  0.99062917972E+03  0.58682318052E+03 -0.17867470172E+04  0.21255993321E+04  0.50400001928E-02 0. -1.
</event>
<event>
 5   0  0.4758908E-07  0.3687513E+04  0.7818609E-02  0.8070735E-01
       -2   -1    0    0    0  501  0.00000000000E+00  0.00000000000E+00  0.18815402217E+04  0.18815402217E+04  0.25500000920E-02 0.  1.
        2   -1    0    0  501    0  0.00000000000E+00  0.00000000000E+00 -0.18067312485E+04  0.18067312485E+04  0.25500000920E-02 0. -1.
    10030    2    1    2    0    0  0.00000000000E+00  0.00000000000E+00  0.74808973227E+02  0.36882714703E+04  0.36875127194E+04 0.  0.
        2    1    3    3  502    0 -0.14439811262E+04 -0.48092472070E+03  0.10783238825E+04  0.18652486364E+04  0.25500000920E-02 0.  1.
       -2    1    3    3    0  502  0.14439811262E+04  0.48092472070E+03 -0.10035149092E+04  0.18230228339E+04  0.25500000920E-02 0. -1.
</event>
<event>
 5   0  0.1496000E-07  0.3681260E+04  0.7818609E-02  0.8072127E-01
        1   -1    0    0  501    0  0.00000000000E+00  0.00000000000E+00  0.20631073752E+04  0.20631073752E+04  0.50400001928E-02 0. -1.
       -1   -1    0    0    0  501  0.00000000000E+00  0.00000000000E+00 -0.16421439811E+04  0.16421439811E+04  0.50400001928E-02 0.  1.
    10030    2    1    2    0    0  0.00000000000E+00  0.00000000000E+00  0.42096339409E+03  0.37052513563E+04  0.36812603052E+04 0.  0.
        5    1    3    3  502    0  0.67057931256E+03 -0.14808239241E+03 -0.15083631227E+04  0.16573431778E+04  0.46999998093E+01 0.  1.
       -5    1    3    3    0  502 -0.67057931256E+03  0.14808239241E+03  0.19293265167E+04  0.20479081785E+04  0.46999998093E+01 0. -1.
</event>
<event>
 5   0  0.1496000E-07  0.3644798E+04  0.7818609E-02  0.8080306E-01
       -1   -1    0    0    0  501  0.00000000000E+00  0.00000000000E+00  0.15564432253E+04  0.15564432253E+04  0.50400001928E-02 0.  1.
        1   -1    0    0  501    0  0.00000000000E+00  0.00000000000E+00 -0.21338001346E+04  0.21338001346E+04  0.50400001928E-02 0. -1.
    10030    2    1    2    0    0  0.00000000000E+00  0.00000000000E+00 -0.57735690924E+03  0.36902433599E+04  0.36447983559E+04 0.  0.
        3    1    3    3  502    0  0.53544345139E+03  0.16905497142E+04 -0.71401249737E+03  0.19116673043E+04  0.10100000352E+00 0. -1.
       -3    1    3    3    0  502 -0.53544345139E+03 -0.16905497142E+04  0.13665558813E+03  0.17785760556E+04  0.10100000352E+00 0.  1.
</event>
<event>
 5   0  0.1496000E-07  0.3663679E+04  0.7818609E-02  0.8076059E-01
        1   -1    0    0  501    0  0.00000000000E+00  0.00000000000E+00  0.14284991310E+04  0.14284991310E+04  0.50400001928E-02 0. -1.
       -1   -1    0    0    0  501  0.00000000000E+00  0.00000000000E+00 -0.23490641051E+04  0.23490641051E+04  0.50400001928E-02 0.  1.
    10030    2    1    2    0    0  0.00000000000E+00  0.00000000000E+00 -0.92056497409E+03  0.37775632361E+04  0.36636790431E+04 0.  0.
        2    1    3    3  502    0  0.12720963947E+04  0.72590653448E+03  0.67412924670E+03  0.16123336427E+04  0.25500000920E-02 0. -1.
       -2    1    3    3    0  502 -0.12720963947E+04 -0.72590653448E+03 -0.15946942208E+04  0.21652295934E+04  0.25500000920E-02 0.  1.
</event>
<event>
 5   0  0.4758908E-07  0.3692123E+04  0.7818609E-02  0.8069710E-01
        2   -1    0    0  501    0  0.00000000000E+00  0.00000000000E+00  0.11712703040E+04  0.11712703040E+04  0.25500000920E-02 0.  1.
       -2   -1    0    0    0  501  0.00000000000E+00  0.00000000000E+00 -0.29096130913E+04  0.29096130913E+04  0.25500000920E-02 0. -1.
    10030    2    1    2    0    0  0.00000000000E+00  0.00000000000E+00 -0.17383427873E+04  0.40808833953E+04  0.36921231886E+04 0.  0.
        2    1    3    3  502    0  0.98750421985E+03  0.12408283785E+04  0.17538964876E+03  0.15954877556E+04  0.25500000920E-02 0.  1.
       -2    1    3    3    0  502 -0.98750421985E+03 -0.12408283785E+04 -0.19137324360E+04  0.24853956397E+04  0.25500000920E-02 0. -1.
</event>
<event>
 5   0  0.4793557E-07  0.3622494E+04  0.7818609E-02  0.8085358E-01
       -2   -1    0    0    0  501  0.00000000000E+00  0.00000000000E+00  0.13262899530E+04  0.13262899530E+04  0.25500000920E-02 0. -1.
        2   -1    0    0  501    0  0.00000000000E+00  0.00000000000E+00 -0.24735285145E+04  0.24735285145E+04  0.25500000920E-02 0.  1.
    10030    2    1    2    0    0  0.00000000000E+00  0.00000000000E+00 -0.11472385615E+04  0.37998184675E+04  0.36224941779E+04 0.  0.
        3    1    3    3  502    0 -0.16438956569E+04  0.48684037301E+03 -0.11863444600E+04  0.20849027957E+04  0.10100000352E+00 0.  1.
       -3    1    3    3    0  502  0.16438956569E+04 -0.48684037301E+03  0.39105898522E+02  0.17149156717E+04  0.10100000352E+00 0. -1.
</event>
<event>
 5   0  0.1496000E-07  0.3057997E+04  0.7818609E-02  0.8227361E-01
       -1   -1    0    0    0  501  0.00000000000E+00  0.00000000000E+00  0.19112326237E+04  0.19112326237E+04  0.50400001928E-02 0. -1.
        1   -1    0    0  501    0  0.00000000000E+00  0.00000000000E+00 -0.12232086163E+04  0.12232086163E+04  0.50400001928E-02 0.  1.
    10030    2    1    2    0    0  0.00000000000E+00  0.00000000000E+00  0.68802400748E+03  0.31344412400E+04  0.30579968692E+04 0.  0.
        5    1    3    3  502    0 -0.11168370442E+04 -0.75633838615E+03 -0.39401614694E+03  0.14052201080E+04  0.46999998093E+01 0. -1.
       -5    1    3    3    0  502  0.11168370442E+04  0.75633838615E+03  0.10820401544E+04  0.17292211321E+04  0.46999998093E+01 0.  1.
</event>
<event>
 5   0  0.1496287E-07  0.3662020E+04  0.7818609E-02  0.8076431E-01
        1   -1    0    0  501    0  0.00000000000E+00  0.00000000000E+00  0.28243521162E+04  0.28243521162E+04  0.50400001928E-02 0. -1.
       -1   -1    0    0    0  501  0.00000000000E+00  0.00000000000E+00 -0.11870323825E+04  0.11870323825E+04  0.50400001928E-02 0.  1.
    10030    2    1    2    0    0  0.00000000000E+00  0.00000000000E+00  0.16373197337E+04  0.40113844986E+04  0.36620198915E+04 0.  0.
        1    1    3    3  502    0  0.16957348720E+04 -0.39411065193E+03  0.19730757456E+03  0.17520759804E+04  0.50400001928E-02 0.  1.
       -1    1    3    3    0  502 -0.16957348720E+04  0.39411065193E+03  0.14400121591E+04  0.22593085182E+04  0.50400001928E-02 0. -1.
</event>
<event>
 5   0  0.1496000E-07  0.3661038E+04  0.7818609E-02  0.8076652E-01
       -1   -1    0    0    0  501  0.00000000000E+00  0.00000000000E+00  0.23195733662E+04  0.23195733662E+04  0.50400001928E-02 0. -1.
        1   -1    0    0  501    0  0.00000000000E+00  0.00000000000E+00 -0.14445756312E+04  0.14445756312E+04  0.50400001928E-02 0.  1.
    10030    2    1    2    0    0  0.00000000000E+00  0.00000000000E+00  0.87499773504E+03  0.37641489974E+04  0.36610376450E+04 0.  0.
        5    1    3    3  502    0  0.89925795422E+03 -0.11817452730E+04  0.15379665098E+04  0.21378844295E+04  0.46999998093E+01 0. -1.
       -5    1    3    3    0  502 -0.89925795422E+03  0.11817452730E+04 -0.66296877477E+03  0.16262645679E+04  0.46999998093E+01 0.  1.
</event>
<event>
 5   0  0.4857514E-07  0.3344330E+04  0.7818609E-02  0.8151706E-01
       -2   -1    0    0    0  501  0.00000000000E+00  0.00000000000E+00  0.30205513552E+04  0.30205513552E+04  0.25500000920E-02 0. -1.
        2   -1    0    0  501    0  0.00000000000E+00  0.00000000000E+00 -0.92570352999E+03  0.92570352999E+03  0.25500000920E-02 0.  1.
    10030    2    1    2    0    0  0.00000000000E+00  0.00000000000E+00  0.20948478252E+04  0.39462548852E+04  0.33443295603E+04 0.  0.
        5    1    3    3  502    0 -0.46292749148E+03 -0.30947857977E+03  0.29079236214E+04  0.29607635386E+04  0.46999998093E+01 0. -1.
       -5    1    3    3    0  502  0.46292749148E+03  0.30947857977E+03 -0.81307579622E+03  0.98549134654E+03  0.46999998093E+01 0.  1.
</event>
<event>
 5   0  0.4758908E-07  0.3606179E+04  0.7818609E-02  0.8089078E-01
       -2   -1    0    0    0  501  0.00000000000E+00  0.00000000000E+00  0.26299753532E+04  0.26299753532E+04  0.25500000920E-02 0.  1.
        2   -1    0    0  501    0  0.00000000000E+00  0.00000000000E+00 -0.12361832503E+04  0.12361832503E+04  0.25500000920E-02 0. -1.
    10030    2    1    2    0    0  0.00000000000E+00  0.00000000000E+00  0.13937921029E+04  0.38661586035E+04  0.36061788532E+04 0.  0.
        2    1    3    3  502    0  0.16053097324E+04 -0.77389128544E+03  0.99090062867E+03  0.20390711401E+04  0.25500000920E-02 0.  1.
       -2    1    3    3    0  502 -0.16053097324E+04  0.77389128544E+03  0.40289147419E+03  0.18270874633E+04  0.25500000920E-02 0. -1.
</event>
<event>
 5   0  0.4758908E-07  0.3166773E+04  0.7818609E-02  0.8197648E-01
        2   -1    0    0  501    0  0.00000000000E+00  0.00000000000E+00  0.19084194133E+04  0.19084194133E+04  0.25500000920E-02 0.  1.
       -2   -1    0    0    0  501  0.00000000000E+00  0.00000000000E+00 -0.13137115730E+04  0.13137115730E+04  0.25500000920E-02 0. -1.
    10030    2    1    2    0    0  0.00000000000E+00  0.00000000000E+00  0.59470784027E+03  0.32221309864E+04  0.31667729123E+04 0.  0.
        2    1    3    3  502    0  0.95596337663E+03 -0.60696412944E+03 -0.82871810579E+03  0.14032266855E+04  0.25500000920E-02 0. -1.
       -2    1    3    3    0  502 -0.95596337663E+03  0.60696412944E+03  0.14234259461E+04  0.18189043009E+04  0.25500000920E-02 0.  1.
</event>
<event>
 5   0  0.4857514E-07  0.3648103E+04  0.7818609E-02  0.8079561E-01
       -2   -1    0    0    0  501  0.00000000000E+00  0.00000000000E+00  0.28285795376E+04  0.28285795376E+04  0.25500000920E-02 0. -1.
        2   -1    0    0  501    0  0.00000000000E+00  0.00000000000E+00 -0.11762669474E+04  0.11762669474E+04  0.25500000920E-02 0.  1.
    10030    2    1    2    0    0  0.00000000000E+00  0.00000000000E+00  0.16523125902E+04  0.40048464850E+04  0.36481034076E+04 0.  0.
        5    1    3    3  502    0  0.12619931788E+04 -0.12751529311E+04  0.46455073644E+03  0.18532326507E+04  0.46999998093E+01 0. -1.
       -5    1    3    3    0  502 -0.12619931788E+04  0.12751529311E+04  0.11877618537E+04  0.21516138343E+04  0.46999998093E+01 0.  1.
</event>
<event>
 5   0  0.4824268E-07  0.3691213E+04  0.7818609E-02  0.8069912E-01
        2   -1    0    0  501    0  0.00000000000E+00  0.00000000000E+00  0.19020392366E+04  0.19020392366E+04  0.25500000920E-02 0. -1.
       -2   -1    0    0    0  501  0.00000000000E+00  0.00000000000E+00 -0.17908483258E+04  0.17908483258E+04  0.25500000920E-02 0.  1.
    10030    2    1    2    0    0  0.00000000000E+00  0.00000000000E+00  0.11119091079E+03  0.36928875625E+04  0.36912132329E+04 0.  0.
        1    1    3    3  502    0  0.16329504883E+04 -0.84531389473E+03  0.21435235762E+03  0.18512238684E+04  0.50400001928E-02 0. -1.
       -1    1    3    3    0  502 -0.16329504883E+04  0.84531389473E+03 -0.10316144683E+03  0.18416636940E+04  0.50400001928E-02 0.  1.
</event>
<event>
 5   0  0.4758908E-07  0.3965992E+04  0.7818609E-02  0.8011442E-01
       -2   -1    0    0    0  501  0.00000000000E+00  0.00000000000E+00  0.28101881052E+04  0.28101881052E+04  0.25500000920E-02 0. -1.
        2   -1    0    0  501    0  0.00000000000E+00  0.00000000000E+00 -0.13992914659E+04  0.13992914659E+04  0.25500000920E-02 0.  1.
    10030    2    1    2    0    0  0.00000000000E+00  0.00000000000E+00  0.14108966394E+04  0.42094795711E+04  0.39659915447E+04 0.  0.
        2    1    3    3  502    0 -0.98343888967E+03 -0.12932202193E+04  0.19122218437E+04  0.25092156075E+04  0.25500000920E-02 0. -1.
       -2    1    3    3    0  502  0.98343888967E+03  0.12932202193E+04 -0.50132520434E+03  0.17002639636E+04  0.25500000920E-02 0.  1.
</event>
<event>
 5   0  0.4824268E-07  0.3661999E+04  0.7818609E-02  0.8076436E-01
       -2   -1    0    0    0  501  0.00000000000E+00  0.00000000000E+00  0.15890570563E+04  0.15890570563E+04  0.25500000920E-02 0. -1.
        2   -1    0    0  501    0  0.00000000000E+00  0.00000000000E+00 -0.21097787688E+04  0.21097787688E+04  0.25500000920E-02 0.  1.
    10030    2    1    2    0    0  0.00000000000E+00  0.00000000000E+00 -0.52072171255E+03  0.36988358251E+04  0.36619988202E+04 0.  0.
        1    1    3    3  502    0 -0.21492278402E+03  0.15161556523E+04  0.75354902486E+03  0.17066797877E+04  0.50400001928E-02 0. -1.
       -1    1    3    3    0  502  0.21492278402E+03 -0.15161556523E+04 -0.12742707374E+04  0.19921560374E+04  0.50400001928E-02 0.  1.
</event>
<event>
 5   0  0.1522273E-07  0.3710074E+04  0.7818609E-02  0.8065733E-01
        1   -1    0    0  501    0  0.00000000000E+00  0.00000000000E+00  0.17326420206E+04  0.17326420206E+04  0.50400001928E-02 0.  1.
       -1   -1    0    0    0  501  0.00000000000E+00  0.00000000000E+00 -0.19860779576E+04  0.19860779576E+04  0.50400001928E-02 0. -1.
    10030    2    1    2    0    0  0.00000000000E+00  0.00000000000E+00 -0.25343593702E+03  0.37187199783E+04  0.37100739215E+04 0.  0.
        4    1    3    3  502    0 -0.16806020854E+04  0.31804418715E+03  0.59299788167E+03  0.18103103533E+04  0.12699999809E+01 0.  1.
       -4    1    3    3    0  502  0.16806020854E+04 -0.31804418715E+03 -0.84643381869E+03  0.19084096250E+04  0.12699999809E+01 0. -1.
</event>
<event>
 5   0  0.1496287E-07  0.3657904E+04  0.7818609E-02  0.8077355E-01
        1   -1    0    0  501    0  0.00000000000E+00  0.00000000000E+00  0.23306407754E+04  0.23306407754E+04  0.50400001928E-02 0.  1.
       -1   -1    0    0    0  501  0.00000000000E+00  0.00000000000E+00 -0.14352554177E+04  0.14352554177E+04  0.50400001928E-02 0. -1.
    10030    2    1    2    0    0  0.00000000000E+00  0.00000000000E+00  0.89538535768E+03  0.37658961931E+04  0.36579036617E+04 0.  0.
        1    1    3    3  502    0 -0.12453444660E+04  0.96261088115E+03  0.14066215733E+04  0.21109445275E+04  0.50400001928E-02 0.  1.
       -1    1    3    3    0  502  0.12453444660E+04 -0.96261088115E+03 -0.51123621564E+03  0.16549516657E+04  0.50400001928E-02 0. -1.
</event>
<event>
 5   0  0.1496287E-07  0.3697719E+04  0.7818609E-02  0.8068468E-01
        1   -1    0    0  501    0  0.00000000000E+00  0.00000000000E+00  0.16848013702E+04  0.16848013702E+04  0.50400001928E-02 0. -1.
       -1   -1    0    0    0  501  0.00000000000E+00  0.00000000000E+00 -0.20288924947E+04  0.20288924947E+04  0.50400001928E-02 0.  1.
    10030    2    1    2    0    0  0.00000000000E+00  0.00000000000E+00 -0.34409112443E+03  0.37136938649E+04  0.36977186778E+04 0.  0.
        1    1    3    3  502    0  0.43089231765E+03  0.17975939553E+04 -0.20781737755E+03  0.18601613586E+04  0.50400001928E-02 0.  1.
       -1    1    3    3    0  502 -0.43089231765E+03 -0.17975939553E+04 -0.13627374688E+03  0.18535325063E+04  0.50400001928E-02 0. -1.
</event>
<event>
 5   0  0.4687817E-07  0.3695910E+04  0.7818609E-02  0.8068869E-01
       -2   -1    0    0    0  501  0.00000000000E+00  0.00000000000E+00  0.30955577336E+04  0.30955577336E+04  0.25500000920E-02 0. -1.
        2   -1    0    0  501    0  0.00000000000E+00  0.00000000000E+00 -0.11031734726E+04  0.11031734726E+04  0.25500000920E-02 0.  1.
    10030    2    1    2    0    0  0.00000000000E+00  0.00000000000E+00  0.19923842610E+04  0.41987312062E+04  0.36959097254E+04 0.  0.
        4    1    3    3  502    0 -0.18387900126E+04  0.11034977137E+03  0.11631942120E+04  0.21786115235E+04  0.12699999809E+01 0. -1.
       -4    1    3    3    0  502  0.18387900126E+04 -0.11034977137E+03  0.82919004902E+03  0.20201196828E+04  0.12699999809E+01 0.  1.
</event>
<event>
 5   0  0.1496000E-07  0.3707865E+04  0.7818609E-02  0.8066221E-01
        1   -1    0    0  501    0  0.00000000000E+00  0.00000000000E+00  0.14088328978E+04  0.14088328978E+04  0.50400001928E-02 0.  1.
       -1   -1    0    0    0  501  0.00000000000E+00  0.00000000000E+00 -0.24396552174E+04  0.24396552174E+04  0.50400001928E-02 0. -1.
    10030    2    1    2    0    0  0.00000000000E+00  0.00000000000E+00 -0.10308223196E+04  0.38484881152E+04  0.37078654396E+04 0.  0.
        5    1    3    3  502    0 -0.14127850611E+03  0.17936671887E+04 -0.51419172577E+02  0.17999632278E+04  0.46999998093E+01 0. -1.
       -5    1    3    3    0  502  0.14127850611E+03 -0.17936671887E+04 -0.97940314706E+03  0.20485248874E+04  0.46999998093E+01 0.  1.
</event>
<event>
 5   0  0.1496000E-07  0.3658046E+04  0.7818609E-02  0.8077324E-01
        1   -1    0    0  501    0  0.00000000000E+00  0.00000000000E+00  0.19066510769E+04  0.19066510769E+04  0.50400001928E-02 0.  1.
       -1   -1    0    0    0  501  0.00000000000E+00  0.00000000000E+00 -0.17545552783E+04  0.17545552783E+04  0.50400001928E-02 0. -1.
    10030    2    1    2    0    0  0.00000000000E+00  0.00000000000E+00  0.15209579865E+03  0.36612063552E+04  0.36580457684E+04 0.  0.
        2    1    3    3  502    0  0.23983865180E+03  0.15754560706E+04 -0.82235804343E+03  0.17932811159E+04  0.25500000920E-02 0. -1.
       -2    1    3    3    0  502 -0.23983865180E+03 -0.15754560706E+04  0.97445384208E+03  0.18679252393E+04  0.25500000920E-02 0.  1.
</event>
<event>
 5   0  0.1522273E-07  0.3648475E+04  0.7818609E-02  0.8079477E-01
       -1   -1    0    0    0  501  0.00000000000E+00  0.00000000000E+00  0.14323567488E+04  0.14323567489E+04  0.50400001928E-02 0. -1.
        1   -1    0    0  501    0  0.00000000000E+00  0.00000000000E+00 -0.23233332154E+04  0.23233332154E+04  0.50400001928E-02 0.  1.
    10030    2    1    2    0    0  0.00000000000E+00  0.00000000000E+00 -0.89097646658E+03  0.37556899643E+04  0.36484747558E+04 0.  0.
        4    1    3    3  502    0  0.17529055064E+04  0.18827242655E+03  0.37025195964E+02  0.17633765051E+04  0.12699999809E+01 0. -1.
       -4    1    3    3    0  502 -0.17529055064E+04 -0.18827242655E+03 -0.92800166254E+03  0.19923134591E+04  0.12699999809E+01 0.  1.
</event>
<event>
 5   0  0.1496287E-07  0.3709312E+04  0.7818609E-02  0.8065901E-01
        1   -1    0    0  501    0  0.00000000000E+00  0.00000000000E+00  0.17758077468E+04  0.17758077468E+04  0.50400001928E-02 0. -1.
       -1   -1    0    0    0  501  0.00000000000E+00  0.00000000000E+00 -0.19370054862E+04  0.19370054862E+04  0.50400001928E-02 0.  1.
    10030    2    1    2    0    0  0.00000000000E+00  0.00000000000E+00 -0.16119773936E+03  0.37128132330E+04  0.37093122533E+04 0.  0.
        1    1    3    3  502    0  0.86724557664E+03  0.83186488306E+03  0.13334040136E+04  0.17950154142E+04  0.50400001928E-02 0. -1.
       -1    1    3    3    0  502 -0.86724557664E+03 -0.83186488306E+03 -0.14946017530E+04  0.19177978188E+04  0.50400001928E-02 0.  1.
</event>
<event>
 5   0  0.4793557E-07  0.3677984E+04  0.7818609E-02  0.8072858E-01
       -2   -1    0    0    0  501  0.00000000000E+00  0.00000000000E+00  0.13712619328E+04  0.13712619328E+04  0.25500000920E-02 0.  1.
        2   -1    0    0  501    0  0.00000000000E+00  0.00000000000E+00 -0.24662620927E+04  0.24662620927E+04  0.25500000920E-02 0. -1.
    10030    2    1    2    0    0  0.00000000000E+00  0.00000000000E+00 -0.10950001599E+04  0.38375240255E+04  0.36779838629E+04 0.  0.
        3    1    3    3  502    0  0.12843985667E+03 -0.16609941621E+04 -0.13600576718E+04  0.21506174193E+04  0.10100000352E+00 0. -1.
       -3    1    3    3    0  502 -0.12843985667E+03  0.16609941621E+04  0.26505751185E+03  0.16869066062E+04  0.10100000352E+00 0.  1.
</event>
<event>
 5   0  0.1496000E-07  0.3700571E+04  0.7818609E-02  0.8067835E-01
       -1   -1    0    0    0  501  0.00000000000E+00  0.00000000000E+00  0.24681123912E+04  0.24681123912E+04  0.50400001928E-02 0.  1.
        1   -1    0    0  501    0  0.00000000000E+00  0.00000000000E+00 -0.13871149674E+04  0.13871149675E+04  0.50400001928E-02 0. -1.
    10030    2    1    2    0    0  0.00000000000E+00  0.00000000000E+00  0.10809974237E+04  0.38552273586E+04  0.37005705718E+04 0.  0.
        2    1    3    3  502    0  0.10444602902E+04 -0.94503470411E+03  0.17904622905E+04  0.22781007667E+04  0.25500000920E-02 0.  1.
       -2    1    3    3    0  502 -0.10444602902E+04  0.94503470411E+03 -0.70946486677E+03  0.15771265919E+04  0.25500000920E-02 0. -1.
</event>
<event>
 5   0  0.4793557E-07  0.3339590E+04  0.7818609E-02  0.8152894E-01
       -2   -1    0    0    0  501  0.00000000000E+00  0.00000000000E+00  0.11922285609E+04  0.11922285609E+04  0.25500000920E-02 0. -1.
        2   -1    0    0  501    0  0.00000000000E+00  0.00000000000E+00 -0.23386581777E+04  0.23386581777E+04  0.25500000920E-02 0.  1.
    10030    2    1    2    0    0  0.00000000000E+00  0.00000000000E+00 -0.11464296167E+04  0.35308867386E+04  0.33395898393E+04 0.  0.
        3    1    3    3  502    0 -0.78397782135E+03 -0.12041725620E+04 -0.14725645517E+04  0.20574496719E+04  0.10100000352E+00 0.  1.
       -3    1    3    3    0  502  0.78397782135E+03  0.12041725620E+04  0.32613493498E+03  0.14734370667E+04  0.10100000352E+00 0. -1.
</event>
<event>
 5   0  0.1496000E-07  0.3677405E+04  0.7818609E-02  0.8072988E-01
        3   -1    0    0  501    0  0.00000000000E+00  0.00000000000E+00  0.28547607353E+04  0.28547607370E+04  0.10100000352E+00 0. -1.
       -3   -1    0    0    0  501  0.00000000000E+00  0.00000000000E+00 -0.11842765494E+04  0.11842765537E+04  0.10100000352E+00 0.  1.
    10030    2    1    2    0    0  0.00000000000E+00  0.00000000000E+00  0.16704841859E+04  0.40390372907E+04  0.36774046310E+04 0.  0.
        4    1    3    3  502    0  0.66907271168E+03  0.15341922765E+04  0.16712941487E+04  0.23652970171E+04  0.12699999809E+01 0.  1.
       -4    1    3    3    0  502 -0.66907271168E+03 -0.15341922765E+04 -0.80996278376E+00  0.16737402736E+04  0.12699999809E+01 0. -1.
</event>
<event>
 5   0  0.4793557E-07  0.3676072E+04  0.7818609E-02  0.8073285E-01
       -2   -1    0    0    0  501  0.00000000000E+00  0.00000000000E+00  0.13451621292E+04  0.13451621292E+04  0.25500000920E-02 0. -1.
        2   -1    0    0  501    0  0.00000000000E+00  0.00000000000E+00 -0.25115011945E+04  0.25115011945E+04  0.25500000920E-02 0.  1.
    10030    2    1    2    0    0  0.00000000000E+00  0.00000000000E+00 -0.11663390654E+04  0.38566633237E+04  0.36760719766E+04 0.  0.
        3    1    3    3  502    0 -0.11628420089E+03 -0.10461373100E+04  0.99765544060E+03  0.14502557275E+04  0.10100000352E+00 0. -1.
       -3    1    3    3    0  502  0.11628420089E+03  0.10461373100E+04 -0.21639945060E+04  0.24064075962E+04  0.10100000352E+00 0.  1.
</event>
<event>
 5   0  0.1496000E-07  0.3708282E+04  0.7818609E-02  0.8066129E-01
       -1   -1    0    0    0  501  0.00000000000E+00  0.00000000000E+00  0.36555572471E+04  0.36555572471E+04  0.50400001928E-02 0.  1.
        1   -1    0    0  501    0  0.00000000000E+00  0.00000000000E+00 -0.94044187136E+03  0.94044187138E+03  0.50400001928E-02 0. -1.
    10030    2    1    2    0    0  0.00000000000E+00  0.00000000000E+00  0.27151153757E+04  0.45959991185E+04  0.37082821351E+04 0.  0.
        3    1    3    3  502    0 -0.73846734879E+02  0.46678701031E+03  0.35796576296E+04  0.36107190708E+04  0.10100000352E+00 0.  1.
       -3    1    3    3    0  502  0.73846734879E+02 -0.46678701031E+03 -0.86454225389E+03  0.98528004760E+03  0.10100000352E+00 0. -1.
</event>
<event>
 5   0  0.1496000E-07  0.3690946E+04  0.7818609E-02  0.8069971E-01
        1   -1    0    0  501    0  0.00000000000E+00  0.00000000000E+00  0.25841778217E+04  0.25841778217E+04  0.50400001928E-02 0. -1.
       -1   -1    0    0    0  501  0.00000000000E+00  0.00000000000E+00 -0.13179320876E+04  0.13179320877E+04  0.50400001928E-02 0.  1.
    10030    2    1    2    0    0  0.00000000000E+00  0.00000000000E+00  0.12662457341E+04  0.39021099094E+04  0.36909461505E+04 0.  0.
        5    1    3    3  502    0  0.17008718003E+04 -0.30152152316E+03 -0.53550852771E+02  0.17282273848E+04  0.46999998093E+01 0.  1.
       -5    1    3    3    0  502 -0.17008718003E+04  0.30152152316E+03  0.13197965868E+04  0.21738825245E+04  0.46999998093E+01 0. -1.
</event>
<event>
 5   0  0.4857514E-07  0.3685671E+04  0.7818609E-02  0.8071145E-01
       -2   -1    0    0    0  501  0.00000000000E+00  0.00000000000E+00  0.18910461873E+04  0.18910461873E+04  0.25500000920E-02 0. -1.
        2   -1    0    0  501    0  0.00000000000E+00  0.00000000000E+00 -0.17958534331E+04  0.17958534331E+04  0.25500000920E-02 0.  1.
    10030    2    1    2    0    0  0.00000000000E+00  0.00000000000E+00  0.95192754224E+02  0.36868996204E+04  0.36856705158E+04 0.  0.
        5    1    3    3  502    0 -0.11674435263E+03  0.62019560249E+03  0.17795743191E+04  0.18881680742E+04  0.46999998093E+01 0. -1.
       -5    1    3    3    0  502  0.11674435263E+03 -0.62019560249E+03 -0.16843815649E+04  0.17987315462E+04  0.46999998093E+01 0.  1.
</event>
<event>
 5   0  0.1496000E-07  0.3699465E+04  0.7818609E-02  0.8068080E-01
       -1   -1    0    0    0  501  0.00000000000E+00  0.00000000000E+00  0.19848334486E+04  0.19848334486E+04  0.50400001928E-02 0.  1.
        1   -1    0    0  501    0  0.00000000000E+00  0.00000000000E+00 -0.17238275976E+04  0.17238275976E+04  0.50400001928E-02 0. -1.
    10030    2    1    2    0    0  0.00000000000E+00  0.00000000000E+00  0.26100585097E+03  0.37086610462E+04  0.36994651912E+04 0.  0.
        3    1    3    3  502    0  0.53770865685E+02  0.17898075832E+04  0.59556141728E+03  0.18870601217E+04  0.10100000352E+00 0.  1.
       -3    1    3    3    0  502 -0.53770865685E+02 -0.17898075832E+04 -0.33455556631E+03  0.18216009245E+04  0.10100000352E+00 0. -1.
</event>
<event>
 5   0  0.1496000E-07  0.3661476E+04  0.7818609E-02  0.8076553E-01
       -1   -1    0    0    0  501  0.00000000000E+00  0.00000000000E+00  0.29078497263E+04  0.29078497263E+04  0.50400001928E-02 0. -1.
        1   -1    0    0  501    0  0.00000000000E+00  0.00000000000E+00 -0.11526048467E+04  0.11526048467E+04  0.50400001928E-02 0.  1.
    10030    2    1    2    0    0  0.00000000000E+00  0.00000000000E+00  0.17552448796E+04  0.40604545730E+04  0.36614760346E+04 0.  0.
        2    1    3    3  502    0 -0.49127652453E+03  0.69304003284E+03  0.26760450684E+04  0.28076456896E+04  0.25500000920E-02 0. -1.
       -2    1    3    3    0  502  0.49127652453E+03 -0.69304003284E+03 -0.92080018874E+03  0.12528088834E+04  0.25500000920E-02 0.  1.
</event>
<event>
 5   0  0.4758908E-07  0.3680839E+04  0.7818609E-02  0.8072221E-01
        2   -1    0    0  501    0  0.00000000000E+00  0.00000000000E+00  0.23510305587E+04  0.23510305587E+04  0.25500000920E-02 0.  1.
       -2   -1    0    0    0  501  0.00000000000E+00  0.00000000000E+00 -0.14407062078E+04  0.14407062078E+04  0.25500000920E-02 0. -1.
    10030    2    1    2    0    0  0.00000000000E+00  0.00000000000E+00  0.91032435091E+03  0.37917367665E+04  0.36808392090E+04 0.  0.
        2    1    3    3  502    0  0.72905792909E+03  0.88302905296E+03  0.19393617534E+04  0.22521966572E+04  0.25500000920E-02 0.  1.
       -2    1    3    3    0  502 -0.72905792909E+03 -0.88302905296E+03 -0.10290374025E+04  0.15395401093E+04  0.25500000920E-02 0. -1.
</event>
<event>
 5   0  0.4758908E-07  0.3651753E+04  0.7818609E-02  0.8078739E-01
        2   -1    0    0  501    0  0.00000000000E+00  0.00000000000E+00  0.21535400002E+04  0.21535400002E+04  0.25500000920E-02 0.  1.
       -2   -1    0    0    0  501  0.00000000000E+00  0.00000000000E+00 -0.15480671319E+04  0.15480671319E+04  0.25500000920E-02 0. -1.
    10030    2    1    2    0    0  0.00000000000E+00  0.00000000000E+00  0.60547286834E+03  0.37016071321E+04  0.36517527252E+04 0.  0.
        2    1    3    3  502    0  0.14679874822E+04 -0.69967928344E+03  0.11443035080E+04  0.19884589173E+04  0.25500000920E-02 0.  1.
       -2    1    3    3    0  502 -0.14679874822E+04  0.69967928344E+03 -0.53883063970E+03  0.17131482148E+04  0.25500000920E-02 0. -1.
</event>
<event>
 5   0  0.4687817E-07  0.3040595E+04  0.7818609E-02  0.8232233E-01
        2   -1    0    0  501    0  0.00000000000E+00  0.00000000000E+00  0.21204694410E+04  0.21204694410E+04  0.25500000920E-02 0.  1.
       -2   -1    0    0    0  501  0.00000000000E+00  0.00000000000E+00 -0.10899968254E+04  0.10899968254E+04  0.25500000920E-02 0. -1.
    10030    2    1    2    0    0  0.00000000000E+00  0.00000000000E+00  0.10304726156E+04  0.32104662664E+04  0.30405953095E+04 0.  0.
        4    1    3    3  502    0  0.28774449407E+03 -0.51347658220E+03  0.19952781625E+04  0.20802864353E+04  0.12699999809E+01 0.  1.
       -4    1    3    3    0  502 -0.28774449407E+03  0.51347658220E+03 -0.96480554691E+03  0.11301798311E+04  0.12699999809E+01 0. -1.
</event>
<event>
 5   0  0.4824268E-07  0.3676480E+04  0.7818609E-02  0.8073194E-01
       -2   -1    0    0    0  501  0.00000000000E+00  0.00000000000E+00  0.17708113753E+04  0.17708113753E+04  0.25500000920E-02 0. -1.
        2   -1    0    0  501    0  0.00000000000E+00  0.00000000000E+00 -0.19082358771E+04  0.19082358771E+04  0.25500000920E-02 0.  1.
    10030    2    1    2    0    0  0.00000000000E+00  0.00000000000E+00 -0.13742450181E+03  0.36790472524E+04  0.36764797282E+04 0.  0.
        1    1    3    3  502    0 -0.92623413545E+03  0.29515093909E+03  0.14925382150E+04  0.17812057921E+04  0.50400001928E-02 0. -1.
       -1    1    3    3    0  502  0.92623413545E+03 -0.29515093909E+03 -0.16299627168E+04  0.18978414603E+04  0.50400001928E-02 0.  1.
</event>
<event>
 5   0  0.1496000E-07  0.3684441E+04  0.7818609E-02  0.8071419E-01
       -1   -1    0    0    0  501  0.00000000000E+00  0.00000000000E+00  0.26951114815E+04  0.26951114815E+04  0.50400001928E-02 0.  1.
        1   -1    0    0  501    0  0.00000000000E+00  0.00000000000E+00 -0.12592340464E+04  0.12592340464E+04  0.50400001928E-02 0. -1.
    10030    2    1    2    0    0  0.00000000000E+00  0.00000000000E+00  0.14358774351E+04  0.39543455280E+04  0.36844408729E+04 0.  0.
        2    1    3    3  502    0 -0.34627428189E+02 -0.78731683959E+03 -0.10691873552E+04  0.13282426229E+04  0.25500000920E-02 0. -1.
       -2    1    3    3    0  502  0.34627428189E+02  0.78731683959E+03  0.25050647903E+04  0.26261029051E+04  0.25500000920E-02 0.  1.
</event>
<event>
 5   0  0.4687817E-07  0.3675860E+04  0.7818609E-02  0.8073333E-01
        2   -1    0    0  501    0  0.00000000000E+00  0.00000000000E+00  0.12678484472E+04  0.12678484472E+04  0.25500000920E-02 0.  1.
       -2   -1    0    0    0  501  0.00000000000E+00  0.00000000000E+00 -0.26643454605E+04  0.26643454605E+04  0.25500000920E-02 0. -1.
    10030    2    1    2    0    0  0.00000000000E+00  0.00000000000E+00 -0.13964970134E+04  0.39321939077E+04  0.36758597660E+04 0.  0.
        4    1    3    3  502    0 -0.13806409005E+04  0.14947665545E+03  0.58964785914E+03  0.15087076514E+04  0.12699999809E+01 0.  1.
       -4    1    3    3    0  502  0.13806409005E+04 -0.14947665545E+03 -0.19861448725E+04  0.24234862562E+04  0.12699999809E+01 0. -1.
</event>
<event>
 5   0  0.4793557E-07  0.3726338E+04  0.7818609E-02  0.8062150E-01
        2   -1    0    0  501    0  0.00000000000E+00  0.00000000000E+00  0.24774911072E+04  0.24774911072E+04  0.25500000920E-02 0. -1.
       -2   -1    0    0    0  501  0.00000000000E+00  0.00000000000E+00 -0.14011751762E+04  0.14011751762E+04  0.25500000920E-02 0.  1.
    10030    2    1    2    0    0  0.00000000000E+00  0.00000000000E+00  0.10763159310E+04  0.38786662834E+04  0.37263381697E+04 0.  0.
        3    1    3    3  502    0  0.17920876538E+04 -0.48729620971E+03  0.69381467306E+03  0.19825273177E+04  0.10100000352E+00 0.  1.
       -3    1    3    3    0  502 -0.17920876538E+04  0.48729620971E+03  0.38250125797E+03  0.18961389657E+04  0.10100000352E+00 0. -1.
</event>
<event>
 5   0  0.1496000E-07  0.3698458E+04  0.7818609E-02  0.8068304E-01
        1   -1    0    0  501    0  0.00000000000E+00  0.00000000000E+00  0.14962574719E+04  0.14962574720E+04  0.50400001928E-02 0.  1.
       -1   -1    0    0    0  501  0.00000000000E+00  0.00000000000E+00 -0.22854670414E+04  0.22854670414E+04  0.50400001928E-02 0. -1.
    10030    2    1    2    0    0  0.00000000000E+00  0.00000000000E+00 -0.78920956947E+03  0.37817245134E+04  0.36984575907E+04 0.  0.
        3    1    3    3  502    0 -0.73644917359E+03  0.16894842746E+04 -0.23976015089E+03  0.18585476694E+04  0.10100000352E+00 0. -1.
       -3    1    3    3    0  502  0.73644917359E+03 -0.16894842746E+04 -0.54944941858E+03  0.19231768440E+04  0.10100000352E+00 0.  1.
</event>
<event>
 5   0  0.4857514E-07  0.3719420E+04  0.7818609E-02  0.8063672E-01
       -2   -1    0    0    0  501  0.00000000000E+00  0.00000000000E+00  0.17513700113E+04  0.17513700113E+04  0.25500000920E-02 0.  1.
        2   -1    0    0  501    0  0.00000000000E+00  0.00000000000E+00 -0.19747518268E+04  0.19747518268E+04  0.25500000920E-02 0. -1.
    10030    2    1    2    0    0  0.00000000000E+00  0.00000000000E+00 -0.22338181543E+03  0.37261218381E+04  0.37194199167E+04 0.  0.
        5    1    3    3  502    0  0.51435091147E+03 -0.15366514479E+04 -0.10258286703E+04  0.19178636769E+04  0.46999998093E+01 0. -1.
       -5    1    3    3    0  502 -0.51435091147E+03  0.15366514479E+04  0.80244685491E+03  0.18082581612E+04  0.46999998093E+01 0.  1.
</event>
<event>
 5   0  0.1522273E-07  0.3669594E+04  0.7818609E-02  0.8074734E-01
        1   -1    0    0  501    0  0.00000000000E+00  0.00000000000E+00  0.24008065184E+04  0.24008065184E+04  0.50400001928E-02 0. -1.
       -1   -1    0    0    0  501  0.00000000000E+00  0.00000000000E+00 -0.14022286445E+04  0.14022286445E+04  0.50400001928E-02 0.  1.
    10030    2    1    2    0    0  0.00000000000E+00  0.00000000000E+00  0.99857787392E+03  0.38030351629E+04  0.36695938031E+04 0.  0.
        4    1    3    3  502    0 -0.23586418469E+03 -0.17946012880E+04  0.81063374792E+03  0.19832686108E+04  0.12699999809E+01 0. -1.
       -4    1    3    3    0  502  0.23586418469E+03  0.17946012880E+04  0.18794412600E+03  0.18197665520E+04  0.12699999809E+01 0.  1.
</event>
<event>
 5   0  0.4824268E-07  0.3674840E+04  0.7818609E-02  0.8073561E-01
        2   -1    0    0  501    0  0.00000000000E+00  0.00000000000E+00  0.19505656297E+04  0.19505656297E+04  0.25500000920E-02 0.  1.
       -2   -1    0    0    0  501  0.00000000000E+00  0.00000000000E+00 -0.17308376495E+04  0.17308376495E+04  0.25500000920E-02 0. -1.
    10030    2    1    2    0    0  0.00000000000E+00  0.00000000000E+00  0.21972798027E+03  0.36814032792E+04  0.36748400943E+04 0.  0.
        1    1    3    3  502    0  0.53472287385E+03 -0.11068405261E+04 -0.12582573094E+04  0.17590440468E+04  0.50400001928E-02 0. -1.
       -1    1    3    3    0  502 -0.53472287385E+03  0.11068405261E+04  0.14779852896E+04  0.19223592324E+04  0.50400001928E-02 0.  1.
</event>
<event>
 5   0  0.4758908E-07  0.3677228E+04  0.7818609E-02  0.8073027E-01
       -2   -1    0    0    0  501  0.00000000000E+00  0.00000000000E+00  0.13941361158E+04  0.13941361158E+04  0.25500000920E-02 0. -1.
        2   -1    0    0  501    0  0.00000000000E+00  0.00000000000E+00 -0.24248003879E+04  0.24248003879E+04  0.25500000920E-02 0.  1.
    10030    2    1    2    0    0  0.00000000000E+00  0.00000000000E+00 -0.10306642720E+04  0.38189365037E+04  0.36772281922E+04 0.  0.
        2    1    3    3  502    0 -0.48720915434E+03 -0.17158000808E+04 -0.97880248231E+03  0.20345508047E+04  0.25500000920E-02 0.  1.
       -2    1    3    3    0  502  0.48720915434E+03  0.17158000808E+04 -0.51861789743E+02  0.17843856990E+04  0.25500000920E-02 0. -1.
</event>
<event>
 5   0  0.1496000E-07  0.3684928E+04  0.7818609E-02  0.8071310E-01
       -1   -1    0    0    0  501  0.00000000000E+00  0.00000000000E+00  0.20149756536E+04  0.20149756536E+04  0.50400001928E-02 0.  1.
        1   -1    0    0  501    0  0.00000000000E+00  0.00000000000E+00 -0.16847215823E+04  0.16847215823E+04  0.50400001928E-02 0. -1.
    10030    2    1    2    0    0  0.00000000000E+00  0.00000000000E+00  0.33025407130E+03  0.36996972360E+04  0.36849276636E+04 0.  0.
        5    1    3    3  502    0  0.45861247441E+03  0.17840347742E+04  0.20459623155E+03  0.18533718421E+04  0.46999998093E+01 0. -1.
       -5    1    3    3    0  502 -0.45861247441E+03 -0.17840347742E+04  0.12565783975E+03  0.18463253938E+04  0.46999998093E+01 0.  1.
</event>
<event>
 5   0  0.4687817E-07  0.3630625E+04  0.7818609E-02  0.8083512E-01
       -2   -1    0    0    0  501  0.00000000000E+00  0.00000000000E+00  0.12024623391E+04  0.12024623391E+04  0.25500000920E-02 0.  1.
        2   -1    0    0  501    0  0.00000000000E+00  0.00000000000E+00 -0.27405097722E+04  0.27405097722E+04  0.25500000920E-02 0. -1.
    10030    2    1    2    0    0  0.00000000000E+00  0.00000000000E+00 -0.15380474332E+04  0.39429721113E+04  0.36306251753E+04 0.  0.
        4    1    3    3  502    0 -0.42302165332E+03 -0.94082099977E+03 -0.23912746511E+04  0.26042825389E+04  0.12699999809E+01 0. -1.
       -4    1    3    3    0  502  0.42302165332E+03  0.94082099977E+03  0.85322721792E+03  0.13386895723E+04  0.12699999809E+01 0.  1.
</event>
<event>
 5   0  0.4857514E-07  0.3811031E+04  0.7818609E-02  0.8043792E-01
        2   -1    0    0  501    0  0.00000000000E+00  0.00000000000E+00  0.14302567183E+04  0.14302567183E+04  0.25500000920E-02 0.  1.
       -2   -1    0    0    0  501  0.00000000000E+00  0.00000000000E+00 -0.25386977530E+04  0.25386977530E+04  0.25500000920E-02 0. -1.
    10030    2    1    2    0    0  0.00000000000E+00  0.00000000000E+00 -0.11084410347E+04  0.39689544713E+04  0.38110311030E+04 0.  0.
        5    1    3    3  502    0  0.36796137495E+03  0.68619225177E+03  0.12570179862E+04  0.14786384573E+04  0.46999998093E+01 0.  1.
       -5    1    3    3    0  502 -0.36796137495E+03 -0.68619225177E+03 -0.23654590209E+04  0.24903160140E+04  0.46999998093E+01 0. -1.
</event>
<event>
 5   0  0.1522273E-07  0.3658832E+04  0.7818609E-02  0.8077147E-01
       -1   -1    0    0    0  501  0.00000000000E+00  0.00000000000E+00  0.19131919590E+04  0.19131919590E+04  0.50400001928E-02 0.  1.
        1   -1    0    0  501    0  0.00000000000E+00  0.00000000000E+00 -0.17493083017E+04  0.17493083017E+04  0.50400001928E-02 0. -1.
    10030    2    1    2    0    0  0.00000000000E+00  0.00000000000E+00  0.16388365730E+03  0.36625002607E+04  0.36588318226E+04 0.  0.
        4    1    3    3  502    0 -0.78388411156E+03  0.42370825803E+03  0.16812790232E+04  0.19028146928E+04  0.12699999809E+01 0.  1.
       -4    1    3    3    0  502  0.78388411156E+03 -0.42370825803E+03 -0.15173953659E+04  0.17596855679E+04  0.12699999809E+01 0. -1.
</event>
<event>
 5   0  0.4793557E-07  0.3785939E+04  0.7818609E-02  0.8049179E-01
       -2   -1    0    0    0  501  0.00000000000E+00  0.00000000000E+00  0.14762989166E+04  0.14762989166E+04  0.25500000920E-02 0.  1.
        2   -1    0    0  501    0  0.00000000000E+00  0.00000000000E+00 -0.24272407227E+04  0.24272407227E+04  0.25500000920E-02 0. -1.
    10030    2    1    2    0    0  0.00000000000E+00  0.00000000000E+00 -0.95094180614E+03  0.39035396393E+04  0.37859386414E+04 0.  0.
        3    1    3    3  502    0  0.26444345954E+03  0.11780661642E+04 -0.19786889241E+04  0.23179689599E+04  0.10100000352E+00 0. -1.
       -3    1    3    3    0  502 -0.26444345954E+03 -0.11780661642E+04  0.10277471180E+04  0.15855706794E+04  0.10100000352E+00 0.  1.
</event>
<event>
 5   0  0.1496000E-07  0.3680016E+04  0.7818609E-02  0.8072405E-01
        3   -1    0    0  501    0  0.00000000000E+00  0.00000000000E+00  0.14452016225E+04  0.14452016260E+04  0.10100000352E+00 0.  1.
       -3   -1    0    0    0  501  0.00000000000E+00  0.00000000000E+00 -0.23426689098E+04  0.23426689120E+04  0.10100000352E+00 0. -1.
    10030    2    1    2    0    0  0.00000000000E+00  0.00000000000E+00 -0.89746728733E+03  0.37878705380E+04  0.36800157175E+04 0.  0.
        3    1    3    3  502    0  0.13047349064E+04 -0.11285653441E+04  0.21005258358E+03  0.17378478098E+04  0.10100000352E+00 0. -1.
       -3    1    3    3    0  502 -0.13047349064E+04  0.11285653441E+04 -0.11075198709E+04  0.20500227283E+04  0.10100000352E+00 0.  1.
</event>
<event>
 5   0  0.1496000E-07  0.3698213E+04  0.7818609E-02  0.8068358E-01
       -1   -1    0    0    0  501  0.00000000000E+00  0.00000000000E+00  0.16120510742E+04  0.16120510742E+04  0.50400001928E-02 0.  1.
        1   -1    0    0  501    0  0.00000000000E+00  0.00000000000E+00 -0.21210217955E+04  0.21210217955E+04  0.50400001928E-02 0. -1.
    10030    2    1    2    0    0  0.00000000000E+00  0.00000000000E+00 -0.50897072124E+03  0.37330728697E+04  0.36982133329E+04 0.  0.
        3    1    3    3  502    0  0.10694079694E+03 -0.64591929803E+03 -0.20001059317E+04  0.21045360111E+04  0.10100000352E+00 0. -1.
       -3    1    3    3    0  502 -0.10694079694E+03  0.64591929803E+03  0.14911352105E+04  0.16285368586E+04  0.10100000352E+00 0.  1.
</event>
<event>
 5   0  0.1496000E-07  0.3727100E+04  0.7818609E-02  0.8061983E-01
        1   -1    0    0  501    0  0.00000000000E+00  0.00000000000E+00  0.26755163578E+04  0.26755163578E+04  0.50400001928E-02 0.  1.
       -1   -1    0    0    0  501  0.00000000000E+00  0.00000000000E+00 -0.12979991135E+04  0.12979991135E+04  0.50400001928E-02 0. -1.
    10030    2    1    2    0    0  0.00000000000E+00  0.00000000000E+00  0.13775172443E+04  0.39735154714E+04  0.37270996020E+04 0.  0.
        3    1    3    3  502    0  0.16838666425E+04 -0.21529068697E+03 -0.13087549064E+03  0.17026113337E+04  0.10100000352E+00 0. -1.
       -3    1    3    3    0  502 -0.16838666425E+04  0.21529068697E+03  0.15083927349E+04  0.22709041377E+04  0.10100000352E+00 0.  1.
</event>
<event>
 5   0  0.1496287E-07  0.3635395E+04  0.7818609E-02  0.8082432E-01
       -1   -1    0    0    0  501  0.00000000000E+00  0.00000000000E+00  0.14914215334E+04  0.14914215334E+04  0.50400001928E-02 0.  1.
        1   -1    0    0  501    0  0.00000000000E+00  0.00000000000E+00 -0.22153520000E+04  0.22153520001E+04  0.50400001928E-02 0. -1.
    10030    2    1    2    0    0  0.00000000000E+00  0.00000000000E+00 -0.72393046668E+03  0.37067735334E+04  0.36353947114E+04 0.  0.
        1    1    3    3  502    0 -0.15707659764E+03  0.13787235264E+04 -0.15591011641E+04  0.20871866375E+04  0.50400001928E-02 0. -1.
       -1    1    3    3    0  502  0.15707659764E+03 -0.13787235264E+04  0.83517069741E+03  0.16195868960E+04  0.50400001928E-02 0.  1.
</event>
<event>
 5   0  0.4793557E-07  0.3686282E+04  0.7818609E-02  0.8071009E-01
       -2   -1    0    0    0  501  0.00000000000E+00  0.00000000000E+00  0.18444240751E+04  0.18444240751E+04  0.25500000920E-02 0.  1.
        2   -1    0    0  501    0  0.00000000000E+00  0.00000000000E+00 -0.18418591736E+04  0.18418591736E+04  0.25500000920E-02 0. -1.
    10030    2    1    2    0    0  0.00000000000E+00  0.00000000000E+00  0.25649014609E+01  0.36862832487E+04  0.36862823564E+04 0.  0.
        3    1    3    3  502    0  0.37734839216E+03  0.54774516274E+03 -0.17176574117E+04  0.18419455927E+04  0.10100000352E+00 0. -1.
       -3    1    3    3    0  502 -0.37734839216E+03 -0.54774516274E+03  0.17202223132E+04  0.18443376560E+04  0.10100000352E+00 0.  1.
</event>
<event>
 5   0  0.4793557E-07  0.3697673E+04  0.7818609E-02  0.8068478E-01
       -2   -1    0    0    0  501  0.00000000000E+00  0.00000000000E+00  0.17308202471E+04  0.17308202471E+04  0.25500000920E-02 0. -1.
        2   -1    0    0  501    0  0.00000000000E+00  0.00000000000E+00 -0.19748992208E+04  0.19748992208E+04  0.25500000920E-02 0.  1.
    10030    2    1    2    0    0  0.00000000000E+00  0.00000000000E+00 -0.24407897376E+03  0.37057194679E+04  0.36976725422E+04 0.  0.
        3    1    3    3  502    0  0.17133619894E+04 -0.55521377636E+03 -0.54046924269E+03  0.18804198087E+04  0.10100000352E+00 0.  1.
       -3    1    3    3    0  502 -0.17133619894E+04  0.55521377636E+03  0.29639026893E+03  0.18252996592E+04  0.10100000352E+00 0. -1.
</event>
<event>
 5   0  0.4857514E-07  0.3540579E+04  0.7818609E-02  0.8104240E-01
        2   -1    0    0  501    0  0.00000000000E+00  0.00000000000E+00  0.21808153987E+04  0.21808153987E+04  0.25500000920E-02 0.  1.
       -2   -1    0    0    0  501  0.00000000000E+00  0.00000000000E+00 -0.14370426315E+04  0.14370426315E+04  0.25500000920E-02 0. -1.
    10030    2    1    2    0    0  0.00000000000E+00  0.00000000000E+00  0.74377276718E+03  0.36178580302E+04  0.35405788789E+04 0.  0.
        5    1    3    3  502    0  0.15750494144E+04  0.15510323531E+03  0.11823340687E+04  0.19755438774E+04  0.46999998093E+01 0.  1.
       -5    1    3    3    0  502 -0.15750494144E+04 -0.15510323531E+03 -0.43856130153E+03  0.16423141528E+04  0.46999998093E+01 0. -1.
</event>
<event>
 5   0  0.1522273E-07  0.3721516E+04  0.7818609E-02  0.8063210E-01
        1   -1    0    0  501    0  0.00000000000E+00  0.00000000000E+00  0.10274579600E+04  0.10274579600E+04  0.50400001928E-02 0.  1.
       -1   -1    0    0    0  501  0.00000000000E+00  0.00000000000E+00 -0.33698905654E+04  0.33698905654E+04  0.50400001928E-02 0. -1.
    10030    2    1    2    0    0  0.00000000000E+00  0.00000000000E+00 -0.23424326054E+04  0.43973485254E+04  0.37215162962E+04 0.  0.
        4    1    3    3  502    0  0.17337962324E+04 -0.61576235304E+03 -0.14995369830E+04  0.23735680793E+04  0.12699999809E+01 0. -1.
       -4    1    3    3    0  502 -0.17337962324E+04  0.61576235304E+03 -0.84289562245E+03  0.20237804461E+04  0.12699999809E+01 0.  1.
</event>
<event>
 5   0  0.1496287E-07  0.3672454E+04  0.7818609E-02  0.8074094E-01
        1   -1    0    0  501    0  0.00000000000E+00  0.00000000000E+00  0.27377187389E+04  0.27377187389E+04  0.50400001928E-02 0.  1.
       -1   -1    0    0    0  501  0.00000000000E+00  0.00000000000E+00 -0.12315835981E+04  0.12315835981E+04  0.50400001928E-02 0. -1.
    10030    2    1    2    0    0  0.00000000000E+00  0.00000000000E+00  0.15061351409E+04  0.39693023370E+04  0.36724539453E+04 0.  0.
        1    1    3    3  502    0 -0.10595826792E+04  0.79717180307E+03 -0.61985643820E+03  0.14637009058E+04  0.50400001928E-02 0. -1.
       -1    1    3    3    0  502  0.10595826792E+04 -0.79717180307E+03  0.21259915791E+04  0.25056014312E+04  0.50400001928E-02 0.  1.
</event>
<event>
 5   0  0.4758908E-07  0.3698904E+04  0.7818609E-02  0.8068205E-01
        2   -1    0    0  501    0  0.00000000000E+00  0.00000000000E+00  0.19034113445E+04  0.19034113445E+04  0.25500000920E-02 0.  1.
       -2   -1    0    0    0  501  0.00000000000E+00  0.00000000000E+00 -0.17970219916E+04  0.17970219916E+04  0.25500000920E-02 0. -1.
    10030    2    1    2    0    0  0.00000000000E+00  0.00000000000E+00  0.10638935292E+03  0.37004333361E+04  0.36989036457E+04 0.  0.
        2    1    3    3  502    0  0.11897625369E+04 -0.35322623390E+03  0.14249540563E+04  0.18896554525E+04  0.25500000920E-02 0.  1.
       -2    1    3    3    0  502 -0.11897625369E+04  0.35322623390E+03 -0.13185647034E+04  0.18107778836E+04  0.25500000920E-02 0. -1.
</event>
<event>
 5   0  0.4793557E-07  0.3606261E+04  0.7818609E-02  0.8089059E-01
       -2   -1    0    0    0  501  0.00000000000E+00  0.00000000000E+00  0.21224577066E+04  0.21224577066E+04  0.25500000920E-02 0. -1.
        2   -1    0    0  501    0  0.00000000000E+00  0.00000000000E+00 -0.15318462311E+04  0.15318462311E+04  0.25500000920E-02 0.  1.
    10030    2    1    2    0    0  0.00000000000E+00  0.00000000000E+00  0.59061147550E+03  0.36543039376E+04  0.36062605776E+04 0.  0.
        3    1    3    3  502    0  0.20842397637E+03 -0.11114811902E+04 -0.11278431084E+04  0.15971415334E+04  0.10100000352E+00 0.  1.
       -3    1    3    3    0  502 -0.20842397637E+03  0.11114811902E+04  0.17184545839E+04  0.20571624042E+04  0.10100000352E+00 0. -1.
</event>
<event>
 5   0  0.1496287E-07  0.3707393E+04  0.7818609E-02  0.8066325E-01
        1   -1    0    0  501    0  0.00000000000E+00  0.00000000000E+00  0.18307205755E+04  0.18307205756E+04  0.50400001928E-02 0. -1.
       -1   -1    0    0    0  501  0.00000000000E+00  0.00000000000E+00 -0.18769609643E+04  0.18769609643E+04  0.50400001928E-02 0.  1.
    10030    2    1    2    0    0  0.00000000000E+00  0.00000000000E+00 -0.46240388722E+02  0.37076815398E+04  0.37073931849E+04 0.  0.
        1    1    3    3  502    0 -0.59844903383E+02  0.78140376579E+03  0.16568967103E+04  0.18328884217E+04  0.50400001928E-02 0. -1.
       -1    1    3    3    0  502  0.59844903383E+02 -0.78140376579E+03 -0.17031370990E+04  0.18747931181E+04  0.50400001928E-02 0.  1.
</event>
<event>
 5   0  0.4857514E-07  0.3715644E+04  0.7818609E-02  0.8064504E-01
        2   -1    0    0  501    0  0.00000000000E+00  0.00000000000E+00  0.26777213841E+04  0.26777213841E+04  0.25500000920E-02 0. -1.
       -2   -1    0    0    0  501  0.00000000000E+00  0.00000000000E+00 -0.12889702082E+04  0.12889702082E+04  0.25500000920E-02 0.  1.
    10030    2    1    2    0    0  0.00000000000E+00  0.00000000000E+00  0.13887511759E+04  0.39666915923E+04  0.37156442725E+04 0.  0.
        5    1    3    3  502    0 -0.93268386306E+03  0.77232227986E+03  0.21985060722E+04  0.25099465994E+04  0.46999998093E+01 0. -1.
       -5    1    3    3    0  502  0.93268386306E+03 -0.77232227986E+03 -0.80975489630E+03  0.14567449929E+04  0.46999998093E+01 0.  1.
</event>
<event>
 5   0  0.1496287E-07  0.3676413E+04  0.7818609E-02  0.8073209E-01
       -1   -1    0    0    0  501  0.00000000000E+00  0.00000000000E+00  0.12627422374E+04  0.12627422375E+04  0.50400001928E-02 0.  1.
        1   -1    0    0  501    0  0.00000000000E+00  0.00000000000E+00 -0.26759252367E+04  0.26759252367E+04  0.50400001928E-02 0. -1.
    10030    2    1    2    0    0  0.00000000000E+00  0.00000000000E+00 -0.14131829992E+04  0.39386674742E+04  0.36764133721E+04 0.  0.
        1    1    3    3  502    0 -0.11314048660E+04  0.19955543239E+02 -0.22585583066E+04  0.25261751362E+04  0.50400001928E-02 0. -1.
       -1    1    3    3    0  502  0.11314048660E+04 -0.19955543239E+02  0.84537530734E+03  0.14124923380E+04  0.50400001928E-02 0.  1.
</event>
<event>
 5   0  0.1496000E-07  0.3711556E+04  0.7818609E-02  0.8065406E-01
        1   -1    0    0  501    0  0.00000000000E+00  0.00000000000E+00  0.15688213566E+04  0.15688213566E+04  0.50400001928E-02 0. -1.
       -1   -1    0    0    0  501  0.00000000000E+00  0.00000000000E+00 -0.21952226808E+04  0.21952226808E+04  0.50400001928E-02 0.  1.
    10030    2    1    2    0    0  0.00000000000E+00  0.00000000000E+00 -0.62640132417E+03  0.37640440373E+04  0.37115561287E+04 0.  0.
        5    1    3    3  502    0 -0.11566816679E+04 -0.11473935067E+04  0.58788342859E+03  0.17320662100E+04  0.46999998093E+01 0. -1.
       -5    1    3    3    0  502  0.11566816679E+04  0.11473935067E+04 -0.12142847528E+04  0.20319778274E+04  0.46999998093E+01 0.  1.
</event>
<event>
 5   0  0.4758908E-07  0.3724371E+04  0.7818609E-02  0.8062582E-01
        2   -1    0    0  501    0  0.00000000000E+00  0.00000000000E+00  0.19694403579E+04  0.19694403579E+04  0.25500000920E-02 0.  1.
       -2   -1    0    0    0  501  0.00000000000E+00  0.00000000000E+00 -0.17607714241E+04  0.17607714242E+04  0.25500000920E-02 0. -1.
    10030    2    1    2    0    0  0.00000000000E+00  0.00000000000E+00  0.20866893377E+03  0.37302117821E+04  0.37243707140E+04 0.  0.
        2    1    3    3  502    0  0.11786383496E+03 -0.13410169861E+04  0.13930209099E+04  0.19371953170E+04  0.25500000920E-02 0.  1.
       -2    1    3    3    0  502 -0.11786383496E+03  0.13410169861E+04 -0.11843519761E+04  0.17930164651E+04  0.25500000920E-02 0. -1.
</event>
<event>
 5   0  0.1496287E-07  0.3673369E+04  0.7818609E-02  0.8073889E-01
        1   -1    0    0  501    0  0.00000000000E+00  0.00000000000E+00  0.17010703035E+04  0.17010703035E+04  0.50400001928E-02 0. -1.
       -1   -1    0    0    0  501  0.00000000000E+00  0.00000000000E+00 -0.19831106455E+04  0.19831106455E+04  0.50400001928E-02 0.  1.
    10030    2    1    2    0    0  0.00000000000E+00  0.00000000000E+00 -0.28204034206E+03  0.36841809490E+04  0.36733693675E+04 0.  0.
        1    1    3    3  502    0  0.10118612674E+04 -0.21265472017E+02 -0.16782070173E+04  0.19597689246E+04  0.50400001928E-02 0.  1.
       -1    1    3    3    0  502 -0.10118612674E+04  0.21265472017E+02  0.13961666752E+04  0.17244120244E+04  0.50400001928E-02 0. -1.
</event>
<event>
 5   0  0.1496000E-07  0.3073442E+04  0.7818609E-02  0.8223065E-01
       -1   -1    0    0    0  501  0.00000000000E+00  0.00000000000E+00  0.21572941553E+04  0.21572941553E+04  0.50400001928E-02 0. -1.
        1   -1    0    0  501    0  0.00000000000E+00  0.00000000000E+00 -0.10946634462E+04  0.10946634463E+04  0.50400001928E-02 0.  1.
    10030    2    1    2    0    0  0.00000000000E+00  0.00000000000E+00  0.10626307090E+04  0.32519576015E+04  0.30734417545E+04 0.  0.
        2    1    3    3  502    0 -0.38761574138E+03 -0.10033316631E+04  0.16926025415E+04  0.20054485166E+04  0.25500000920E-02 0. -1.
       -2    1    3    3    0  502  0.38761574138E+03  0.10033316631E+04 -0.62997183247E+03  0.12465090850E+04  0.25500000920E-02 0.  1.
</event>
<event>
 5   0  0.4857514E-07  0.3029491E+04  0.7818609E-02  0.8235359E-01
        2   -1    0    0  501    0  0.00000000000E+00  0.00000000000E+00  0.17665668765E+04  0.17665668765E+04  0.25500000920E-02 0.  1.
       -2   -1    0    0    0  501  0.00000000000E+00  0.00000000000E+00 -0.12988205460E+04  0.12988205460E+04  0.25500000920E-02 0. -1.
    10030    2    1    2    0    0  0.00000000000E+00  0.00000000000E+00  0.46774633047E+03  0.30653874225E+04  0.30294906206E+04 0.  0.
        5    1    3    3  502    0  0.10558553456E+04 -0.17012788070E+02  0.13327018608E+04  0.17003635746E+04  0.46999998093E+01 0.  1.
       -5    1    3    3    0  502 -0.10558553456E+04  0.17012788070E+02 -0.86495553037E+03  0.13650238479E+04  0.46999998093E+01 0. -1.
</event>
<event>
 5   0  0.4687817E-07  0.3732813E+04  0.7818609E-02  0.8060729E-01
       -2   -1    0    0    0  501  0.00000000000E+00  0.00000000000E+00  0.13668239342E+04  0.13668239342E+04  0.25500000920E-02 0.  1.
        2   -1    0    0  501    0  0.00000000000E+00  0.00000000000E+00 -0.25485895615E+04  0.25485895615E+04  0.25500000920E-02 0. -1.
    10030    2    1    2    0    0  0.00000000000E+00  0.00000000000E+00 -0.11817656273E+04  0.39154134958E+04  0.37328129936E+04 0.  0.
        4    1    3    3  502    0 -0.17840328742E+04  0.39470610512E+03 -0.99016843774E+03  0.20782207182E+04  0.12699999809E+01 0.  1.
       -4    1    3    3    0  502  0.17840328742E+04 -0.39470610512E+03 -0.19159718955E+03  0.18371927775E+04  0.12699999809E+01 0. -1.
</event>
<event>
 5   0  0.1496000E-07  0.3720318E+04  0.7818609E-02  0.8063474E-01
       -1   -1    0    0    0  501  0.00000000000E+00  0.00000000000E+00  0.16026041289E+04  0.16026041289E+04  0.50400001928E-02 0.  1.
        1   -1    0    0  501    0  0.00000000000E+00  0.00000000000E+00 -0.21591054152E+04  0.21591054152E+04  0.50400001928E-02 0. -1.
    10030    2    1    2    0    0  0.00000000000E+00  0.00000000000E+00 -0.55650128633E+03  0.37617095441E+04  0.37203178645E+04 0.  0.
        2    1    3    3  502    0  0.61855293697E+03 -0.12165058649E+04  0.99981282403E+03  0.16917801093E+04  0.25500000920E-02 0.  1.
       -2    1    3    3    0  502 -0.61855293697E+03  0.12165058649E+04 -0.15563141104E+04  0.20699294348E+04  0.25500000920E-02 0. -1.
</event>
<event>
 5   0  0.1496000E-07  0.3712331E+04  0.7818609E-02  0.8065235E-01
       -1   -1    0    0    0  501  0.00000000000E+00  0.00000000000E+00  0.20337654280E+04  0.20337654280E+04  0.50400001928E-02 0. -1.
        1   -1    0    0  501    0  0.00000000000E+00  0.00000000000E+00 -0.16940749779E+04  0.16940749779E+04  0.50400001928E-02 0.  1.
    10030    2    1    2    0    0  0.00000000000E+00  0.00000000000E+00  0.33969045016E+03  0.37278404059E+04  0.37123314090E+04 0.  0.
        3    1    3    3  502    0  0.30906169885E+03  0.12447717826E+04  0.15172313818E+04  0.19866975111E+04  0.10100000352E+00 0. -1.
       -3    1    3    3    0  502 -0.30906169885E+03 -0.12447717826E+04 -0.11775409316E+04  0.17411428949E+04  0.10100000352E+00 0.  1.
</event>
<event>
 5   0  0.1496000E-07  0.3664755E+04  0.7818609E-02  0.8075818E-01
       -1   -1    0    0    0  501  0.00000000000E+00  0.00000000000E+00  0.13401551698E+04  0.13401551698E+04  0.50400001928E-02 0. -1.
        1   -1    0    0  501    0  0.00000000000E+00  0.00000000000E+00 -0.25053870839E+04  0.25053870839E+04  0.50400001928E-02 0.  1.
    10030    2    1    2    0    0  0.00000000000E+00  0.00000000000E+00 -0.11652319141E+04  0.38455422537E+04  0.36647550820E+04 0.  0.
        2    1    3    3  502    0 -0.15147833916E+04 -0.50020811668E+03 -0.15286628115E+04  0.22094313465E+04  0.25500000920E-02 0.  1.
       -2    1    3    3    0  502  0.15147833916E+04  0.50020811668E+03  0.36343089736E+03  0.16361109072E+04  0.25500000920E-02 0. -1.
</event>
<event>
 5   0  0.4793557E-07  0.3652479E+04  0.7818609E-02  0.8078576E-01
        2   -1    0    0  501    0  0.00000000000E+00  0.00000000000E+00  0.26799771756E+04  0.26799771756E+04  0.25500000920E-02 0.  1.
       -2   -1    0    0    0  501  0.00000000000E+00  0.00000000000E+00 -0.12444694788E+04  0.12444694788E+04  0.25500000920E-02 0. -1.
    10030    2    1    2    0    0  0.00000000000E+00  0.00000000000E+00  0.14355076968E+04  0.39244466544E+04  0.36524785004E+04 0.  0.
        3    1    3    3  502    0  0.10250628564E+03  0.28925600543E+03  0.26520745627E+04  0.26697707900E+04  0.10100000352E+00 0.  1.
       -3    1    3    3    0  502 -0.10250628564E+03 -0.28925600543E+03 -0.12165668659E+04  0.12546758644E+04  0.10100000352E+00 0. -1.
</event>
<event>
 5   0  0.1496000E-07  0.3681612E+04  0.7818609E-02  0.8072049E-01
       -3   -1    0    0    0  501  0.00000000000E+00  0.00000000000E+00  0.31544912104E+04  0.31544912120E+04  0.10100000352E+00 0.  1.
        3   -1    0    0  501    0  0.00000000000E+00  0.00000000000E+00 -0.10742038762E+04  0.10742038809E+04  0.10100000352E+00 0. -1.
    10030    2    1    2    0    0  0.00000000000E+00  0.00000000000E+00  0.20802873342E+04  0.42286950929E+04  0.36816119833E+04 0.  0.
        5    1    3    3  502    0 -0.11518452378E+04  0.59406986627E+03  0.25416387193E+04  0.28530012141E+04  0.46999998093E+01 0.  1.
       -5    1    3    3    0  502  0.11518452378E+04 -0.59406986627E+03 -0.46135138512E+03  0.13756938789E+04  0.46999998093E+01 0. -1.
</event>
<event>
 5   0  0.1522273E-07  0.3746387E+04  0.7818609E-02  0.8057759E-01
        1   -1    0    0  501    0  0.00000000000E+00  0.00000000000E+00  0.10309203952E+04  0.10309203952E+04  0.50400001928E-02 0.  1.
       -1   -1    0    0    0  501  0.00000000000E+00  0.00000000000E+00 -0.34036134687E+04  0.34036134688E+04  0.50400001928E-02 0. -1.
    10030    2    1    2    0    0  0.00000000000E+00  0.00000000000E+00 -0.23726930736E+04  0.44345338639E+04  0.37463873490E+04 0.  0.
        4    1    3    3  502    0  0.98266568891E+03 -0.15755238078E+04 -0.89412837562E+03  0.20609158862E+04  0.12699999809E+01 0.  1.
       -4    1    3    3    0  502 -0.98266568891E+03  0.15755238078E+04 -0.14785646980E+04  0.23736179777E+04  0.12699999809E+01 0. -1.
</event>
<event>
 5   0  0.1496000E-07  0.3360724E+04  0.7818609E-02  0.8147614E-01
        1   -1    0    0  501    0  0.00000000000E+00  0.00000000000E+00  0.13694565976E+04  0.13694565976E+04  0.50400001928E-02 0. -1.
       -1   -1    0    0    0  501  0.00000000000E+00  0.00000000000E+00 -0.20618517021E+04  0.20618517021E+04  0.50400001928E-02 0.  1.
    10030    2    1    2    0    0  0.00000000000E+00  0.00000000000E+00 -0.69239510448E+03  0.34313082997E+04  0.33607239796E+04 0.  0.
        3    1    3    3  502    0 -0.98142982936E+03 -0.12875307036E+04 -0.80584905430E+03  0.18084060748E+04  0.10100000352E+00 0.  1.
       -3    1    3    3    0  502  0.98142982936E+03  0.12875307036E+04  0.11345394982E+03  0.16229022249E+04  0.10100000352E+00 0. -1.
</event>
<event>
 5   0  0.4824268E-07  0.3714431E+04  0.7818609E-02  0.8064771E-01
        2   -1    0    0  501    0  0.00000000000E+00  0.00000000000E+00  0.18761490126E+04  0.18761490126E+04  0.25500000920E-02 0. -1.
       -2   -1    0    0    0  501  0.00000000000E+00  0.00000000000E+00 -0.18384731422E+04  0.18384731422E+04  0.25500000920E-02 0.  1.
    10030    2    1    2    0    0  0.00000000000E+00  0.00000000000E+00  0.37675870429E+02  0.37146221547E+04  0.37144310845E+04 0.  0.
        1    1    3    3  502    0 -0.14537123255E+04 -0.17878081666E+03  0.11608281385E+04  0.18688938099E+04  0.50400001928E-02 0. -1.
       -1    1    3    3    0  502  0.14537123255E+04  0.17878081666E+03 -0.11231522681E+04  0.18457283448E+04  0.50400001928E-02 0.  1.
</event>
<event>
 5   0  0.1496287E-07  0.3708632E+04  0.7818609E-02  0.8066052E-01
       -1   -1    0    0    0  501  0.00000000000E+00  0.00000000000E+00  0.14533737411E+04  0.14533737411E+04  0.50400001928E-02 0.  1.
        1   -1    0    0  501    0  0.00000000000E+00  0.00000000000E+00 -0.23658664881E+04  0.23658664881E+04  0.50400001928E-02 0. -1.
    10030    2    1    2    0    0  0.00000000000E+00  0.00000000000E+00 -0.91249274700E+03  0.38192402292E+04  0.37086322162E+04 0.  0.
        1    1    3    3  502    0 -0.43812975979E+03 -0.17474508994E+04 -0.38897197711E+01  0.18015430781E+04  0.50400001928E-02 0. -1.
       -1    1    3    3    0  502  0.43812975979E+03  0.17474508994E+04 -0.90860302723E+03  0.20176971511E+04  0.50400001928E-02 0.  1.
</event>
<event>
 5   0  0.4793557E-07  0.3759961E+04  0.7818609E-02  0.8054802E-01
       -2   -1    0    0    0  501  0.00000000000E+00  0.00000000000E+00  0.15116616535E+04  0.15116616536E+04  0.25500000920E-02 0. -1.
        2   -1    0    0  501    0  0.00000000000E+00  0.00000000000E+00 -0.23380404267E+04  0.23380404267E+04  0.25500000920E-02 0.  1.
    10030    2    1    2    0    0  0.00000000000E+00  0.00000000000E+00 -0.82637877312E+03  0.38497020802E+04  0.37599606687E+04 0.  0.
        3    1    3    3  502    0 -0.13496667872E+04  0.16084461382E+02 -0.17530354752E+04  0.22124630017E+04  0.10100000352E+00 0. -1.
       -3    1    3    3    0  502  0.13496667872E+04 -0.16084461382E+02  0.92665670206E+03  0.16372390785E+04  0.10100000352E+00 0.  1.
</event>
<event>
 5   0  0.4793557E-07  0.3817500E+04  0.7818609E-02  0.8042410E-01
        2   -1    0    0  501    0  0.00000000000E+00  0.00000000000E+00  0.18651876657E+04  0.18651876657E+04  0.25500000920E-02 0. -1.
       -2   -1    0    0    0  501  0.00000000000E+00  0.00000000000E+00 -0.19533298793E+04  0.19533298793E+04  0.25500000920E-02 0.  1.
    10030    2    1    2    0    0  0.00000000000E+00  0.00000000000E+00 -0.88142213627E+02  0.38185175450E+04  0.38175001233E+04 0.  0.
        3    1    3    3  502    0 -0.12254527933E+03 -0.43837265932E+02  0.18607440991E+04  0.18652902358E+04  0.10100000352E+00 0. -1.
       -3    1    3    3    0  502  0.12254527933E+03  0.43837265932E+02 -0.19488863127E+04  0.19532273092E+04  0.10100000352E+00 0.  1.
</event>
<event>
 5   0  0.4687817E-07  0.3714723E+04  0.7818609E-02  0.8064707E-01
       -2   -1    0    0    0  501  0.00000000000E+00  0.00000000000E+00  0.11406050986E+04  0.11406050986E+04  0.25500000920E-02 0. -1.
        2   -1    0    0  501    0  0.00000000000E+00  0.00000000000E+00 -0.30245280921E+04  0.30245280921E+04  0.25500000920E-02 0.  1.
    10030    2    1    2    0    0  0.00000000000E+00  0.00000000000E+00 -0.18839229935E+04  0.41651331907E+04  0.37147232266E+04 0.  0.
        4    1    3    3  502    0 -0.17898457005E+04  0.47678090336E+03 -0.78772180628E+03  0.20128027520E+04  0.12699999809E+01 0. -1.
       -4    1    3    3    0  502  0.17898457005E+04 -0.47678090336E+03 -0.10962011872E+04  0.21523304387E+04  0.12699999809E+01 0.  1.
</event>
<event>
 5   0  0.1496000E-07  0.3410607E+04  0.7818609E-02  0.8135308E-01
        1   -1    0    0  501    0  0.00000000000E+00  0.00000000000E+00  0.15527661872E+04  0.15527661872E+04  0.50400001928E-02 0.  1.
       -1   -1    0    0    0  501  0.00000000000E+00  0.00000000000E+00 -0.18728259573E+04  0.18728259573E+04  0.50400001928E-02 0. -1.
    10030    2    1    2    0    0  0.00000000000E+00  0.00000000000E+00 -0.32005977007E+03  0.34255921445E+04  0.34106074655E+04 0.  0.
        5    1    3    3  502    0 -0.10907423750E+04  0.12723936143E+04 -0.47658804846E+03  0.17423727202E+04  0.46999998093E+01 0. -1.
       -5    1    3    3    0  502  0.10907423750E+04 -0.12723936143E+04  0.15652827839E+03  0.16832194242E+04  0.46999998093E+01 0.  1.
</event>
<event>
 5   0  0.4687817E-07  0.3642726E+04  0.7818609E-02  0.8080774E-01
       -2   -1    0    0    0  501  0.00000000000E+00  0.00000000000E+00  0.22093736842E+04  0.22093736842E+04  0.25500000920E-02 0.  1.
        2   -1    0    0  501    0  0.00000000000E+00  0.00000000000E+00 -0.15014949941E+04  0.15014949941E+04  0.25500000920E-02 0. -1.
    10030    2    1    2    0    0  0.00000000000E+00  0.00000000000E+00  0.70787869013E+03  0.37108686783E+04  0.36427261917E+04 0.  0.
        4    1    3    3  502    0 -0.12465697006E+04 -0.78605788474E+03  0.14442593424E+04  0.20634218371E+04  0.12699999809E+01 0.  1.
       -4    1    3    3    0  502  0.12465697006E+04  0.78605788474E+03 -0.73638065224E+03  0.16474468412E+04  0.12699999809E+01 0. -1.
</event>
<event>
 5   0  0.1496000E-07  0.3707774E+04  0.7818609E-02  0.8066241E-01
        1   -1    0    0  501    0  0.00000000000E+00  0.00000000000E+00  0.25661880981E+04  0.25661880981E+04  0.50400001928E-02 0.  1.
       -1   -1    0    0    0  501  0.00000000000E+00  0.00000000000E+00 -0.13393008017E+04  0.13393008018E+04  0.50400001928E-02 0. -1.
    10030    2    1    2    0    0  0.00000000000E+00  0.00000000000E+00  0.12268872963E+04  0.39054888998E+04  0.37077744145E+04 0.  0.
        5    1    3    3  502    0  0.11999407413E+04  0.13012442096E+04  0.32889540216E+02  0.17703666534E+04  0.46999998093E+01 0. -1.
       -5    1    3    3    0  502 -0.11999407413E+04 -0.13012442096E+04  0.11939977561E+04  0.21351222464E+04  0.46999998093E+01 0.  1.
</event>
<event>
 5   0  0.4824268E-07  0.3718248E+04  0.7818609E-02  0.8063930E-01
        2   -1    0    0  501    0  0.00000000000E+00  0.00000000000E+00  0.19996599402E+04  0.19996599402E+04  0.25500000920E-02 0.  1.
       -2   -1    0    0    0  501  0.00000000000E+00  0.00000000000E+00 -0.17284649285E+04  0.17284649285E+04  0.25500000920E-02 0. -1.
    10030    2    1    2    0    0  0.00000000000E+00  0.00000000000E+00  0.27119501179E+03  0.37281248687E+04  0.37182480152E+04 0.  0.
        1    1    3    3  502    0 -0.81627216473E+03 -0.16669479660E+04  0.24230532937E+03  0.18718246823E+04  0.50400001928E-02 0. -1.
       -1    1    3    3    0  502  0.81627216473E+03  0.16669479660E+04  0.28889682426E+02  0.18563001864E+04  0.50400001928E-02 0.  1.
</event>
<event>
 5   0  0.1496000E-07  0.3708630E+04  0.7818609E-02  0.8066052E-01
       -1   -1    0    0    0  501  0.00000000000E+00  0.00000000000E+00  0.18038078381E+04  0.18038078382E+04  0.50400001928E-02 0.  1.
        1   -1    0    0  501    0  0.00000000000E+00  0.00000000000E+00 -0.19062366643E+04  0.19062366643E+04  0.50400001928E-02 0. -1.
    10030    2    1    2    0    0  0.00000000000E+00  0.00000000000E+00 -0.10242882615E+03  0.37100445025E+04  0.37086302789E+04 0.  0.
        2    1    3    3  502    0 -0.55631684698E+02 -0.37022371476E+03 -0.18680358554E+04  0.19051819966E+04  0.25500000920E-02 0. -1.
       -2    1    3    3    0  502  0.55631684698E+02  0.37022371476E+03  0.17656070292E+04  0.18048625058E+04  0.25500000920E-02 0.  1.
</event>
<event>
 5   0  0.4857514E-07  0.3837495E+04  0.7818609E-02  0.8038156E-01
        2   -1    0    0  501    0  0.00000000000E+00  0.00000000000E+00  0.17125361413E+04  0.17125361413E+04  0.25500000920E-02 0.  1.
       -2   -1    0    0    0  501  0.00000000000E+00  0.00000000000E+00 -0.21497888698E+04  0.21497888698E+04  0.25500000920E-02 0. -1.
    10030    2    1    2    0    0  0.00000000000E+00  0.00000000000E+00 -0.43725272844E+03  0.38623250111E+04  0.38374945658E+04 0.  0.
        5    1    3    3  502    0 -0.15079652516E+04  0.10047655065E+04 -0.85362559186E+03  0.20030505896E+04  0.46999998093E+01 0. -1.
       -5    1    3    3    0  502  0.15079652516E+04 -0.10047655065E+04  0.41637286342E+03  0.18592744215E+04  0.46999998093E+01 0.  1.
</event>
<event>
 5   0  0.1496000E-07  0.3674710E+04  0.7818609E-02  0.8073590E-01
       -1   -1    0    0    0  501  0.00000000000E+00  0.00000000000E+00  0.16266465785E+04  0.16266465785E+04  0.50400001928E-02 0.  1.
        1   -1    0    0  501    0  0.00000000000E+00  0.00000000000E+00 -0.20753577994E+04  0.20753577994E+04  0.50400001928E-02 0. -1.
    10030    2    1    2    0    0  0.00000000000E+00  0.00000000000E+00 -0.44871122094E+03  0.37020043779E+04  0.36747101456E+04 0.  0.
        3    1    3    3  502    0 -0.12302375181E+04  0.11857912199E+04  0.45615295206E+03  0.17685193508E+04  0.10100000352E+00 0.  1.
       -3    1    3    3    0  502  0.12302375181E+04 -0.11857912199E+04 -0.90486417300E+03  0.19334850271E+04  0.10100000352E+00 0. -1.
</event>
<event>
 5   0  0.1496000E-07  0.3670939E+04  0.7818609E-02  0.8074433E-01
       -1   -1    0    0    0  501  0.00000000000E+00  0.00000000000E+00  0.11511161477E+04  0.11511161477E+04  0.50400001928E-02 0.  1.
        1   -1    0    0  501    0  0.00000000000E+00  0.00000000000E+00 -0.29266796600E+04  0.29266796600E+04  0.50400001928E-02 0. -1.
    10030    2    1    2    0    0  0.00000000000E+00  0.00000000000E+00 -0.17755635123E+04  0.40777958076E+04  0.36709389620E+04 0.  0.
        3    1    3    3  502    0  0.12417129369E+04  0.21875921677E+03  0.59393698118E+03  0.13937244205E+04  0.10100000352E+00 0.  1.
       -3    1    3    3    0  502 -0.12417129369E+04 -0.21875921677E+03 -0.23695004935E+04  0.26840713871E+04  0.10100000352E+00 0. -1.
</event>
<event>
 5   0  0.1496000E-07  0.3709652E+04  0.7818609E-02  0.8065826E-01
       -1   -1    0    0    0  501  0.00000000000E+00  0.00000000000E+00  0.15154682984E+04  0.15154682984E+04  0.50400001928E-02 0. -1.
        1   -1    0    0  501    0  0.00000000000E+00  0.00000000000E+00 -0.22701761158E+04  0.22701761159E+04  0.50400001928E-02 0.  1.
    10030    2    1    2    0    0  0.00000000000E+00  0.00000000000E+00 -0.75470781746E+03  0.37856444142E+04  0.37096522399E+04 0.  0.
        3    1    3    3  502    0  0.63841473327E+03  0.25182594767E+03 -0.21358453474E+04  0.22433958719E+04  0.10100000352E+00 0.  1.
       -3    1    3    3    0  502 -0.63841473327E+03 -0.25182594767E+03  0.13811375300E+04  0.15422485424E+04  0.10100000352E+00 0. -1.
</event>
<event>
 5   0  0.1522273E-07  0.3705330E+04  0.7818609E-02  0.8066782E-01
       -1   -1    0    0    0  501  0.00000000000E+00  0.00000000000E+00  0.13389425261E+04  0.13389425261E+04  0.50400001928E-02 0.  1.
        1   -1    0    0  501    0  0.00000000000E+00  0.00000000000E+00 -0.25634915889E+04  0.25634915889E+04  0.50400001928E-02 0. -1.
    10030    2    1    2    0    0  0.00000000000E+00  0.00000000000E+00 -0.12245490628E+04  0.39024341150E+04  0.37053301627E+04 0.  0.
        4    1    3    3  502    0 -0.92438261127E+03  0.96051547638E+03  0.74274676201E+03  0.15260234460E+04  0.12699999809E+01 0.  1.
       -4    1    3    3    0  502  0.92438261127E+03 -0.96051547638E+03 -0.19672958248E+04  0.23764106690E+04  0.12699999809E+01 0. -1.
</event>
<event>
 5   0  0.1496000E-07  0.3706907E+04  0.7818609E-02  0.8066433E-01
        1   -1    0    0  501    0  0.00000000000E+00  0.00000000000E+00  0.13588869272E+04  0.13588869272E+04  0.50400001928E-02 0.  1.
       -1   -1    0    0    0  501  0.00000000000E+00  0.00000000000E+00 -0.25280179515E+04  0.25280179515E+04  0.50400001928E-02 0. -1.
    10030    2    1    2    0    0  0.00000000000E+00  0.00000000000E+00 -0.11691310243E+04  0.38869048787E+04  0.37069073611E+04 0.  0.
        5    1    3    3  502    0  0.16440910016E+04 -0.69275838816E+03 -0.11112702200E+04  0.21018784451E+04  0.46999998093E+01 0. -1.
       -5    1    3    3    0  502 -0.16440910016E+04  0.69275838816E+03 -0.57860804259E+02  0.17850264336E+04  0.46999998093E+01 0.  1.
</event>
<event>
 5   0  0.4857514E-07  0.3734461E+04  0.7818609E-02  0.8060367E-01
        2   -1    0    0  501    0  0.00000000000E+00  0.00000000000E+00  0.14600858634E+04  0.14600858634E+04  0.25500000920E-02 0.  1.
       -2   -1    0    0    0  501  0.00000000000E+00  0.00000000000E+00 -0.23879074651E+04  0.23879074651E+04  0.25500000920E-02 0. -1.
    10030    2    1    2    0    0  0.00000000000E+00  0.00000000000E+00 -0.92782160177E+03  0.38479933285E+04  0.37344611032E+04 0.  0.
        5    1    3    3  502    0 -0.16141985584E+03 -0.18103574584E+04 -0.23027475335E+02  0.18176916272E+04  0.46999998093E+01 0. -1.
       -5    1    3    3    0  502  0.16141985584E+03  0.18103574584E+04 -0.90479412643E+03  0.20303017013E+04  0.46999998093E+01 0.  1.
</event>
<event>
 5   0  0.1496000E-07  0.3680551E+04  0.7818609E-02  0.8072286E-01
       -3   -1    0    0    0  501  0.00000000000E+00  0.00000000000E+00  0.15220212994E+04  0.15220213028E+04  0.10100000352E+00 0.  1.
        3   -1    0    0  501    0  0.00000000000E+00  0.00000000000E+00 -0.22250762321E+04  0.22250762344E+04  0.10100000352E+00 0. -1.
    10030    2    1    2    0    0  0.00000000000E+00  0.00000000000E+00 -0.70305493268E+03  0.37470975371E+04  0.36805507352E+04 0.  0.
        3    1    3    3  502    0 -0.79887177777E+03 -0.16406698238E+04 -0.10927596867E+03  0.18280959591E+04  0.10100000352E+00 0. -1.
       -3    1    3    3    0  502  0.79887177777E+03  0.16406698238E+04 -0.59377896401E+03  0.19190015780E+04  0.10100000352E+00 0.  1.
</event>
<event>
 5   0  0.4824268E-07  0.3666004E+04  0.7818609E-02  0.8075538E-01
        2   -1    0    0  501    0  0.00000000000E+00  0.00000000000E+00  0.18852481053E+04  0.18852481053E+04  0.25500000920E-02 0.  1.
       -2   -1    0    0    0  501  0.00000000000E+00  0.00000000000E+00 -0.17822035736E+04  0.17822035736E+04  0.25500000920E-02 0. -1.
    10030    2    1    2    0    0  0.00000000000E+00  0.00000000000E+00  0.10304453174E+03  0.36674516789E+04  0.36660037700E+04 0.  0.
        1    1    3    3  502    0 -0.12706388999E+03  0.44813979226E+03 -0.17220065679E+04  0.17838949312E+04  0.50400001928E-02 0. -1.
       -1    1    3    3    0  502  0.12706388999E+03 -0.44813979226E+03  0.18250510997E+04  0.18835567477E+04  0.50400001928E-02 0.  1.
</event>
<event>
 5   0  0.1496287E-07  0.3744978E+04  0.7818609E-02  0.8058067E-01
        1   -1    0    0  501    0  0.00000000000E+00  0.00000000000E+00  0.20289711512E+04  0.20289711512E+04  0.50400001928E-02 0. -1.
       -1   -1    0    0    0  501  0.00000000000E+00  0.00000000000E+00 -0.17280757967E+04  0.17280757967E+04  0.50400001928E-02 0.  1.
    10030    2    1    2    0    0  0.00000000000E+00  0.00000000000E+00  0.30089535452E+03  0.37570469480E+04  0.37449784719E+04 0.  0.
        1    1    3    3  502    0  0.58204659902E+03  0.11022241053E+04 -0.12513884072E+04  0.17662528605E+04  0.50400001928E-02 0.  1.
       -1    1    3    3    0  502 -0.58204659902E+03 -0.11022241053E+04  0.15522837617E+04  0.19907940874E+04  0.50400001928E-02 0. -1.
</event>
<event>
 5   0  0.4687817E-07  0.3542741E+04  0.7818609E-02  0.8103735E-01
       -2   -1    0    0    0  501  0.00000000000E+00  0.00000000000E+00  0.22517992229E+04  0.22517992229E+04  0.25500000920E-02 0. -1.
        2   -1    0    0  501    0  0.00000000000E+00  0.00000000000E+00 -0.13934430094E+04  0.13934430094E+04  0.25500000920E-02 0.  1.
    10030    2    1    2    0    0  0.00000000000E+00  0.00000000000E+00  0.85835621348E+03  0.36452422323E+04  0.35427412469E+04 0.  0.
        4    1    3    3  502    0  0.91001442971E+03  0.14875534153E+04  0.10903145082E+03  0.17472352148E+04  0.12699999809E+01 0.  1.
       -4    1    3    3    0  502 -0.91001442971E+03 -0.14875534153E+04  0.74932476266E+03  0.18980070175E+04  0.12699999809E+01 0. -1.
</event>
<event>
 5   0  0.4793557E-07  0.3613042E+04  0.7818609E-02  0.8087511E-01
       -2   -1    0    0    0  501  0.00000000000E+00  0.00000000000E+00  0.16427471083E+04  0.16427471083E+04  0.25500000920E-02 0. -1.
        2   -1    0    0  501    0  0.00000000000E+00  0.00000000000E+00 -0.19866220305E+04  0.19866220305E+04  0.25500000920E-02 0.  1.
    10030    2    1    2    0    0  0.00000000000E+00  0.00000000000E+00 -0.34387492221E+03  0.36293691389E+04  0.36130417080E+04 0.  0.
        3    1    3    3  502    0  0.15907209836E+04  0.75490446105E+03 -0.57779745036E+03  0.18531389308E+04  0.10100000352E+00 0.  1.
       -3    1    3    3    0  502 -0.15907209836E+04 -0.75490446105E+03  0.23392252815E+03  0.17762302081E+04  0.10100000352E+00 0. -1.
</event>
<event>
 5   0  0.1496000E-07  0.3704687E+04  0.7818609E-02  0.8066924E-01
       -1   -1    0    0    0  501  0.00000000000E+00  0.00000000000E+00  0.23458402539E+04  0.23458402539E+04  0.50400001928E-02 0.  1.
        1   -1    0    0  501    0  0.00000000000E+00  0.00000000000E+00 -0.14626640633E+04  0.14626640633E+04  0.50400001928E-02 0. -1.
    10030    2    1    2    0    0  0.00000000000E+00  0.00000000000E+00  0.88317619061E+03  0.38085043173E+04  0.37046868897E+04 0.  0.
        3    1    3    3  502    0 -0.50789868352E+03  0.15055635743E+04 -0.53719235369E+03  0.16772770743E+04  0.10100000352E+00 0. -1.
       -3    1    3    3    0  502  0.50789868352E+03 -0.15055635743E+04  0.14203685443E+04  0.21312272429E+04  0.10100000352E+00 0.  1.
</event>
<event>
 5   0  0.1496000E-07  0.3642110E+04  0.7818609E-02  0.8080913E-01
        1   -1    0    0  501    0  0.00000000000E+00  0.00000000000E+00  0.24536992327E+04  0.24536992327E+04  0.50400001928E-02 0. -1.
       -1   -1    0    0    0  501  0.00000000000E+00  0.00000000000E+00 -0.13515275225E+04  0.13515275225E+04  0.50400001928E-02 0.  1.
    10030    2    1    2    0    0  0.00000000000E+00  0.00000000000E+00  0.11021717102E+04  0.38052267553E+04  0.36421104020E+04 0.  0.
        5    1    3    3  502    0  0.16938972665E+04  0.51977503760E+02 -0.14527050425E+03  0.17009159943E+04  0.46999998093E+01 0.  1.
       -5    1    3    3    0  502 -0.16938972665E+04 -0.51977503760E+02  0.12474422145E+04  0.21043107610E+04  0.46999998093E+01 0. -1.
</event>
<event>
 5   0  0.1522273E-07  0.3717438E+04  0.7818609E-02  0.8064108E-01
       -1   -1    0    0    0  501  0.00000000000E+00  0.00000000000E+00  0.15546606319E+04  0.15546606319E+04  0.50400001928E-02 0.  1.
        1   -1    0    0  501    0  0.00000000000E+00  0.00000000000E+00 -0.22222448730E+04  0.22222448730E+04  0.50400001928E-02 0. -1.
    10030    2    1    2    0    0  0.00000000000E+00  0.00000000000E+00 -0.66758424109E+03  0.37769055048E+04  0.37174381600E+04 0.  0.
        4    1    3    3  502    0 -0.93149351431E+03 -0.15726683372E+04 -0.67663519900E+03  0.19490517364E+04  0.12699999809E+01 0. -1.
       -4    1    3    3    0  502  0.93149351431E+03  0.15726683372E+04  0.90509579124E+01  0.18278537684E+04  0.12699999809E+01 0.  1.
</event>
<event>
 5   0  0.4857514E-07  0.3391493E+04  0.7818609E-02  0.8139997E-01
        2   -1    0    0  501    0  0.00000000000E+00  0.00000000000E+00  0.27299550316E+04  0.27299550316E+04  0.25500000920E-02 0. -1.
       -2   -1    0    0    0  501  0.00000000000E+00  0.00000000000E+00 -0.10533346497E+04  0.10533346497E+04  0.25500000920E-02 0.  1.
    10030    2    1    2    0    0  0.00000000000E+00  0.00000000000E+00  0.16766203818E+04  0.37832896813E+04  0.33914930204E+04 0.  0.
        5    1    3    3  502    0 -0.14987202131E+04 -0.57340149207E+02 -0.44352885262E+02  0.15004797361E+04  0.46999998093E+01 0.  1.
       -5    1    3    3    0  502  0.14987202131E+04  0.57340149207E+02  0.17209732671E+04  0.22828099452E+04  0.46999998093E+01 0. -1.
</event>
<event>
 5   0  0.4758908E-07  0.3702556E+04  0.7818609E-02  0.8067396E-01
        2   -1    0    0  501    0  0.00000000000E+00  0.00000000000E+00  0.31266198889E+04  0.31266198889E+04  0.25500000920E-02 0. -1.
       -2   -1    0    0    0  501  0.00000000000E+00  0.00000000000E+00 -0.10961454737E+04  0.10961454737E+04  0.25500000920E-02 0.  1.
    10030    2    1    2    0    0  0.00000000000E+00  0.00000000000E+00  0.20304744153E+04  0.42227653626E+04  0.37025560031E+04 0.  0.
        2    1    3    3  502    0  0.86643783283E+02 -0.66523695967E+03  0.29831147565E+04  0.30576168838E+04  0.25500000920E-02 0. -1.
       -2    1    3    3    0  502 -0.86643783283E+02  0.66523695967E+03 -0.95264034126E+03  0.11651484787E+04  0.25500000920E-02 0.  1.
</event>
<event>
 5   0  0.4793557E-07  0.3694668E+04  0.7818609E-02  0.8069144E-01
        2   -1    0    0  501    0  0.00000000000E+00  0.00000000000E+00  0.21785374869E+04  0.21785374869E+04  0.25500000920E-02 0.  1.
       -2   -1    0    0    0  501  0.00000000000E+00  0.00000000000E+00 -0.15664834394E+04  0.15664834394E+04  0.25500000920E-02 0. -1.
    10030    2    1    2    0    0  0.00000000000E+00  0.00000000000E+00  0.61205404755E+03  0.37450209263E+04  0.36946679933E+04 0.  0.
        3    1    3    3  502    0 -0.60100144242E+03  0.21495419139E+03  0.20632142537E+04  0.21596900484E+04  0.10100000352E+00 0.  1.
       -3    1    3    3    0  502  0.60100144242E+03 -0.21495419139E+03 -0.14511602062E+04  0.15853308779E+04  0.10100000352E+00 0. -1.
</event>
<event>
 5   0  0.4758908E-07  0.3672677E+04  0.7818609E-02  0.8074044E-01
        2   -1    0    0  501    0  0.00000000000E+00  0.00000000000E+00  0.29848149819E+04  0.29848149819E+04  0.25500000920E-02 0.  1.
       -2   -1    0    0    0  501  0.00000000000E+00  0.00000000000E+00 -0.11297647251E+04  0.11297647251E+04  0.25500000920E-02 0. -1.
    10030    2    1    2    0    0  0.00000000000E+00  0.00000000000E+00  0.18550502567E+04  0.41145797070E+04  0.36726767772E+04 0.  0.
        2    1    3    3  502    0 -0.11702776437E+04 -0.12827143424E+04  0.15971297661E+04  0.23591798018E+04  0.25500000920E-02 0.  1.
       -2    1    3    3    0  502  0.11702776437E+04  0.12827143424E+04  0.25792049065E+03  0.17553999052E+04  0.25500000920E-02 0. -1.
</event>
<event>
 5   0  0.4793557E-07  0.3704392E+04  0.7818609E-02  0.8066989E-01
        2   -1    0    0  501    0  0.00000000000E+00  0.00000000000E+00  0.21293373009E+04  0.21293373009E+04  0.25500000920E-02 0.  1.
       -2   -1    0    0    0  501  0.00000000000E+00  0.00000000000E+00 -0.16111258539E+04  0.16111258539E+04  0.25500000920E-02 0. -1.
    10030    2    1    2    0    0  0.00000000000E+00  0.00000000000E+00  0.51821144694E+03  0.37404631548E+04  0.37043921916E+04 0.  0.
        3    1    3    3  502    0  0.30742323542E+02  0.14948185774E+04  0.13630043762E+04  0.20231679637E+04  0.10100000352E+00 0.  1.
       -3    1    3    3    0  502 -0.30742323542E+02 -0.14948185774E+04 -0.84479292921E+03  0.17172951911E+04  0.10100000352E+00 0. -1.
</event>
<event>
 5   0  0.4857514E-07  0.3692693E+04  0.7818609E-02  0.8069583E-01
        2   -1    0    0  501    0  0.00000000000E+00  0.00000000000E+00  0.21091710333E+04  0.21091710333E+04  0.25500000920E-02 0. -1.
       -2   -1    0    0    0  501  0.00000000000E+00  0.00000000000E+00 -0.16162726287E+04  0.16162726287E+04  0.25500000920E-02 0.  1.
    10030    2    1    2    0    0  0.00000000000E+00  0.00000000000E+00  0.49289840455E+03  0.37254436620E+04  0.36926930067E+04 0.  0.
        5    1    3    3  502    0 -0.18292654906E+04 -0.24951760044E+03  0.22384395177E+03  0.18597310216E+04  0.46999998093E+01 0. -1.
       -5    1    3    3    0  502  0.18292654906E+04  0.24951760044E+03  0.26905445277E+03  0.18657126404E+04  0.46999998093E+01 0.  1.
</event>
<event>
 5   0  0.4687817E-07  0.3701977E+04  0.7818609E-02  0.8067524E-01
       -2   -1    0    0    0  501  0.00000000000E+00  0.00000000000E+00  0.25078008782E+04  0.25078008782E+04  0.25500000920E-02 0. -1.
        2   -1    0    0  501    0  0.00000000000E+00  0.00000000000E+00 -0.13662006795E+04  0.13662006796E+04  0.25500000920E-02 0.  1.
    10030    2    1    2    0    0  0.00000000000E+00  0.00000000000E+00  0.11416001986E+04  0.38740015577E+04  0.37019774521E+04 0.  0.
        4    1    3    3  502    0 -0.77676886220E+03 -0.55067638363E+03  0.22318662778E+04  0.24264877992E+04  0.12699999809E+01 0. -1.
       -4    1    3    3    0  502  0.77676886220E+03  0.55067638363E+03 -0.10902660792E+04  0.14475137585E+04  0.12699999809E+01 0.  1.
</event>
<event>
 5   0  0.4687817E-07  0.3706908E+04  0.7818609E-02  0.8066433E-01
       -2   -1    0    0    0  501  0.00000000000E+00  0.00000000000E+00  0.14758829971E+04  0.14758829971E+04  0.25500000920E-02 0. -1.
        2   -1    0    0  501    0  0.00000000000E+00  0.00000000000E+00 -0.23276183694E+04  0.23276183694E+04  0.25500000920E-02 0.  1.
    10030    2    1    2    0    0  0.00000000000E+00  0.00000000000E+00 -0.85173537235E+03  0.38035013665E+04  0.37069083480E+04 0.  0.
        4    1    3    3  502    0  0.68685136736E+03  0.15546817065E+04  0.33264550351E+03  0.17318933724E+04  0.12699999809E+01 0. -1.
       -4    1    3    3    0  502 -0.68685136736E+03 -0.15546817065E+04 -0.11843808759E+04  0.20716079941E+04  0.12699999809E+01 0.  1.
</event>
<event>
 5   0  0.1496287E-07  0.3667300E+04  0.7818609E-02  0.8075247E-01
       -1   -1    0    0    0  501  0.00000000000E+00  0.00000000000E+00  0.13758833609E+04  0.13758833609E+04  0.50400001928E-02 0.  1.
        1   -1    0    0  501    0  0.00000000000E+00  0.00000000000E+00 -0.24437196432E+04  0.24437196432E+04  0.50400001928E-02 0. -1.
    10030    2    1    2    0    0  0.00000000000E+00  0.00000000000E+00 -0.10678362823E+04  0.38196030041E+04  0.36673004763E+04 0.  0.
        1    1    3    3  502    0 -0.59227727637E+03 -0.92340904524E+03  0.99638542368E+03  0.14819785928E+04  0.50400001928E-02 0.  1.
       -1    1    3    3    0  502  0.59227727637E+03  0.92340904524E+03 -0.20642217060E+04  0.23376244113E+04  0.50400001928E-02 0. -1.
</event>
<event>
 5   0  0.4758908E-07  0.3711290E+04  0.7818609E-02  0.8065464E-01
        2   -1    0    0  501    0  0.00000000000E+00  0.00000000000E+00  0.31186600271E+04  0.31186600271E+04  0.25500000920E-02 0.  1.
       -2   -1    0    0    0  501  0.00000000000E+00  0.00000000000E+00 -0.11041337458E+04  0.11041337459E+04  0.25500000920E-02 0. -1.
    10030    2    1    2    0    0  0.00000000000E+00  0.00000000000E+00  0.20145262812E+04  0.42227937729E+04  0.37112896830E+04 0.  0.
        2    1    3    3  502    0 -0.12285815014E+04  0.53985182649E+03 -0.45100147238E+03  0.14157170721E+04  0.25500000920E-02 0. -1.
       -2    1    3    3    0  502  0.12285815014E+04 -0.53985182649E+03  0.24655277536E+04  0.28070767008E+04  0.25500000920E-02 0.  1.
</event>
<event>
 5   0  0.1496000E-07  0.3700250E+04  0.7818609E-02  0.8067907E-01
       -1   -1    0    0    0  501  0.00000000000E+00  0.00000000000E+00  0.16052723016E+04  0.16052723016E+04  0.50400001928E-02 0.  1.
        1   -1    0    0  501    0  0.00000000000E+00  0.00000000000E+00 -0.21323247702E+04  0.21323247702E+04  0.50400001928E-02 0. -1.
    10030    2    1    2    0    0  0.00000000000E+00  0.00000000000E+00 -0.52705246858E+03  0.37375970718E+04  0.37002496627E+04 0.  0.
        5    1    3    3  502    0  0.66296350642E+03 -0.16430068492E+04 -0.80177199587E+03  0.19446985732E+04  0.46999998093E+01 0. -1.
       -5    1    3    3    0  502 -0.66296350642E+03  0.16430068492E+04  0.27471952729E+03  0.17928984985E+04  0.46999998093E+01 0.  1.
</event>
<event>
 5   0  0.1496287E-07  0.3610506E+04  0.7818609E-02  0.8088089E-01
        1   -1    0    0  501    0  0.00000000000E+00  0.00000000000E+00  0.18302701972E+04  0.18302701972E+04  0.50400001928E-02 0.  1.
       -1   -1    0    0    0  501  0.00000000000E+00  0.00000000000E+00 -0.17805779470E+04  0.17805779470E+04  0.50400001928E-02 0. -1.
    10030    2    1    2    0    0  0.00000000000E+00  0.00000000000E+00  0.49692250155E+02  0.36108481442E+04  0.36105061973E+04 0.  0.
        1    1    3    3  502    0 -0.35214525261E+03  0.14823404546E+04 -0.94354266781E+03  0.17920971704E+04  0.50400001928E-02 0. -1.
       -1    1    3    3    0  502  0.35214525261E+03 -0.14823404546E+04  0.99323491796E+03  0.18187509738E+04  0.50400001928E-02 0.  1.
</event>
<event>
 5   0  0.1496000E-07  0.3733572E+04  0.7818609E-02  0.8060562E-01
       -1   -1    0    0    0  501  0.00000000000E+00  0.00000000000E+00  0.25370050044E+04  0.25370050044E+04  0.50400001928E-02 0.  1.
        1   -1    0    0  501    0  0.00000000000E+00  0.00000000000E+00 -0.13736237460E+04  0.13736237461E+04  0.50400001928E-02 0. -1.
    10030    2    1    2    0    0  0.00000000000E+00  0.00000000000E+00  0.11633812584E+04  0.39106287505E+04  0.37335721865E+04 0.  0.
        5    1    3    3  502    0  0.75242948878E+03 -0.63856068449E+03 -0.10780559808E+04  0.14615528287E+04  0.46999998093E+01 0. -1.
       -5    1    3    3    0  502 -0.75242948878E+03  0.63856068449E+03  0.22414372392E+04  0.24490759218E+04  0.46999998093E+01 0.  1.
</event>
<event>
 5   0  0.4824268E-07  0.3689711E+04  0.7818609E-02  0.8070246E-01
       -2   -1    0    0    0  501  0.00000000000E+00  0.00000000000E+00  0.17427819488E+04  0.17427819488E+04  0.25500000920E-02 0.  1.
        2   -1    0    0  501    0  0.00000000000E+00  0.00000000000E+00 -0.19529077197E+04  0.19529077197E+04  0.25500000920E-02 0. -1.
    10030    2    1    2    0    0  0.00000000000E+00  0.00000000000E+00 -0.21012577084E+03  0.36956896685E+04  0.36897112741E+04 0.  0.
        1    1    3    3  502    0  0.12419788039E+04 -0.80337605203E+03 -0.12093772530E+04  0.19106328193E+04  0.50400001928E-02 0. -1.
       -1    1    3    3    0  502 -0.12419788039E+04  0.80337605203E+03  0.99925148214E+03  0.17850568492E+04  0.50400001928E-02 0.  1.
</event>
<event>
 5   0  0.4793557E-07  0.3681223E+04  0.7818609E-02  0.8072136E-01
        2   -1    0    0  501    0  0.00000000000E+00  0.00000000000E+00  0.29510725872E+04  0.29510725872E+04  0.25500000920E-02 0.  1.
       -2   -1    0    0    0  501  0.00000000000E+00  0.00000000000E+00 -0.11480062989E+04  0.11480062989E+04  0.25500000920E-02 0. -1.
    10030    2    1    2    0    0  0.00000000000E+00  0.00000000000E+00  0.18030662883E+04  0.40990788861E+04  0.36812225788E+04 0.  0.
        3    1    3    3  502    0 -0.10961496514E+04 -0.69979516963E+03  0.23519170757E+04  0.26875214007E+04  0.10100000352E+00 0.  1.
       -3    1    3    3    0  502  0.10961496514E+04  0.69979516963E+03 -0.54885078738E+03  0.14115574855E+04  0.10100000352E+00 0. -1.
</event>
<event>
 5   0  0.4857514E-07  0.3696650E+04  0.7818609E-02  0.8068705E-01
       -2   -1    0    0    0  501  0.00000000000E+00  0.00000000000E+00  0.15417822482E+04  0.15417822482E+04  0.25500000920E-02 0.  1.
        2   -1    0    0  501    0  0.00000000000E+00  0.00000000000E+00 -0.22158152383E+04  0.22158152383E+04  0.25500000920E-02 0. -1.
    10030    2    1    2    0    0  0.00000000000E+00  0.00000000000E+00 -0.67403299017E+03  0.37575974865E+04  0.36966496181E+04 0.  0.
        5    1    3    3  502    0 -0.14803849953E+04  0.10815216547E+04 -0.57552022116E+03  0.19215812340E+04  0.46999998093E+01 0.  1.
       -5    1    3    3    0  502  0.14803849953E+04 -0.10815216547E+04 -0.98512769009E+02  0.18360162525E+04  0.46999998093E+01 0. -1.
</event>
<event>
 5   0  0.1496000E-07  0.3775870E+04  0.7818609E-02  0.8051353E-01
        1   -1    0    0  501    0  0.00000000000E+00  0.00000000000E+00  0.21819215087E+04  0.21819215087E+04  0.50400001928E-02 0.  1.
       -1   -1    0    0    0  501  0.00000000000E+00  0.00000000000E+00 -0.16335598761E+04  0.16335598761E+04  0.50400001928E-02 0. -1.
    10030    2    1    2    0    0  0.00000000000E+00  0.00000000000E+00  0.54836163262E+03  0.38154813848E+04  0.37758704583E+04 0.  0.
        5    1    3    3  502    0  0.14527314190E+04  0.73475999423E+02 -0.94196041577E+03  0.17329566680E+04  0.46999998093E+01 0. -1.
       -5    1    3    3    0  502 -0.14527314190E+04 -0.73475999423E+02  0.14903220484E+04  0.20825247168E+04  0.46999998093E+01 0.  1.
</event>
<event>
 5   0  0.4793557E-07  0.3695130E+04  0.7818609E-02  0.8069042E-01
       -2   -1    0    0    0  501  0.00000000000E+00  0.00000000000E+00  0.16196799111E+04  0.16196799111E+04  0.25500000920E-02 0. -1.
        2   -1    0    0  501    0  0.00000000000E+00  0.00000000000E+00 -0.21075129375E+04  0.21075129375E+04  0.25500000920E-02 0.  1.
    10030    2    1    2    0    0  0.00000000000E+00  0.00000000000E+00 -0.48783302641E+03  0.37271928486E+04  0.36951299665E+04 0.  0.
        3    1    3    3  502    0 -0.13952591017E+04  0.11912460597E+04 -0.46417154180E+03  0.18924244677E+04  0.10100000352E+00 0.  1.
       -3    1    3    3    0  502  0.13952591017E+04 -0.11912460597E+04 -0.23661484612E+02  0.18347683809E+04  0.10100000352E+00 0. -1.
</event>
<event>
 5   0  0.4687817E-07  0.3310699E+04  0.7818609E-02  0.8160178E-01
       -2   -1    0    0    0  501  0.00000000000E+00  0.00000000000E+00  0.24478137302E+04  0.24478137302E+04  0.25500000920E-02 0. -1.
        2   -1    0    0  501    0  0.00000000000E+00  0.00000000000E+00 -0.11194403963E+04  0.11194403963E+04  0.25500000920E-02 0.  1.
    10030    2    1    2    0    0  0.00000000000E+00  0.00000000000E+00  0.13283733339E+04  0.35672541266E+04  0.33106987615E+04 0.  0.
        4    1    3    3  502    0 -0.20259504494E+03 -0.13412612497E+04 -0.35809991851E+03  0.14029482017E+04  0.12699999809E+01 0.  1.
       -4    1    3    3    0  502  0.20259504494E+03  0.13412612497E+04  0.16864732524E+04  0.21643059248E+04  0.12699999809E+01 0. -1.
</event>
<event>
 5   0  0.4857514E-07  0.3702208E+04  0.7818609E-02  0.8067473E-01
       -2   -1    0    0    0  501  0.00000000000E+00  0.00000000000E+00  0.11906650357E+04  0.11906650357E+04  0.25500000920E-02 0. -1.
        2   -1    0    0  501    0  0.00000000000E+00  0.00000000000E+00 -0.28778763126E+04  0.28778763126E+04  0.25500000920E-02 0.  1.
    10030    2    1    2    0    0  0.00000000000E+00  0.00000000000E+00 -0.16872112769E+04  0.40685413483E+04  0.37022083694E+04 0.  0.
        5    1    3    3  502    0  0.12251971333E+04  0.20745434684E+03 -0.23513789723E+04  0.26595395246E+04  0.46999998093E+01 0.  1.
       -5    1    3    3    0  502 -0.12251971333E+04 -0.20745434684E+03  0.66416769547E+03  0.14090018237E+04  0.46999998093E+01 0. -1.
</event>
<event>
 5   0  0.1496000E-07  0.3690741E+04  0.7818609E-02  0.8070017E-01
        1   -1    0    0  501    0  0.00000000000E+00  0.00000000000E+00  0.95785316912E+03  0.95785316913E+03  0.50400001928E-02 0.  1.
       -1   -1    0    0    0  501  0.00000000000E+00  0.00000000000E+00 -0.35552349417E+04  0.35552349417E+04  0.50400001928E-02 0. -1.
    10030    2    1    2    0    0  0.00000000000E+00  0.00000000000E+00 -0.25973817725E+04  0.45130881108E+04  0.36907414192E+04 0.  0.
        5    1    3    3  502    0 -0.14357293019E+04 -0.10520826130E+02 -0.27162801011E+04  0.30723979225E+04  0.46999998093E+01 0. -1.
       -5    1    3    3    0  502  0.14357293019E+04  0.10520826130E+02  0.11889832857E+03  0.14406901883E+04  0.46999998093E+01 0.  1.
</event>
<event>
 5   0  0.4793557E-07  0.3713067E+04  0.7818609E-02  0.8065072E-01
        2   -1    0    0  501    0  0.00000000000E+00  0.00000000000E+00  0.22998630120E+04  0.22998630120E+04  0.25500000920E-02 0. -1.
       -2   -1    0    0    0  501  0.00000000000E+00  0.00000000000E+00 -0.14986613120E+04  0.14986613120E+04  0.25500000920E-02 0.  1.
    10030    2    1    2    0    0  0.00000000000E+00  0.00000000000E+00  0.80120170001E+03  0.37985243240E+04  0.37130665057E+04 0.  0.
        3    1    3    3  502    0 -0.67961979285E+03  0.13000518971E+04 -0.76343504782E+03  0.16537385163E+04  0.10100000352E+00 0.  1.
       -3    1    3    3    0  502  0.67961979285E+03 -0.13000518971E+04  0.15646367478E+04  0.21447858077E+04  0.10100000352E+00 0. -1.
</event>
<event>
 5   0  0.4824268E-07  0.3680354E+04  0.7818609E-02  0.8072330E-01
       -2   -1    0    0    0  501  0.00000000000E+00  0.00000000000E+00  0.16721678211E+04  0.16721678211E+04  0.25500000920E-02 0.  1.
        2   -1    0    0  501    0  0.00000000000E+00  0.00000000000E+00 -0.20250667382E+04  0.20250667382E+04  0.25500000920E-02 0. -1.
    10030    2    1    2    0    0  0.00000000000E+00  0.00000000000E+00 -0.35289891706E+03  0.36972345593E+04  0.36803540239E+04 0.  0.
        1    1    3    3  502    0  0.11372954571E+04  0.13844675575E+04 -0.59796911409E+03  0.18888510889E+04  0.50400001928E-02 0. -1.
       -1    1    3    3    0  502 -0.11372954571E+04 -0.13844675575E+04  0.24507019703E+03  0.18083834704E+04  0.50400001928E-02 0.  1.
</event>
<event>
 5   0  0.4687817E-07  0.3716464E+04  0.7818609E-02  0.8064323E-01
       -2   -1    0    0    0  501  0.00000000000E+00  0.00000000000E+00  0.17799031507E+04  0.17799031507E+04  0.25500000920E-02 0. -1.
        2   -1    0    0  501    0  0.00000000000E+00  0.00000000000E+00 -0.19400084061E+04  0.19400084061E+04  0.25500000920E-02 0.  1.
    10030    2    1    2    0    0  0.00000000000E+00  0.00000000000E+00 -0.16010525536E+03  0.37199115568E+04  0.37164644890E+04 0.  0.
        4    1    3    3  502    0 -0.38831704060E+03  0.16118448739E+03 -0.18917742544E+04  0.19379324048E+04  0.12699999809E+01 0.  1.
       -4    1    3    3    0  502  0.38831704060E+03 -0.16118448739E+03  0.17316689991E+04  0.17819791520E+04  0.12699999809E+01 0. -1.
</event>
<event>
 5   0  0.4824268E-07  0.3785666E+04  0.7818609E-02  0.8049238E-01
       -2   -1    0    0    0  501  0.00000000000E+00  0.00000000000E+00  0.25197244837E+04  0.25197244837E+04  0.25500000920E-02 0.  1.
        2   -1    0    0  501    0  0.00000000000E+00  0.00000000000E+00 -0.14219079084E+04  0.14219079084E+04  0.25500000920E-02 0. -1.
    10030    2    1    2    0    0  0.00000000000E+00  0.00000000000E+00  0.10978165753E+04  0.39416323922E+04  0.37856656854E+04 0.  0.
        1    1    3    3  502    0  0.43550551913E+02  0.15027865349E+04 -0.64849449419E+03  0.16373176629E+04  0.50400001928E-02 0. -1.
       -1    1    3    3    0  502 -0.43550551913E+02 -0.15027865349E+04  0.17463110695E+04  0.23043147293E+04  0.50400001928E-02 0.  1.
</event>
<event>
 5   0  0.4793557E-07  0.3688020E+04  0.7818609E-02  0.8070622E-01
        2   -1    0    0  501    0  0.00000000000E+00  0.00000000000E+00  0.22303048968E+04  0.22303048968E+04  0.25500000920E-02 0.  1.
       -2   -1    0    0    0  501  0.00000000000E+00  0.00000000000E+00 -0.15246222493E+04  0.15246222493E+04  0.25500000920E-02 0. -1.
    10030    2    1    2    0    0  0.00000000000E+00  0.00000000000E+00  0.70568264748E+03  0.37549271461E+04  0.36880197767E+04 0.  0.
        3    1    3    3  502    0  0.11973317942E+04  0.57362989414E+03  0.16557914897E+04  0.21223336562E+04  0.10100000352E+00 0.  1.
       -3    1    3    3    0  502 -0.11973317942E+04 -0.57362989414E+03 -0.95010884219E+03  0.16325934899E+04  0.10100000352E+00 0. -1.
</event>
<event>
 5   0  0.4758908E-07  0.3681460E+04  0.7818609E-02  0.8072083E-01
       -2   -1    0    0    0  501  0.00000000000E+00  0.00000000000E+00  0.32733925450E+04  0.32733925450E+04  0.25500000920E-02 0. -1.
        2   -1    0    0  501    0  0.00000000000E+00  0.00000000000E+00 -0.10350993453E+04  0.10350993453E+04  0.25500000920E-02 0.  1.
    10030    2    1    2    0    0  0.00000000000E+00  0.00000000000E+00  0.22382931997E+04  0.43084918904E+04  0.36814597542E+04 0.  0.
        2    1    3    3  502    0  0.13247962296E+04 -0.12119956320E+04  0.64481535657E+03  0.19078273785E+04  0.25500000920E-02 0. -1.
       -2    1    3    3    0  502 -0.13247962296E+04  0.12119956320E+04  0.15934778431E+04  0.24006645119E+04  0.25500000920E-02 0.  1.
</event>
<event>
 5   0  0.4824268E-07  0.3618627E+04  0.7818609E-02  0.8086238E-01
        2   -1    0    0  501    0  0.00000000000E+00  0.00000000000E+00  0.16577652352E+04  0.16577652352E+04  0.25500000920E-02 0.  1.
       -2   -1    0    0    0  501  0.00000000000E+00  0.00000000000E+00 -0.19747163119E+04  0.19747163119E+04  0.25500000920E-02 0. -1.
    10030    2    1    2    0    0  0.00000000000E+00  0.00000000000E+00 -0.31695107673E+03  0.36324815471E+04  0.36186273924E+04 0.  0.
        1    1    3    3  502    0  0.11879996965E+04 -0.40458361889E+03  0.11498119127E+04  0.17020865484E+04  0.50400001928E-02 0.  1.
       -1    1    3    3    0  502 -0.11879996965E+04  0.40458361889E+03 -0.14667629894E+04  0.19303949987E+04  0.50400001928E-02 0. -1.
</event>
<event>
 5   0  0.4758908E-07  0.3732623E+04  0.7818609E-02  0.8060770E-01
        2   -1    0    0  501    0  0.00000000000E+00  0.00000000000E+00  0.18088388907E+04  0.18088388907E+04  0.25500000920E-02 0.  1.
       -2   -1    0    0    0  501  0.00000000000E+00  0.00000000000E+00 -0.19256098934E+04  0.19256098934E+04  0.25500000920E-02 0. -1.
    10030    2    1    2    0    0  0.00000000000E+00  0.00000000000E+00 -0.11677100274E+03  0.37344487841E+04  0.37326227044E+04 0.  0.
        2    1    3    3  502    0 -0.17682103876E+04  0.48879504825E+03  0.28475384526E+03  0.18564949034E+04  0.25500000920E-02 0. -1.
       -2    1    3    3    0  502  0.17682103876E+04 -0.48879504825E+03 -0.40152484800E+03  0.18779538806E+04  0.25500000920E-02 0.  1.
</event>
<event>
 5   0  0.1496287E-07  0.3699295E+04  0.7818609E-02  0.8068118E-01
        1   -1    0    0  501    0  0.00000000000E+00  0.00000000000E+00  0.23579291474E+04  0.23579291474E+04  0.50400001928E-02 0. -1.
       -1   -1    0    0    0  501  0.00000000000E+00  0.00000000000E+00 -0.14509325565E+04  0.14509325565E+04  0.50400001928E-02 0.  1.
    10030    2    1    2    0    0  0.00000000000E+00  0.00000000000E+00  0.90699659095E+03  0.38088617039E+04  0.36992951576E+04 0.  0.
        1    1    3    3  502    0  0.88730632449E+03 -0.15446943580E+04 -0.59043745190E+02  0.17823802448E+04  0.50400001928E-02 0.  1.
       -1    1    3    3    0  502 -0.88730632449E+03  0.15446943580E+04  0.96604033614E+03  0.20264814591E+04  0.50400001928E-02 0. -1.
</event>
<event>
 5   0  0.1496000E-07  0.3167042E+04  0.7818609E-02  0.8197576E-01
       -1   -1    0    0    0  501  0.00000000000E+00  0.00000000000E+00  0.12711435257E+04  0.12711435257E+04  0.50400001928E-02 0. -1.
        1   -1    0    0  501    0  0.00000000000E+00  0.00000000000E+00 -0.19726634811E+04  0.19726634811E+04  0.50400001928E-02 0.  1.
    10030    2    1    2    0    0  0.00000000000E+00  0.00000000000E+00 -0.70151995535E+03  0.32438070068E+04  0.31670417821E+04 0.  0.
        2    1    3    3  502    0  0.14680557461E+04 -0.30356583388E+03 -0.87322067808E+03  0.17348931500E+04  0.25500000920E-02 0.  1.
       -2    1    3    3    0  502 -0.14680557461E+04  0.30356583388E+03  0.17170072272E+03  0.15089138568E+04  0.25500000920E-02 0. -1.
</event>
<event>
 5   0  0.1522273E-07  0.3747371E+04  0.7818609E-02  0.8057544E-01
       -1   -1    0    0    0  501  0.00000000000E+00  0.00000000000E+00  0.19046055035E+04  0.19046055035E+04  0.50400001928E-02 0. -1.
        1   -1    0    0  501    0  0.00000000000E+00  0.00000000000E+00 -0.18432676743E+04  0.18432676743E+04  0.50400001928E-02 0.  1.
    10030    2    1    2    0    0  0.00000000000E+00  0.00000000000E+00  0.61337829248E+02  0.37478731778E+04  0.37473712156E+04 0.  0.
        4    1    3    3  502    0 -0.98454819523E+03 -0.17120554811E+02 -0.15636173464E+04  0.18478444417E+04  0.12699999809E+01 0.  1.
       -4    1    3    3    0  502  0.98454819523E+03  0.17120554811E+02  0.16249551756E+04  0.19000287360E+04  0.12699999809E+01 0. -1.
</event>
<event>
 5   0  0.1496000E-07  0.3694770E+04  0.7818609E-02  0.8069122E-01
        3   -1    0    0  501    0  0.00000000000E+00  0.00000000000E+00  0.14528091477E+04  0.14528091512E+04  0.10100000352E+00 0. -1.
       -3   -1    0    0    0  501  0.00000000000E+00  0.00000000000E+00 -0.23491255173E+04  0.23491255194E+04  0.10100000352E+00 0.  1.
    10030    2    1    2    0    0  0.00000000000E+00  0.00000000000E+00 -0.89631636954E+03  0.38019346706E+04  0.36947698447E+04 0.  0.
        4    1    3    3  502    0 -0.11817951785E+04 -0.11537302589E+04  0.40355427823E+03  0.17001738213E+04  0.12699999809E+01 0. -1.
       -4    1    3    3    0  502  0.11817951785E+04  0.11537302589E+04 -0.12998706478E+04  0.21017608494E+04  0.12699999809E+01 0.  1.
</event>
<event>
 5   0  0.4793557E-07  0.3691443E+04  0.7818609E-02  0.8069861E-01
       -2   -1    0    0    0  501  0.00000000000E+00  0.00000000000E+00  0.19460370939E+04  0.19460370939E+04  0.25500000920E-02 0.  1.
        2   -1    0    0  501    0  0.00000000000E+00  0.00000000000E+00 -0.17505770885E+04  0.17505770885E+04  0.25500000920E-02 0. -1.
    10030    2    1    2    0    0  0.00000000000E+00  0.00000000000E+00  0.19546000536E+03  0.36966141824E+04  0.36914430511E+04 0.  0.
        3    1    3    3  502    0  0.71617183833E+03 -0.35656895488E+03 -0.15679233571E+04  0.17602349802E+04  0.10100000352E+00 0. -1.
       -3    1    3    3    0  502 -0.71617183833E+03  0.35656895488E+03  0.17633833624E+04  0.19363792022E+04  0.10100000352E+00 0.  1.
</event>
<event>
 5   0  0.4793557E-07  0.3685283E+04  0.7818609E-02  0.8071231E-01
        2   -1    0    0  501    0  0.00000000000E+00  0.00000000000E+00  0.32876794927E+04  0.32876794927E+04  0.25500000920E-02 0. -1.
       -2   -1    0    0    0  501  0.00000000000E+00  0.00000000000E+00 -0.10327426785E+04  0.10327426785E+04  0.25500000920E-02 0.  1.
    10030    2    1    2    0    0  0.00000000000E+00  0.00000000000E+00  0.22549368141E+04  0.43204221712E+04  0.36852825810E+04 0.  0.
        3    1    3    3  502    0 -0.47573868359E+03 -0.15757735090E+04  0.15651664352E+03  0.16534469803E+04  0.10100000352E+00 0.  1.
       -3    1    3    3    0  502  0.47573868359E+03  0.15757735090E+04  0.20984201706E+04  0.26669751910E+04  0.10100000352E+00 0. -1.
</event>
<event>
 5   0  0.1496000E-07  0.3685157E+04  0.7818609E-02  0.8071259E-01
       -1   -1    0    0    0  501  0.00000000000E+00  0.00000000000E+00  0.13701482805E+04  0.13701482805E+04  0.50400001928E-02 0. -1.
        1   -1    0    0  501    0  0.00000000000E+00  0.00000000000E+00 -0.24779032018E+04  0.24779032018E+04  0.50400001928E-02 0.  1.
    10030    2    1    2    0    0  0.00000000000E+00  0.00000000000E+00 -0.11077549213E+04  0.38480514823E+04  0.36851566107E+04 0.  0.
        3    1    3    3  502    0  0.17200433578E+04  0.65764517928E+03 -0.48743737351E+03  0.19048993511E+04  0.10100000352E+00 0. -1.
       -3    1    3    3    0  502 -0.17200433578E+04 -0.65764517928E+03 -0.62031754777E+03  0.19431521312E+04  0.10100000352E+00 0.  1.
</event>
<event>
 5   0  0.1522273E-07  0.3646151E+04  0.7818609E-02  0.8080001E-01
        1   -1    0    0  501    0  0.00000000000E+00  0.00000000000E+00  0.94030080700E+03  0.94030080701E+03  0.50400001928E-02 0.  1.
       -1   -1    0    0    0  501  0.00000000000E+00  0.00000000000E+00 -0.35346173322E+04  0.35346173322E+04  0.50400001928E-02 0. -1.
    10030    2    1    2    0    0  0.00000000000E+00  0.00000000000E+00 -0.25943165252E+04  0.44749181392E+04  0.36461505893E+04 0.  0.
        4    1    3    3  502    0  0.85374712289E+03 -0.72343784157E+03 -0.30635125223E+04  0.32614961364E+04  0.12699999809E+01 0. -1.
       -4    1    3    3    0  502 -0.85374712289E+03  0.72343784157E+03  0.46919599707E+03  0.12134220029E+04  0.12699999809E+01 0.  1.
</event>
<event>
 5   0  0.1496000E-07  0.3714842E+04  0.7818609E-02  0.8064681E-01
        3   -1    0    0  501    0  0.00000000000E+00  0.00000000000E+00  0.26954141523E+04  0.26954141542E+04  0.10100000352E+00 0.  1.
       -3   -1    0    0    0  501  0.00000000000E+00  0.00000000000E+00 -0.12799564330E+04  0.12799564370E+04  0.10100000352E+00 0. -1.
    10030    2    1    2    0    0  0.00000000000E+00  0.00000000000E+00  0.14154577194E+04  0.39753705912E+04  0.37148419592E+04 0.  0.
        2    1    3    3  502    0  0.96240002878E+03  0.15574746546E+04  0.10428554324E+04  0.21070093896E+04  0.25500000920E-02 0.  1.
       -2    1    3    3    0  502 -0.96240002878E+03 -0.15574746546E+04  0.37260228698E+03  0.18683612015E+04  0.25500000920E-02 0. -1.
</event>
<event>
 5   0  0.4687817E-07  0.3698229E+04  0.7818609E-02  0.8068354E-01
        2   -1    0    0  501    0  0.00000000000E+00  0.00000000000E+00  0.18966380533E+04  0.18966380533E+04  0.25500000920E-02 0. -1.
       -2   -1    0    0    0  501  0.00000000000E+00  0.00000000000E+00 -0.18027816691E+04  0.18027816691E+04  0.25500000920E-02 0.  1.
    10030    2    1    2    0    0  0.00000000000E+00  0.00000000000E+00  0.93856384198E+02  0.36994197225E+04  0.36982289359E+04 0.  0.
        4    1    3    3  502    0  0.10264396400E+04  0.78695127002E+02 -0.14896169981E+04  0.18107268351E+04  0.12699999809E+01 0.  1.
       -4    1    3    3    0  502 -0.10264396400E+04 -0.78695127002E+02  0.15834733823E+04  0.18886928874E+04  0.12699999809E+01 0. -1.
</event>
<event>
 5   0  0.4687817E-07  0.3751457E+04  0.7818609E-02  0.8056653E-01
        2   -1    0    0  501    0  0.00000000000E+00  0.00000000000E+00  0.20738839064E+04  0.20738839064E+04  0.25500000920E-02 0.  1.
       -2   -1    0    0    0  501  0.00000000000E+00  0.00000000000E+00 -0.16965061373E+04  0.16965061373E+04  0.25500000920E-02 0. -1.
    10030    2    1    2    0    0  0.00000000000E+00  0.00000000000E+00  0.37737776904E+03  0.37703900437E+04  0.37514566639E+04 0.  0.
        4    1    3    3  502    0 -0.15791798291E+04  0.44266465171E+03  0.11035544888E+04  0.19767637818E+04  0.12699999809E+01 0.  1.
       -4    1    3    3    0  502  0.15791798291E+04 -0.44266465171E+03 -0.72617671972E+03  0.17936262619E+04  0.12699999809E+01 0. -1.
</event>
<event>
 5   0  0.4793557E-07  0.3680978E+04  0.7818609E-02  0.8072191E-01
       -2   -1    0    0    0  501  0.00000000000E+00  0.00000000000E+00  0.19812627014E+04  0.19812627014E+04  0.25500000920E-02 0.  1.
        2   -1    0    0  501    0  0.00000000000E+00  0.00000000000E+00 -0.17097172666E+04  0.17097172666E+04  0.25500000920E-02 0. -1.
    10030    2    1    2    0    0  0.00000000000E+00  0.00000000000E+00  0.27154543473E+03  0.36909799680E+04  0.36809776149E+04 0.  0.
        3    1    3    3  502    0 -0.38556100110E+03 -0.13780877588E+04  0.12963355443E+04  0.19308726033E+04  0.10100000352E+00 0.  1.
       -3    1    3    3    0  502  0.38556100110E+03  0.13780877588E+04 -0.10247901096E+04  0.17601073647E+04  0.10100000352E+00 0. -1.
</event>
<event>
 5   0  0.1496287E-07  0.3708049E+04  0.7818609E-02  0.8066180E-01
        1   -1    0    0  501    0  0.00000000000E+00  0.00000000000E+00  0.26360158928E+04  0.26360158928E+04  0.50400001928E-02 0. -1.
       -1   -1    0    0    0  501  0.00000000000E+00  0.00000000000E+00 -0.13040161826E+04  0.13040161826E+04  0.50400001928E-02 0.  1.
    10030    2    1    2    0    0  0.00000000000E+00  0.00000000000E+00  0.13319997101E+04  0.39400320754E+04  0.37080492887E+04 0.  0.
        1    1    3    3  502    0  0.11511107158E+04 -0.55798827406E+03 -0.75997276371E+03  0.14879399839E+04  0.50400001928E-02 0.  1.
       -1    1    3    3    0  502 -0.11511107158E+04  0.55798827406E+03  0.20919724739E+04  0.24520920915E+04  0.50400001928E-02 0. -1.
</event>
<event>
 5   0  0.4687817E-07  0.3133045E+04  0.7818609E-02  0.8206727E-01
       -2   -1    0    0    0  501  0.00000000000E+00  0.00000000000E+00  0.10050880013E+04  0.10050880013E+04  0.25500000920E-02 0. -1.
        2   -1    0    0  501    0  0.00000000000E+00  0.00000000000E+00 -0.24415701660E+04  0.24415701660E+04  0.25500000920E-02 0.  1.
    10030    2    1    2    0    0  0.00000000000E+00  0.00000000000E+00 -0.14364821646E+04  0.34466581673E+04  0.31330450863E+04 0.  0.
        4    1    3    3  502    0 -0.35585007755E+03 -0.33622055921E+03 -0.23552518515E+04  0.24055948202E+04  0.12699999809E+01 0.  1.
       -4    1    3    3    0  502  0.35585007755E+03  0.33622055921E+03  0.91876968688E+03  0.10410633470E+04  0.12699999809E+01 0. -1.
</event>
<event>
 5   0  0.1522273E-07  0.3719192E+04  0.7818609E-02  0.8063722E-01
       -1   -1    0    0    0  501  0.00000000000E+00  0.00000000000E+00  0.24680935814E+04  0.24680935814E+04  0.50400001928E-02 0. -1.
        1   -1    0    0  501    0  0.00000000000E+00  0.00000000000E+00 -0.14011210936E+04  0.14011210936E+04  0.50400001928E-02 0.  1.
    10030    2    1    2    0    0  0.00000000000E+00  0.00000000000E+00  0.10669724878E+04  0.38692146749E+04  0.37191923735E+04 0.  0.
        4    1    3    3  502    0 -0.18503696929E+03 -0.16245379174E+04  0.14550714293E+04  0.21887431559E+04  0.12699999809E+01 0. -1.
       -4    1    3    3    0  502  0.18503696929E+03  0.16245379174E+04 -0.38809894148E+03  0.16804715191E+04  0.12699999809E+01 0.  1.
</event>
<event>
 5   0  0.4824268E-07  0.3822378E+04  0.7818609E-02  0.8041370E-01
        2   -1    0    0  501    0  0.00000000000E+00  0.00000000000E+00  0.17791066965E+04  0.17791066965E+04  0.25500000920E-02 0.  1.
       -2   -1    0    0    0  501  0.00000000000E+00  0.00000000000E+00 -0.20530767207E+04  0.20530767207E+04  0.25500000920E-02 0. -1.
    10030    2    1    2    0    0  0.00000000000E+00  0.00000000000E+00 -0.27397002418E+03  0.38321834173E+04  0.38223775545E+04 0.  0.
        1    1    3    3  502    0  0.66980514330E+03  0.16707831971E+04  0.50691421157E+03  0.18700581380E+04  0.50400001928E-02 0.  1.
       -1    1    3    3    0  502 -0.66980514330E+03 -0.16707831971E+04 -0.78088423575E+03  0.19621252792E+04  0.50400001928E-02 0. -1.
</event>
<event>
 5   0  0.4857514E-07  0.3543933E+04  0.7818609E-02  0.8103457E-01
       -2   -1    0    0    0  501  0.00000000000E+00  0.00000000000E+00  0.17478440961E+04  0.17478440961E+04  0.25500000920E-02 0.  1.
        2   -1    0    0  501    0  0.00000000000E+00  0.00000000000E+00 -0.17964215684E+04  0.17964215684E+04  0.25500000920E-02 0. -1.
    10030    2    1    2    0    0  0.00000000000E+00  0.00000000000E+00 -0.48577472289E+02  0.35442656644E+04  0.35439327490E+04 0.  0.
        5    1    3    3  502    0  0.81532681997E+03 -0.12446925401E+04 -0.98657733682E+03  0.17853218965E+04  0.46999998093E+01 0.  1.
       -5    1    3    3    0  502 -0.81532681997E+03  0.12446925401E+04  0.93799986453E+03  0.17589437679E+04  0.46999998093E+01 0. -1.
</event>
<event>
 5   0  0.1496287E-07  0.3677172E+04  0.7818609E-02  0.8073040E-01
        1   -1    0    0  501    0  0.00000000000E+00  0.00000000000E+00  0.13239883728E+04  0.13239883728E+04  0.50400001928E-02 0.  1.
       -1   -1    0    0    0  501  0.00000000000E+00  0.00000000000E+00 -0.25531938448E+04  0.25531938448E+04  0.50400001928E-02 0. -1.
    10030    2    1    2    0    0  0.00000000000E+00  0.00000000000E+00 -0.12292054720E+04  0.38771822175E+04  0.36771722635E+04 0.  0.
        1    1    3    3  502    0 -0.12162744243E+04 -0.16694088645E+03 -0.20576981057E+04  0.23961039688E+04  0.50400001928E-02 0. -1.
       -1    1    3    3    0  502  0.12162744243E+04  0.16694088645E+03  0.82849263371E+03  0.14810782488E+04  0.50400001928E-02 0.  1.
</event>
<event>
 5   0  0.1496287E-07  0.3671082E+04  0.7818609E-02  0.8074401E-01
        1   -1    0    0  501    0  0.00000000000E+00  0.00000000000E+00  0.18348289677E+04  0.18348289677E+04  0.50400001928E-02 0.  1.
       -1   -1    0    0    0  501  0.00000000000E+00  0.00000000000E+00 -0.18362534524E+04  0.18362534524E+04  0.50400001928E-02 0. -1.
    10030    2    1    2    0    0  0.00000000000E+00  0.00000000000E+00 -0.14244847068E+01  0.36710824200E+04  0.36710821437E+04 0.  0.
        1    1    3    3  502    0 -0.45912341074E+03  0.63105050896E+03 -0.16620949168E+04  0.18361858739E+04  0.50400001928E-02 0. -1.
       -1    1    3    3    0  502  0.45912341074E+03 -0.63105050896E+03  0.16606704320E+04  0.18348965461E+04  0.50400001928E-02 0.  1.
</event>
<event>
 5   0  0.1522273E-07  0.3580349E+04  0.7818609E-02  0.8095008E-01
        1   -1    0    0  501    0  0.00000000000E+00  0.00000000000E+00  0.23179153140E+04  0.23179153140E+04  0.50400001928E-02 0. -1.
       -1   -1    0    0    0  501  0.00000000000E+00  0.00000000000E+00 -0.13825890891E+04  0.13825890891E+04  0.50400001928E-02 0.  1.
    10030    2    1    2    0    0  0.00000000000E+00  0.00000000000E+00  0.93532622490E+03  0.37005044032E+04  0.35803488225E+04 0.  0.
        4    1    3    3  502    0  0.95661206116E+03  0.92485092922E+03 -0.77013717026E+03  0.15373902402E+04  0.12699999809E+01 0.  1.
       -4    1    3    3    0  502 -0.95661206116E+03 -0.92485092922E+03  0.17054633952E+04  0.21631141629E+04  0.12699999809E+01 0. -1.
</event>
<event>
 5   0  0.4687817E-07  0.3716159E+04  0.7818609E-02  0.8064390E-01
        2   -1    0    0  501    0  0.00000000000E+00  0.00000000000E+00  0.11303114984E+04  0.11303114984E+04  0.25500000920E-02 0.  1.
       -2   -1    0    0    0  501  0.00000000000E+00  0.00000000000E+00 -0.30544319806E+04  0.30544319806E+04  0.25500000920E-02 0. -1.
    10030    2    1    2    0    0  0.00000000000E+00  0.00000000000E+00 -0.19241204822E+04  0.41847434791E+04  0.37161590864E+04 0.  0.
        4    1    3    3  502    0 -0.24643115855E+03  0.48686240514E+03  0.10380466628E+04  0.11727343282E+04  0.12699999809E+01 0.  1.
       -4    1    3    3    0  502  0.24643115855E+03 -0.48686240514E+03 -0.29621671450E+04  0.30120091509E+04  0.12699999809E+01 0. -1.
</event>
<event>
 5   0  0.1496287E-07  0.3726782E+04  0.7818609E-02  0.8062052E-01
        1   -1    0    0  501    0  0.00000000000E+00  0.00000000000E+00  0.18533015074E+04  0.18533015074E+04  0.50400001928E-02 0.  1.
       -1   -1    0    0    0  501  0.00000000000E+00  0.00000000000E+00 -0.18735351539E+04  0.18735351539E+04  0.50400001928E-02 0. -1.
    10030    2    1    2    0    0  0.00000000000E+00  0.00000000000E+00 -0.20233646535E+02  0.37268366613E+04  0.37267817349E+04 0.  0.
        1    1    3    3  502    0 -0.41805721258E+03  0.37960751589E+03  0.17656773023E+04  0.18537772345E+04  0.50400001928E-02 0.  1.
       -1    1    3    3    0  502  0.41805721258E+03 -0.37960751589E+03 -0.17859109488E+04  0.18730594268E+04  0.50400001928E-02 0. -1.
</event>
<event>
 5   0  0.4824268E-07  0.3688540E+04  0.7818609E-02  0.8070506E-01
        2   -1    0    0  501    0  0.00000000000E+00  0.00000000000E+00  0.12623808428E+04  0.12623808428E+04  0.25500000920E-02 0. -1.
       -2   -1    0    0    0  501  0.00000000000E+00  0.00000000000E+00 -0.26943780392E+04  0.26943780392E+04  0.25500000920E-02 0.  1.
    10030    2    1    2    0    0  0.00000000000E+00  0.00000000000E+00 -0.14319971964E+04  0.39567588820E+04  0.36885396677E+04 0.  0.
        1    1    3    3  502    0  0.21661371181E+03 -0.84341688797E+03  0.10279691433E+04  0.13472171713E+04  0.50400001928E-02 0. -1.
       -1    1    3    3    0  502 -0.21661371181E+03  0.84341688797E+03 -0.24599663398E+04  0.26095417107E+04  0.50400001928E-02 0.  1.
</event>
<event>
 5   0  0.1496000E-07  0.3716370E+04  0.7818609E-02  0.8064344E-01
       -3   -1    0    0    0  501  0.00000000000E+00  0.00000000000E+00  0.13139880142E+04  0.13139880181E+04  0.10100000352E+00 0. -1.
        3   -1    0    0  501    0  0.00000000000E+00  0.00000000000E+00 -0.26277645803E+04  0.26277645822E+04  0.10100000352E+00 0.  1.
    10030    2    1    2    0    0  0.00000000000E+00  0.00000000000E+00 -0.13137765661E+04  0.39417526003E+04  0.37163698278E+04 0.  0.
        1    1    3    3  502    0  0.21704000192E+03  0.32905342613E+03 -0.25829082061E+04  0.26128140617E+04  0.50400001928E-02 0.  1.
       -1    1    3    3    0  502 -0.21704000192E+03 -0.32905342613E+03  0.12691316401E+04  0.13289385387E+04  0.50400001928E-02 0. -1.
</event>
<event>
 5   0  0.4793557E-07  0.3546242E+04  0.7818609E-02  0.8102918E-01
       -2   -1    0    0    0  501  0.00000000000E+00  0.00000000000E+00  0.12014779610E+04  0.12014779610E+04  0.25500000920E-02 0.  1.
        2   -1    0    0  501    0  0.00000000000E+00  0.00000000000E+00 -0.26167420395E+04  0.26167420395E+04  0.25500000920E-02 0. -1.
    10030    2    1    2    0    0  0.00000000000E+00  0.00000000000E+00 -0.14152640786E+04  0.38182200005E+04  0.35462418925E+04 0.  0.
        3    1    3    3  502    0 -0.55518307306E+03 -0.16144599249E+04 -0.19211133173E+03  0.17180267366E+04  0.10100000352E+00 0.  1.
       -3    1    3    3    0  502  0.55518307306E+03  0.16144599249E+04 -0.12231527469E+04  0.21001932639E+04  0.10100000352E+00 0. -1.
</event>
<event>
 5   0  0.1496287E-07  0.3674559E+04  0.7818609E-02  0.8073623E-01
       -1   -1    0    0    0  501  0.00000000000E+00  0.00000000000E+00  0.11599647873E+04  0.11599647873E+04  0.50400001928E-02 0.  1.
        1   -1    0    0  501    0  0.00000000000E+00  0.00000000000E+00 -0.29100847950E+04  0.29100847950E+04  0.50400001928E-02 0. -1.
    10030    2    1    2    0    0  0.00000000000E+00  0.00000000000E+00 -0.17501200077E+04  0.40700495823E+04  0.36745589615E+04 0.  0.
        1    1    3    3  502    0  0.54779121645E+03 -0.11572891974E+04  0.58440825442E+03  0.14074539108E+04  0.50400001928E-02 0.  1.
       -1    1    3    3    0  502 -0.54779121645E+03  0.11572891974E+04 -0.23345282621E+04  0.26625956715E+04  0.50400001928E-02 0. -1.
</event>
<event>
 5   0  0.1496000E-07  0.3690418E+04  0.7818609E-02  0.8070089E-01
       -3   -1    0    0    0  501  0.00000000000E+00  0.00000000000E+00  0.23427942297E+04  0.23427942319E+04  0.10100000352E+00 0.  1.
        3   -1    0    0  501    0  0.00000000000E+00  0.00000000000E+00 -0.14533059410E+04  0.14533059445E+04  0.10100000352E+00 0. -1.
    10030    2    1    2    0    0  0.00000000000E+00  0.00000000000E+00  0.88948828866E+03  0.37961001764E+04  0.36904182871E+04 0.  0.
        1    1    3    3  502    0 -0.61362621314E+03  0.17052933433E+04  0.88066244055E+02  0.18144746291E+04  0.50400001928E-02 0.  1.
       -1    1    3    3    0  502  0.61362621314E+03 -0.17052933433E+04  0.80142204460E+03  0.19816255473E+04  0.50400001928E-02 0. -1.
</event>
<event>
 5   0  0.4857514E-07  0.3706555E+04  0.7818609E-02  0.8066511E-01
        2   -1    0    0  501    0  0.00000000000E+00  0.00000000000E+00  0.20019617333E+04  0.20019617333E+04  0.25500000920E-02 0.  1.
       -2   -1    0    0    0  501  0.00000000000E+00  0.00000000000E+00 -0.17156357921E+04  0.17156357921E+04  0.25500000920E-02 0. -1.
    10030    2    1    2    0    0  0.00000000000E+00  0.00000000000E+00  0.28632594115E+03  0.37175975254E+04  0.37065548446E+04 0.  0.
        5    1    3    3  502    0  0.20756255459E+03  0.18411772007E+04  0.10305112637E+03  0.18557093854E+04  0.46999998093E+01 0.  1.
       -5    1    3    3    0  502 -0.20756255459E+03 -0.18411772007E+04  0.18327481478E+03  0.18618881400E+04  0.46999998093E+01 0. -1.
</event>
<event>
 5   0  0.1496287E-07  0.3698638E+04  0.7818609E-02  0.8068264E-01
       -1   -1    0    0    0  501  0.00000000000E+00  0.00000000000E+00  0.16992412110E+04  0.16992412110E+04  0.50400001928E-02 0.  1.
        1   -1    0    0  501    0  0.00000000000E+00  0.00000000000E+00 -0.20126518853E+04  0.20126518853E+04  0.50400001928E-02 0. -1.
    10030    2    1    2    0    0  0.00000000000E+00  0.00000000000E+00 -0.31341067434E+03  0.37118930963E+04  0.36986381423E+04 0.  0.
        1    1    3    3  502    0  0.13084444633E+04 -0.80421279253E+01 -0.14682512313E+04  0.19666858589E+04  0.50400001928E-02 0. -1.
       -1    1    3    3    0  502 -0.13084444633E+04  0.80421279253E+01  0.11548405570E+04  0.17452072374E+04  0.50400001928E-02 0.  1.
</event>
<event>
 5   0  0.1496000E-07  0.3712526E+04  0.7818609E-02  0.8065192E-01
       -1   -1    0    0    0  501  0.00000000000E+00  0.00000000000E+00  0.16472886004E+04  0.16472886004E+04  0.50400001928E-02 0. -1.
        1   -1    0    0  501    0  0.00000000000E+00  0.00000000000E+00 -0.20917480932E+04  0.20917480932E+04  0.50400001928E-02 0.  1.
    10030    2    1    2    0    0  0.00000000000E+00  0.00000000000E+00 -0.44445949275E+03  0.37390366936E+04  0.37125262498E+04 0.  0.
        5    1    3    3  502    0 -0.71521008702E+03  0.16778018782E+04  0.12541053061E+03  0.18281943284E+04  0.46999998093E+01 0.  1.
       -5    1    3    3    0  502  0.71521008702E+03 -0.16778018782E+04 -0.56987002336E+03  0.19108423652E+04  0.46999998093E+01 0. -1.
</event>
<event>
 5   0  0.1496000E-07  0.3659657E+04  0.7818609E-02  0.8076962E-01
       -1   -1    0    0    0  501  0.00000000000E+00  0.00000000000E+00  0.15455845572E+04  0.15455845572E+04  0.50400001928E-02 0. -1.
        1   -1    0    0  501    0  0.00000000000E+00  0.00000000000E+00 -0.21663473501E+04  0.21663473502E+04  0.50400001928E-02 0.  1.
    10030    2    1    2    0    0  0.00000000000E+00  0.00000000000E+00 -0.62076279299E+03  0.37119319073E+04  0.36596573664E+04 0.  0.
        3    1    3    3  502    0  0.87744902405E+03  0.13535891402E+04 -0.11865212117E+04  0.20024866906E+04  0.10100000352E+00 0.  1.
       -3    1    3    3    0  502 -0.87744902405E+03 -0.13535891402E+04  0.56575841867E+03  0.17094452167E+04  0.10100000352E+00 0. -1.
</event>
<event>
 5   0  0.4687817E-07  0.3700787E+04  0.7818609E-02  0.8067787E-01
       -2   -1    0    0    0  501  0.00000000000E+00  0.00000000000E+00  0.16985078690E+04  0.16985078690E+04  0.25500000920E-02 0. -1.
        2   -1    0    0  501    0  0.00000000000E+00  0.00000000000E+00 -0.20158612481E+04  0.20158612481E+04  0.25500000920E-02 0.  1.
    10030    2    1    2    0    0  0.00000000000E+00  0.00000000000E+00 -0.31735337916E+03  0.37143691171E+04  0.37007870475E+04 0.  0.
        4    1    3    3  502    0  0.84021000965E+03 -0.11633912945E+04  0.10137381357E+04  0.17570141676E+04  0.12699999809E+01 0. -1.
       -4    1    3    3    0  502 -0.84021000965E+03  0.11633912945E+04 -0.13310915149E+04  0.19573549495E+04  0.12699999809E+01 0.  1.
</event>
<event>
 5   0  0.1496000E-07  0.3698737E+04  0.7818609E-02  0.8068242E-01
       -1   -1    0    0    0  501  0.00000000000E+00  0.00000000000E+00  0.14924292415E+04  0.14924292415E+04  0.50400001928E-02 0. -1.
        1   -1    0    0  501    0  0.00000000000E+00  0.00000000000E+00 -0.22916762284E+04  0.22916762284E+04  0.50400001928E-02 0.  1.
    10030    2    1    2    0    0  0.00000000000E+00  0.00000000000E+00 -0.79924698691E+03  0.37841054699E+04  0.36987374144E+04 0.  0.
        2    1    3    3  502    0  0.74605217880E+03  0.14741250147E+03  0.13250606385E+04  0.15277794326E+04  0.25500000920E-02 0. -1.
       -2    1    3    3    0  502 -0.74605217880E+03 -0.14741250147E+03 -0.21243076254E+04  0.22563260372E+04  0.25500000920E-02 0.  1.
</event>
<event>
 5   0  0.4824268E-07  0.3669215E+04  0.7818609E-02  0.8074819E-01
        2   -1    0    0  501    0  0.00000000000E+00  0.00000000000E+00  0.23156409515E+04  0.23156409515E+04  0.25500000920E-02 0. -1.
       -2   -1    0    0    0  501  0.00000000000E+00  0.00000000000E+00 -0.14534999656E+04  0.14534999656E+04  0.25500000920E-02 0.  1.
    10030    2    1    2    0    0  0.00000000000E+00  0.00000000000E+00  0.86214098593E+03  0.37691409171E+04  0.36692146535E+04 0.  0.
        1    1    3    3  502    0  0.16314680182E+04 -0.46254643583E+03  0.11502418879E+04  0.20490713751E+04  0.50400001928E-02 0.  1.
       -1    1    3    3    0  502 -0.16314680182E+04  0.46254643583E+03 -0.28810090194E+03  0.17200695420E+04  0.50400001928E-02 0. -1.
</event>
<event>
 5   0  0.4687817E-07  0.3674259E+04  0.7818609E-02  0.8073690E-01
        2   -1    0    0  501    0  0.00000000000E+00  0.00000000000E+00  0.31065081011E+04  0.31065081011E+04  0.25500000920E-02 0. -1.
       -2   -1    0    0    0  501  0.00000000000E+00  0.00000000000E+00 -0.10864431303E+04  0.10864431303E+04  0.25500000920E-02 0.  1.
    10030    2    1    2    0    0  0.00000000000E+00  0.00000000000E+00  0.20200649708E+04  0.41929512314E+04  0.36742587746E+04 0.  0.
        4    1    3    3  502    0  0.15806546136E+04  0.11341383836E+03 -0.50525243291E+02  0.15855239258E+04  0.12699999809E+01 0.  1.
       -4    1    3    3    0  502 -0.15806546136E+04 -0.11341383836E+03  0.20705902141E+04  0.26074273056E+04  0.12699999809E+01 0. -1.
</event>
<event>
 5   0  0.4687817E-07  0.3631004E+04  0.7818609E-02  0.8083426E-01
       -2   -1    0    0    0  501  0.00000000000E+00  0.00000000000E+00  0.14906042373E+04  0.14906042373E+04  0.25500000920E-02 0. -1.
        2   -1    0    0  501    0  0.00000000000E+00  0.00000000000E+00 -0.22112162514E+04  0.22112162514E+04  0.25500000920E-02 0.  1.
    10030    2    1    2    0    0  0.00000000000E+00  0.00000000000E+00 -0.72061201414E+03  0.37018204887E+04  0.36310044417E+04 0.  0.
        4    1    3    3  502    0 -0.11018118490E+03 -0.12561576850E+04  0.97129729951E+03  0.15916947195E+04  0.12699999809E+01 0. -1.
       -4    1    3    3    0  502  0.11018118490E+03  0.12561576850E+04 -0.16919093136E+04  0.21101257692E+04  0.12699999809E+01 0.  1.
</event>
<event>
 5   0  0.4758908E-07  0.3683159E+04  0.7818609E-02  0.8071704E-01
       -2   -1    0    0    0  501  0.00000000000E+00  0.00000000000E+00  0.17874397010E+04  0.17874397010E+04  0.25500000920E-02 0. -1.
        2   -1    0    0  501    0  0.00000000000E+00  0.00000000000E+00 -0.18973587134E+04  0.18973587134E+04  0.25500000920E-02 0.  1.
    10030    2    1    2    0    0  0.00000000000E+00  0.00000000000E+00 -0.10991901233E+03  0.36847984144E+04  0.36831585854E+04 0.  0.
        2    1    3    3  502    0  0.10609928498E+04 -0.15046387602E+04 -0.97057514102E+02  0.18436550076E+04  0.25500000920E-02 0.  1.
       -2    1    3    3    0  502 -0.10609928498E+04  0.15046387602E+04 -0.12861498228E+02  0.18411434068E+04  0.25500000920E-02 0. -1.
</event>
<event>
 5   0  0.4793557E-07  0.3682638E+04  0.7818609E-02  0.8071820E-01
       -2   -1    0    0    0  501  0.00000000000E+00  0.00000000000E+00  0.12032010164E+04  0.12032010164E+04  0.25500000920E-02 0. -1.
        2   -1    0    0  501    0  0.00000000000E+00  0.00000000000E+00 -0.28178626027E+04  0.28178626027E+04  0.25500000920E-02 0.  1.
    10030    2    1    2    0    0  0.00000000000E+00  0.00000000000E+00 -0.16146615863E+04  0.40210636192E+04  0.36826377219E+04 0.  0.
        3    1    3    3  502    0  0.13948086823E+04 -0.11664782656E+04 -0.11243429995E+04  0.21378283362E+04  0.10100000352E+00 0.  1.
       -3    1    3    3    0  502 -0.13948086823E+04  0.11664782656E+04 -0.49031858683E+03  0.18832352830E+04  0.10100000352E+00 0. -1.
</event>
<event>
 5   0  0.1496000E-07  0.3743756E+04  0.7818609E-02  0.8058334E-01
       -1   -1    0    0    0  501  0.00000000000E+00  0.00000000000E+00  0.14314062212E+04  0.14314062212E+04  0.50400001928E-02 0. -1.
        1   -1    0    0  501    0  0.00000000000E+00  0.00000000000E+00 -0.24478909748E+04  0.24478909748E+04  0.50400001928E-02 0.  1.
    10030    2    1    2    0    0  0.00000000000E+00  0.00000000000E+00 -0.10164847536E+04  0.38792971959E+04  0.37437555316E+04 0.  0.
        3    1    3    3  502    0  0.10794172536E+04  0.45719531716E+03 -0.20204471971E+04  0.23358887071E+04  0.10100000352E+00 0.  1.
       -3    1    3    3    0  502 -0.10794172536E+04 -0.45719531716E+03  0.10039624435E+04  0.15434084889E+04  0.10100000352E+00 0. -1.
</event>
<event>
 5   0  0.1522273E-07  0.3701724E+04  0.7818609E-02  0.8067580E-01
       -1   -1    0    0    0  501  0.00000000000E+00  0.00000000000E+00  0.23247835406E+04  0.23247835406E+04  0.50400001928E-02 0. -1.
        1   -1    0    0  501    0  0.00000000000E+00  0.00000000000E+00 -0.14735526823E+04  0.14735526823E+04  0.50400001928E-02 0.  1.
    10030    2    1    2    0    0  0.00000000000E+00  0.00000000000E+00  0.85123085831E+03  0.37983362228E+04  0.37017244748E+04 0.  0.
        4    1    3    3  502    0  0.13097543151E+04  0.25950020829E+03  0.17408218267E+04  0.21939140752E+04  0.12699999809E+01 0. -1.
       -4    1    3    3    0  502 -0.13097543151E+04 -0.25950020829E+03 -0.88959096837E+03  0.16044221477E+04  0.12699999809E+01 0.  1.
</event>
<event>
 5   0  0.4793557E-07  0.3711365E+04  0.7818609E-02  0.8065448E-01
       -2   -1    0    0    0  501  0.00000000000E+00  0.00000000000E+00  0.29387631908E+04  0.29387631908E+04  0.25500000920E-02 0. -1.
        2   -1    0    0  501    0  0.00000000000E+00  0.00000000000E+00 -0.11717710543E+04  0.11717710543E+04  0.25500000920E-02 0.  1.
    10030    2    1    2    0    0  0.00000000000E+00  0.00000000000E+00  0.17669921365E+04  0.41105342452E+04  0.37113650548E+04 0.  0.
        3    1    3    3  502    0  0.32471778874E+03  0.61869353780E+03 -0.10205081374E+04  0.12367943260E+04  0.10100000352E+00 0.  1.
       -3    1    3    3    0  502 -0.32471778874E+03 -0.61869353780E+03  0.27875002739E+04  0.28737399192E+04  0.10100000352E+00 0. -1.
</event>
<event>
 5   0  0.4758908E-07  0.3734055E+04  0.7818609E-02  0.8060456E-01
        2   -1    0    0  501    0  0.00000000000E+00  0.00000000000E+00  0.19920283185E+04  0.19920283185E+04  0.25500000920E-02 0.  1.
       -2   -1    0    0    0  501  0.00000000000E+00  0.00000000000E+00 -0.17498705632E+04  0.17498705632E+04  0.25500000920E-02 0. -1.
    10030    2    1    2    0    0  0.00000000000E+00  0.00000000000E+00  0.24215775530E+03  0.37418988817E+04  0.37340550160E+04 0.  0.
        2    1    3    3  502    0  0.10129497476E+04  0.14721740120E+04  0.66298113791E+03  0.19060187570E+04  0.25500000920E-02 0.  1.
       -2    1    3    3    0  502 -0.10129497476E+04 -0.14721740120E+04 -0.42082338260E+03  0.18358801247E+04  0.25500000920E-02 0. -1.
</event>
<event>
 5   0  0.1496287E-07  0.3661297E+04  0.7818609E-02  0.8076593E-01
        1   -1    0    0  501    0  0.00000000000E+00  0.00000000000E+00  0.17266340676E+04  0.17266340676E+04  0.50400001928E-02 0. -1.
       -1   -1    0    0    0  501  0.00000000000E+00  0.00000000000E+00 -0.19409289825E+04  0.19409289825E+04  0.50400001928E-02 0.  1.
    10030    2    1    2    0    0  0.00000000000E+00  0.00000000000E+00 -0.21429491486E+03  0.36675630501E+04  0.36612970947E+04 0.  0.
        1    1    3    3  502    0  0.84927673454E+03  0.16779703314E+03  0.15086373450E+04  0.17393715689E+04  0.50400001928E-02 0. -1.
       -1    1    3    3    0  502 -0.84927673454E+03 -0.16779703314E+03 -0.17229322598E+04  0.19281914812E+04  0.50400001928E-02 0.  1.
</event>
<event>
 5   0  0.4824268E-07  0.3767069E+04  0.7818609E-02  0.8053259E-01
       -2   -1    0    0    0  501  0.00000000000E+00  0.00000000000E+00  0.28567933836E+04  0.28567933836E+04  0.25500000920E-02 0.  1.
        2   -1    0    0  501    0  0.00000000000E+00  0.00000000000E+00 -0.12418478315E+04  0.12418478315E+04  0.25500000920E-02 0. -1.
    10030    2    1    2    0    0  0.00000000000E+00  0.00000000000E+00  0.16149455522E+04  0.40986412151E+04  0.37670692419E+04 0.  0.
        1    1    3    3  502    0  0.65988229582E+03 -0.17493035274E+04  0.55890114972E+03  0.19513784796E+04  0.50400001928E-02 0.  1.
       -1    1    3    3    0  502 -0.65988229582E+03  0.17493035274E+04  0.10560444024E+04  0.21472627355E+04  0.50400001928E-02 0. -1.
</event>
<event>
 5   0  0.1496000E-07  0.3675989E+04  0.7818609E-02  0.8073304E-01
        1   -1    0    0  501    0  0.00000000000E+00  0.00000000000E+00  0.24497119504E+04  0.24497119504E+04  0.50400001928E-02 0. -1.
       -1   -1    0    0    0  501  0.00000000000E+00  0.00000000000E+00 -0.13790286895E+04  0.13790286895E+04  0.50400001928E-02 0.  1.
    10030    2    1    2    0    0  0.00000000000E+00  0.00000000000E+00  0.10706832609E+04  0.38287406399E+04  0.36759886075E+04 0.  0.
        2    1    3    3  502    0 -0.15140195521E+04  0.35093193555E+02 -0.54944389847E+03  0.16110168633E+04  0.25500000920E-02 0.  1.
       -2    1    3    3    0  502  0.15140195521E+04 -0.35093193555E+02  0.16201271594E+04  0.22177237765E+04  0.25500000920E-02 0. -1.
</event>
<event>
 5   0  0.4857514E-07  0.3599187E+04  0.7818609E-02  0.8090678E-01
       -2   -1    0    0    0  501  0.00000000000E+00  0.00000000000E+00  0.26479730657E+04  0.26479730657E+04  0.25500000920E-02 0. -1.
        2   -1    0    0  501    0  0.00000000000E+00  0.00000000000E+00 -0.12230246573E+04  0.12230246573E+04  0.25500000920E-02 0.  1.
    10030    2    1    2    0    0  0.00000000000E+00  0.00000000000E+00  0.14249484084E+04  0.38709977229E+04  0.35991867699E+04 0.  0.
        5    1    3    3  502    0 -0.97324570883E+02  0.63981722378E+03 -0.10935274526E+04  0.12706937206E+04  0.46999998093E+01 0.  1.
       -5    1    3    3    0  502  0.97324570883E+02 -0.63981722378E+03  0.25184758610E+04  0.26003040023E+04  0.46999998093E+01 0. -1.
</event>
<event>
 5   0  0.1496000E-07  0.4018632E+04  0.7818609E-02  0.8000798E-01
        1   -1    0    0  501    0  0.00000000000E+00  0.00000000000E+00  0.20763234863E+04  0.20763234863E+04  0.50400001928E-02 0.  1.
       -1   -1    0    0    0  501  0.00000000000E+00  0.00000000000E+00 -0.19444708949E+04  0.19444708949E+04  0.50400001928E-02 0. -1.
    10030    2    1    2    0    0  0.00000000000E+00  0.00000000000E+00  0.13185259139E+03  0.40207943813E+04  0.40186319004E+04 0.  0.
        2    1    3    3  502    0 -0.19453642680E+04 -0.14990907074E+03 -0.41436922888E+03  0.19946470170E+04  0.25500000920E-02 0. -1.
       -2    1    3    3    0  502  0.19453642680E+04  0.14990907074E+03  0.54622182027E+03  0.20261473642E+04  0.25500000920E-02 0.  1.
</event>
<event>
 5   0  0.1496000E-07  0.3698366E+04  0.7818609E-02  0.8068324E-01
        1   -1    0    0  501    0  0.00000000000E+00  0.00000000000E+00  0.13676721971E+04  0.13676721972E+04  0.50400001928E-02 0. -1.
       -1   -1    0    0    0  501  0.00000000000E+00  0.00000000000E+00 -0.25002176625E+04  0.25002176625E+04  0.50400001928E-02 0.  1.
    10030    2    1    2    0    0  0.00000000000E+00  0.00000000000E+00 -0.11325454653E+04  0.38678898596E+04  0.36983662251E+04 0.  0.
        3    1    3    3  502    0  0.79631535745E+03  0.13792334995E+04  0.41652234878E+03  0.16461755896E+04  0.10100000352E+00 0. -1.
       -3    1    3    3    0  502 -0.79631535745E+03 -0.13792334995E+04 -0.15490678141E+04  0.22217142700E+04  0.10100000352E+00 0.  1.
</event>
<event>
 5   0  0.1496000E-07  0.3612863E+04  0.7818609E-02  0.8087552E-01
       -3   -1    0    0    0  501  0.00000000000E+00  0.00000000000E+00  0.21916587773E+04  0.21916587797E+04  0.10100000352E+00 0. -1.
        3   -1    0    0  501    0  0.00000000000E+00  0.00000000000E+00 -0.14889153354E+04  0.14889153388E+04  0.10100000352E+00 0.  1.
    10030    2    1    2    0    0  0.00000000000E+00  0.00000000000E+00  0.70274344193E+03  0.36805741185E+04  0.36128627841E+04 0.  0.
        2    1    3    3  502    0 -0.11429904052E+04 -0.65287185484E+03 -0.90895866328E+03  0.15996482666E+04  0.25500000920E-02 0.  1.
       -2    1    3    3    0  502  0.11429904052E+04  0.65287185484E+03  0.16117021052E+04  0.20809258519E+04  0.25500000920E-02 0. -1.
</event>
<event>
 5   0  0.4824268E-07  0.3698676E+04  0.7818609E-02  0.8068255E-01
       -2   -1    0    0    0  501  0.00000000000E+00  0.00000000000E+00  0.20246923402E+04  0.20246923402E+04  0.25500000920E-02 0. -1.
        2   -1    0    0  501    0  0.00000000000E+00  0.00000000000E+00 -0.16891710772E+04  0.16891710772E+04  0.25500000920E-02 0.  1.
    10030    2    1    2    0    0  0.00000000000E+00  0.00000000000E+00  0.33552126297E+03  0.37138634173E+04  0.36986763801E+04 0.  0.
        1    1    3    3  502    0  0.13811332972E+04  0.12170951094E+04 -0.96056925935E+01  0.18409079172E+04  0.50400001928E-02 0.  1.
       -1    1    3    3    0  502 -0.13811332972E+04 -0.12170951094E+04  0.34512695556E+03  0.18729555002E+04  0.50400001928E-02 0. -1.
</event>
<event>
 5   0  0.1496000E-07  0.3683559E+04  0.7818609E-02  0.8071615E-01
       -1   -1    0    0    0  501  0.00000000000E+00  0.00000000000E+00  0.14578813802E+04  0.14578813802E+04  0.50400001928E-02 0. -1.
        1   -1    0    0  501    0  0.00000000000E+00  0.00000000000E+00 -0.23267680984E+04  0.23267680984E+04  0.50400001928E-02 0.  1.
    10030    2    1    2    0    0  0.00000000000E+00  0.00000000000E+00 -0.86888671821E+03  0.37846494786E+04  0.36835590869E+04 0.  0.
        3    1    3    3  502    0 -0.71607496275E+03  0.15513256894E+04 -0.11409012038E+04  0.20545146176E+04  0.10100000352E+00 0.  1.
       -3    1    3    3    0  502  0.71607496275E+03 -0.15513256894E+04  0.27201448560E+03  0.17301348610E+04  0.10100000352E+00 0. -1.
</event>
<event>
 5   0  0.4758908E-07  0.4005799E+04  0.7818609E-02  0.8003378E-01
        2   -1    0    0  501    0  0.00000000000E+00  0.00000000000E+00  0.17542072874E+04  0.17542072874E+04  0.25500000920E-02 0.  1.
       -2   -1    0    0    0  501  0.00000000000E+00  0.00000000000E+00 -0.22868480296E+04  0.22868480296E+04  0.25500000920E-02 0. -1.
    10030    2    1    2    0    0  0.00000000000E+00  0.00000000000E+00 -0.53264074215E+03  0.40410553170E+04  0.40057985365E+04 0.  0.
        2    1    3    3  502    0  0.64745966910E+03 -0.34779018976E+03  0.16132592979E+04  0.17727852666E+04  0.25500000920E-02 0.  1.
       -2    1    3    3    0  502 -0.64745966910E+03  0.34779018976E+03 -0.21459000401E+04  0.22682700503E+04  0.25500000920E-02 0. -1.
</event>
<event>
 5   0  0.1522273E-07  0.3716054E+04  0.7818609E-02  0.8064413E-01
        1   -1    0    0  501    0  0.00000000000E+00  0.00000000000E+00  0.16970062202E+04  0.16970062202E+04  0.50400001928E-02 0.  1.
       -1   -1    0    0    0  501  0.00000000000E+00  0.00000000000E+00 -0.20343258909E+04  0.20343258909E+04  0.50400001928E-02 0. -1.
    10030    2    1    2    0    0  0.00000000000E+00  0.00000000000E+00 -0.33731967077E+03  0.37313321111E+04  0.37160536545E+04 0.  0.
        4    1    3    3  502    0 -0.90874522161E+02  0.65532783057E+03  0.15747244517E+04  0.17080607296E+04  0.12699999809E+01 0.  1.
       -4    1    3    3    0  502  0.90874522161E+02 -0.65532783057E+03 -0.19120441224E+04  0.20232713815E+04  0.12699999809E+01 0. -1.
</event>
<event>
 5   0  0.1496000E-07  0.3683735E+04  0.7818609E-02  0.8071576E-01
        1   -1    0    0  501    0  0.00000000000E+00  0.00000000000E+00  0.11626952615E+04  0.11626952616E+04  0.50400001928E-02 0.  1.
       -1   -1    0    0    0  501  0.00000000000E+00  0.00000000000E+00 -0.29177687938E+04  0.29177687938E+04  0.50400001928E-02 0. -1.
    10030    2    1    2    0    0  0.00000000000E+00  0.00000000000E+00 -0.17550735322E+04  0.40804640553E+04  0.36837350344E+04 0.  0.
        5    1    3    3  502    0  0.13164181544E+04  0.12163805713E+04 -0.40769096191E+03  0.18381437544E+04  0.46999998093E+01 0. -1.
       -5    1    3    3    0  502 -0.13164181544E+04 -0.12163805713E+04 -0.13473825703E+04  0.22423203010E+04  0.46999998093E+01 0.  1.
</event>
<event>
 5   0  0.4857514E-07  0.3716565E+04  0.7818609E-02  0.8064301E-01
        2   -1    0    0  501    0  0.00000000000E+00  0.00000000000E+00  0.21946077588E+04  0.21946077588E+04  0.25500000920E-02 0.  1.
       -2   -1    0    0    0  501  0.00000000000E+00  0.00000000000E+00 -0.15734996683E+04  0.15734996683E+04  0.25500000920E-02 0. -1.
    10030    2    1    2    0    0  0.00000000000E+00  0.00000000000E+00  0.62110809053E+03  0.37681074270E+04  0.37165653932E+04 0.  0.
        5    1    3    3  502    0 -0.46114325460E+03  0.13097034681E+04  0.15626776534E+04  0.20904448843E+04  0.46999998093E+01 0.  1.
       -5    1    3    3    0  502  0.46114325460E+03 -0.13097034681E+04 -0.94156956291E+03  0.16776625428E+04  0.46999998093E+01 0. -1.
</event>
<event>
 5   0  0.1496000E-07  0.3641582E+04  0.7818609E-02  0.8081033E-01
       -1   -1    0    0    0  501  0.00000000000E+00  0.00000000000E+00  0.16487142274E+04  0.16487142274E+04  0.50400001928E-02 0. -1.
        1   -1    0    0  501    0  0.00000000000E+00  0.00000000000E+00 -0.20108278113E+04  0.20108278114E+04  0.50400001928E-02 0.  1.
    10030    2    1    2    0    0  0.00000000000E+00  0.00000000000E+00 -0.36211358394E+03  0.36595420388E+04  0.36415823052E+04 0.  0.
        5    1    3    3  502    0  0.10827423148E+04  0.44080828465E+03 -0.15838694729E+04  0.19685800622E+04  0.46999998093E+01 0.  1.
       -5    1    3    3    0  502 -0.10827423148E+04 -0.44080828465E+03  0.12217558889E+04  0.16909619766E+04  0.46999998093E+01 0. -1.
</event>
<event>
 5   0  0.1496000E-07  0.3757694E+04  0.7818609E-02  0.8055295E-01
       -1   -1    0    0    0  501  0.00000000000E+00  0.00000000000E+00  0.19444099027E+04  0.19444099027E+04  0.50400001928E-02 0.  1.
        1   -1    0    0  501    0  0.00000000000E+00  0.00000000000E+00 -0.18154946483E+04  0.18154946484E+04  0.50400001928E-02 0. -1.
    10030    2    1    2    0    0  0.00000000000E+00  0.00000000000E+00  0.12891525433E+03  0.37599045510E+04  0.37576938526E+04 0.  0.
        2    1    3    3  502    0  0.29506174954E+03 -0.48932452668E+02 -0.17915217505E+04  0.18163166033E+04  0.25500000920E-02 0. -1.
       -2    1    3    3    0  502 -0.29506174954E+03  0.48932452668E+02  0.19204370048E+04  0.19435879477E+04  0.25500000920E-02 0.  1.
</event>
<event>
 5   0  0.4824268E-07  0.3676987E+04  0.7818609E-02  0.8073081E-01
       -2   -1    0    0    0  501  0.00000000000E+00  0.00000000000E+00  0.22748736710E+04  0.22748736710E+04  0.25500000920E-02 0.  1.
        2   -1    0    0  501    0  0.00000000000E+00  0.00000000000E+00 -0.14858225353E+04  0.14858225353E+04  0.25500000920E-02 0. -1.
    10030    2    1    2    0    0  0.00000000000E+00  0.00000000000E+00  0.78905113572E+03  0.37606962063E+04  0.36769871174E+04 0.  0.
        1    1    3    3  502    0  0.54714704203E+03 -0.71405070002E+02 -0.13991354248E+04  0.15040108066E+04  0.50400001928E-02 0. -1.
       -1    1    3    3    0  502 -0.54714704203E+03  0.71405070002E+02  0.21881865605E+04  0.22566853997E+04  0.50400001928E-02 0.  1.
</event>
<event>
 5   0  0.1496287E-07  0.3594835E+04  0.7818609E-02  0.8091676E-01
       -1   -1    0    0    0  501  0.00000000000E+00  0.00000000000E+00  0.21311804482E+04  0.21311804482E+04  0.50400001928E-02 0. -1.
        1   -1    0    0  501    0  0.00000000000E+00  0.00000000000E+00 -0.15159247280E+04  0.15159247280E+04  0.50400001928E-02 0.  1.
    10030    2    1    2    0    0  0.00000000000E+00  0.00000000000E+00  0.61525572016E+03  0.36471051762E+04  0.35948347062E+04 0.  0.
        1    1    3    3  502    0 -0.92536622148E+03  0.13586152700E+04  0.10452280952E+04  0.19479835386E+04  0.50400001928E-02 0. -1.
       -1    1    3    3    0  502  0.92536622148E+03 -0.13586152700E+04 -0.42997237504E+03  0.16991216375E+04  0.50400001928E-02 0.  1.
</event>
<event>
 5   0  0.4824268E-07  0.3571263E+04  0.7818609E-02  0.8097106E-01
       -2   -1    0    0    0  501  0.00000000000E+00  0.00000000000E+00  0.18586151149E+04  0.18586151149E+04  0.25500000920E-02 0.  1.
        2   -1    0    0  501    0  0.00000000000E+00  0.00000000000E+00 -0.17155135996E+04  0.17155135996E+04  0.25500000920E-02 0. -1.
    10030    2    1    2    0    0  0.00000000000E+00  0.00000000000E+00  0.14310151528E+03  0.35741287145E+04  0.35712628052E+04 0.  0.
        1    1    3    3  502    0 -0.11439367310E+04 -0.13693952147E+04  0.33417731652E+01  0.17843333954E+04  0.50400001928E-02 0. -1.
       -1    1    3    3    0  502  0.11439367310E+04  0.13693952147E+04  0.13975974211E+03  0.17897953190E+04  0.50400001928E-02 0.  1.
</event>
<event>
 5   0  0.4824268E-07  0.3690205E+04  0.7818609E-02  0.8070136E-01
       -2   -1    0    0    0  501  0.00000000000E+00  0.00000000000E+00  0.18046474071E+04  0.18046474071E+04  0.25500000920E-02 0.  1.
        2   -1    0    0  501    0  0.00000000000E+00  0.00000000000E+00 -0.18864645573E+04  0.18864645573E+04  0.25500000920E-02 0. -1.
    10030    2    1    2    0    0  0.00000000000E+00  0.00000000000E+00 -0.81817150255E+02  0.36911119644E+04  0.36902050740E+04 0.  0.
        1    1    3    3  502    0 -0.14231323707E+04  0.10028308924E+04 -0.65214616854E+03  0.18591046685E+04  0.50400001928E-02 0.  1.
       -1    1    3    3    0  502  0.14231323707E+04 -0.10028308924E+04  0.57032901828E+03  0.18320072959E+04  0.50400001928E-02 0. -1.
</event>
<event>
 5   0  0.1522273E-07  0.3263773E+04  0.7818609E-02  0.8172175E-01
       -1   -1    0    0    0  501  0.00000000000E+00  0.00000000000E+00  0.21566178180E+04  0.21566178180E+04  0.50400001928E-02 0.  1.
        1   -1    0    0  501    0  0.00000000000E+00  0.00000000000E+00 -0.12348287739E+04  0.12348287739E+04  0.50400001928E-02 0. -1.
    10030    2    1    2    0    0  0.00000000000E+00  0.00000000000E+00  0.92178904409E+03  0.33914465920E+04  0.32637731147E+04 0.  0.
        4    1    3    3  502    0  0.45508559624E+03 -0.15651566121E+04  0.37885020245E+03  0.16734237984E+04  0.12699999809E+01 0.  1.
       -4    1    3    3    0  502 -0.45508559624E+03  0.15651566121E+04  0.54293884165E+03  0.17180227935E+04  0.12699999809E+01 0. -1.
</event>
<event>
 5   0  0.1496000E-07  0.3695216E+04  0.7818609E-02  0.8069023E-01
       -1   -1    0    0    0  501  0.00000000000E+00  0.00000000000E+00  0.17917972848E+04  0.17917972849E+04  0.50400001928E-02 0.  1.
        1   -1    0    0  501    0  0.00000000000E+00  0.00000000000E+00 -0.19051567567E+04  0.19051567567E+04  0.50400001928E-02 0. -1.
    10030    2    1    2    0    0  0.00000000000E+00  0.00000000000E+00 -0.11335947186E+03  0.36969540416E+04  0.36952156656E+04 0.  0.
        5    1    3    3  502    0 -0.12297317420E+04  0.39918192027E+03 -0.13771666507E+04  0.18889670289E+04  0.46999998093E+01 0. -1.
       -5    1    3    3    0  502  0.12297317420E+04 -0.39918192027E+03  0.12638071788E+04  0.18079870126E+04  0.46999998093E+01 0.  1.
</event>
<event>
 5   0  0.4687817E-07  0.3769794E+04  0.7818609E-02  0.8052668E-01
        2   -1    0    0  501    0  0.00000000000E+00  0.00000000000E+00  0.14612511364E+04  0.14612511364E+04  0.25500000920E-02 0. -1.
       -2   -1    0    0    0  501  0.00000000000E+00  0.00000000000E+00 -0.24313657354E+04  0.24313657354E+04  0.25500000920E-02 0.  1.
    10030    2    1    2    0    0  0.00000000000E+00  0.00000000000E+00 -0.97011459901E+03  0.38926168718E+04  0.37697935985E+04 0.  0.
        4    1    3    3  502    0 -0.18459585502E+04 -0.10001435100E+03 -0.10528576325E+03  0.18516621032E+04  0.12699999809E+01 0.  1.
       -4    1    3    3    0  502  0.18459585502E+04  0.10001435100E+03 -0.86482883576E+03  0.20409547686E+04  0.12699999809E+01 0. -1.
</event>
<event>
 5   0  0.1522273E-07  0.3706256E+04  0.7818609E-02  0.8066577E-01
       -1   -1    0    0    0  501  0.00000000000E+00  0.00000000000E+00  0.17656955033E+04  0.17656955033E+04  0.50400001928E-02 0. -1.
        1   -1    0    0  501    0  0.00000000000E+00  0.00000000000E+00 -0.19448897910E+04  0.19448897910E+04  0.50400001928E-02 0.  1.
    10030    2    1    2    0    0  0.00000000000E+00  0.00000000000E+00 -0.17919428767E+03  0.37105852943E+04  0.37062558781E+04 0.  0.
        4    1    3    3  502    0 -0.66356558509E+03  0.17103555681E+04  0.17233050437E+03  0.18426434464E+04  0.12699999809E+01 0.  1.
       -4    1    3    3    0  502  0.66356558509E+03 -0.17103555681E+04 -0.35152479204E+03  0.18679418479E+04  0.12699999809E+01 0. -1.
</event>
<event>
 5   0  0.1496287E-07  0.3700913E+04  0.7818609E-02  0.8067760E-01
        1   -1    0    0  501    0  0.00000000000E+00  0.00000000000E+00  0.19940542202E+04  0.19940542202E+04  0.50400001928E-02 0.  1.
       -1   -1    0    0    0  501  0.00000000000E+00  0.00000000000E+00 -0.17171993986E+04  0.17171993986E+04  0.50400001928E-02 0. -1.
    10030    2    1    2    0    0  0.00000000000E+00  0.00000000000E+00  0.27685482166E+03  0.37112536188E+04  0.37009127024E+04 0.  0.
        1    1    3    3  502    0 -0.59638651635E+03 -0.16478733299E+04  0.73424692127E+03  0.19000741906E+04  0.50400001928E-02 0.  1.
       -1    1    3    3    0  502  0.59638651635E+03  0.16478733299E+04 -0.45739209961E+03  0.18111794282E+04  0.50400001928E-02 0. -1.
</event>
<event>
 5   0  0.1496000E-07  0.3763990E+04  0.7818609E-02  0.8053927E-01
       -1   -1    0    0    0  501  0.00000000000E+00  0.00000000000E+00  0.17376918068E+04  0.17376918068E+04  0.50400001928E-02 0. -1.
        1   -1    0    0  501    0  0.00000000000E+00  0.00000000000E+00 -0.20382820537E+04  0.20382820537E+04  0.50400001928E-02 0.  1.
    10030    2    1    2    0    0  0.00000000000E+00  0.00000000000E+00 -0.30059024690E+03  0.37759738606E+04  0.37639904489E+04 0.  0.
        5    1    3    3  502    0  0.11343065845E+04  0.70918922030E+03  0.11776575871E+04  0.17822739016E+04  0.46999998093E+01 0. -1.
       -5    1    3    3    0  502 -0.11343065845E+04 -0.70918922030E+03 -0.14782478340E+04  0.19936999590E+04  0.46999998093E+01 0.  1.
</event>
<event>
 5   0  0.4687817E-07  0.3819391E+04  0.7818609E-02  0.8042006E-01
        2   -1    0    0  501    0  0.00000000000E+00  0.00000000000E+00  0.18662939038E+04  0.18662939038E+04  0.25500000920E-02 0.  1.
       -2   -1    0    0    0  501  0.00000000000E+00  0.00000000000E+00 -0.19541064715E+04  0.19541064715E+04  0.25500000920E-02 0. -1.
    10030    2    1    2    0    0  0.00000000000E+00  0.00000000000E+00 -0.87812567767E+02  0.38204003753E+04  0.38193910484E+04 0.  0.
        4    1    3    3  502    0 -0.34556721587E+03 -0.12850918447E+04 -0.14139607761E+04  0.19416911287E+04  0.12699999809E+01 0. -1.
       -4    1    3    3    0  502  0.34556721587E+03  0.12850918447E+04  0.13261482084E+04  0.18787092466E+04  0.12699999809E+01 0.  1.
</event>
<event>
 5   0  0.4758908E-07  0.3720292E+04  0.7818609E-02  0.8063480E-01
       -2   -1    0    0    0  501  0.00000000000E+00  0.00000000000E+00  0.14096602081E+04  0.14096602082E+04  0.25500000920E-02 0.  1.
        2   -1    0    0  501    0  0.00000000000E+00  0.00000000000E+00 -0.24545944097E+04  0.24545944097E+04  0.25500000920E-02 0. -1.
    10030    2    1    2    0    0  0.00000000000E+00  0.00000000000E+00 -0.10449342015E+04  0.38642546178E+04  0.37202924974E+04 0.  0.
        2    1    3    3  502    0  0.17027262140E+04 -0.78589837550E+02 -0.12960631877E+04  0.21413156491E+04  0.25500000920E-02 0. -1.
       -2    1    3    3    0  502 -0.17027262140E+04  0.78589837550E+02  0.25112898612E+03  0.17229389688E+04  0.25500000920E-02 0.  1.
</event>
<event>
 5   0  0.1496000E-07  0.3606325E+04  0.7818609E-02  0.8089044E-01
       -1   -1    0    0    0  501  0.00000000000E+00  0.00000000000E+00  0.34121489544E+04  0.34121489544E+04  0.50400001928E-02 0.  1.
        1   -1    0    0  501    0  0.00000000000E+00  0.00000000000E+00 -0.95288765377E+03  0.95288765379E+03  0.50400001928E-02 0. -1.
    10030    2    1    2    0    0  0.00000000000E+00  0.00000000000E+00  0.24592613007E+04  0.43650366082E+04  0.36063247838E+04 0.  0.
        5    1    3    3  502    0 -0.10701539435E+04 -0.74090466807E+03  0.27400436541E+04  0.30334848782E+04  0.46999998093E+01 0.  1.
       -5    1    3    3    0  502  0.10701539435E+04  0.74090466807E+03 -0.28078235340E+03  0.13315517301E+04  0.46999998093E+01 0. -1.
</event>
<event>
 5   0  0.1496287E-07  0.3334935E+04  0.7818609E-02  0.8154063E-01
       -1   -1    0    0    0  501  0.00000000000E+00  0.00000000000E+00  0.12384569884E+04  0.12384569884E+04  0.50400001928E-02 0. -1.
        1   -1    0    0  501    0  0.00000000000E+00  0.00000000000E+00 -0.22450909543E+04  0.22450909543E+04  0.50400001928E-02 0.  1.
    10030    2    1    2    0    0  0.00000000000E+00  0.00000000000E+00 -0.10066339659E+04  0.34835479427E+04  0.33349354308E+04 0.  0.
        1    1    3    3  502    0  0.66336318819E+03  0.32619541100E+03 -0.20645775967E+04  0.21929283660E+04  0.50400001928E-02 0.  1.
       -1    1    3    3    0  502 -0.66336318819E+03 -0.32619541100E+03  0.10579436309E+04  0.12906195767E+04  0.50400001928E-02 0. -1.
</event>
<event>
 5   0  0.4793557E-07  0.3654940E+04  0.7818609E-02  0.8078022E-01
       -2   -1    0    0    0  501  0.00000000000E+00  0.00000000000E+00  0.17398034261E+04  0.17398034261E+04  0.25500000920E-02 0.  1.
        2   -1    0    0  501    0  0.00000000000E+00  0.00000000000E+00 -0.19195539224E+04  0.19195539224E+04  0.25500000920E-02 0. -1.
    10030    2    1    2    0    0  0.00000000000E+00  0.00000000000E+00 -0.17975049634E+03  0.36593573485E+04  0.36549399398E+04 0.  0.
        3    1    3    3  502    0  0.11590648175E+04 -0.41085204739E+03  0.12635780284E+04  0.17631959903E+04  0.10100000352E+00 0.  1.
       -3    1    3    3    0  502 -0.11590648175E+04  0.41085204739E+03 -0.14433285247E+04  0.18961613583E+04  0.10100000352E+00 0. -1.
</event>
<event>
 5   0  0.4687817E-07  0.3567888E+04  0.7818609E-02  0.8097887E-01
        2   -1    0    0  501    0  0.00000000000E+00  0.00000000000E+00  0.21585978844E+04  0.21585978844E+04  0.25500000920E-02 0.  1.
       -2   -1    0    0    0  501  0.00000000000E+00  0.00000000000E+00 -0.14743160319E+04  0.14743160319E+04  0.25500000920E-02 0. -1.
    10030    2    1    2    0    0  0.00000000000E+00  0.00000000000E+00  0.68428185255E+03  0.36329139163E+04  0.35678875920E+04 0.  0.
        4    1    3    3  502    0  0.49852203955E+03 -0.13055365644E+04 -0.78689796204E+03  0.16037954859E+04  0.12699999809E+01 0. -1.
       -4    1    3    3    0  502 -0.49852203955E+03  0.13055365644E+04  0.14711798146E+04  0.20291184304E+04  0.12699999809E+01 0.  1.
</event>
<event>
 5   0  0.4687817E-07  0.3706661E+04  0.7818609E-02  0.8066487E-01
        2   -1    0    0  501    0  0.00000000000E+00  0.00000000000E+00  0.12625768138E+04  0.12625768138E+04  0.25500000920E-02 0. -1.
       -2   -1    0    0    0  501  0.00000000000E+00  0.00000000000E+00 -0.27204949264E+04  0.27204949264E+04  0.25500000920E-02 0.  1.
    10030    2    1    2    0    0  0.00000000000E+00  0.00000000000E+00 -0.14579181126E+04  0.39830717402E+04  0.37066609320E+04 0.  0.
        4    1    3    3  502    0 -0.37883403848E+03 -0.51482068995E+03 -0.25983045708E+04  0.26757697634E+04  0.12699999809E+01 0.  1.
       -4    1    3    3    0  502  0.37883403848E+03  0.51482068995E+03  0.11403864582E+04  0.13073019768E+04  0.12699999809E+01 0. -1.
</event>
<event>
 5   0  0.1496000E-07  0.3649109E+04  0.7818609E-02  0.8079334E-01
        1   -1    0    0  501    0  0.00000000000E+00  0.00000000000E+00  0.22086627131E+04  0.22086627131E+04  0.50400001928E-02 0.  1.
       -1   -1    0    0    0  501  0.00000000000E+00  0.00000000000E+00 -0.15072462130E+04  0.15072462130E+04  0.50400001928E-02 0. -1.
    10030    2    1    2    0    0  0.00000000000E+00  0.00000000000E+00  0.70141650010E+03  0.37159089261E+04  0.36491086638E+04 0.  0.
        3    1    3    3  502    0 -0.17780468163E+04 -0.37166953476E+03  0.52534036820E+03  0.18909180936E+04  0.10100000352E+00 0. -1.
       -3    1    3    3    0  502  0.17780468163E+04  0.37166953476E+03  0.17607613189E+03  0.18249908325E+04  0.10100000352E+00 0.  1.
</event>
<event>
 5   0  0.1496000E-07  0.3732583E+04  0.7818609E-02  0.8060779E-01
       -1   -1    0    0    0  501  0.00000000000E+00  0.00000000000E+00  0.16144574009E+04  0.16144574009E+04  0.50400001928E-02 0. -1.
        1   -1    0    0  501    0  0.00000000000E+00  0.00000000000E+00 -0.21574088871E+04  0.21574088871E+04  0.50400001928E-02 0.  1.
    10030    2    1    2    0    0  0.00000000000E+00  0.00000000000E+00 -0.54295148623E+03  0.37718662880E+04  0.37325834188E+04 0.  0.
        5    1    3    3  502    0  0.23489301677E+03  0.46709188229E+03  0.15389352054E+04  0.16253286474E+04  0.46999998093E+01 0. -1.
       -5    1    3    3    0  502 -0.23489301677E+03 -0.46709188229E+03 -0.20818866916E+04  0.21465376406E+04  0.46999998093E+01 0.  1.
</event>
<event>
 5   0  0.1496000E-07  0.2986021E+04  0.7818609E-02  0.8247734E-01
        1   -1    0    0  501    0  0.00000000000E+00  0.00000000000E+00  0.23649715374E+04  0.23649715374E+04  0.50400001928E-02 0.  1.
       -1   -1    0    0    0  501  0.00000000000E+00  0.00000000000E+00 -0.94254012876E+03  0.94254012877E+03  0.50400001928E-02 0. -1.
    10030    2    1    2    0    0  0.00000000000E+00  0.00000000000E+00  0.14224314086E+04  0.33075116662E+04  0.29860211502E+04 0.  0.
        3    1    3    3  502    0  0.13784739096E+04  0.32896283581E+03  0.19087980025E+03  0.14299797114E+04  0.10100000352E+00 0. -1.
       -3    1    3    3    0  502 -0.13784739096E+04 -0.32896283581E+03  0.12315516084E+04  0.18775319547E+04  0.10100000352E+00 0.  1.
</event>
<event>
 5   0  0.1496000E-07  0.3604412E+04  0.7818609E-02  0.8089482E-01
       -1   -1    0    0    0  501  0.00000000000E+00  0.00000000000E+00  0.12681099773E+04  0.12681099774E+04  0.50400001928E-02 0. -1.
        1   -1    0    0  501    0  0.00000000000E+00  0.00000000000E+00 -0.25612502586E+04  0.25612502586E+04  0.50400001928E-02 0.  1.
    10030    2    1    2    0    0  0.00000000000E+00  0.00000000000E+00 -0.12931402813E+04  0.38293602360E+04  0.36044123002E+04 0.  0.
        2    1    3    3  502    0  0.24309559960E+03 -0.12624448152E+04 -0.19883572791E+04  0.23677894863E+04  0.25500000920E-02 0.  1.
       -2    1    3    3    0  502 -0.24309559960E+03  0.12624448152E+04  0.69521699788E+03  0.14615707496E+04  0.25500000920E-02 0. -1.
</event>
<event>
 5   0  0.4793557E-07  0.3683227E+04  0.7818609E-02  0.8071689E-01
       -2   -1    0    0    0  501  0.00000000000E+00  0.00000000000E+00  0.18723626465E+04  0.18723626465E+04  0.25500000920E-02 0.  1.
        2   -1    0    0  501    0  0.00000000000E+00  0.00000000000E+00 -0.18113691918E+04  0.18113691918E+04  0.25500000920E-02 0. -1.
    10030    2    1    2    0    0  0.00000000000E+00  0.00000000000E+00  0.60993454683E+02  0.36837318382E+04  0.36832268535E+04 0.  0.
        3    1    3    3  502    0  0.17457833642E+03 -0.55069492316E+03  0.17793923900E+04  0.18708232898E+04  0.10100000352E+00 0.  1.
       -3    1    3    3    0  502 -0.17457833642E+03  0.55069492316E+03 -0.17183989353E+04  0.18129085484E+04  0.10100000352E+00 0. -1.
</event>
<event>
 5   0  0.4793557E-07  0.3668349E+04  0.7818609E-02  0.8075012E-01
        2   -1    0    0  501    0  0.00000000000E+00  0.00000000000E+00  0.22536709357E+04  0.22536709357E+04  0.25500000920E-02 0. -1.
       -2   -1    0    0    0  501  0.00000000000E+00  0.00000000000E+00 -0.14927628401E+04  0.14927628401E+04  0.25500000920E-02 0.  1.
    10030    2    1    2    0    0  0.00000000000E+00  0.00000000000E+00  0.76090809563E+03  0.37464337757E+04  0.36683490709E+04 0.  0.
        3    1    3    3  502    0  0.97176241156E+03  0.27209489217E+03  0.19446690633E+04  0.21909120454E+04  0.10100000352E+00 0. -1.
       -3    1    3    3    0  502 -0.97176241156E+03 -0.27209489217E+03 -0.11837609676E+04  0.15555217303E+04  0.10100000352E+00 0.  1.
</event>
<event>
 5   0  0.1496000E-07  0.3223468E+04  0.7818609E-02  0.8182647E-01
        1   -1    0    0  501    0  0.00000000000E+00  0.00000000000E+00  0.19675655606E+04  0.19675655606E+04  0.50400001928E-02 0.  1.
       -1   -1    0    0    0  501  0.00000000000E+00  0.00000000000E+00 -0.13202537237E+04  0.13202537237E+04  0.50400001928E-02 0. -1.
    10030    2    1    2    0    0  0.00000000000E+00  0.00000000000E+00  0.64731183687E+03  0.32878192843E+04  0.32234675478E+04 0.  0.
        3    1    3    3  502    0 -0.77716506333E+03 -0.12878746725E+04  0.91407212145E+03  0.17601518574E+04  0.10100000352E+00 0.  1.
       -3    1    3    3    0  502  0.77716506333E+03  0.12878746725E+04 -0.26676028458E+03  0.15276674269E+04  0.10100000352E+00 0. -1.
</event>
<event>
 5   0  0.4758908E-07  0.3746755E+04  0.7818609E-02  0.8057679E-01
        2   -1    0    0  501    0  0.00000000000E+00  0.00000000000E+00  0.11929407423E+04  0.11929407423E+04  0.25500000920E-02 0.  1.
       -2   -1    0    0    0  501  0.00000000000E+00  0.00000000000E+00 -0.29419256495E+04  0.29419256495E+04  0.25500000920E-02 0. -1.
    10030    2    1    2    0    0  0.00000000000E+00  0.00000000000E+00 -0.17489849072E+04  0.41348663919E+04  0.37467548456E+04 0.  0.
        2    1    3    3  502    0 -0.15563800799E+04  0.72997883393E+03 -0.16961676084E+04  0.24149891526E+04  0.25500000920E-02 0. -1.
       -2    1    3    3    0  502  0.15563800799E+04 -0.72997883393E+03 -0.52817298806E+02  0.17198772393E+04  0.25500000920E-02 0.  1.
</event>
<event>
 5   0  0.4824268E-07  0.3702521E+04  0.7818609E-02  0.8067403E-01
        2   -1    0    0  501    0  0.00000000000E+00  0.00000000000E+00  0.20467770246E+04  0.20467770246E+04  0.25500000920E-02 0.  1.
       -2   -1    0    0    0  501  0.00000000000E+00  0.00000000000E+00 -0.16744208007E+04  0.16744208007E+04  0.25500000920E-02 0. -1.
    10030    2    1    2    0    0  0.00000000000E+00  0.00000000000E+00  0.37235622396E+03  0.37211978253E+04  0.37025213163E+04 0.  0.
        1    1    3    3  502    0  0.10373985864E+03  0.10862225529E+04 -0.13168670628E+04  0.17101988931E+04  0.50400001928E-02 0. -1.
       -1    1    3    3    0  502 -0.10373985864E+03 -0.10862225529E+04  0.16892232868E+04  0.20109989322E+04  0.50400001928E-02 0.  1.
</event>
<event>
 5   0  0.4687817E-07  0.3655457E+04  0.7818609E-02  0.8077905E-01
       -2   -1    0    0    0  501  0.00000000000E+00  0.00000000000E+00  0.21448797457E+04  0.21448797457E+04  0.25500000920E-02 0.  1.
        2   -1    0    0  501    0  0.00000000000E+00  0.00000000000E+00 -0.15574724143E+04  0.15574724143E+04  0.25500000920E-02 0. -1.
    10030    2    1    2    0    0  0.00000000000E+00  0.00000000000E+00  0.58740733146E+03  0.37023521600E+04  0.36554567626E+04 0.  0.
        4    1    3    3  502    0  0.71374155741E+03  0.93987281327E+03  0.17072447086E+04  0.20754455001E+04  0.12699999809E+01 0.  1.
       -4    1    3    3    0  502 -0.71374155741E+03 -0.93987281327E+03 -0.11198373771E+04  0.16269066599E+04  0.12699999809E+01 0. -1.
</event>
<event>
 5   0  0.1496000E-07  0.3797184E+04  0.7818609E-02  0.8046759E-01
       -1   -1    0    0    0  501  0.00000000000E+00  0.00000000000E+00  0.14824340606E+04  0.14824340606E+04  0.50400001928E-02 0.  1.
        1   -1    0    0  501    0  0.00000000000E+00  0.00000000000E+00 -0.24315766897E+04  0.24315766897E+04  0.50400001928E-02 0. -1.
    10030    2    1    2    0    0  0.00000000000E+00  0.00000000000E+00 -0.94914262915E+03  0.39140107503E+04  0.37971842756E+04 0.  0.
        5    1    3    3  502    0  0.37546887884E+03  0.45295271020E+03 -0.23352369441E+04  0.24082144239E+04  0.46999998093E+01 0. -1.
       -5    1    3    3    0  502 -0.37546887884E+03 -0.45295271020E+03  0.13860943149E+04  0.15057963264E+04  0.46999998093E+01 0.  1.
</event>
<event>
 5   0  0.4824268E-07  0.3730114E+04  0.7818609E-02  0.8061321E-01
       -2   -1    0    0    0  501  0.00000000000E+00  0.00000000000E+00  0.15874577728E+04  0.15874577728E+04  0.25500000920E-02 0. -1.
        2   -1    0    0  501    0  0.00000000000E+00  0.00000000000E+00 -0.21911996631E+04  0.21911996631E+04  0.25500000920E-02 0.  1.
    10030    2    1    2    0    0  0.00000000000E+00  0.00000000000E+00 -0.60374189030E+03  0.37786574359E+04  0.37301136374E+04 0.  0.
        1    1    3    3  502    0 -0.53145266476E+03 -0.62286099707E+03  0.13956574220E+04  0.16181030240E+04  0.50400001928E-02 0. -1.
       -1    1    3    3    0  502  0.53145266476E+03  0.62286099707E+03 -0.19993993123E+04  0.21605544119E+04  0.50400001928E-02 0.  1.
</event>
<event>
 5   0  0.4793557E-07  0.3754512E+04  0.7818609E-02  0.8055988E-01
        2   -1    0    0  501    0  0.00000000000E+00  0.00000000000E+00  0.16155786070E+04  0.16155786070E+04  0.25500000920E-02 0.  1.
       -2   -1    0    0    0  501  0.00000000000E+00  0.00000000000E+00 -0.21813172652E+04  0.21813172652E+04  0.25500000920E-02 0. -1.
    10030    2    1    2    0    0  0.00000000000E+00  0.00000000000E+00 -0.56573865821E+03  0.37968958722E+04  0.37545116906E+04 0.  0.
        3    1    3    3  502    0 -0.93440850709E+03  0.72087596952E+03 -0.17592499686E+04  0.21184291076E+04  0.10100000352E+00 0. -1.
       -3    1    3    3    0  502  0.93440850709E+03 -0.72087596952E+03  0.11935113104E+04  0.16784667646E+04  0.10100000352E+00 0.  1.
</event>
<event>
 5   0  0.1522273E-07  0.3697297E+04  0.7818609E-02  0.8068561E-01
        1   -1    0    0  501    0  0.00000000000E+00  0.00000000000E+00  0.13604767208E+04  0.13604767208E+04  0.50400001928E-02 0. -1.
       -1   -1    0    0    0  501  0.00000000000E+00  0.00000000000E+00 -0.25119878626E+04  0.25119878626E+04  0.50400001928E-02 0.  1.
    10030    2    1    2    0    0  0.00000000000E+00  0.00000000000E+00 -0.11515111418E+04  0.38724645834E+04  0.36972968558E+04 0.  0.
        4    1    3    3  502    0  0.16661994378E+04 -0.79611910789E+03 -0.66629887520E+03  0.19631561335E+04  0.12699999809E+01 0.  1.
       -4    1    3    3    0  502 -0.16661994378E+04  0.79611910789E+03 -0.48521226655E+03  0.19093084499E+04  0.12699999809E+01 0. -1.
</event>
<event>
 5   0  0.4857514E-07  0.3792454E+04  0.7818609E-02  0.8047776E-01
       -2   -1    0    0    0  501  0.00000000000E+00  0.00000000000E+00  0.16386725723E+04  0.16386725723E+04  0.25500000920E-02 0.  1.
        2   -1    0    0  501    0  0.00000000000E+00  0.00000000000E+00 -0.21942621811E+04  0.21942621811E+04  0.25500000920E-02 0. -1.
    10030    2    1    2    0    0  0.00000000000E+00  0.00000000000E+00 -0.55558960878E+03  0.38329347533E+04  0.37924542199E+04 0.  0.
        5    1    3    3  502    0  0.59610056167E+03  0.15928231377E+04 -0.11253362164E+04  0.20393197683E+04  0.46999998093E+01 0. -1.
       -5    1    3    3    0  502 -0.59610056167E+03 -0.15928231377E+04  0.56974660763E+03  0.17936149850E+04  0.46999998093E+01 0.  1.
</event>
<event>
 5   0  0.4758908E-07  0.3744007E+04  0.7818609E-02  0.8058279E-01
        2   -1    0    0  501    0  0.00000000000E+00  0.00000000000E+00  0.18389444207E+04  0.18389444207E+04  0.25500000920E-02 0.  1.
       -2   -1    0    0    0  501  0.00000000000E+00  0.00000000000E+00 -0.19056568873E+04  0.19056568873E+04  0.25500000920E-02 0. -1.
    10030    2    1    2    0    0  0.00000000000E+00  0.00000000000E+00 -0.66712466675E+02  0.37446013080E+04  0.37440069982E+04 0.  0.
        2    1    3    3  502    0  0.13659427475E+04  0.21202542870E+03  0.12292397855E+04  0.18498066986E+04  0.25500000920E-02 0.  1.
       -2    1    3    3    0  502 -0.13659427475E+04 -0.21202542870E+03 -0.12959522522E+04  0.18947946094E+04  0.25500000920E-02 0. -1.
</event>
<event>
 5   0  0.4758908E-07  0.3620370E+04  0.7818609E-02  0.8085842E-01
        2   -1    0    0  501    0  0.00000000000E+00  0.00000000000E+00  0.19773299140E+04  0.19773299140E+04  0.25500000920E-02 0. -1.
       -2   -1    0    0    0  501  0.00000000000E+00  0.00000000000E+00 -0.16571691251E+04  0.16571691251E+04  0.25500000920E-02 0.  1.
    10030    2    1    2    0    0  0.00000000000E+00  0.00000000000E+00  0.32016078891E+03  0.36344990392E+04  0.36203701931E+04 0.  0.
        2    1    3    3  502    0  0.52878233398E+03  0.15713653036E+04 -0.56937101744E+03  0.17529925926E+04  0.25500000920E-02 0.  1.
       -2    1    3    3    0  502 -0.52878233398E+03 -0.15713653036E+04  0.88953180635E+03  0.18815064466E+04  0.25500000920E-02 0. -1.
</event>
<event>
 5   0  0.1496000E-07  0.3711895E+04  0.7818609E-02  0.8065331E-01
        1   -1    0    0  501    0  0.00000000000E+00  0.00000000000E+00  0.18503413870E+04  0.18503413870E+04  0.50400001928E-02 0.  1.
       -1   -1    0    0    0  501  0.00000000000E+00  0.00000000000E+00 -0.18615704260E+04  0.18615704260E+04  0.50400001928E-02 0. -1.
    10030    2    1    2    0    0  0.00000000000E+00  0.00000000000E+00 -0.11229038954E+02  0.37119118130E+04  0.37118948283E+04 0.  0.
        3    1    3    3  502    0 -0.15732296194E+04  0.29225407732E+03 -0.94587246469E+03  0.18588003149E+04  0.10100000352E+00 0.  1.
       -3    1    3    3    0  502  0.15732296194E+04 -0.29225407732E+03  0.93464342573E+03  0.18531114981E+04  0.10100000352E+00 0. -1.
</event>
<event>
 5   0  0.1496000E-07  0.3828307E+04  0.7818609E-02  0.8040108E-01
       -1   -1    0    0    0  501  0.00000000000E+00  0.00000000000E+00  0.16968415117E+04  0.16968415117E+04  0.50400001928E-02 0. -1.
        1   -1    0    0  501    0  0.00000000000E+00  0.00000000000E+00 -0.21592959115E+04  0.21592959115E+04  0.50400001928E-02 0.  1.
    10030    2    1    2    0    0  0.00000000000E+00  0.00000000000E+00 -0.46245439986E+03  0.38561374232E+04  0.38283066432E+04 0.  0.
        2    1    3    3  502    0 -0.51552036937E+03  0.15419151721E+04 -0.12488783945E+04  0.20501124099E+04  0.25500000920E-02 0.  1.
       -2    1    3    3    0  502  0.51552036937E+03 -0.15419151721E+04  0.78642399461E+03  0.18060250132E+04  0.25500000920E-02 0. -1.
</event>
<event>
 5   0  0.4824268E-07  0.3716912E+04  0.7818609E-02  0.8064224E-01
        2   -1    0    0  501    0  0.00000000000E+00  0.00000000000E+00  0.27992143354E+04  0.27992143354E+04  0.25500000920E-02 0. -1.
       -2   -1    0    0    0  501  0.00000000000E+00  0.00000000000E+00 -0.12338668660E+04  0.12338668660E+04  0.25500000920E-02 0.  1.
    10030    2    1    2    0    0  0.00000000000E+00  0.00000000000E+00  0.15653474694E+04  0.40330812014E+04  0.37169115240E+04 0.  0.
        1    1    3    3  502    0  0.60980364896E+03 -0.99296996285E+03 -0.78823591965E+03  0.14068282420E+04  0.50400001928E-02 0.  1.
       -1    1    3    3    0  502 -0.60980364896E+03  0.99296996285E+03  0.23535833891E+04  0.26262529594E+04  0.50400001928E-02 0. -1.
</event>
<event>
 5   0  0.1496000E-07  0.3704472E+04  0.7818609E-02  0.8066972E-01
       -1   -1    0    0    0  501  0.00000000000E+00  0.00000000000E+00  0.15001906732E+04  0.15001906732E+04  0.50400001928E-02 0. -1.
        1   -1    0    0  501    0  0.00000000000E+00  0.00000000000E+00 -0.22868946378E+04  0.22868946378E+04  0.50400001928E-02 0.  1.
    10030    2    1    2    0    0  0.00000000000E+00  0.00000000000E+00 -0.78670396457E+03  0.37870853110E+04  0.37044718955E+04 0.  0.
        2    1    3    3  502    0  0.64723691166E+03  0.98813854638E+03  0.10651547139E+04  0.15905621557E+04  0.25500000920E-02 0. -1.
       -2    1    3    3    0  502 -0.64723691166E+03 -0.98813854638E+03 -0.18518586785E+04  0.21965231553E+04  0.25500000920E-02 0.  1.
</event>
<event>
 5   0  0.1496000E-07  0.3706222E+04  0.7818609E-02  0.8066584E-01
       -1   -1    0    0    0  501  0.00000000000E+00  0.00000000000E+00  0.23777089826E+04  0.23777089826E+04  0.50400001928E-02 0.  1.
        1   -1    0    0  501    0  0.00000000000E+00  0.00000000000E+00 -0.14442556184E+04  0.14442556185E+04  0.50400001928E-02 0. -1.
    10030    2    1    2    0    0  0.00000000000E+00  0.00000000000E+00  0.93345336418E+03  0.38219646011E+04  0.37062215569E+04 0.  0.
        5    1    3    3  502    0  0.11029904123E+03 -0.39409425411E+03  0.23305212013E+04  0.23661841262E+04  0.46999998093E+01 0.  1.
       -5    1    3    3    0  502 -0.11029904123E+03  0.39409425411E+03 -0.13970678371E+04  0.14557804749E+04  0.46999998093E+01 0. -1.
</event>
<event>
 5   0  0.4857514E-07  0.3619873E+04  0.7818609E-02  0.8085955E-01
        2   -1    0    0  501    0  0.00000000000E+00  0.00000000000E+00  0.16459288319E+04  0.16459288319E+04  0.25500000920E-02 0. -1.
       -2   -1    0    0    0  501  0.00000000000E+00  0.00000000000E+00 -0.19902871341E+04  0.19902871341E+04  0.25500000920E-02 0.  1.
    10030    2    1    2    0    0  0.00000000000E+00  0.00000000000E+00 -0.34435830228E+03  0.36362159660E+04  0.36198734662E+04 0.  0.
        5    1    3    3  502    0  0.13788131859E+03 -0.99536793076E+03  0.13399675568E+04  0.16749040925E+04  0.46999998093E+01 0. -1.
       -5    1    3    3    0  502 -0.13788131859E+03  0.99536793076E+03 -0.16843258591E+04  0.19613118735E+04  0.46999998093E+01 0.  1.
</event>
<event>
 5   0  0.1496000E-07  0.3192422E+04  0.7818609E-02  0.8190821E-01
       -1   -1    0    0    0  501  0.00000000000E+00  0.00000000000E+00  0.20163678026E+04  0.20163678026E+04  0.50400001928E-02 0.  1.
        1   -1    0    0  501    0  0.00000000000E+00  0.00000000000E+00 -0.12636033892E+04  0.12636033892E+04  0.50400001928E-02 0. -1.
    10030    2    1    2    0    0  0.00000000000E+00  0.00000000000E+00  0.75276441340E+03  0.32799711918E+04  0.31924217699E+04 0.  0.
        2    1    3    3  502    0 -0.14562166160E+04 -0.48757261856E+03  0.82374879656E+03  0.17426577320E+04  0.25500000920E-02 0.  1.
       -2    1    3    3    0  502  0.14562166160E+04  0.48757261856E+03 -0.70984383152E+02  0.15373134598E+04  0.25500000920E-02 0. -1.
</event>
<event>
 5   0  0.1496000E-07  0.3700866E+04  0.7818609E-02  0.8067770E-01
        1   -1    0    0  501    0  0.00000000000E+00  0.00000000000E+00  0.16589230879E+04  0.16589230879E+04  0.50400001928E-02 0.  1.
       -1   -1    0    0    0  501  0.00000000000E+00  0.00000000000E+00 -0.20640514427E+04  0.20640514427E+04  0.50400001928E-02 0. -1.
    10030    2    1    2    0    0  0.00000000000E+00  0.00000000000E+00 -0.40512835483E+03  0.37229745306E+04  0.37008661651E+04 0.  0.
        3    1    3    3  502    0  0.20640672793E+03 -0.15303831657E+04 -0.12281771783E+04  0.19730928926E+04  0.10100000352E+00 0. -1.
       -3    1    3    3    0  502 -0.20640672793E+03  0.15303831657E+04  0.82304882346E+03  0.17498816381E+04  0.10100000352E+00 0.  1.
</event>
<event>
 5   0  0.1496000E-07  0.3679925E+04  0.7818609E-02  0.8072425E-01
        1   -1    0    0  501    0  0.00000000000E+00  0.00000000000E+00  0.11700749781E+04  0.11700749781E+04  0.50400001928E-02 0. -1.
       -1   -1    0    0    0  501  0.00000000000E+00  0.00000000000E+00 -0.28933719392E+04  0.28933719392E+04  0.50400001928E-02 0.  1.
    10030    2    1    2    0    0  0.00000000000E+00  0.00000000000E+00 -0.17232969611E+04  0.40634469173E+04  0.36799250581E+04 0.  0.
        5    1    3    3  502    0 -0.35379497232E+03  0.13429137123E+04  0.47114640753E+03  0.14664887141E+04  0.46999998093E+01 0. -1.
       -5    1    3    3    0  502  0.35379497232E+03 -0.13429137123E+04 -0.21944433686E+04  0.25969582032E+04  0.46999998093E+01 0.  1.
</event>
<event>
 5   0  0.4758908E-07  0.3710839E+04  0.7818609E-02  0.8065564E-01
        2   -1    0    0  501    0  0.00000000000E+00  0.00000000000E+00  0.30256574367E+04  0.30256574367E+04  0.25500000920E-02 0.  1.
       -2   -1    0    0    0  501  0.00000000000E+00  0.00000000000E+00 -0.11377959064E+04  0.11377959064E+04  0.25500000920E-02 0. -1.
    10030    2    1    2    0    0  0.00000000000E+00  0.00000000000E+00  0.18878615303E+04  0.41634533431E+04  0.37108385283E+04 0.  0.
        2    1    3    3  502    0  0.12810949672E+04  0.81645067096E+03  0.21391246655E+04  0.26236711585E+04  0.25500000920E-02 0.  1.
       -2    1    3    3    0  502 -0.12810949672E+04 -0.81645067096E+03 -0.25126313522E+03  0.15397821847E+04  0.25500000920E-02 0. -1.
</event>
<event>
 5   0  0.4824268E-07  0.3722355E+04  0.7818609E-02  0.8063026E-01
        2   -1    0    0  501    0  0.00000000000E+00  0.00000000000E+00  0.15531717642E+04  0.15531717643E+04  0.25500000920E-02 0. -1.
       -2   -1    0    0    0  501  0.00000000000E+00  0.00000000000E+00 -0.22302629303E+04  0.22302629303E+04  0.25500000920E-02 0.  1.
    10030    2    1    2    0    0  0.00000000000E+00  0.00000000000E+00 -0.67709116609E+03  0.37834346946E+04  0.37223548516E+04 0.  0.
        1    1    3    3  502    0  0.66883340421E+02 -0.80421834449E+03  0.13660969990E+04  0.15866510446E+04  0.50400001928E-02 0. -1.
       -1    1    3    3    0  502 -0.66883340421E+02  0.80421834449E+03 -0.20431881651E+04  0.21967836499E+04  0.50400001928E-02 0.  1.
</event>
<event>
 5   0  0.1496000E-07  0.3644340E+04  0.7818609E-02  0.8080410E-01
       -1   -1    0    0    0  501  0.00000000000E+00  0.00000000000E+00  0.13856581176E+04  0.13856581176E+04  0.50400001928E-02 0. -1.
        1   -1    0    0  501    0  0.00000000000E+00  0.00000000000E+00 -0.23961925221E+04  0.23961925221E+04  0.50400001928E-02 0.  1.
    10030    2    1    2    0    0  0.00000000000E+00  0.00000000000E+00 -0.10105344045E+04  0.37818506397E+04  0.36443400608E+04 0.  0.
        3    1    3    3  502    0 -0.14020849264E+03 -0.13019669167E+04 -0.18201720602E+04  0.22422762124E+04  0.10100000352E+00 0.  1.
       -3    1    3    3    0  502  0.14020849264E+03  0.13019669167E+04  0.80963765568E+03  0.15395744274E+04  0.10100000352E+00 0. -1.
</event>
<event>
 5   0  0.4824268E-07  0.3692514E+04  0.7818609E-02  0.8069623E-01
        2   -1    0    0  501    0  0.00000000000E+00  0.00000000000E+00  0.22571878975E+04  0.22571878975E+04  0.25500000920E-02 0. -1.
       -2   -1    0    0    0  501  0.00000000000E+00  0.00000000000E+00 -0.15101382517E+04  0.15101382517E+04  0.25500000920E-02 0.  1.
    10030    2    1    2    0    0  0.00000000000E+00  0.00000000000E+00  0.74704964582E+03  0.37673261493E+04  0.36925144741E+04 0.  0.
        1    1    3    3  502    0  0.12154098836E+04 -0.42908930017E+03 -0.97512159807E+03  0.16162304736E+04  0.50400001928E-02 0.  1.
       -1    1    3    3    0  502 -0.12154098836E+04  0.42908930017E+03  0.17221712439E+04  0.21510956757E+04  0.50400001928E-02 0. -1.
</event>
<event>
 5   0  0.4824268E-07  0.3527060E+04  0.7818609E-02  0.8107407E-01
        2   -1    0    0  501    0  0.00000000000E+00  0.00000000000E+00  0.27303164102E+04  0.27303164102E+04  0.25500000920E-02 0.  1.
       -2   -1    0    0    0  501  0.00000000000E+00  0.00000000000E+00 -0.11390758636E+04  0.11390758636E+04  0.25500000920E-02 0. -1.
    10030    2    1    2    0    0  0.00000000000E+00  0.00000000000E+00  0.15912405466E+04  0.38693922738E+04  0.35270596949E+04 0.  0.
        1    1    3    3  502    0 -0.78138246437E+03  0.13756390301E+04  0.16504088637E+04  0.22862175562E+04  0.50400001928E-02 0.  1.
       -1    1    3    3    0  502  0.78138246437E+03 -0.13756390301E+04 -0.59168317115E+02  0.15831747176E+04  0.50400001928E-02 0. -1.
</event>
<event>
 5   0  0.4857514E-07  0.3653163E+04  0.7818609E-02  0.8078421E-01
       -2   -1    0    0    0  501  0.00000000000E+00  0.00000000000E+00  0.14298129899E+04  0.14298129899E+04  0.25500000920E-02 0.  1.
        2   -1    0    0  501    0  0.00000000000E+00  0.00000000000E+00 -0.23334523902E+04  0.23334523902E+04  0.25500000920E-02 0. -1.
    10030    2    1    2    0    0  0.00000000000E+00  0.00000000000E+00 -0.90363940030E+03  0.37632653802E+04  0.36531633081E+04 0.  0.
        5    1    3    3  502    0  0.40297756259E+03  0.29480413725E+03 -0.22617821436E+04  0.23162428522E+04  0.46999998093E+01 0. -1.
       -5    1    3    3    0  502 -0.40297756259E+03 -0.29480413725E+03  0.13581427433E+04  0.14470225280E+04  0.46999998093E+01 0.  1.
</event>
<event>
 5   0  0.4793557E-07  0.3717652E+04  0.7818609E-02  0.8064061E-01
       -2   -1    0    0    0  501  0.00000000000E+00  0.00000000000E+00  0.13555030230E+04  0.13555030230E+04  0.25500000920E-02 0. -1.
        2   -1    0    0  501    0  0.00000000000E+00  0.00000000000E+00 -0.25490426404E+04  0.25490426404E+04  0.25500000920E-02 0.  1.
    10030    2    1    2    0    0  0.00000000000E+00  0.00000000000E+00 -0.11935396174E+04  0.39045456635E+04  0.37176524877E+04 0.  0.
        3    1    3    3  502    0  0.58033153552E+03  0.32059624244E+03  0.12270986142E+04  0.13947536202E+04  0.10100000352E+00 0. -1.
       -3    1    3    3    0  502 -0.58033153552E+03 -0.32059624244E+03 -0.24206382317E+04  0.25097920433E+04  0.10100000352E+00 0.  1.
</event>
<event>
 5   0  0.1496287E-07  0.3692428E+04  0.7818609E-02  0.8069642E-01
        1   -1    0    0  501    0  0.00000000000E+00  0.00000000000E+00  0.23918917635E+04  0.23918917635E+04  0.50400001928E-02 0.  1.
       -1   -1    0    0    0  501  0.00000000000E+00  0.00000000000E+00 -0.14250254095E+04  0.14250254096E+04  0.50400001928E-02 0. -1.
    10030    2    1    2    0    0  0.00000000000E+00  0.00000000000E+00  0.96686635392E+03  0.38169171730E+04  0.36924282199E+04 0.  0.
        1    1    3    3  502    0  0.16900184402E+04 -0.30085739939E+03 -0.21905867613E+03  0.17305098111E+04  0.50400001928E-02 0. -1.
       -1    1    3    3    0  502 -0.16900184402E+04  0.30085739939E+03  0.11859250301E+04  0.20864073619E+04  0.50400001928E-02 0.  1.
</event>
<event>
 5   0  0.1496287E-07  0.3613850E+04  0.7818609E-02  0.8087326E-01
        1   -1    0    0  501    0  0.00000000000E+00  0.00000000000E+00  0.22049125424E+04  0.22049125424E+04  0.50400001928E-02 0. -1.
       -1   -1    0    0    0  501  0.00000000000E+00  0.00000000000E+00 -0.14807747016E+04  0.14807747016E+04  0.50400001928E-02 0.  1.
    10030    2    1    2    0    0  0.00000000000E+00  0.00000000000E+00  0.72413784080E+03  0.36856872440E+04  0.36138504186E+04 0.  0.
        1    1    3    3  502    0 -0.14387586092E+04  0.79711569513E+03  0.11249752678E+04  0.19927340816E+04  0.50400001928E-02 0. -1.
       -1    1    3    3    0  502  0.14387586092E+04 -0.79711569513E+03 -0.40083742703E+03  0.16929531623E+04  0.50400001928E-02 0.  1.
</event>
<event>
 5   0  0.1496000E-07  0.3699513E+04  0.7818609E-02  0.8068070E-01
       -1   -1    0    0    0  501  0.00000000000E+00  0.00000000000E+00  0.16700574604E+04  0.16700574604E+04  0.50400001928E-02 0.  1.
        1   -1    0    0  501    0  0.00000000000E+00  0.00000000000E+00 -0.20487912955E+04  0.20487912955E+04  0.50400001928E-02 0. -1.
    10030    2    1    2    0    0  0.00000000000E+00  0.00000000000E+00 -0.37873383510E+03  0.37188487560E+04  0.36995130426E+04 0.  0.
        3    1    3    3  502    0  0.69235637277E+03 -0.12769001991E+04 -0.13406773021E+04  0.19766757711E+04  0.10100000352E+00 0. -1.
       -3    1    3    3    0  502 -0.69235637277E+03  0.12769001991E+04  0.96194346703E+03  0.17421729849E+04  0.10100000352E+00 0.  1.
</event>
<event>
 5   0  0.4857514E-07  0.3738918E+04  0.7818609E-02  0.8059391E-01
        2   -1    0    0  501    0  0.00000000000E+00  0.00000000000E+00  0.24039720940E+04  0.24039720940E+04  0.25500000920E-02 0.  1.
       -2   -1    0    0    0  501  0.00000000000E+00  0.00000000000E+00 -0.14537927231E+04  0.14537927231E+04  0.25500000920E-02 0. -1.
    10030    2    1    2    0    0  0.00000000000E+00  0.00000000000E+00  0.95017937084E+03  0.38577648171E+04  0.37389180985E+04 0.  0.
        5    1    3    3  502    0  0.15594217401E+04 -0.84772121043E+03  0.10806240424E+04  0.20780273880E+04  0.46999998093E+01 0. -1.
       -5    1    3    3    0  502 -0.15594217401E+04  0.84772121043E+03 -0.13044467161E+03  0.17797374291E+04  0.46999998093E+01 0.  1.
</event>
<event>
 5   0  0.4824268E-07  0.3712987E+04  0.7818609E-02  0.8065090E-01
       -2   -1    0    0    0  501  0.00000000000E+00  0.00000000000E+00  0.13806408256E+04  0.13806408256E+04  0.25500000920E-02 0.  1.
        2   -1    0    0  501    0  0.00000000000E+00  0.00000000000E+00 -0.24963535349E+04  0.24963535349E+04  0.25500000920E-02 0. -1.
    10030    2    1    2    0    0  0.00000000000E+00  0.00000000000E+00 -0.11157127093E+04  0.38769943605E+04  0.37129867253E+04 0.  0.
        1    1    3    3  502    0 -0.60483001397E+03  0.67672558990E+03  0.11331825266E+04  0.14518538179E+04  0.50400001928E-02 0.  1.
       -1    1    3    3    0  502  0.60483001397E+03 -0.67672558990E+03 -0.22488952359E+04  0.24251405427E+04  0.50400001928E-02 0. -1.
</event>
<event>
 5   0  0.1496000E-07  0.3710759E+04  0.7818609E-02  0.8065582E-01
       -1   -1    0    0    0  501  0.00000000000E+00  0.00000000000E+00  0.17985697271E+04  0.17985697271E+04  0.50400001928E-02 0. -1.
        1   -1    0    0  501    0  0.00000000000E+00  0.00000000000E+00 -0.19139836019E+04  0.19139836019E+04  0.50400001928E-02 0.  1.
    10030    2    1    2    0    0  0.00000000000E+00  0.00000000000E+00 -0.11541387481E+03  0.37125533291E+04  0.37107589330E+04 0.  0.
        5    1    3    3  502    0 -0.12041963955E+03  0.42598096946E+03 -0.18603690528E+04  0.19123168615E+04  0.46999998093E+01 0.  1.
       -5    1    3    3    0  502  0.12041963955E+03 -0.42598096946E+03  0.17449551780E+04  0.18002364676E+04  0.46999998093E+01 0. -1.
</event>
<event>
 5   0  0.1496000E-07  0.3689337E+04  0.7818609E-02  0.8070329E-01
       -1   -1    0    0    0  501  0.00000000000E+00  0.00000000000E+00  0.34802106138E+04  0.34802106138E+04  0.50400001928E-02 0. -1.
        1   -1    0    0  501    0  0.00000000000E+00  0.00000000000E+00 -0.97775720562E+03  0.97775720563E+03  0.50400001928E-02 0.  1.
    10030    2    1    2    0    0  0.00000000000E+00  0.00000000000E+00  0.25024534081E+04  0.44579678194E+04  0.36893365283E+04 0.  0.
        5    1    3    3  502    0  0.16643633770E+04  0.53427865590E+03  0.19632445638E+04  0.26286708505E+04  0.46999998093E+01 0. -1.
       -5    1    3    3    0  502 -0.16643633770E+04 -0.53427865590E+03  0.53920884432E+03  0.18292969689E+04  0.46999998093E+01 0.  1.
</event>
<event>
 5   0  0.4824268E-07  0.3746086E+04  0.7818609E-02  0.8057825E-01
       -2   -1    0    0    0  501  0.00000000000E+00  0.00000000000E+00  0.21907940977E+04  0.21907940977E+04  0.25500000920E-02 0. -1.
        2   -1    0    0  501    0  0.00000000000E+00  0.00000000000E+00 -0.16013782906E+04  0.16013782906E+04  0.25500000920E-02 0.  1.
    10030    2    1    2    0    0  0.00000000000E+00  0.00000000000E+00  0.58941580708E+03  0.37921723884E+04  0.37460860147E+04 0.  0.
        1    1    3    3  502    0  0.85071070926E+03  0.43057868813E+03  0.19267403477E+04  0.21497523311E+04  0.50400001928E-02 0. -1.
       -1    1    3    3    0  502 -0.85071070926E+03 -0.43057868813E+03 -0.13373245406E+04  0.16424200573E+04  0.50400001928E-02 0.  1.
</event>
<event>
 5   0  0.1496000E-07  0.3534848E+04  0.7818609E-02  0.8105581E-01
        1   -1    0    0  501    0  0.00000000000E+00  0.00000000000E+00  0.17718491719E+04  0.17718491719E+04  0.50400001928E-02 0.  1.
       -1   -1    0    0    0  501  0.00000000000E+00  0.00000000000E+00 -0.17630102967E+04  0.17630102967E+04  0.50400001928E-02 0. -1.
    10030    2    1    2    0    0  0.00000000000E+00  0.00000000000E+00  0.88388751863E+01  0.35348594686E+04  0.35348484179E+04 0.  0.
        3    1    3    3  502    0  0.28692069574E+03 -0.79884509822E+03 -0.15458471118E+04  0.17635533108E+04  0.10100000352E+00 0. -1.
       -3    1    3    3    0  502 -0.28692069574E+03  0.79884509822E+03  0.15546859870E+04  0.17713061579E+04  0.10100000352E+00 0.  1.
</event>
<event>
 5   0  0.1496000E-07  0.3714549E+04  0.7818609E-02  0.8064745E-01
        1   -1    0    0  501    0  0.00000000000E+00  0.00000000000E+00  0.33425283511E+04  0.33425283511E+04  0.50400001928E-02 0. -1.
       -1   -1    0    0    0  501  0.00000000000E+00  0.00000000000E+00 -0.10319936715E+04  0.10319936715E+04  0.50400001928E-02 0.  1.
    10030    2    1    2    0    0  0.00000000000E+00  0.00000000000E+00  0.23105346796E+04  0.43745220226E+04  0.37145487507E+04 0.  0.
        2    1    3    3  502    0  0.17634956198E+04 -0.31666005834E+03  0.57919679737E+03  0.18829921199E+04  0.25500000920E-02 0.  1.
       -2    1    3    3    0  502 -0.17634956198E+04  0.31666005834E+03  0.17313378822E+04  0.24915299027E+04  0.25500000920E-02 0. -1.
</event>
<event>
 5   0  0.1522273E-07  0.3699292E+04  0.7818609E-02  0.8068119E-01
       -1   -1    0    0    0  501  0.00000000000E+00  0.00000000000E+00  0.16094585466E+04  0.16094585466E+04  0.50400001928E-02 0. -1.
        1   -1    0    0  501    0  0.00000000000E+00  0.00000000000E+00 -0.21256783268E+04  0.21256783268E+04  0.50400001928E-02 0.  1.
    10030    2    1    2    0    0  0.00000000000E+00  0.00000000000E+00 -0.51621978019E+03  0.37351368733E+04  0.36992924460E+04 0.  0.
        4    1    3    3  502    0 -0.95700918522E+03 -0.12495058414E+04  0.72293124764E+03  0.17319822834E+04  0.12699999809E+01 0. -1.
       -4    1    3    3    0  502  0.95700918522E+03  0.12495058414E+04 -0.12391510278E+04  0.20031545899E+04  0.12699999809E+01 0.  1.
</event>
<event>
 5   0  0.1522273E-07  0.3716025E+04  0.7818609E-02  0.8064420E-01
       -1   -1    0    0    0  501  0.00000000000E+00  0.00000000000E+00  0.13154944301E+04  0.13154944301E+04  0.50400001928E-02 0.  1.
        1   -1    0    0  501    0  0.00000000000E+00  0.00000000000E+00 -0.26242690152E+04  0.26242690152E+04  0.50400001928E-02 0. -1.
    10030    2    1    2    0    0  0.00000000000E+00  0.00000000000E+00 -0.13087745850E+04  0.39397634453E+04  0.37160254427E+04 0.  0.
        4    1    3    3  502    0  0.34294885920E+03  0.29867356005E+03 -0.25643500715E+04  0.26043641677E+04  0.12699999809E+01 0. -1.
       -4    1    3    3    0  502 -0.34294885920E+03 -0.29867356005E+03  0.12555754865E+04  0.13353992776E+04  0.12699999809E+01 0.  1.
</event>
<event>
 5   0  0.1496287E-07  0.3660514E+04  0.7818609E-02  0.8076769E-01
       -1   -1    0    0    0  501  0.00000000000E+00  0.00000000000E+00  0.19110845667E+04  0.19110845667E+04  0.50400001928E-02 0. -1.
        1   -1    0    0  501    0  0.00000000000E+00  0.00000000000E+00 -0.17528475452E+04  0.17528475452E+04  0.50400001928E-02 0.  1.
    10030    2    1    2    0    0  0.00000000000E+00  0.00000000000E+00  0.15823702155E+03  0.36639321119E+04  0.36605135658E+04 0.  0.
        1    1    3    3  502    0 -0.14331244099E+04  0.98649990189E+03 -0.48957779625E+03  0.18074053362E+04  0.50400001928E-02 0.  1.
       -1    1    3    3    0  502  0.14331244099E+04 -0.98649990189E+03  0.64781481780E+03  0.18565267757E+04  0.50400001928E-02 0. -1.
</event>
<event>
 5   0  0.1496000E-07  0.3356946E+04  0.7818609E-02  0.8148555E-01
       -1   -1    0    0    0  501  0.00000000000E+00  0.00000000000E+00  0.14878478526E+04  0.14878478526E+04  0.50400001928E-02 0. -1.
        1   -1    0    0  501    0  0.00000000000E+00  0.00000000000E+00 -0.18935209414E+04  0.18935209414E+04  0.50400001928E-02 0.  1.
    10030    2    1    2    0    0  0.00000000000E+00  0.00000000000E+00 -0.40567308875E+03  0.33813687940E+04  0.33569456752E+04 0.  0.
        3    1    3    3  502    0 -0.12930221270E+04  0.25306954349E+03 -0.12502676664E+04  0.18163478914E+04  0.10100000352E+00 0.  1.
       -3    1    3    3    0  502  0.12930221270E+04 -0.25306954349E+03  0.84459457767E+03  0.15650209026E+04  0.10100000352E+00 0. -1.
</event>
<event>
 5   0  0.1522273E-07  0.3709559E+04  0.7818609E-02  0.8065847E-01
       -1   -1    0    0    0  501  0.00000000000E+00  0.00000000000E+00  0.12585968453E+04  0.12585968453E+04  0.50400001928E-02 0. -1.
        1   -1    0    0  501    0  0.00000000000E+00  0.00000000000E+00 -0.27333666586E+04  0.27333666586E+04  0.50400001928E-02 0.  1.
    10030    2    1    2    0    0  0.00000000000E+00  0.00000000000E+00 -0.14747698133E+04  0.39919635039E+04  0.37095588167E+04 0.  0.
        4    1    3    3  502    0  0.13238566785E+04  0.17052554933E+02 -0.21352418815E+04  0.25123986149E+04  0.12699999809E+01 0.  1.
       -4    1    3    3    0  502 -0.13238566785E+04 -0.17052554933E+02  0.66047206825E+03  0.14795648890E+04  0.12699999809E+01 0. -1.
</event>
<event>
 5   0  0.4857514E-07  0.3689920E+04  0.7818609E-02  0.8070199E-01
       -2   -1    0    0    0  501  0.00000000000E+00  0.00000000000E+00  0.11525552022E+04  0.11525552022E+04  0.25500000920E-02 0. -1.
        2   -1    0    0  501    0  0.00000000000E+00  0.00000000000E+00 -0.29533317893E+04  0.29533317893E+04  0.25500000920E-02 0.  1.
    10030    2    1    2    0    0  0.00000000000E+00  0.00000000000E+00 -0.18007765871E+04  0.41058869915E+04  0.36899202797E+04 0.  0.
        5    1    3    3  502    0 -0.71812452120E+03 -0.40559931430E+03  0.93600219806E+03  0.12475318980E+04  0.46999998093E+01 0. -1.
       -5    1    3    3    0  502  0.71812452120E+03  0.40559931430E+03 -0.27367787852E+04  0.28583550935E+04  0.46999998093E+01 0.  1.
</event>
<event>
 5   0  0.1496000E-07  0.3796972E+04  0.7818609E-02  0.8046805E-01
       -1   -1    0    0    0  501  0.00000000000E+00  0.00000000000E+00  0.20947621125E+04  0.20947621126E+04  0.50400001928E-02 0.  1.
        1   -1    0    0  501    0  0.00000000000E+00  0.00000000000E+00 -0.17206010573E+04  0.17206010573E+04  0.50400001928E-02 0. -1.
    10030    2    1    2    0    0  0.00000000000E+00  0.00000000000E+00  0.37416105524E+03  0.38153631699E+04  0.37969724285E+04 0.  0.
        2    1    3    3  502    0  0.16673463613E+04 -0.52014355152E+03  0.93476561819E+03  0.19810047864E+04  0.25500000920E-02 0.  1.
       -2    1    3    3    0  502 -0.16673463613E+04  0.52014355152E+03 -0.56060456295E+03  0.18343583834E+04  0.25500000920E-02 0. -1.
</event>
<event>
 5   0  0.1496000E-07  0.3707204E+04  0.7818609E-02  0.8066367E-01
        1   -1    0    0  501    0  0.00000000000E+00  0.00000000000E+00  0.12389726975E+04  0.12389726976E+04  0.50400001928E-02 0. -1.
       -1   -1    0    0    0  501  0.00000000000E+00  0.00000000000E+00 -0.27731367716E+04  0.27731367716E+04  0.50400001928E-02 0.  1.
    10030    2    1    2    0    0  0.00000000000E+00  0.00000000000E+00 -0.15341640741E+04  0.40121094692E+04  0.37072042008E+04 0.  0.
        3    1    3    3  502    0 -0.26120277258E+03  0.78612478362E+03 -0.25616616788E+04  0.26922722059E+04  0.10100000352E+00 0.  1.
       -3    1    3    3    0  502  0.26120277258E+03 -0.78612478362E+03  0.10274976047E+04  0.13198372633E+04  0.10100000352E+00 0. -1.
</event>
<event>
 5   0  0.1496000E-07  0.3712634E+04  0.7818609E-02  0.8065168E-01
       -1   -1    0    0    0  501  0.00000000000E+00  0.00000000000E+00  0.16682344156E+04  0.16682344156E+04  0.50400001928E-02 0.  1.
        1   -1    0    0  501    0  0.00000000000E+00  0.00000000000E+00 -0.20656048059E+04  0.20656048059E+04  0.50400001928E-02 0. -1.
    10030    2    1    2    0    0  0.00000000000E+00  0.00000000000E+00 -0.39737039034E+03  0.37338392216E+04  0.37126341195E+04 0.  0.
        2    1    3    3  502    0  0.19251964021E+03 -0.74149717983E+03 -0.18992097414E+04  0.20478963649E+04  0.25500000920E-02 0. -1.
       -2    1    3    3    0  502 -0.19251964021E+03  0.74149717983E+03  0.15018393511E+04  0.16859428567E+04  0.25500000920E-02 0.  1.
</event>
<event>
 5   0  0.4824268E-07  0.3696983E+04  0.7818609E-02  0.8068631E-01
        2   -1    0    0  501    0  0.00000000000E+00  0.00000000000E+00  0.22000827181E+04  0.22000827181E+04  0.25500000920E-02 0. -1.
       -2   -1    0    0    0  501  0.00000000000E+00  0.00000000000E+00 -0.15530871776E+04  0.15530871776E+04  0.25500000920E-02 0.  1.
    10030    2    1    2    0    0  0.00000000000E+00  0.00000000000E+00  0.64699554052E+03  0.37531698957E+04  0.36969826936E+04 0.  0.
        1    1    3    3  502    0 -0.77406229623E+03 -0.15808811573E+04  0.89648928608E+03  0.19753609068E+04  0.50400001928E-02 0. -1.
       -1    1    3    3    0  502  0.77406229623E+03  0.15808811573E+04 -0.24949374557E+03  0.17778089889E+04  0.50400001928E-02 0.  1.
</event>
<event>
 5   0  0.1496287E-07  0.3632647E+04  0.7818609E-02  0.8083054E-01
        1   -1    0    0  501    0  0.00000000000E+00  0.00000000000E+00  0.29940923206E+04  0.29940923206E+04  0.50400001928E-02 0. -1.
       -1   -1    0    0    0  501  0.00000000000E+00  0.00000000000E+00 -0.11018469664E+04  0.11018469664E+04  0.50400001928E-02 0.  1.
    10030    2    1    2    0    0  0.00000000000E+00  0.00000000000E+00  0.18922453542E+04  0.40959392870E+04  0.36326472664E+04 0.  0.
        1    1    3    3  502    0  0.73316996890E+02  0.14929575598E+04 -0.21733561319E+03  0.15104742388E+04  0.50400001928E-02 0.  1.
       -1    1    3    3    0  502 -0.73316996890E+02 -0.14929575598E+04  0.21095809674E+04  0.25854650482E+04  0.50400001928E-02 0. -1.
</event>
<event>
 5   0  0.4758908E-07  0.3705624E+04  0.7818609E-02  0.8066717E-01
        2   -1    0    0  501    0  0.00000000000E+00  0.00000000000E+00  0.12864535672E+04  0.12864535672E+04  0.25500000920E-02 0.  1.
       -2   -1    0    0    0  501  0.00000000000E+00  0.00000000000E+00 -0.26685088596E+04  0.26685088596E+04  0.25500000920E-02 0. -1.
    10030    2    1    2    0    0  0.00000000000E+00  0.00000000000E+00 -0.13820552923E+04  0.39549624268E+04  0.37056242344E+04 0.  0.
        2    1    3    3  502    0  0.14564062566E+04 -0.22499828910E+03  0.50755416773E+03  0.15586387162E+04  0.25500000920E-02 0.  1.
       -2    1    3    3    0  502 -0.14564062566E+04  0.22499828910E+03 -0.18896094601E+04  0.23963237106E+04  0.25500000920E-02 0. -1.
</event>
<event>
 5   0  0.1496000E-07  0.4267801E+04  0.7818609E-02  0.7952599E-01
        3   -1    0    0  501    0  0.00000000000E+00  0.00000000000E+00  0.29781601923E+04  0.29781601941E+04  0.10100000352E+00 0.  1.
       -3   -1    0    0    0  501  0.00000000000E+00  0.00000000000E+00 -0.15289744833E+04  0.15289744867E+04  0.10100000352E+00 0. -1.
    10030    2    1    2    0    0  0.00000000000E+00  0.00000000000E+00  0.14491857090E+04  0.45071346807E+04  0.42678008167E+04 0.  0.
        5    1    3    3  502    0 -0.13672443819E+04 -0.17427210773E+03  0.24449908393E+04  0.28067294600E+04  0.46999998093E+01 0.  1.
       -5    1    3    3    0  502  0.13672443819E+04  0.17427210773E+03 -0.99580513023E+03  0.17004052208E+04  0.46999998093E+01 0. -1.
</event>
<event>
 5   0  0.1496287E-07  0.3650648E+04  0.7818609E-02  0.8078988E-01
        1   -1    0    0  501    0  0.00000000000E+00  0.00000000000E+00  0.14588277594E+04  0.14588277594E+04  0.50400001928E-02 0.  1.
       -1   -1    0    0    0  501  0.00000000000E+00  0.00000000000E+00 -0.22838939058E+04  0.22838939058E+04  0.50400001928E-02 0. -1.
    10030    2    1    2    0    0  0.00000000000E+00  0.00000000000E+00 -0.82506614640E+03  0.37427216652E+04  0.36506480681E+04 0.  0.
        1    1    3    3  502    0  0.72649267277E+03  0.11667417440E+04 -0.16439640774E+04  0.21428242552E+04  0.50400001928E-02 0. -1.
       -1    1    3    3    0  502 -0.72649267277E+03 -0.11667417440E+04  0.81889793105E+03  0.15998974099E+04  0.50400001928E-02 0.  1.
</event>
<event>
 5   0  0.1496000E-07  0.3697898E+04  0.7818609E-02  0.8068428E-01
        1   -1    0    0  501    0  0.00000000000E+00  0.00000000000E+00  0.21790282436E+04  0.21790282436E+04  0.50400001928E-02 0.  1.
       -1   -1    0    0    0  501  0.00000000000E+00  0.00000000000E+00 -0.15688699470E+04  0.15688699470E+04  0.50400001928E-02 0. -1.
    10030    2    1    2    0    0  0.00000000000E+00  0.00000000000E+00  0.61015829659E+03  0.37478981907E+04  0.36978977407E+04 0.  0.
        3    1    3    3  502    0  0.77728383794E+02  0.14101928079E+04 -0.90433951886E+03  0.16770555843E+04  0.10100000352E+00 0. -1.
       -3    1    3    3    0  502 -0.77728383794E+02 -0.14101928079E+04  0.15144978154E+04  0.20708426064E+04  0.10100000352E+00 0.  1.
</event>
<event>
 5   0  0.4793557E-07  0.3718889E+04  0.7818609E-02  0.8063789E-01
       -2   -1    0    0    0  501  0.00000000000E+00  0.00000000000E+00  0.16843866039E+04  0.16843866039E+04  0.25500000920E-02 0.  1.
        2   -1    0    0  501    0  0.00000000000E+00  0.00000000000E+00 -0.20526964727E+04  0.20526964727E+04  0.25500000920E-02 0. -1.
    10030    2    1    2    0    0  0.00000000000E+00  0.00000000000E+00 -0.36830986879E+03  0.37370830766E+04  0.37188893183E+04 0.  0.
        3    1    3    3  502    0 -0.71472533642E+03 -0.17298196052E+03  0.15320584667E+04  0.16993993706E+04  0.10100000352E+00 0.  1.
       -3    1    3    3    0  502  0.71472533642E+03  0.17298196052E+03 -0.19003683355E+04  0.20376837060E+04  0.10100000352E+00 0. -1.
</event>
<event>
 5   0  0.4687817E-07  0.3708445E+04  0.7818609E-02  0.8066093E-01
        2   -1    0    0  501    0  0.00000000000E+00  0.00000000000E+00  0.15376428909E+04  0.15376428909E+04  0.25500000920E-02 0.  1.
       -2   -1    0    0    0  501  0.00000000000E+00  0.00000000000E+00 -0.22359817888E+04  0.22359817888E+04  0.25500000920E-02 0. -1.
    10030    2    1    2    0    0  0.00000000000E+00  0.00000000000E+00 -0.69833889784E+03  0.37736246797E+04  0.37084452277E+04 0.  0.
        4    1    3    3  502    0  0.10692913229E+04 -0.87307934929E+03  0.91052563132E+03  0.16536958673E+04  0.12699999809E+01 0.  1.
       -4    1    3    3    0  502 -0.10692913229E+04  0.87307934929E+03 -0.16088645292E+04  0.21199288124E+04  0.12699999809E+01 0. -1.
</event>
<event>
 5   0  0.1496287E-07  0.3637688E+04  0.7818609E-02  0.8081913E-01
       -1   -1    0    0    0  501  0.00000000000E+00  0.00000000000E+00  0.14668095324E+04  0.14668095324E+04  0.50400001928E-02 0. -1.
        1   -1    0    0  501    0  0.00000000000E+00  0.00000000000E+00 -0.22553672521E+04  0.22553672521E+04  0.50400001928E-02 0.  1.
    10030    2    1    2    0    0  0.00000000000E+00  0.00000000000E+00 -0.78855771961E+03  0.37221767845E+04  0.36376883784E+04 0.  0.
        1    1    3    3  502    0  0.98529351359E+03 -0.93607310994E+03  0.84257985945E+03  0.15990550318E+04  0.50400001928E-02 0. -1.
       -1    1    3    3    0  502 -0.98529351359E+03  0.93607310994E+03 -0.16311375791E+04  0.21231217527E+04  0.50400001928E-02 0.  1.
</event>
<event>
 5   0  0.1496000E-07  0.3660976E+04  0.7818609E-02  0.8076665E-01
        1   -1    0    0  501    0  0.00000000000E+00  0.00000000000E+00  0.15091108697E+04  0.15091108697E+04  0.50400001928E-02 0. -1.
       -1   -1    0    0    0  501  0.00000000000E+00  0.00000000000E+00 -0.22203050604E+04  0.22203050604E+04  0.50400001928E-02 0.  1.
    10030    2    1    2    0    0  0.00000000000E+00  0.00000000000E+00 -0.71119419071E+03  0.37294159302E+04  0.36609760998E+04 0.  0.
        5    1    3    3  502    0 -0.94669148233E+03 -0.47523204684E+02  0.12396215112E+04  0.15605020982E+04  0.46999998093E+01 0. -1.
       -5    1    3    3    0  502  0.94669148233E+03  0.47523204684E+02 -0.19508157019E+04  0.21689138319E+04  0.46999998093E+01 0.  1.
</event>
<event>
 5   0  0.4793557E-07  0.3687055E+04  0.7818609E-02  0.8070837E-01
        2   -1    0    0  501    0  0.00000000000E+00  0.00000000000E+00  0.26057961333E+04  0.26057961333E+04  0.25500000920E-02 0. -1.
       -2   -1    0    0    0  501  0.00000000000E+00  0.00000000000E+00 -0.13042436358E+04  0.13042436358E+04  0.25500000920E-02 0.  1.
    10030    2    1    2    0    0  0.00000000000E+00  0.00000000000E+00  0.13015524975E+04  0.39100397691E+04  0.36870546635E+04 0.  0.
        3    1    3    3  502    0  0.36470323283E+03 -0.17036757675E+04  0.12897732802E+04  0.21677256961E+04  0.10100000352E+00 0.  1.
       -3    1    3    3    0  502 -0.36470323283E+03  0.17036757675E+04  0.11779217304E+02  0.17423140730E+04  0.10100000352E+00 0. -1.
</event>
<event>
 5   0  0.1522273E-07  0.3712128E+04  0.7818609E-02  0.8065280E-01
        1   -1    0    0  501    0  0.00000000000E+00  0.00000000000E+00  0.24110021036E+04  0.24110021036E+04  0.50400001928E-02 0. -1.
       -1   -1    0    0    0  501  0.00000000000E+00  0.00000000000E+00 -0.14288551090E+04  0.14288551090E+04  0.50400001928E-02 0.  1.
    10030    2    1    2    0    0  0.00000000000E+00  0.00000000000E+00  0.98214699463E+03  0.38398572126E+04  0.37121275158E+04 0.  0.
        4    1    3    3  502    0  0.33946854879E+03  0.20184154972E+03  0.23670336426E+04  0.23997559844E+04  0.12699999809E+01 0. -1.
       -4    1    3    3    0  502 -0.33946854879E+03 -0.20184154972E+03 -0.13848866479E+04  0.14401012281E+04  0.12699999809E+01 0.  1.
</event>
<event>
 5   0  0.4793557E-07  0.3751648E+04  0.7818609E-02  0.8056611E-01
       -2   -1    0    0    0  501  0.00000000000E+00  0.00000000000E+00  0.10736790650E+04  0.10736790650E+04  0.25500000920E-02 0.  1.
        2   -1    0    0  501    0  0.00000000000E+00  0.00000000000E+00 -0.32772509862E+04  0.32772509862E+04  0.25500000920E-02 0. -1.
    10030    2    1    2    0    0  0.00000000000E+00  0.00000000000E+00 -0.22035719212E+04  0.43509300512E+04  0.37516480509E+04 0.  0.
        3    1    3    3  502    0 -0.33978694451E+03 -0.11065591904E+04  0.61007084867E+03  0.13084780702E+04  0.10100000352E+00 0.  1.
       -3    1    3    3    0  502  0.33978694451E+03  0.11065591904E+04 -0.28136427699E+04  0.30424519810E+04  0.10100000352E+00 0. -1.
</event>
<event>
 5   0  0.1496000E-07  0.3887069E+04  0.7818609E-02  0.8027724E-01
       -3   -1    0    0    0  501  0.00000000000E+00  0.00000000000E+00  0.16996815435E+04  0.16996815465E+04  0.10100000352E+00 0. -1.
        3   -1    0    0  501    0  0.00000000000E+00  0.00000000000E+00 -0.22223729788E+04  0.22223729811E+04  0.10100000352E+00 0.  1.
    10030    2    1    2    0    0  0.00000000000E+00  0.00000000000E+00 -0.52269143526E+03  0.39220545276E+04  0.38870689962E+04 0.  0.
        3    1    3    3  502    0  0.10394475005E+04  0.15527296997E+04  0.27816837222E+03  0.18891263272E+04  0.10100000352E+00 0. -1.
       -3    1    3    3    0  502 -0.10394475005E+04 -0.15527296997E+04 -0.80085980748E+03  0.20329282004E+04  0.10100000352E+00 0.  1.
</event>
<event>
 5   0  0.1496000E-07  0.3720646E+04  0.7818609E-02  0.8063402E-01
       -1   -1    0    0    0  501  0.00000000000E+00  0.00000000000E+00  0.15462064231E+04  0.15462064231E+04  0.50400001928E-02 0. -1.
        1   -1    0    0  501    0  0.00000000000E+00  0.00000000000E+00 -0.22382530288E+04  0.22382530288E+04  0.50400001928E-02 0.  1.
    10030    2    1    2    0    0  0.00000000000E+00  0.00000000000E+00 -0.69204660568E+03  0.37844594520E+04  0.37206457557E+04 0.  0.
        2    1    3    3  502    0 -0.12769830822E+04  0.13510852182E+04 -0.41563800442E+03  0.19049598447E+04  0.25500000920E-02 0. -1.
       -2    1    3    3    0  502  0.12769830822E+04 -0.13510852182E+04 -0.27640860126E+03  0.18794996073E+04  0.25500000920E-02 0.  1.
</event>
<event>
 5   0  0.4857514E-07  0.3583225E+04  0.7818609E-02  0.8094345E-01
        2   -1    0    0  501    0  0.00000000000E+00  0.00000000000E+00  0.17416497079E+04  0.17416497079E+04  0.25500000920E-02 0. -1.
       -2   -1    0    0    0  501  0.00000000000E+00  0.00000000000E+00 -0.18430081249E+04  0.18430081249E+04  0.25500000920E-02 0.  1.
    10030    2    1    2    0    0  0.00000000000E+00  0.00000000000E+00 -0.10135841699E+03  0.35846578329E+04  0.35832245604E+04 0.  0.
        5    1    3    3  502    0 -0.84517809103E+03  0.98942687191E+02 -0.16279318118E+04  0.18369267092E+04  0.46999998093E+01 0.  1.
       -5    1    3    3    0  502  0.84517809103E+03 -0.98942687191E+02  0.15265733948E+04  0.17477311237E+04  0.46999998093E+01 0. -1.
</event>
<event>
 5   0  0.1496287E-07  0.3659728E+04  0.7818609E-02  0.8076946E-01
       -1   -1    0    0    0  501  0.00000000000E+00  0.00000000000E+00  0.12591101028E+04  0.12591101028E+04  0.50400001928E-02 0.  1.
        1   -1    0    0  501    0  0.00000000000E+00  0.00000000000E+00 -0.26593398986E+04  0.26593398986E+04  0.50400001928E-02 0. -1.
    10030    2    1    2    0    0  0.00000000000E+00  0.00000000000E+00 -0.14002297958E+04  0.39184500014E+04  0.36597277129E+04 0.  0.
        1    1    3    3  502    0  0.81186560867E+03 -0.15368820734E+04 -0.87597717940E+02  0.17403464121E+04  0.50400001928E-02 0.  1.
       -1    1    3    3    0  502 -0.81186560867E+03  0.15368820734E+04 -0.13126320778E+04  0.21781035893E+04  0.50400001928E-02 0. -1.
</event>
<event>
 5   0  0.1496287E-07  0.3729246E+04  0.7818609E-02  0.8061511E-01
        1   -1    0    0  501    0  0.00000000000E+00  0.00000000000E+00  0.18161077993E+04  0.18161077993E+04  0.50400001928E-02 0. -1.
       -1   -1    0    0    0  501  0.00000000000E+00  0.00000000000E+00 -0.19144344328E+04  0.19144344328E+04  0.50400001928E-02 0.  1.
    10030    2    1    2    0    0  0.00000000000E+00  0.00000000000E+00 -0.98326633546E+02  0.37305422321E+04  0.37292461998E+04 0.  0.
        1    1    3    3  502    0 -0.15356126155E+03  0.10854329194E+04 -0.15580222292E+04  0.19050404064E+04  0.50400001928E-02 0.  1.
       -1    1    3    3    0  502  0.15356126155E+03 -0.10854329194E+04  0.14596955956E+04  0.18255018257E+04  0.50400001928E-02 0. -1.
</event>
<event>
 5   0  0.4793557E-07  0.3719761E+04  0.7818609E-02  0.8063597E-01
       -2   -1    0    0    0  501  0.00000000000E+00  0.00000000000E+00  0.12239236187E+04  0.12239236187E+04  0.25500000920E-02 0. -1.
        2   -1    0    0  501    0  0.00000000000E+00  0.00000000000E+00 -0.28262832730E+04  0.28262832730E+04  0.25500000920E-02 0.  1.
    10030    2    1    2    0    0  0.00000000000E+00  0.00000000000E+00 -0.16023596543E+04  0.40502068916E+04  0.37197606648E+04 0.  0.
        3    1    3    3  502    0  0.15859485533E+04 -0.60831016849E+03 -0.16260261551E+04  0.23514325723E+04  0.10100000352E+00 0.  1.
       -3    1    3    3    0  502 -0.15859485533E+04  0.60831016849E+03  0.23666500825E+02  0.16987743194E+04  0.10100000352E+00 0. -1.
</event>
<event>
 5   0  0.1522273E-07  0.3848621E+04  0.7818609E-02  0.8035801E-01
        1   -1    0    0  501    0  0.00000000000E+00  0.00000000000E+00  0.17997753940E+04  0.17997753940E+04  0.50400001928E-02 0. -1.
       -1   -1    0    0    0  501  0.00000000000E+00  0.00000000000E+00 -0.20574631492E+04  0.20574631492E+04  0.50400001928E-02 0.  1.
    10030    2    1    2    0    0  0.00000000000E+00  0.00000000000E+00 -0.25768775520E+03  0.38572385433E+04  0.38486213376E+04 0.  0.
        4    1    3    3  502    0  0.17655375304E+04 -0.45158046486E+03  0.49053842811E+03  0.18872406444E+04  0.12699999809E+01 0. -1.
       -4    1    3    3    0  502 -0.17655375304E+04  0.45158046486E+03 -0.74822618331E+03  0.19699978989E+04  0.12699999809E+01 0.  1.
</event>
<event>
 5   0  0.1496287E-07  0.3657072E+04  0.7818609E-02  0.8077542E-01
        1   -1    0    0  501    0  0.00000000000E+00  0.00000000000E+00  0.11061727495E+04  0.11061727495E+04  0.50400001928E-02 0. -1.
       -1   -1    0    0    0  501  0.00000000000E+00  0.00000000000E+00 -0.30226238783E+04  0.30226238783E+04  0.50400001928E-02 0.  1.
    10030    2    1    2    0    0  0.00000000000E+00  0.00000000000E+00 -0.19164511288E+04  0.41287966278E+04  0.36570721438E+04 0.  0.
        1    1    3    3  502    0 -0.63645987296E+03  0.16897945003E+04 -0.12835970599E+04  0.22154250237E+04  0.50400001928E-02 0.  1.
       -1    1    3    3    0  502  0.63645987296E+03 -0.16897945003E+04 -0.63285406883E+03  0.19133716042E+04  0.50400001928E-02 0. -1.
</event>
<event>
 5   0  0.4857514E-07  0.3682754E+04  0.7818609E-02  0.8071795E-01
        2   -1    0    0  501    0  0.00000000000E+00  0.00000000000E+00  0.23122031052E+04  0.23122031052E+04  0.25500000920E-02 0. -1.
       -2   -1    0    0    0  501  0.00000000000E+00  0.00000000000E+00 -0.14664235249E+04  0.14664235249E+04  0.25500000920E-02 0.  1.
    10030    2    1    2    0    0  0.00000000000E+00  0.00000000000E+00  0.84577958035E+03  0.37786266301E+04  0.36827538760E+04 0.  0.
        5    1    3    3  502    0  0.76297496095E+03  0.21003730775E+02  0.21422451089E+04  0.22741609759E+04  0.46999998093E+01 0. -1.
       -5    1    3    3    0  502 -0.76297496095E+03 -0.21003730775E+02 -0.12964655286E+04  0.15044656541E+04  0.46999998093E+01 0.  1.
</event>
<event>
 5   0  0.1496000E-07  0.3692308E+04  0.7818609E-02  0.8069669E-01
       -1   -1    0    0    0  501  0.00000000000E+00  0.00000000000E+00  0.18183636199E+04  0.18183636199E+04  0.50400001928E-02 0.  1.
        1   -1    0    0  501    0  0.00000000000E+00  0.00000000000E+00 -0.18743686672E+04  0.18743686672E+04  0.50400001928E-02 0. -1.
    10030    2    1    2    0    0  0.00000000000E+00  0.00000000000E+00 -0.56005047279E+02  0.36927322871E+04  0.36923075683E+04 0.  0.
        5    1    3    3  502    0  0.12810274648E+04  0.71792685294E+03  0.10909699409E+04  0.18293954831E+04  0.46999998093E+01 0.  1.
       -5    1    3    3    0  502 -0.12810274648E+04 -0.71792685294E+03 -0.11469749882E+04  0.18633368040E+04  0.46999998093E+01 0. -1.
</event>
<event>
 5   0  0.4793557E-07  0.3753854E+04  0.7818609E-02  0.8056131E-01
       -2   -1    0    0    0  501  0.00000000000E+00  0.00000000000E+00  0.12351703296E+04  0.12351703296E+04  0.25500000920E-02 0. -1.
        2   -1    0    0  501    0  0.00000000000E+00  0.00000000000E+00 -0.28521209686E+04  0.28521209686E+04  0.25500000920E-02 0.  1.
    10030    2    1    2    0    0  0.00000000000E+00  0.00000000000E+00 -0.16169506390E+04  0.40872912982E+04  0.37538541244E+04 0.  0.
        3    1    3    3  502    0 -0.15747787855E+04  0.75613994408E+03 -0.15558722716E+04  0.23393192117E+04  0.10100000352E+00 0. -1.
       -3    1    3    3    0  502  0.15747787855E+04 -0.75613994408E+03 -0.61078367413E+02  0.17479720866E+04  0.10100000352E+00 0.  1.
</event>
<event>
 5   0  0.1496000E-07  0.3583544E+04  0.7818609E-02  0.8094272E-01
        1   -1    0    0  501    0  0.00000000000E+00  0.00000000000E+00  0.19271984766E+04  0.19271984766E+04  0.50400001928E-02 0. -1.
       -1   -1    0    0    0  501  0.00000000000E+00  0.00000000000E+00 -0.16658623196E+04  0.16658623196E+04  0.50400001928E-02 0.  1.
    10030    2    1    2    0    0  0.00000000000E+00  0.00000000000E+00  0.26133615696E+03  0.35930607962E+04  0.35835442369E+04 0.  0.
        2    1    3    3  502    0 -0.10838849891E+04 -0.11179981947E+04 -0.75809476728E+03  0.17318874990E+04  0.25500000920E-02 0. -1.
       -2    1    3    3    0  502  0.10838849891E+04  0.11179981947E+04  0.10194309242E+04  0.18611732972E+04  0.25500000920E-02 0.  1.
</event>
<event>
 5   0  0.1522273E-07  0.3713988E+04  0.7818609E-02  0.8064869E-01
       -1   -1    0    0    0  501  0.00000000000E+00  0.00000000000E+00  0.17632884516E+04  0.17632884516E+04  0.50400001928E-02 0. -1.
        1   -1    0    0  501    0  0.00000000000E+00  0.00000000000E+00 -0.19556797318E+04  0.19556797318E+04  0.50400001928E-02 0.  1.
    10030    2    1    2    0    0  0.00000000000E+00  0.00000000000E+00 -0.19239128019E+03  0.37189681834E+04  0.37139884147E+04 0.  0.
        4    1    3    3  502    0  0.82333533347E+03 -0.67690413570E+03  0.14264831185E+04  0.17807122116E+04  0.12699999809E+01 0. -1.
       -4    1    3    3    0  502 -0.82333533347E+03  0.67690413570E+03 -0.16188743987E+04  0.19382559718E+04  0.12699999809E+01 0.  1.
</event>
<event>
 5   0  0.1496287E-07  0.3703506E+04  0.7818609E-02  0.8067185E-01
       -1   -1    0    0    0  501  0.00000000000E+00  0.00000000000E+00  0.13486788797E+04  0.13486788797E+04  0.50400001928E-02 0.  1.
        1   -1    0    0  501    0  0.00000000000E+00  0.00000000000E+00 -0.25424795194E+04  0.25424795194E+04  0.50400001928E-02 0. -1.
    10030    2    1    2    0    0  0.00000000000E+00  0.00000000000E+00 -0.11938006397E+04  0.38911583991E+04  0.37035055987E+04 0.  0.
        1    1    3    3  502    0 -0.84493102865E+03 -0.16162580665E+04 -0.93375378503E+03  0.20489252577E+04  0.50400001928E-02 0.  1.
       -1    1    3    3    0  502  0.84493102865E+03  0.16162580665E+04 -0.26004685470E+03  0.18422331414E+04  0.50400001928E-02 0. -1.
</event>
<event>
 5   0  0.1522273E-07  0.3643677E+04  0.7818609E-02  0.8080560E-01
        1   -1    0    0  501    0  0.00000000000E+00  0.00000000000E+00  0.25772938891E+04  0.25772938891E+04  0.50400001928E-02 0. -1.
       -1   -1    0    0    0  501  0.00000000000E+00  0.00000000000E+00 -0.12878216214E+04  0.12878216214E+04  0.50400001928E-02 0.  1.
    10030    2    1    2    0    0  0.00000000000E+00  0.00000000000E+00  0.12894722677E+04  0.38651155105E+04  0.36436766021E+04 0.  0.
        4    1    3    3  502    0 -0.17109217905E+02  0.12149619450E+04  0.20846820893E+04  0.24129497051E+04  0.12699999809E+01 0. -1.
       -4    1    3    3    0  502  0.17109217905E+02 -0.12149619450E+04 -0.79520982163E+03  0.14521658054E+04  0.12699999809E+01 0.  1.
</event>
<event>
 5   0  0.4758908E-07  0.3700527E+04  0.7818609E-02  0.8067845E-01
        2   -1    0    0  501    0  0.00000000000E+00  0.00000000000E+00  0.18309592757E+04  0.18309592757E+04  0.25500000920E-02 0. -1.
       -2   -1    0    0    0  501  0.00000000000E+00  0.00000000000E+00 -0.18697711279E+04  0.18697711279E+04  0.25500000920E-02 0.  1.
    10030    2    1    2    0    0  0.00000000000E+00  0.00000000000E+00 -0.38811852202E+02  0.37007304037E+04  0.37005268761E+04 0.  0.
        2    1    3    3  502    0 -0.58335487194E+03 -0.17258089116E+04  0.30427139414E+03  0.18469705973E+04  0.25500000920E-02 0. -1.
       -2    1    3    3    0  502  0.58335487194E+03  0.17258089116E+04 -0.34308324635E+03  0.18537598064E+04  0.25500000920E-02 0.  1.
</event>
<event>
 5   0  0.4824268E-07  0.3703470E+04  0.7818609E-02  0.8067193E-01
        2   -1    0    0  501    0  0.00000000000E+00  0.00000000000E+00  0.20419144083E+04  0.20419144084E+04  0.25500000920E-02 0. -1.
       -2   -1    0    0    0  501  0.00000000000E+00  0.00000000000E+00 -0.16792682097E+04  0.16792682097E+04  0.25500000920E-02 0.  1.
    10030    2    1    2    0    0  0.00000000000E+00  0.00000000000E+00  0.36264619863E+03  0.37211826181E+04  0.37034696990E+04 0.  0.
        1    1    3    3  502    0  0.11844426791E+04  0.66759702371E+03  0.14444480525E+04  0.19836885901E+04  0.50400001928E-02 0. -1.
       -1    1    3    3    0  502 -0.11844426791E+04 -0.66759702371E+03 -0.10818018539E+04  0.17374940280E+04  0.50400001928E-02 0.  1.
</event>
<event>
 5   0  0.4793557E-07  0.3731737E+04  0.7818609E-02  0.8060965E-01
       -2   -1    0    0    0  501  0.00000000000E+00  0.00000000000E+00  0.17599901156E+04  0.17599901156E+04  0.25500000920E-02 0.  1.
        2   -1    0    0  501    0  0.00000000000E+00  0.00000000000E+00 -0.19781168425E+04  0.19781168425E+04  0.25500000920E-02 0. -1.
    10030    2    1    2    0    0  0.00000000000E+00  0.00000000000E+00 -0.21812672696E+03  0.37381069581E+04  0.37317374453E+04 0.  0.
        3    1    3    3  502    0  0.50788467618E+03 -0.46703767363E+03  0.16275031669E+04  0.17677210191E+04  0.10100000352E+00 0.  1.
       -3    1    3    3    0  502 -0.50788467618E+03  0.46703767363E+03 -0.18456298939E+04  0.19703859389E+04  0.10100000352E+00 0. -1.
</event>
<event>
 5   0  0.4824268E-07  0.3654435E+04  0.7818609E-02  0.8078135E-01
        2   -1    0    0  501    0  0.00000000000E+00  0.00000000000E+00  0.15734472983E+04  0.15734472984E+04  0.25500000920E-02 0.  1.
       -2   -1    0    0    0  501  0.00000000000E+00  0.00000000000E+00 -0.21219165485E+04  0.21219165485E+04  0.25500000920E-02 0. -1.
    10030    2    1    2    0    0  0.00000000000E+00  0.00000000000E+00 -0.54846925015E+03  0.36953638469E+04  0.36544350374E+04 0.  0.
        1    1    3    3  502    0 -0.56674756337E+03 -0.36377046857E+01  0.14823179866E+04  0.15869727934E+04  0.50400001928E-02 0.  1.
       -1    1    3    3    0  502  0.56674756337E+03  0.36377046857E+01 -0.20307872367E+04  0.21083910535E+04  0.50400001928E-02 0. -1.
</event>
<event>
 5   0  0.4687817E-07  0.3576032E+04  0.7818609E-02  0.8096004E-01
       -2   -1    0    0    0  501  0.00000000000E+00  0.00000000000E+00  0.10390109286E+04  0.10390109286E+04  0.25500000920E-02 0. -1.
        2   -1    0    0  501    0  0.00000000000E+00  0.00000000000E+00 -0.30769667487E+04  0.30769667487E+04  0.25500000920E-02 0.  1.
    10030    2    1    2    0    0  0.00000000000E+00  0.00000000000E+00 -0.20379558201E+04  0.41159776773E+04  0.35760324824E+04 0.  0.
        4    1    3    3  502    0  0.24148267060E+03  0.17669347557E+04 -0.87055751441E+03  0.19845010229E+04  0.12699999809E+01 0. -1.
       -4    1    3    3    0  502 -0.24148267060E+03 -0.17669347557E+04 -0.11673983057E+04  0.21314766544E+04  0.12699999809E+01 0.  1.
</event>
<event>
 5   0  0.1496000E-07  0.3582338E+04  0.7818609E-02  0.8094549E-01
        1   -1    0    0  501    0  0.00000000000E+00  0.00000000000E+00  0.18099396609E+04  0.18099396609E+04  0.50400001928E-02 0.  1.
       -1   -1    0    0    0  501  0.00000000000E+00  0.00000000000E+00 -0.17725929905E+04  0.17725929905E+04  0.50400001928E-02 0. -1.
    10030    2    1    2    0    0  0.00000000000E+00  0.00000000000E+00  0.37346670372E+02  0.35825326514E+04  0.35823379830E+04 0.  0.
        3    1    3    3  502    0  0.16196709463E+04 -0.18305251239E+03 -0.72395987377E+03  0.17835246300E+04  0.10100000352E+00 0. -1.
       -3    1    3    3    0  502 -0.16196709463E+04  0.18305251239E+03  0.76130654414E+03  0.17990080214E+04  0.10100000352E+00 0.  1.
</event>
<event>
 5   0  0.1496287E-07  0.3705335E+04  0.7818609E-02  0.8066781E-01
       -1   -1    0    0    0  501  0.00000000000E+00  0.00000000000E+00  0.23378098212E+04  0.23378098212E+04  0.50400001928E-02 0. -1.
        1   -1    0    0  501    0  0.00000000000E+00  0.00000000000E+00 -0.14682017649E+04  0.14682017649E+04  0.50400001928E-02 0.  1.
    10030    2    1    2    0    0  0.00000000000E+00  0.00000000000E+00  0.86960805635E+03  0.38060115861E+04  0.37053348056E+04 0.  0.
        1    1    3    3  502    0  0.66697316858E+03  0.14945553678E+04  0.13266269961E+04  0.21067719720E+04  0.50400001928E-02 0. -1.
       -1    1    3    3    0  502 -0.66697316858E+03 -0.14945553678E+04 -0.45701893978E+03  0.16992396141E+04  0.50400001928E-02 0.  1.
</event>
<event>
 5   0  0.1496000E-07  0.3720327E+04  0.7818609E-02  0.8063472E-01
       -3   -1    0    0    0  501  0.00000000000E+00  0.00000000000E+00  0.16801567504E+04  0.16801567534E+04  0.10100000352E+00 0. -1.
        3   -1    0    0  501    0  0.00000000000E+00  0.00000000000E+00 -0.20594556086E+04  0.20594556111E+04  0.10100000352E+00 0.  1.
    10030    2    1    2    0    0  0.00000000000E+00  0.00000000000E+00 -0.37929885819E+03  0.37396123645E+04  0.37203270035E+04 0.  0.
        5    1    3    3  502    0  0.98798287191E+03  0.15110983644E+04 -0.63991986409E+03  0.19154759055E+04  0.46999998093E+01 0.  1.
       -5    1    3    3    0  502 -0.98798287191E+03 -0.15110983644E+04  0.26062100590E+03  0.18241364590E+04  0.46999998093E+01 0. -1.
</event>
<event>
 5   0  0.1496287E-07  0.3674064E+04  0.7818609E-02  0.8073734E-01
        1   -1    0    0  501    0  0.00000000000E+00  0.00000000000E+00  0.23566335498E+04  0.23566335499E+04  0.50400001928E-02 0. -1.
       -1   -1    0    0    0  501  0.00000000000E+00  0.00000000000E+00 -0.14319942866E+04  0.14319942866E+04  0.50400001928E-02 0.  1.
    10030    2    1    2    0    0  0.00000000000E+00  0.00000000000E+00  0.92463926326E+03  0.37886278365E+04  0.36740635699E+04 0.  0.
        1    1    3    3  502    0 -0.84375426287E+03  0.69972851121E+02  0.21434523871E+04  0.23046053006E+04  0.50400001928E-02 0. -1.
       -1    1    3    3    0  502  0.84375426287E+03 -0.69972851121E+02 -0.12188131238E+04  0.14840225358E+04  0.50400001928E-02 0.  1.
</event>
<event>
 5   0  0.1522273E-07  0.3705991E+04  0.7818609E-02  0.8066635E-01
        1   -1    0    0  501    0  0.00000000000E+00  0.00000000000E+00  0.14851181942E+04  0.14851181942E+04  0.50400001928E-02 0. -1.
       -1   -1    0    0    0  501  0.00000000000E+00  0.00000000000E+00 -0.23119990649E+04  0.23119990649E+04  0.50400001928E-02 0.  1.
    10030    2    1    2    0    0  0.00000000000E+00  0.00000000000E+00 -0.82688087077E+03  0.37971172591E+04  0.37059907589E+04 0.  0.
        4    1    3    3  502    0  0.30992113459E+03  0.16047877954E+04 -0.13079455041E+04  0.20933509100E+04  0.12699999809E+01 0.  1.
       -4    1    3    3    0  502 -0.30992113459E+03 -0.16047877954E+04  0.48106463336E+03  0.17037663491E+04  0.12699999809E+01 0. -1.
</event>
<event>
 5   0  0.1496000E-07  0.3708630E+04  0.7818609E-02  0.8066052E-01
        1   -1    0    0  501    0  0.00000000000E+00  0.00000000000E+00  0.30047257193E+04  0.30047257193E+04  0.50400001928E-02 0.  1.
       -1   -1    0    0    0  501  0.00000000000E+00  0.00000000000E+00 -0.11443585667E+04  0.11443585667E+04  0.50400001928E-02 0. -1.
    10030    2    1    2    0    0  0.00000000000E+00  0.00000000000E+00  0.18603671526E+04  0.41490842860E+04  0.37086297294E+04 0.  0.
        3    1    3    3  502    0 -0.65063861773E+03 -0.43724934332E+03  0.28102297445E+04  0.29175175794E+04  0.10100000352E+00 0.  1.
       -3    1    3    3    0  502  0.65063861773E+03  0.43724934332E+03 -0.94986259189E+03  0.12315667066E+04  0.10100000352E+00 0. -1.
</event>
<event>
 5   0  0.4687817E-07  0.3703922E+04  0.7818609E-02  0.8067093E-01
        2   -1    0    0  501    0  0.00000000000E+00  0.00000000000E+00  0.25691336491E+04  0.25691336491E+04  0.25500000920E-02 0.  1.
       -2   -1    0    0    0  501  0.00000000000E+00  0.00000000000E+00 -0.13349868124E+04  0.13349868124E+04  0.25500000920E-02 0. -1.
    10030    2    1    2    0    0  0.00000000000E+00  0.00000000000E+00  0.12341468367E+04  0.39041204615E+04  0.37039219975E+04 0.  0.
        4    1    3    3  502    0  0.16874279450E+04 -0.61703989509E+03  0.10903486516E+04  0.21016691216E+04  0.12699999809E+01 0.  1.
       -4    1    3    3    0  502 -0.16874279450E+04  0.61703989509E+03  0.14379818517E+03  0.18024513399E+04  0.12699999809E+01 0. -1.
</event>
<event>
 5   0  0.1496000E-07  0.3543924E+04  0.7818609E-02  0.8103459E-01
       -1   -1    0    0    0  501  0.00000000000E+00  0.00000000000E+00  0.21062093767E+04  0.21062093767E+04  0.50400001928E-02 0. -1.
        1   -1    0    0  501    0  0.00000000000E+00  0.00000000000E+00 -0.14907582167E+04  0.14907582167E+04  0.50400001928E-02 0.  1.
    10030    2    1    2    0    0  0.00000000000E+00  0.00000000000E+00  0.61545116003E+03  0.35969675934E+04  0.35439237770E+04 0.  0.
        2    1    3    3  502    0 -0.16510009882E+04 -0.63546665215E+03  0.20508427937E+03  0.17809215847E+04  0.25500000920E-02 0.  1.
       -2    1    3    3    0  502  0.16510009882E+04  0.63546665215E+03  0.41036688067E+03  0.18160460087E+04  0.25500000920E-02 0. -1.
</event>
<event>
 5   0  0.1496000E-07  0.3699706E+04  0.7818609E-02  0.8068027E-01
        1   -1    0    0  501    0  0.00000000000E+00  0.00000000000E+00  0.27972303107E+04  0.27972303107E+04  0.50400001928E-02 0.  1.
       -1   -1    0    0    0  501  0.00000000000E+00  0.00000000000E+00 -0.12233371118E+04  0.12233371119E+04  0.50400001928E-02 0. -1.
    10030    2    1    2    0    0  0.00000000000E+00  0.00000000000E+00  0.15738931989E+04  0.40205674225E+04  0.36997057448E+04 0.  0.
        3    1    3    3  502    0  0.65959093607E+03 -0.65449859311E+00  0.26650960344E+04  0.27455049653E+04  0.10100000352E+00 0.  1.
       -3    1    3    3    0  502 -0.65959093607E+03  0.65449859311E+00 -0.10912028356E+04  0.12750624573E+04  0.10100000352E+00 0. -1.
</event>
<event>
 5   0  0.4857514E-07  0.3669647E+04  0.7818609E-02  0.8074722E-01
       -2   -1    0    0    0  501  0.00000000000E+00  0.00000000000E+00  0.15829539061E+04  0.15829539061E+04  0.25500000920E-02 0.  1.
        2   -1    0    0  501    0  0.00000000000E+00  0.00000000000E+00 -0.21267685767E+04  0.21267685768E+04  0.25500000920E-02 0. -1.
    10030    2    1    2    0    0  0.00000000000E+00  0.00000000000E+00 -0.54381467070E+03  0.37097224828E+04  0.36696466456E+04 0.  0.
        5    1    3    3  502    0  0.11702773490E+04  0.11434747112E+04  0.56750469929E+03  0.17318103713E+04  0.46999998093E+01 0.  1.
       -5    1    3    3    0  502 -0.11702773490E+04 -0.11434747112E+04 -0.11113193700E+04  0.19779121115E+04  0.46999998093E+01 0. -1.
</event>
<event>
 5   0  0.1496000E-07  0.3713694E+04  0.7818609E-02  0.8064934E-01
        1   -1    0    0  501    0  0.00000000000E+00  0.00000000000E+00  0.28159829919E+04  0.28159829919E+04  0.50400001928E-02 0. -1.
       -1   -1    0    0    0  501  0.00000000000E+00  0.00000000000E+00 -0.12243970024E+04  0.12243970024E+04  0.50400001928E-02 0.  1.
    10030    2    1    2    0    0  0.00000000000E+00  0.00000000000E+00  0.15915859895E+04  0.40403799944E+04  0.37136941900E+04 0.  0.
        2    1    3    3  502    0 -0.90496370367E+03  0.10673525358E+04 -0.53209860867E+03  0.14971071004E+04  0.25500000920E-02 0.  1.
       -2    1    3    3    0  502  0.90496370367E+03 -0.10673525358E+04  0.21236845981E+04  0.25432728940E+04  0.25500000920E-02 0. -1.
</event>
<event>
 5   0  0.1496000E-07  0.3743288E+04  0.7818609E-02  0.8058436E-01
       -1   -1    0    0    0  501  0.00000000000E+00  0.00000000000E+00  0.13671991099E+04  0.13671991099E+04  0.50400001928E-02 0. -1.
        1   -1    0    0  501    0  0.00000000000E+00  0.00000000000E+00 -0.25622098014E+04  0.25622098014E+04  0.50400001928E-02 0.  1.
    10030    2    1    2    0    0  0.00000000000E+00  0.00000000000E+00 -0.11950106915E+04  0.39294089112E+04  0.37432878381E+04 0.  0.
        5    1    3    3  502    0 -0.17451663016E+04  0.52467840639E+03 -0.14951162895E+03  0.18284607372E+04  0.46999998093E+01 0.  1.
       -5    1    3    3    0  502  0.17451663016E+04 -0.52467840639E+03 -0.10454990626E+04  0.21009481741E+04  0.46999998093E+01 0. -1.
</event>
<event>
 5   0  0.1496000E-07  0.3660561E+04  0.7818609E-02  0.8076759E-01
        1   -1    0    0  501    0  0.00000000000E+00  0.00000000000E+00  0.21203193251E+04  0.21203193251E+04  0.50400001928E-02 0. -1.
       -1   -1    0    0    0  501  0.00000000000E+00  0.00000000000E+00 -0.15799159772E+04  0.15799159772E+04  0.50400001928E-02 0.  1.
    10030    2    1    2    0    0  0.00000000000E+00  0.00000000000E+00  0.54040334795E+03  0.37002353023E+04  0.36605608196E+04 0.  0.
        5    1    3    3  502    0 -0.28161561392E+03  0.10941095586E+04 -0.11853779121E+04  0.16375365537E+04  0.46999998093E+01 0.  1.
       -5    1    3    3    0  502  0.28161561392E+03 -0.10941095586E+04  0.17257812600E+04  0.20626987486E+04  0.46999998093E+01 0. -1.
</event>
<event>
 5   0  0.4758908E-07  0.3722491E+04  0.7818609E-02  0.8062996E-01
        2   -1    0    0  501    0  0.00000000000E+00  0.00000000000E+00  0.24429714301E+04  0.24429714301E+04  0.25500000920E-02 0. -1.
       -2   -1    0    0    0  501  0.00000000000E+00  0.00000000000E+00 -0.14180411991E+04  0.14180411991E+04  0.25500000920E-02 0.  1.
    10030    2    1    2    0    0  0.00000000000E+00  0.00000000000E+00  0.10249302310E+04  0.38610126291E+04  0.37224906372E+04 0.  0.
        2    1    3    3  502    0 -0.34863092489E+03 -0.15757616136E+03 -0.13768163346E+04  0.14289846002E+04  0.25500000920E-02 0.  1.
       -2    1    3    3    0  502  0.34863092489E+03  0.15757616136E+03  0.24017465656E+04  0.24320280290E+04  0.25500000920E-02 0. -1.
</event>
<event>
 5   0  0.4758908E-07  0.3713543E+04  0.7818609E-02  0.8064967E-01
       -2   -1    0    0    0  501  0.00000000000E+00  0.00000000000E+00  0.18896586061E+04  0.18896586061E+04  0.25500000920E-02 0. -1.
        2   -1    0    0  501    0  0.00000000000E+00  0.00000000000E+00 -0.18244572290E+04  0.18244572290E+04  0.25500000920E-02 0.  1.
    10030    2    1    2    0    0  0.00000000000E+00  0.00000000000E+00  0.65201377071E+02  0.37141158351E+04  0.37135434853E+04 0.  0.
        2    1    3    3  502    0 -0.14478043913E+04 -0.42018426090E+03 -0.10514985363E+04  0.18380265342E+04  0.25500000920E-02 0.  1.
       -2    1    3    3    0  502  0.14478043913E+04  0.42018426090E+03  0.11166999133E+04  0.18760893009E+04  0.25500000920E-02 0. -1.
</event>
<event>
 5   0  0.4857514E-07  0.3745718E+04  0.7818609E-02  0.8057905E-01
       -2   -1    0    0    0  501  0.00000000000E+00  0.00000000000E+00  0.14850812755E+04  0.14850812755E+04  0.25500000920E-02 0.  1.
        2   -1    0    0  501    0  0.00000000000E+00  0.00000000000E+00 -0.23618918406E+04  0.23618918406E+04  0.25500000920E-02 0. -1.
    10030    2    1    2    0    0  0.00000000000E+00  0.00000000000E+00 -0.87681056507E+03  0.38469731160E+04  0.37457182741E+04 0.  0.
        5    1    3    3  502    0 -0.17890250664E+04  0.14213150500E+03  0.11157710583E+03  0.17981333637E+04  0.46999998093E+01 0. -1.
       -5    1    3    3    0  502  0.17890250664E+04 -0.14213150500E+03 -0.98838767090E+03  0.20488397524E+04  0.46999998093E+01 0.  1.
</event>
<event>
 5   0  0.4687817E-07  0.3711616E+04  0.7818609E-02  0.8065392E-01
       -2   -1    0    0    0  501  0.00000000000E+00  0.00000000000E+00  0.14918962226E+04  0.14918962226E+04  0.25500000920E-02 0. -1.
        2   -1    0    0  501    0  0.00000000000E+00  0.00000000000E+00 -0.23084875220E+04  0.23084875220E+04  0.25500000920E-02 0.  1.
    10030    2    1    2    0    0  0.00000000000E+00  0.00000000000E+00 -0.81659129934E+03  0.38003837446E+04  0.37116162592E+04 0.  0.
        4    1    3    3  502    0 -0.12944459760E+04  0.70470304885E+02  0.95141938038E+03  0.16080288862E+04  0.12699999809E+01 0. -1.
       -4    1    3    3    0  502  0.12944459760E+04 -0.70470304885E+02 -0.17680106797E+04  0.21923548584E+04  0.12699999809E+01 0.  1.
</event>
<event>
 5   0  0.1496287E-07  0.3643009E+04  0.7818609E-02  0.8080710E-01
       -1   -1    0    0    0  501  0.00000000000E+00  0.00000000000E+00  0.14692633893E+04  0.14692633894E+04  0.50400001928E-02 0. -1.
        1   -1    0    0  501    0  0.00000000000E+00  0.00000000000E+00 -0.22581915521E+04  0.22581915521E+04  0.50400001928E-02 0.  1.
    10030    2    1    2    0    0  0.00000000000E+00  0.00000000000E+00 -0.78892816272E+03  0.37274549414E+04  0.36430087420E+04 0.  0.
        1    1    3    3  502    0 -0.66568425306E+03 -0.15819256775E+04  0.22980490322E+03  0.17315988761E+04  0.50400001928E-02 0. -1.
       -1    1    3    3    0  502  0.66568425306E+03  0.15819256775E+04 -0.10187330659E+04  0.19958560654E+04  0.50400001928E-02 0.  1.
</event>
<event>
 5   0  0.4687817E-07  0.3200723E+04  0.7818609E-02  0.8188626E-01
       -2   -1    0    0    0  501  0.00000000000E+00  0.00000000000E+00  0.10212685488E+04  0.10212685488E+04  0.25500000920E-02 0.  1.
        2   -1    0    0  501    0  0.00000000000E+00  0.00000000000E+00 -0.25078195699E+04  0.25078195699E+04  0.25500000920E-02 0. -1.
    10030    2    1    2    0    0  0.00000000000E+00  0.00000000000E+00 -0.14865510211E+04  0.35290881187E+04  0.32007232012E+04 0.  0.
        4    1    3    3  502    0 -0.12124947381E+04  0.10062804323E+04 -0.43452675809E+03  0.16344904144E+04  0.12699999809E+01 0.  1.
       -4    1    3    3    0  502  0.12124947381E+04 -0.10062804323E+04 -0.10520242630E+04  0.18945977043E+04  0.12699999809E+01 0. -1.
</event>
<event>
 5   0  0.1522273E-07  0.3401872E+04  0.7818609E-02  0.8137447E-01
       -1   -1    0    0    0  501  0.00000000000E+00  0.00000000000E+00  0.18145633165E+04  0.18145633166E+04  0.50400001928E-02 0.  1.
        1   -1    0    0  501    0  0.00000000000E+00  0.00000000000E+00 -0.15944236874E+04  0.15944236874E+04  0.50400001928E-02 0. -1.
    10030    2    1    2    0    0  0.00000000000E+00  0.00000000000E+00  0.22013962913E+03  0.34089870040E+04  0.34018716814E+04 0.  0.
        4    1    3    3  502    0  0.15346699106E+04  0.20982957487E+03 -0.59420949196E+03  0.16590137788E+04  0.12699999809E+01 0. -1.
       -4    1    3    3    0  502 -0.15346699106E+04 -0.20982957487E+03  0.81434912109E+03  0.17499732252E+04  0.12699999809E+01 0.  1.
</event>
<event>
 5   0  0.4824268E-07  0.3613345E+04  0.7818609E-02  0.8087442E-01
        2   -1    0    0  501    0  0.00000000000E+00  0.00000000000E+00  0.14890752935E+04  0.14890752935E+04  0.25500000920E-02 0.  1.
       -2   -1    0    0    0  501  0.00000000000E+00  0.00000000000E+00 -0.21920084323E+04  0.21920084323E+04  0.25500000920E-02 0. -1.
    10030    2    1    2    0    0  0.00000000000E+00  0.00000000000E+00 -0.70293313877E+03  0.36810837258E+04  0.36133450429E+04 0.  0.
        1    1    3    3  502    0  0.84826532897E+03 -0.50581640132E+03  0.11897264157E+04  0.15462384177E+04  0.50400001928E-02 0.  1.
       -1    1    3    3    0  502 -0.84826532897E+03  0.50581640132E+03 -0.18926595545E+04  0.21348453081E+04  0.50400001928E-02 0. -1.
</event>
<event>
 5   0  0.1496000E-07  0.3700153E+04  0.7818609E-02  0.8067928E-01
        1   -1    0    0  501    0  0.00000000000E+00  0.00000000000E+00  0.18252140607E+04  0.18252140608E+04  0.50400001928E-02 0.  1.
       -1   -1    0    0    0  501  0.00000000000E+00  0.00000000000E+00 -0.18752773398E+04  0.18752773398E+04  0.50400001928E-02 0. -1.
    10030    2    1    2    0    0  0.00000000000E+00  0.00000000000E+00 -0.50063279077E+02  0.37004914006E+04  0.37001527366E+04 0.  0.
        3    1    3    3  502    0  0.89962984536E+03  0.13605625308E+04 -0.89821996474E+03  0.18620589073E+04  0.10100000352E+00 0. -1.
       -3    1    3    3    0  502 -0.89962984536E+03 -0.13605625308E+04  0.84815668566E+03  0.18384324933E+04  0.10100000352E+00 0.  1.
</event>
<event>
 5   0  0.4793557E-07  0.3737867E+04  0.7818609E-02  0.8059622E-01
       -2   -1    0    0    0  501  0.00000000000E+00  0.00000000000E+00  0.22380758566E+04  0.22380758566E+04  0.25500000920E-02 0. -1.
        2   -1    0    0  501    0  0.00000000000E+00  0.00000000000E+00 -0.15606763836E+04  0.15606763836E+04  0.25500000920E-02 0.  1.
    10030    2    1    2    0    0  0.00000000000E+00  0.00000000000E+00  0.67739947300E+03  0.37987522402E+04  0.37378668431E+04 0.  0.
        3    1    3    3  502    0 -0.14160788155E+04  0.59421880061E+03 -0.74379666533E+03  0.17063436595E+04  0.10100000352E+00 0.  1.
       -3    1    3    3    0  502  0.14160788155E+04 -0.59421880061E+03  0.14211961383E+04  0.20924085807E+04  0.10100000352E+00 0. -1.
</event>
<event>
 5   0  0.1496000E-07  0.3605134E+04  0.7818609E-02  0.8089317E-01
        1   -1    0    0  501    0  0.00000000000E+00  0.00000000000E+00  0.18143505182E+04  0.18143505182E+04  0.50400001928E-02 0. -1.
       -1   -1    0    0    0  501  0.00000000000E+00  0.00000000000E+00 -0.17908597704E+04  0.17908597704E+04  0.50400001928E-02 0.  1.
    10030    2    1    2    0    0  0.00000000000E+00  0.00000000000E+00  0.23490747805E+02  0.36052102887E+04  0.36051337576E+04 0.  0.
        5    1    3    3  502    0  0.98700408651E+03  0.84803197518E+03  0.12591250369E+04  0.18107327926E+04  0.46999998093E+01 0. -1.
       -5    1    3    3    0  502 -0.98700408651E+03 -0.84803197518E+03 -0.12356342890E+04  0.17944774961E+04  0.46999998093E+01 0.  1.
</event>
<event>
 5   0  0.4824268E-07  0.3678218E+04  0.7818609E-02  0.8072806E-01
       -2   -1    0    0    0  501  0.00000000000E+00  0.00000000000E+00  0.13361816843E+04  0.13361816843E+04  0.25500000920E-02 0. -1.
        2   -1    0    0  501    0  0.00000000000E+00  0.00000000000E+00 -0.25313337453E+04  0.25313337453E+04  0.25500000920E-02 0.  1.
    10030    2    1    2    0    0  0.00000000000E+00  0.00000000000E+00 -0.11951520610E+04  0.38675154296E+04  0.36782179312E+04 0.  0.
        1    1    3    3  502    0  0.86372668659E+03 -0.14302120650E+04  0.21061066655E+03  0.16840092615E+04  0.50400001928E-02 0. -1.
       -1    1    3    3    0  502 -0.86372668659E+03  0.14302120650E+04 -0.14057627275E+04  0.21835061681E+04  0.50400001928E-02 0.  1.
</event>
<event>
 5   0  0.4793557E-07  0.3694183E+04  0.7818609E-02  0.8069252E-01
        2   -1    0    0  501    0  0.00000000000E+00  0.00000000000E+00  0.29441117661E+04  0.29441117661E+04  0.25500000920E-02 0.  1.
       -2   -1    0    0    0  501  0.00000000000E+00  0.00000000000E+00 -0.11588373883E+04  0.11588373883E+04  0.25500000920E-02 0. -1.
    10030    2    1    2    0    0  0.00000000000E+00  0.00000000000E+00  0.17852743778E+04  0.41029491543E+04  0.36941828811E+04 0.  0.
        3    1    3    3  502    0  0.21822783224E+03 -0.13257928922E+04 -0.51504343137E+03  0.14389648801E+04  0.10100000352E+00 0.  1.
       -3    1    3    3    0  502 -0.21822783224E+03  0.13257928922E+04  0.23003178092E+04  0.26639842742E+04  0.10100000352E+00 0. -1.
</event>
<event>
 5   0  0.1496000E-07  0.3706656E+04  0.7818609E-02  0.8066488E-01
       -3   -1    0    0    0  501  0.00000000000E+00  0.00000000000E+00  0.18502870854E+04  0.18502870881E+04  0.10100000352E+00 0. -1.
        3   -1    0    0  501    0  0.00000000000E+00  0.00000000000E+00 -0.18563736896E+04  0.18563736923E+04  0.10100000352E+00 0.  1.
    10030    2    1    2    0    0  0.00000000000E+00  0.00000000000E+00 -0.60866042113E+01  0.37066607805E+04  0.37066557832E+04 0.  0.
        5    1    3    3  502    0 -0.11217235924E+04 -0.85065846001E+02  0.14698137912E+04  0.18509118527E+04  0.46999998093E+01 0. -1.
       -5    1    3    3    0  502  0.11217235924E+04  0.85065846001E+02 -0.14759003954E+04  0.18557489278E+04  0.46999998093E+01 0.  1.
</event>
<event>
 5   0  0.1522273E-07  0.3697733E+04  0.7818609E-02  0.8068464E-01
        1   -1    0    0  501    0  0.00000000000E+00  0.00000000000E+00  0.18524629466E+04  0.18524629466E+04  0.50400001928E-02 0. -1.
       -1   -1    0    0    0  501  0.00000000000E+00  0.00000000000E+00 -0.18452774345E+04  0.18452774345E+04  0.50400001928E-02 0.  1.
    10030    2    1    2    0    0  0.00000000000E+00  0.00000000000E+00  0.71855121272E+01  0.36977403811E+04  0.36977333996E+04 0.  0.
        4    1    3    3  502    0 -0.15006805132E+04 -0.99836184758E+03  0.41534355393E+03  0.18496703117E+04  0.12699999809E+01 0. -1.
       -4    1    3    3    0  502  0.15006805132E+04  0.99836184758E+03 -0.40815804180E+03  0.18480700694E+04  0.12699999809E+01 0.  1.
</event>
<event>
 5   0  0.1496000E-07  0.3688593E+04  0.7818609E-02  0.8070494E-01
        1   -1    0    0  501    0  0.00000000000E+00  0.00000000000E+00  0.25449791249E+04  0.25449791249E+04  0.50400001928E-02 0.  1.
       -1   -1    0    0    0  501  0.00000000000E+00  0.00000000000E+00 -0.13365256328E+04  0.13365256328E+04  0.50400001928E-02 0. -1.
    10030    2    1    2    0    0  0.00000000000E+00  0.00000000000E+00  0.12084534921E+04  0.38815047577E+04  0.36885931385E+04 0.  0.
        2    1    3    3  502    0 -0.82563841462E+03  0.13847580865E+04 -0.33826951932E+03  0.16473190394E+04  0.25500000920E-02 0. -1.
       -2    1    3    3    0  502  0.82563841462E+03 -0.13847580865E+04  0.15467230114E+04  0.22341857183E+04  0.25500000920E-02 0.  1.
</event>
<event>
 5   0  0.4687817E-07  0.3682466E+04  0.7818609E-02  0.8071859E-01
        2   -1    0    0  501    0  0.00000000000E+00  0.00000000000E+00  0.16691665473E+04  0.16691665473E+04  0.25500000920E-02 0. -1.
       -2   -1    0    0    0  501  0.00000000000E+00  0.00000000000E+00 -0.20310369493E+04  0.20310369494E+04  0.25500000920E-02 0.  1.
    10030    2    1    2    0    0  0.00000000000E+00  0.00000000000E+00 -0.36187040204E+03  0.37002034967E+04  0.36824659847E+04 0.  0.
        4    1    3    3  502    0 -0.15974658117E+04 -0.85249783609E+03 -0.51644130016E+03  0.18829133834E+04  0.12699999809E+01 0.  1.
       -4    1    3    3    0  502  0.15974658117E+04  0.85249783609E+03  0.15457089812E+03  0.18172901132E+04  0.12699999809E+01 0. -1.
</event>
<event>
 5   0  0.4824268E-07  0.3721706E+04  0.7818609E-02  0.8063168E-01
        2   -1    0    0  501    0  0.00000000000E+00  0.00000000000E+00  0.22500889920E+04  0.22500889920E+04  0.25500000920E-02 0. -1.
       -2   -1    0    0    0  501  0.00000000000E+00  0.00000000000E+00 -0.15389497437E+04  0.15389497437E+04  0.25500000920E-02 0.  1.
    10030    2    1    2    0    0  0.00000000000E+00  0.00000000000E+00  0.71113924826E+03  0.37890387357E+04  0.37217059946E+04 0.  0.
        1    1    3    3  502    0  0.48813842111E+03  0.82365382434E+03 -0.12689455980E+04  0.15896250096E+04  0.50400001928E-02 0.  1.
       -1    1    3    3    0  502 -0.48813842111E+03 -0.82365382434E+03  0.19800848462E+04  0.21994137261E+04  0.50400001928E-02 0. -1.
</event>
<event>
 5   0  0.1496287E-07  0.3670396E+04  0.7818609E-02  0.8074554E-01
        1   -1    0    0  501    0  0.00000000000E+00  0.00000000000E+00  0.28543356477E+04  0.28543356478E+04  0.50400001928E-02 0. -1.
       -1   -1    0    0    0  501  0.00000000000E+00  0.00000000000E+00 -0.11799422844E+04  0.11799422844E+04  0.50400001928E-02 0.  1.
    10030    2    1    2    0    0  0.00000000000E+00  0.00000000000E+00  0.16743933634E+04  0.40342779322E+04  0.36703957959E+04 0.  0.
        1    1    3    3  502    0  0.10659836571E+04 -0.13401490029E+04  0.11173878336E+03  0.17160437241E+04  0.50400001928E-02 0.  1.
       -1    1    3    3    0  502 -0.10659836571E+04  0.13401490029E+04  0.15626545800E+04  0.23182342081E+04  0.50400001928E-02 0. -1.
</event>
<event>
 5   0  0.4857514E-07  0.3626660E+04  0.7818609E-02  0.8084412E-01
       -2   -1    0    0    0  501  0.00000000000E+00  0.00000000000E+00  0.19882287753E+04  0.19882287753E+04  0.25500000920E-02 0. -1.
        2   -1    0    0  501    0  0.00000000000E+00  0.00000000000E+00 -0.16538170143E+04  0.16538170143E+04  0.25500000920E-02 0.  1.
    10030    2    1    2    0    0  0.00000000000E+00  0.00000000000E+00  0.33441176103E+03  0.36420457896E+04  0.36266604897E+04 0.  0.
        5    1    3    3  502    0  0.14918107729E+04 -0.97736418542E+03  0.49632221989E+03  0.18512422772E+04  0.46999998093E+01 0.  1.
       -5    1    3    3    0  502 -0.14918107729E+04  0.97736418542E+03 -0.16191045885E+03  0.17908035123E+04  0.46999998093E+01 0. -1.
</event>
<event>
 5   0  0.1522273E-07  0.3691839E+04  0.7818609E-02  0.8069773E-01
        1   -1    0    0  501    0  0.00000000000E+00  0.00000000000E+00  0.21322104096E+04  0.21322104096E+04  0.50400001928E-02 0. -1.
       -1   -1    0    0    0  501  0.00000000000E+00  0.00000000000E+00 -0.15980691461E+04  0.15980691461E+04  0.50400001928E-02 0.  1.
    10030    2    1    2    0    0  0.00000000000E+00  0.00000000000E+00  0.53414126356E+03  0.37302795557E+04  0.36918394703E+04 0.  0.
        4    1    3    3  502    0 -0.28586492728E+03  0.16503930039E+04  0.10509722269E+04  0.19773871798E+04  0.12699999809E+01 0. -1.
       -4    1    3    3    0  502  0.28586492728E+03 -0.16503930039E+04 -0.51683096332E+03  0.17528923759E+04  0.12699999809E+01 0.  1.
</event>
<event>
 5   0  0.1496000E-07  0.3685309E+04  0.7818609E-02  0.8071225E-01
       -1   -1    0    0    0  501  0.00000000000E+00  0.00000000000E+00  0.22492712191E+04  0.22492712191E+04  0.50400001928E-02 0.  1.
        1   -1    0    0  501    0  0.00000000000E+00  0.00000000000E+00 -0.15095445542E+04  0.15095445542E+04  0.50400001928E-02 0. -1.
    10030    2    1    2    0    0  0.00000000000E+00  0.00000000000E+00  0.73972666485E+03  0.37588157733E+04  0.36853087359E+04 0.  0.
        5    1    3    3  502    0  0.16347290596E+04  0.61075948001E+03 -0.23353344940E+03  0.17606607291E+04  0.46999998093E+01 0. -1.
       -5    1    3    3    0  502 -0.16347290596E+04 -0.61075948001E+03  0.97326011425E+03  0.19981550443E+04  0.46999998093E+01 0.  1.
</event>
<event>
 5   0  0.1496000E-07  0.3688960E+04  0.7818609E-02  0.8070413E-01
       -1   -1    0    0    0  501  0.00000000000E+00  0.00000000000E+00  0.22927568120E+04  0.22927568120E+04  0.50400001928E-02 0.  1.
        1   -1    0    0  501    0  0.00000000000E+00  0.00000000000E+00 -0.14838497520E+04  0.14838497520E+04  0.50400001928E-02 0. -1.
    10030    2    1    2    0    0  0.00000000000E+00  0.00000000000E+00  0.80890706006E+03  0.37766065640E+04  0.36889600849E+04 0.  0.
        2    1    3    3  502    0  0.94080547646E+03  0.47882845702E+02  0.20279105101E+04  0.22360296842E+04  0.25500000920E-02 0.  1.
       -2    1    3    3    0  502 -0.94080547646E+03 -0.47882845702E+02 -0.12190034501E+04  0.15405768799E+04  0.25500000920E-02 0. -1.
</event>
<event>
 5   0  0.4687817E-07  0.3828322E+04  0.7818609E-02  0.8040104E-01
        2   -1    0    0  501    0  0.00000000000E+00  0.00000000000E+00  0.22050559422E+04  0.22050559422E+04  0.25500000920E-02 0.  1.
       -2   -1    0    0    0  501  0.00000000000E+00  0.00000000000E+00 -0.16616418129E+04  0.16616418129E+04  0.25500000920E-02 0. -1.
    10030    2    1    2    0    0  0.00000000000E+00  0.00000000000E+00  0.54341412932E+03  0.38666977550E+04  0.38283224280E+04 0.  0.
        4    1    3    3  502    0 -0.10187693309E+04  0.20941589770E+03 -0.13513439524E+04  0.17052501454E+04  0.12699999809E+01 0. -1.
       -4    1    3    3    0  502  0.10187693309E+04 -0.20941589770E+03  0.18947580818E+04  0.21614476096E+04  0.12699999809E+01 0.  1.
</event>
<event>
 5   0  0.1496287E-07  0.3681927E+04  0.7818609E-02  0.8071979E-01
       -1   -1    0    0    0  501  0.00000000000E+00  0.00000000000E+00  0.27179571399E+04  0.27179571399E+04  0.50400001928E-02 0.  1.
        1   -1    0    0  501    0  0.00000000000E+00  0.00000000000E+00 -0.12469461505E+04  0.12469461506E+04  0.50400001928E-02 0. -1.
    10030    2    1    2    0    0  0.00000000000E+00  0.00000000000E+00  0.14710109893E+04  0.39649032904E+04  0.36819267744E+04 0.  0.
        1    1    3    3  502    0  0.16489696632E+04 -0.70259439272E+03  0.28321800673E+03  0.18146493519E+04  0.50400001928E-02 0. -1.
       -1    1    3    3    0  502 -0.16489696632E+04  0.70259439272E+03  0.11877929826E+04  0.21502539386E+04  0.50400001928E-02 0.  1.
</event>
<event>
 5   0  0.1496000E-07  0.3705590E+04  0.7818609E-02  0.8066724E-01
        1   -1    0    0  501    0  0.00000000000E+00  0.00000000000E+00  0.25714217082E+04  0.25714217082E+04  0.50400001928E-02 0.  1.
       -1   -1    0    0    0  501  0.00000000000E+00  0.00000000000E+00 -0.13350007245E+04  0.13350007246E+04  0.50400001928E-02 0. -1.
    10030    2    1    2    0    0  0.00000000000E+00  0.00000000000E+00  0.12364209836E+04  0.39064224327E+04  0.37055902869E+04 0.  0.
        3    1    3    3  502    0 -0.60649765637E+03  0.12020910698E+04 -0.72355814353E+03  0.15285282937E+04  0.10100000352E+00 0. -1.
       -3    1    3    3    0  502  0.60649765637E+03 -0.12020910698E+04  0.19599791271E+04  0.23778941390E+04  0.10100000352E+00 0.  1.
</event>
<event>
 5   0  0.4758908E-07  0.3706891E+04  0.7818609E-02  0.8066436E-01
       -2   -1    0    0    0  501  0.00000000000E+00  0.00000000000E+00  0.20401862855E+04  0.20401862855E+04  0.25500000920E-02 0.  1.
        2   -1    0    0  501    0  0.00000000000E+00  0.00000000000E+00 -0.16837976026E+04  0.16837976026E+04  0.25500000920E-02 0. -1.
    10030    2    1    2    0    0  0.00000000000E+00  0.00000000000E+00  0.35638868289E+03  0.37239838881E+04  0.37068912994E+04 0.  0.
        2    1    3    3  502    0 -0.40475785352E+03 -0.12973803835E+04  0.14442577580E+04  0.19831553774E+04  0.25500000920E-02 0.  1.
       -2    1    3    3    0  502  0.40475785352E+03  0.12973803835E+04 -0.10878690751E+04  0.17408285108E+04  0.25500000920E-02 0. -1.
</event>
<event>
 5   0  0.4687817E-07  0.3709775E+04  0.7818609E-02  0.8065799E-01
        2   -1    0    0  501    0  0.00000000000E+00  0.00000000000E+00  0.23660961263E+04  0.23660961263E+04  0.25500000920E-02 0.  1.
       -2   -1    0    0    0  501  0.00000000000E+00  0.00000000000E+00 -0.14541283946E+04  0.14541283946E+04  0.25500000920E-02 0. -1.
    10030    2    1    2    0    0  0.00000000000E+00  0.00000000000E+00  0.91196773170E+03  0.38202245209E+04  0.37097749590E+04 0.  0.
        4    1    3    3  502    0 -0.83076649230E+03  0.10991441407E+04  0.17348582356E+04  0.22154064000E+04  0.12699999809E+01 0.  1.
       -4    1    3    3    0  502  0.83076649230E+03 -0.10991441407E+04 -0.82289050394E+03  0.16048181209E+04  0.12699999809E+01 0. -1.
</event>
<event>
 5   0  0.1496000E-07  0.3665045E+04  0.7818609E-02  0.8075753E-01
       -1   -1    0    0    0  501  0.00000000000E+00  0.00000000000E+00  0.32745363604E+04  0.32745363604E+04  0.50400001928E-02 0. -1.
        1   -1    0    0  501    0  0.00000000000E+00  0.00000000000E+00 -0.10255311059E+04  0.10255311059E+04  0.50400001928E-02 0.  1.
    10030    2    1    2    0    0  0.00000000000E+00  0.00000000000E+00  0.22490052545E+04  0.43000674663E+04  0.36650450994E+04 0.  0.
        5    1    3    3  502    0 -0.84557895647E+03  0.88874026307E+03 -0.47271242194E+03  0.13146642730E+04  0.46999998093E+01 0. -1.
       -5    1    3    3    0  502  0.84557895647E+03 -0.88874026307E+03  0.27217176764E+04  0.29854031934E+04  0.46999998093E+01 0.  1.
</event>
<event>
 5   0  0.4687817E-07  0.3692803E+04  0.7818609E-02  0.8069559E-01
       -2   -1    0    0    0  501  0.00000000000E+00  0.00000000000E+00  0.12031288425E+04  0.12031288425E+04  0.25500000920E-02 0. -1.
        2   -1    0    0  501    0  0.00000000000E+00  0.00000000000E+00 -0.28336105026E+04  0.28336105026E+04  0.25500000920E-02 0.  1.
    10030    2    1    2    0    0  0.00000000000E+00  0.00000000000E+00 -0.16304816601E+04  0.40367393451E+04  0.36928030134E+04 0.  0.
        4    1    3    3  502    0  0.10070210093E+04 -0.13823487452E+03  0.86974977695E+03  0.13377841684E+04  0.12699999809E+01 0. -1.
       -4    1    3    3    0  502 -0.10070210093E+04  0.13823487452E+03 -0.25002314371E+04  0.26989551767E+04  0.12699999809E+01 0.  1.
</event>
<event>
 5   0  0.1496000E-07  0.3668489E+04  0.7818609E-02  0.8074981E-01
       -1   -1    0    0    0  501  0.00000000000E+00  0.00000000000E+00  0.12209473523E+04  0.12209473523E+04  0.50400001928E-02 0. -1.
        1   -1    0    0  501    0  0.00000000000E+00  0.00000000000E+00 -0.27556080955E+04  0.27556080955E+04  0.50400001928E-02 0.  1.
    10030    2    1    2    0    0  0.00000000000E+00  0.00000000000E+00 -0.15346607432E+04  0.39765554479E+04  0.36684887397E+04 0.  0.
        2    1    3    3  502    0 -0.13080556975E+04 -0.11983489453E+04 -0.26191071893E+03  0.17932225537E+04  0.25500000920E-02 0. -1.
       -2    1    3    3    0  502  0.13080556975E+04  0.11983489453E+04 -0.12727500243E+04  0.21833328941E+04  0.25500000920E-02 0.  1.
</event>
<event>
 5   0  0.4857514E-07  0.3612970E+04  0.7818609E-02  0.8087527E-01
       -2   -1    0    0    0  501  0.00000000000E+00  0.00000000000E+00  0.11054582183E+04  0.11054582183E+04  0.25500000920E-02 0.  1.
        2   -1    0    0  501    0  0.00000000000E+00  0.00000000000E+00 -0.29520677211E+04  0.29520677211E+04  0.25500000920E-02 0. -1.
    10030    2    1    2    0    0  0.00000000000E+00  0.00000000000E+00 -0.18466095028E+04  0.40575259394E+04  0.36129697055E+04 0.  0.
        5    1    3    3  502    0  0.20051585772E+03  0.14816391003E+04 -0.20619104353E+04  0.25469506800E+04  0.46999998093E+01 0. -1.
       -5    1    3    3    0  502 -0.20051585772E+03 -0.14816391003E+04  0.21530093252E+03  0.15105752594E+04  0.46999998093E+01 0.  1.
</event>
<event>
 5   0  0.1522273E-07  0.3696662E+04  0.7818609E-02  0.8068702E-01
       -1   -1    0    0    0  501  0.00000000000E+00  0.00000000000E+00  0.14623945785E+04  0.14623945785E+04  0.50400001928E-02 0.  1.
        1   -1    0    0  501    0  0.00000000000E+00  0.00000000000E+00 -0.23361182434E+04  0.23361182434E+04  0.50400001928E-02 0. -1.
    10030    2    1    2    0    0  0.00000000000E+00  0.00000000000E+00 -0.87372366492E+03  0.37985128219E+04  0.36966615500E+04 0.  0.
        4    1    3    3  502    0  0.14180239106E+04  0.69358834102E+03 -0.14248459246E+04  0.21265098447E+04  0.12699999809E+01 0.  1.
       -4    1    3    3    0  502 -0.14180239106E+04 -0.69358834102E+03  0.55112225972E+03  0.16720029772E+04  0.12699999809E+01 0. -1.
</event>
<event>
 5   0  0.4793557E-07  0.3752990E+04  0.7818609E-02  0.8056319E-01
        2   -1    0    0  501    0  0.00000000000E+00  0.00000000000E+00  0.15615037201E+04  0.15615037201E+04  0.25500000920E-02 0.  1.
       -2   -1    0    0    0  501  0.00000000000E+00  0.00000000000E+00 -0.22550268401E+04  0.22550268401E+04  0.25500000920E-02 0. -1.
    10030    2    1    2    0    0  0.00000000000E+00  0.00000000000E+00 -0.69352311999E+03  0.38165305602E+04  0.37529896348E+04 0.  0.
        3    1    3    3  502    0  0.67509939813E+03 -0.88930082419E+03  0.11869566724E+04  0.16295647596E+04  0.10100000352E+00 0.  1.
       -3    1    3    3    0  502 -0.67509939813E+03  0.88930082419E+03 -0.18804797924E+04  0.21869658006E+04  0.10100000352E+00 0. -1.
</event>
<event>
 5   0  0.1496000E-07  0.3703564E+04  0.7818609E-02  0.8067173E-01
       -1   -1    0    0    0  501  0.00000000000E+00  0.00000000000E+00  0.25457074819E+04  0.25457074819E+04  0.50400001928E-02 0.  1.
        1   -1    0    0  501    0  0.00000000000E+00  0.00000000000E+00 -0.13470109306E+04  0.13470109306E+04  0.50400001928E-02 0. -1.
    10030    2    1    2    0    0  0.00000000000E+00  0.00000000000E+00  0.11986965513E+04  0.38927184125E+04  0.37035635835E+04 0.  0.
        2    1    3    3  502    0 -0.62072389523E+03  0.85565089104E+03 -0.99871911062E+03  0.14542614838E+04  0.25500000920E-02 0. -1.
       -2    1    3    3    0  502  0.62072389523E+03 -0.85565089104E+03  0.21974156620E+04  0.24384569286E+04  0.25500000920E-02 0.  1.
</event>
<event>
 5   0  0.4758908E-07  0.3404544E+04  0.7818609E-02  0.8136792E-01
        2   -1    0    0  501    0  0.00000000000E+00  0.00000000000E+00  0.14378111788E+04  0.14378111788E+04  0.25500000920E-02 0. -1.
       -2   -1    0    0    0  501  0.00000000000E+00  0.00000000000E+00 -0.20153759834E+04  0.20153759834E+04  0.25500000920E-02 0.  1.
    10030    2    1    2    0    0  0.00000000000E+00  0.00000000000E+00 -0.57756480459E+03  0.34531871622E+04  0.34045440919E+04 0.  0.
        2    1    3    3  502    0 -0.11629876837E+04  0.47148402438E+03  0.87782155428E+03  0.15314725655E+04  0.25500000920E-02 0. -1.
       -2    1    3    3    0  502  0.11629876837E+04 -0.47148402438E+03 -0.14553863589E+04  0.19217145967E+04  0.25500000920E-02 0.  1.
</event>
<event>
 5   0  0.4687817E-07  0.3661248E+04  0.7818609E-02  0.8076604E-01
        2   -1    0    0  501    0  0.00000000000E+00  0.00000000000E+00  0.15907713970E+04  0.15907713970E+04  0.25500000920E-02 0.  1.
       -2   -1    0    0    0  501  0.00000000000E+00  0.00000000000E+00 -0.21066412152E+04  0.21066412152E+04  0.25500000920E-02 0. -1.
    10030    2    1    2    0    0  0.00000000000E+00  0.00000000000E+00 -0.51586981820E+03  0.36974126122E+04  0.36612481964E+04 0.  0.
        4    1    3    3  502    0  0.45464112836E+03  0.98939887192E+03 -0.17440597420E+04  0.20560531802E+04  0.12699999809E+01 0. -1.
       -4    1    3    3    0  502 -0.45464112836E+03 -0.98939887192E+03  0.12281899238E+04  0.16413594320E+04  0.12699999809E+01 0.  1.
</event>
<event>
 5   0  0.4857514E-07  0.3683444E+04  0.7818609E-02  0.8071641E-01
       -2   -1    0    0    0  501  0.00000000000E+00  0.00000000000E+00  0.10258165174E+04  0.10258165174E+04  0.25500000920E-02 0. -1.
        2   -1    0    0  501    0  0.00000000000E+00  0.00000000000E+00 -0.33065760364E+04  0.33065760364E+04  0.25500000920E-02 0.  1.
    10030    2    1    2    0    0  0.00000000000E+00  0.00000000000E+00 -0.22807595190E+04  0.43323925538E+04  0.36834442111E+04 0.  0.
        5    1    3    3  502    0 -0.14676795401E+04 -0.89241675983E+03 -0.19218335598E+04  0.25775874820E+04  0.46999998093E+01 0.  1.
       -5    1    3    3    0  502  0.14676795401E+04  0.89241675983E+03 -0.35892595922E+03  0.17548050718E+04  0.46999998093E+01 0. -1.
</event>
<event>
 5   0  0.1496287E-07  0.3682529E+04  0.7818609E-02  0.8071845E-01
        1   -1    0    0  501    0  0.00000000000E+00  0.00000000000E+00  0.18269931520E+04  0.18269931520E+04  0.50400001928E-02 0. -1.
       -1   -1    0    0    0  501  0.00000000000E+00  0.00000000000E+00 -0.18556478123E+04  0.18556478123E+04  0.50400001928E-02 0.  1.
    10030    2    1    2    0    0  0.00000000000E+00  0.00000000000E+00 -0.28654660280E+02  0.36826409643E+04  0.36825294816E+04 0.  0.
        1    1    3    3  502    0 -0.10443511107E+04 -0.49991764856E+01 -0.15308037872E+04  0.18531201982E+04  0.50400001928E-02 0.  1.
       -1    1    3    3    0  502  0.10443511107E+04  0.49991764856E+01  0.15021491269E+04  0.18295207661E+04  0.50400001928E-02 0. -1.
</event>
<event>
 5   0  0.1496000E-07  0.3704993E+04  0.7818609E-02  0.8066856E-01
        1   -1    0    0  501    0  0.00000000000E+00  0.00000000000E+00  0.27700927768E+04  0.27700927769E+04  0.50400001928E-02 0. -1.
       -1   -1    0    0    0  501  0.00000000000E+00  0.00000000000E+00 -0.12388550212E+04  0.12388550212E+04  0.50400001928E-02 0.  1.
    10030    2    1    2    0    0  0.00000000000E+00  0.00000000000E+00  0.15312377557E+04  0.40089477980E+04  0.37049930341E+04 0.  0.
        2    1    3    3  502    0  0.10610185446E+04  0.69757265431E+03 -0.69388133555E+03  0.14470104588E+04  0.25500000920E-02 0. -1.
       -2    1    3    3    0  502 -0.10610185446E+04 -0.69757265431E+03  0.22251190912E+04  0.25619373392E+04  0.25500000920E-02 0.  1.
</event>
<event>
 5   0  0.4857514E-07  0.3655663E+04  0.7818609E-02  0.8077859E-01
       -2   -1    0    0    0  501  0.00000000000E+00  0.00000000000E+00  0.17755684036E+04  0.17755684036E+04  0.25500000920E-02 0.  1.
        2   -1    0    0  501    0  0.00000000000E+00  0.00000000000E+00 -0.18816333736E+04  0.18816333736E+04  0.25500000920E-02 0. -1.
    10030    2    1    2    0    0  0.00000000000E+00  0.00000000000E+00 -0.10606496999E+03  0.36572017771E+04  0.36556634228E+04 0.  0.
        5    1    3    3  502    0 -0.13929995542E+04 -0.10989056709E+04 -0.49242710532E+03  0.18413440677E+04  0.46999998093E+01 0. -1.
       -5    1    3    3    0  502  0.13929995542E+04  0.10989056709E+04  0.38636213533E+03  0.18158577095E+04  0.46999998093E+01 0.  1.
</event>
<event>
 5   0  0.1496000E-07  0.3676981E+04  0.7818609E-02  0.8073082E-01
       -1   -1    0    0    0  501  0.00000000000E+00  0.00000000000E+00  0.14469380642E+04  0.14469380642E+04  0.50400001928E-02 0. -1.
        1   -1    0    0  501    0  0.00000000000E+00  0.00000000000E+00 -0.23360001502E+04  0.23360001502E+04  0.50400001928E-02 0.  1.
    10030    2    1    2    0    0  0.00000000000E+00  0.00000000000E+00 -0.88906208594E+03  0.37829382144E+04  0.36769811179E+04 0.  0.
        3    1    3    3  502    0  0.50795504117E+03  0.86928719755E+03 -0.20271598968E+04  0.22634168447E+04  0.10100000352E+00 0.  1.
       -3    1    3    3    0  502 -0.50795504117E+03 -0.86928719755E+03  0.11380978108E+04  0.15195213697E+04  0.10100000352E+00 0. -1.
</event>
<event>
 5   0  0.4824268E-07  0.3697985E+04  0.7818609E-02  0.8068409E-01
        2   -1    0    0  501    0  0.00000000000E+00  0.00000000000E+00  0.17869169946E+04  0.17869169946E+04  0.25500000920E-02 0.  1.
       -2   -1    0    0    0  501  0.00000000000E+00  0.00000000000E+00 -0.19132242418E+04  0.19132242418E+04  0.25500000920E-02 0. -1.
    10030    2    1    2    0    0  0.00000000000E+00  0.00000000000E+00 -0.12630724713E+03  0.37001412364E+04  0.36979848091E+04 0.  0.
        1    1    3    3  502    0  0.10104650283E+04 -0.93066150657E+02 -0.16097172820E+04  0.19028637917E+04  0.50400001928E-02 0. -1.
       -1    1    3    3    0  502 -0.10104650283E+04  0.93066150657E+02  0.14834100348E+04  0.17972774447E+04  0.50400001928E-02 0.  1.
</event>
<event>
 5   0  0.1496287E-07  0.3702982E+04  0.7818609E-02  0.8067301E-01
       -1   -1    0    0    0  501  0.00000000000E+00  0.00000000000E+00  0.13372190368E+04  0.13372190368E+04  0.50400001928E-02 0. -1.
        1   -1    0    0  501    0  0.00000000000E+00  0.00000000000E+00 -0.25635433579E+04  0.25635433579E+04  0.50400001928E-02 0.  1.
    10030    2    1    2    0    0  0.00000000000E+00  0.00000000000E+00 -0.12263243211E+04  0.39007623947E+04  0.37029820307E+04 0.  0.
        1    1    3    3  502    0 -0.17780631332E+04  0.49284137252E+03 -0.45127286748E+03  0.18994863319E+04  0.50400001928E-02 0.  1.
       -1    1    3    3    0  502  0.17780631332E+04 -0.49284137252E+03 -0.77505145358E+03  0.20012760629E+04  0.50400001928E-02 0. -1.
</event>
<event>
 5   0  0.4824268E-07  0.3722326E+04  0.7818609E-02  0.8063032E-01
       -2   -1    0    0    0  501  0.00000000000E+00  0.00000000000E+00  0.21723716312E+04  0.21723716312E+04  0.25500000920E-02 0.  1.
        2   -1    0    0  501    0  0.00000000000E+00  0.00000000000E+00 -0.15945369512E+04  0.15945369512E+04  0.25500000920E-02 0. -1.
    10030    2    1    2    0    0  0.00000000000E+00  0.00000000000E+00  0.57783467996E+03  0.37669085824E+04  0.37223255300E+04 0.  0.
        1    1    3    3  502    0 -0.12259042656E+04 -0.10077559917E+04 -0.69510414461E+03  0.17325077718E+04  0.50400001928E-02 0. -1.
       -1    1    3    3    0  502  0.12259042656E+04  0.10077559917E+04  0.12729388246E+04  0.20344008107E+04  0.50400001928E-02 0.  1.
</event>
<event>
 5   0  0.4824268E-07  0.3683995E+04  0.7818609E-02  0.8071518E-01
       -2   -1    0    0    0  501  0.00000000000E+00  0.00000000000E+00  0.15562365007E+04  0.15562365007E+04  0.25500000920E-02 0. -1.
        2   -1    0    0  501    0  0.00000000000E+00  0.00000000000E+00 -0.21802302876E+04  0.21802302876E+04  0.25500000920E-02 0.  1.
    10030    2    1    2    0    0  0.00000000000E+00  0.00000000000E+00 -0.62399378692E+03  0.37364667883E+04  0.36839945458E+04 0.  0.
        1    1    3    3  502    0 -0.90578877624E+03 -0.11239905306E+04  0.84847914706E+03  0.16744327048E+04  0.50400001928E-02 0. -1.
       -1    1    3    3    0  502  0.90578877624E+03  0.11239905306E+04 -0.14724729340E+04  0.20620340835E+04  0.50400001928E-02 0.  1.
</event>
<event>
 5   0  0.4857514E-07  0.3168365E+04  0.7818609E-02  0.8197222E-01
       -2   -1    0    0    0  501  0.00000000000E+00  0.00000000000E+00  0.14267274535E+04  0.14267274535E+04  0.25500000920E-02 0. -1.
        2   -1    0    0  501    0  0.00000000000E+00  0.00000000000E+00 -0.17590142519E+04  0.17590142519E+04  0.25500000920E-02 0.  1.
    10030    2    1    2    0    0  0.00000000000E+00  0.00000000000E+00 -0.33228679838E+03  0.31857417054E+04  0.31683648302E+04 0.  0.
        5    1    3    3  502    0 -0.61603547823E+03 -0.39346413977E+03  0.12470177836E+04  0.14454719584E+04  0.46999998093E+01 0. -1.
       -5    1    3    3    0  502  0.61603547823E+03  0.39346413977E+03 -0.15793045820E+04  0.17402697470E+04  0.46999998093E+01 0.  1.
</event>
<event>
 5   0  0.4793557E-07  0.3687283E+04  0.7818609E-02  0.8070786E-01
       -2   -1    0    0    0  501  0.00000000000E+00  0.00000000000E+00  0.12521154829E+04  0.12521154829E+04  0.25500000920E-02 0.  1.
        2   -1    0    0  501    0  0.00000000000E+00  0.00000000000E+00 -0.27146176453E+04  0.27146176453E+04  0.25500000920E-02 0. -1.
    10030    2    1    2    0    0  0.00000000000E+00  0.00000000000E+00 -0.14625021624E+04  0.39667331282E+04  0.36872834357E+04 0.  0.
        3    1    3    3  502    0 -0.10131053968E+04  0.15194950516E+04 -0.10029103400E+04  0.20835251179E+04  0.10100000352E+00 0. -1.
       -3    1    3    3    0  502  0.10131053968E+04 -0.15194950516E+04 -0.45959182240E+03  0.18832080103E+04  0.10100000352E+00 0.  1.
</event>
<event>
 5   0  0.1522273E-07  0.3750015E+04  0.7818609E-02  0.8056967E-01
       -1   -1    0    0    0  501  0.00000000000E+00  0.00000000000E+00  0.25033533891E+04  0.25033533891E+04  0.50400001928E-02 0. -1.
        1   -1    0    0  501    0  0.00000000000E+00  0.00000000000E+00 -0.14043774230E+04  0.14043774230E+04  0.50400001928E-02 0.  1.
    10030    2    1    2    0    0  0.00000000000E+00  0.00000000000E+00  0.10989759661E+04  0.39077308121E+04  0.37500149234E+04 0.  0.
        4    1    3    3  502    0  0.11323991256E+01 -0.11378685588E+04 -0.10034590973E+04  0.15171281793E+04  0.12699999809E+01 0.  1.
       -4    1    3    3    0  502 -0.11323991256E+01  0.11378685588E+04  0.21024350634E+04  0.23906026329E+04  0.12699999809E+01 0. -1.
</event>
<event>
 5   0  0.1496000E-07  0.3698279E+04  0.7818609E-02  0.8068343E-01
       -1   -1    0    0    0  501  0.00000000000E+00  0.00000000000E+00  0.13748057108E+04  0.13748057108E+04  0.50400001928E-02 0.  1.
        1   -1    0    0  501    0  0.00000000000E+00  0.00000000000E+00 -0.24871279350E+04  0.24871279350E+04  0.50400001928E-02 0. -1.
    10030    2    1    2    0    0  0.00000000000E+00  0.00000000000E+00 -0.11123222242E+04  0.38619336458E+04  0.36982794316E+04 0.  0.
        3    1    3    3  502    0 -0.83439127766E+03  0.51555774593E+03 -0.21931094701E+04  0.24024441204E+04  0.10100000352E+00 0. -1.
       -3    1    3    3    0  502  0.83439127766E+03 -0.51555774593E+03  0.10807872459E+04  0.14594895254E+04  0.10100000352E+00 0.  1.
</event>
<event>
 5   0  0.1496000E-07  0.3778045E+04  0.7818609E-02  0.8050883E-01
        1   -1    0    0  501    0  0.00000000000E+00  0.00000000000E+00  0.13868940304E+04  0.13868940304E+04  0.50400001928E-02 0.  1.
       -1   -1    0    0    0  501  0.00000000000E+00  0.00000000000E+00 -0.25729471698E+04  0.25729471698E+04  0.50400001928E-02 0. -1.
    10030    2    1    2    0    0  0.00000000000E+00  0.00000000000E+00 -0.11860531394E+04  0.39598412001E+04  0.37780445049E+04 0.  0.
        2    1    3    3  502    0  0.60766453339E+03  0.68768392111E+02  0.12802706756E+04  0.14188298981E+04  0.25500000920E-02 0.  1.
       -2    1    3    3    0  502 -0.60766453339E+03 -0.68768392111E+02 -0.24663238150E+04  0.25410113021E+04  0.25500000920E-02 0. -1.
</event>
<event>
 5   0  0.1496287E-07  0.3617119E+04  0.7818609E-02  0.8086582E-01
        1   -1    0    0  501    0  0.00000000000E+00  0.00000000000E+00  0.20989011736E+04  0.20989011736E+04  0.50400001928E-02 0. -1.
       -1   -1    0    0    0  501  0.00000000000E+00  0.00000000000E+00 -0.15583811246E+04  0.15583811246E+04  0.50400001928E-02 0.  1.
    10030    2    1    2    0    0  0.00000000000E+00  0.00000000000E+00  0.54052004900E+03  0.36572822982E+04  0.36171192799E+04 0.  0.
        1    1    3    3  502    0 -0.12345447314E+04 -0.12529798234E+04  0.69543941190E+03  0.18914796080E+04  0.50400001928E-02 0. -1.
       -1    1    3    3    0  502  0.12345447314E+04  0.12529798234E+04 -0.15491936290E+03  0.17658026902E+04  0.50400001928E-02 0.  1.
</event>
<event>
 5   0  0.4824268E-07  0.3735365E+04  0.7818609E-02  0.8060169E-01
       -2   -1    0    0    0  501  0.00000000000E+00  0.00000000000E+00  0.11850015249E+04  0.11850015249E+04  0.25500000920E-02 0.  1.
        2   -1    0    0  501    0  0.00000000000E+00  0.00000000000E+00 -0.29436567804E+04  0.29436567804E+04  0.25500000920E-02 0. -1.
    10030    2    1    2    0    0  0.00000000000E+00  0.00000000000E+00 -0.17586552554E+04  0.41286583053E+04  0.37353649212E+04 0.  0.
        1    1    3    3  502    0  0.40448824371E+03  0.18211689725E+04 -0.78064933523E+03  0.20222958612E+04  0.50400001928E-02 0.  1.
       -1    1    3    3    0  502 -0.40448824371E+03 -0.18211689725E+04 -0.97800592020E+03  0.21063624440E+04  0.50400001928E-02 0. -1.
</event>
<event>
 5   0  0.1496000E-07  0.3682190E+04  0.7818609E-02  0.8071920E-01
        1   -1    0    0  501    0  0.00000000000E+00  0.00000000000E+00  0.22580605512E+04  0.22580605512E+04  0.50400001928E-02 0. -1.
       -1   -1    0    0    0  501  0.00000000000E+00  0.00000000000E+00 -0.15011244808E+04  0.15011244808E+04  0.50400001928E-02 0.  1.
    10030    2    1    2    0    0  0.00000000000E+00  0.00000000000E+00  0.75693607044E+03  0.37591850320E+04  0.36821895511E+04 0.  0.
        3    1    3    3  502    0 -0.16474166766E+04 -0.41637823048E+03 -0.34506670953E+03  0.17339041442E+04  0.10100000352E+00 0. -1.
       -3    1    3    3    0  502  0.16474166766E+04  0.41637823048E+03  0.11020027800E+04  0.20252808878E+04  0.10100000352E+00 0.  1.
</event>
<event>
 5   0  0.4758908E-07  0.3675088E+04  0.7818609E-02  0.8073505E-01
        2   -1    0    0  501    0  0.00000000000E+00  0.00000000000E+00  0.14708270398E+04  0.14708270398E+04  0.25500000920E-02 0. -1.
       -2   -1    0    0    0  501  0.00000000000E+00  0.00000000000E+00 -0.22956937584E+04  0.22956937584E+04  0.25500000920E-02 0.  1.
    10030    2    1    2    0    0  0.00000000000E+00  0.00000000000E+00 -0.82486671869E+03  0.37665207982E+04  0.36750882737E+04 0.  0.
        2    1    3    3  502    0 -0.64175730065E+03  0.11202892193E+04 -0.17525064839E+04  0.21767359380E+04  0.25500000920E-02 0. -1.
       -2    1    3    3    0  502  0.64175730065E+03 -0.11202892193E+04  0.92763976520E+03  0.15897848602E+04  0.25500000920E-02 0.  1.
</event>
<event>
 5   0  0.1496000E-07  0.3682557E+04  0.7818609E-02  0.8071839E-01
        1   -1    0    0  501    0  0.00000000000E+00  0.00000000000E+00  0.12637490811E+04  0.12637490811E+04  0.50400001928E-02 0. -1.
       -1   -1    0    0    0  501  0.00000000000E+00  0.00000000000E+00 -0.26827363886E+04  0.26827363886E+04  0.50400001928E-02 0.  1.
    10030    2    1    2    0    0  0.00000000000E+00  0.00000000000E+00 -0.14189873076E+04  0.39464854697E+04  0.36825565282E+04 0.  0.
        5    1    3    3  502    0  0.22424456674E+03 -0.16398281828E+04 -0.15741404267E+04  0.22841327168E+04  0.46999998093E+01 0.  1.
       -5    1    3    3    0  502 -0.22424456674E+03  0.16398281828E+04  0.15515311910E+03  0.16623527530E+04  0.46999998093E+01 0. -1.
</event>
<event>
 5   0  0.4687817E-07  0.3678239E+04  0.7818609E-02  0.8072802E-01
        2   -1    0    0  501    0  0.00000000000E+00  0.00000000000E+00  0.14160232579E+04  0.14160232579E+04  0.25500000920E-02 0.  1.
       -2   -1    0    0    0  501  0.00000000000E+00  0.00000000000E+00 -0.23886328823E+04  0.23886328823E+04  0.25500000920E-02 0. -1.
    10030    2    1    2    0    0  0.00000000000E+00  0.00000000000E+00 -0.97260962440E+03  0.38046561402E+04  0.36782385545E+04 0.  0.
        4    1    3    3  502    0  0.33380810184E+02 -0.22529178759E+03 -0.23739893540E+04  0.23848894595E+04  0.12699999809E+01 0. -1.
       -4    1    3    3    0  502 -0.33380810184E+02  0.22529178759E+03  0.14013797296E+04  0.14197666807E+04  0.12699999809E+01 0.  1.
</event>
<event>
 5   0  0.4824268E-07  0.3695460E+04  0.7818609E-02  0.8068969E-01
       -2   -1    0    0    0  501  0.00000000000E+00  0.00000000000E+00  0.21301400350E+04  0.21301400350E+04  0.25500000920E-02 0.  1.
        2   -1    0    0  501    0  0.00000000000E+00  0.00000000000E+00 -0.16027612361E+04  0.16027612361E+04  0.25500000920E-02 0. -1.
    10030    2    1    2    0    0  0.00000000000E+00  0.00000000000E+00  0.52737879883E+03  0.37329012711E+04  0.36954598499E+04 0.  0.
        1    1    3    3  502    0  0.17165550459E+04 -0.68141042320E+03  0.20632952212E+03  0.18583469165E+04  0.50400001928E-02 0.  1.
       -1    1    3    3    0  502 -0.17165550459E+04  0.68141042320E+03  0.32104927670E+03  0.18745543546E+04  0.50400001928E-02 0. -1.
</event>
<event>
 5   0  0.4824268E-07  0.3698568E+04  0.7818609E-02  0.8068279E-01
       -2   -1    0    0    0  501  0.00000000000E+00  0.00000000000E+00  0.20169231315E+04  0.20169231315E+04  0.25500000920E-02 0.  1.
        2   -1    0    0  501    0  0.00000000000E+00  0.00000000000E+00 -0.16955780974E+04  0.16955780974E+04  0.25500000920E-02 0. -1.
    10030    2    1    2    0    0  0.00000000000E+00  0.00000000000E+00  0.32134503402E+03  0.37125012289E+04  0.36985676611E+04 0.  0.
        1    1    3    3  502    0  0.12625979618E+04  0.46388185443E+03  0.14345124084E+04  0.19665110825E+04  0.50400001928E-02 0.  1.
       -1    1    3    3    0  502 -0.12625979618E+04 -0.46388185443E+03 -0.11131673743E+04  0.17459901464E+04  0.50400001928E-02 0. -1.
</event>
<event>
 5   0  0.1522273E-07  0.3729959E+04  0.7818609E-02  0.8061355E-01
        1   -1    0    0  501    0  0.00000000000E+00  0.00000000000E+00  0.14096285939E+04  0.14096285939E+04  0.50400001928E-02 0. -1.
       -1   -1    0    0    0  501  0.00000000000E+00  0.00000000000E+00 -0.24674224025E+04  0.24674224025E+04  0.50400001928E-02 0.  1.
    10030    2    1    2    0    0  0.00000000000E+00  0.00000000000E+00 -0.10577938086E+04  0.38770509965E+04  0.37299593413E+04 0.  0.
        4    1    3    3  502    0  0.11776688156E+04  0.13719011471E+04 -0.53554472240E+02  0.18088356174E+04  0.12699999809E+01 0. -1.
       -4    1    3    3    0  502 -0.11776688156E+04 -0.13719011471E+04 -0.10042393364E+04  0.20682153790E+04  0.12699999809E+01 0.  1.
</event>
<event>
 5   0  0.4687817E-07  0.3734672E+04  0.7818609E-02  0.8060321E-01
        2   -1    0    0  501    0  0.00000000000E+00  0.00000000000E+00  0.28309121639E+04  0.28309121639E+04  0.25500000920E-02 0. -1.
       -2   -1    0    0    0  501  0.00000000000E+00  0.00000000000E+00 -0.12317383317E+04  0.12317383317E+04  0.25500000920E-02 0.  1.
    10030    2    1    2    0    0  0.00000000000E+00  0.00000000000E+00  0.15991738322E+04  0.40626504956E+04  0.37346716193E+04 0.  0.
        4    1    3    3  502    0  0.72021909706E+03 -0.14278012324E+04 -0.24924843973E+03  0.16184740668E+04  0.12699999809E+01 0.  1.
       -4    1    3    3    0  502 -0.72021909706E+03  0.14278012324E+04  0.18484222719E+04  0.24441764289E+04  0.12699999809E+01 0. -1.
</event>
<event>
 5   0  0.4687817E-07  0.3667543E+04  0.7818609E-02  0.8075193E-01
        2   -1    0    0  501    0  0.00000000000E+00  0.00000000000E+00  0.24511988516E+04  0.24511988516E+04  0.25500000920E-02 0.  1.
       -2   -1    0    0    0  501  0.00000000000E+00  0.00000000000E+00 -0.13718665196E+04  0.13718665196E+04  0.25500000920E-02 0. -1.
    10030    2    1    2    0    0  0.00000000000E+00  0.00000000000E+00  0.10793323320E+04  0.38230653712E+04  0.36675428491E+04 0.  0.
        4    1    3    3  502    0 -0.94733379439E+02 -0.17931682833E+04  0.92730790458E+03  0.20209721592E+04  0.12699999809E+01 0. -1.
       -4    1    3    3    0  502  0.94733379439E+02  0.17931682833E+04  0.15202442745E+03  0.18020932120E+04  0.12699999809E+01 0.  1.
</event>
<event>
 5   0  0.1496000E-07  0.3725939E+04  0.7818609E-02  0.8062238E-01
       -1   -1    0    0    0  501  0.00000000000E+00  0.00000000000E+00  0.18528816280E+04  0.18528816280E+04  0.50400001928E-02 0. -1.
        1   -1    0    0  501    0  0.00000000000E+00  0.00000000000E+00 -0.18731125655E+04  0.18731125655E+04  0.50400001928E-02 0.  1.
    10030    2    1    2    0    0  0.00000000000E+00  0.00000000000E+00 -0.20230937440E+02  0.37259941935E+04  0.37259392694E+04 0.  0.
        2    1    3    3  502    0  0.31805302920E+03 -0.17914275606E+04 -0.41047799334E+03  0.18651709351E+04  0.25500000920E-02 0.  1.
       -2    1    3    3    0  502 -0.31805302920E+03  0.17914275606E+04  0.39024705590E+03  0.18608232584E+04  0.25500000920E-02 0. -1.
</event>
<event>
 5   0  0.4824268E-07  0.3515560E+04  0.7818609E-02  0.8110112E-01
       -2   -1    0    0    0  501  0.00000000000E+00  0.00000000000E+00  0.11263182684E+04  0.11263182684E+04  0.25500000920E-02 0.  1.
        2   -1    0    0  501    0  0.00000000000E+00  0.00000000000E+00 -0.27432657234E+04  0.27432657234E+04  0.25500000920E-02 0. -1.
    10030    2    1    2    0    0  0.00000000000E+00  0.00000000000E+00 -0.16169474550E+04  0.38695839918E+04  0.35155598697E+04 0.  0.
        1    1    3    3  502    0  0.93012407089E+03 -0.14501687113E+04 -0.11924124607E+04  0.20952249413E+04  0.50400001928E-02 0. -1.
       -1    1    3    3    0  502 -0.93012407089E+03  0.14501687113E+04 -0.42453499430E+03  0.17743590504E+04  0.50400001928E-02 0.  1.
</event>
<event>
 5   0  0.1496000E-07  0.3671673E+04  0.7818609E-02  0.8074269E-01
        1   -1    0    0  501    0  0.00000000000E+00  0.00000000000E+00  0.21034575944E+04  0.21034575944E+04  0.50400001928E-02 0.  1.
       -1   -1    0    0    0  501  0.00000000000E+00  0.00000000000E+00 -0.16022641728E+04  0.16022641728E+04  0.50400001928E-02 0. -1.
    10030    2    1    2    0    0  0.00000000000E+00  0.00000000000E+00  0.50119342166E+03  0.37057217672E+04  0.36716725031E+04 0.  0.
        5    1    3    3  502    0 -0.15458978807E+04  0.82219910647E+03  0.80749351210E+03  0.19281803573E+04  0.46999998093E+01 0.  1.
       -5    1    3    3    0  502  0.15458978807E+04 -0.82219910647E+03 -0.30630009044E+03  0.17775414099E+04  0.46999998093E+01 0. -1.
</event>
<event>
 5   0  0.1496000E-07  0.3742919E+04  0.7818609E-02  0.8058516E-01
        1   -1    0    0  501    0  0.00000000000E+00  0.00000000000E+00  0.19199849455E+04  0.19199849455E+04  0.50400001928E-02 0. -1.
       -1   -1    0    0    0  501  0.00000000000E+00  0.00000000000E+00 -0.18241609135E+04  0.18241609135E+04  0.50400001928E-02 0.  1.
    10030    2    1    2    0    0  0.00000000000E+00  0.00000000000E+00  0.95824031961E+02  0.37441458590E+04  0.37429194446E+04 0.  0.
        5    1    3    3  502    0 -0.91314681726E+03  0.59297820146E+03 -0.14747165345E+04  0.18331042535E+04  0.46999998093E+01 0.  1.
       -5    1    3    3    0  502  0.91314681726E+03 -0.59297820146E+03  0.15705405664E+04  0.19110416055E+04  0.46999998093E+01 0. -1.
</event>
<event>
 5   0  0.1496000E-07  0.3703485E+04  0.7818609E-02  0.8067190E-01
        1   -1    0    0  501    0  0.00000000000E+00  0.00000000000E+00  0.33099732393E+04  0.33099732393E+04  0.50400001928E-02 0.  1.
       -1   -1    0    0    0  501  0.00000000000E+00  0.00000000000E+00 -0.10359452089E+04  0.10359452089E+04  0.50400001928E-02 0. -1.
    10030    2    1    2    0    0  0.00000000000E+00  0.00000000000E+00  0.22740280305E+04  0.43459184482E+04  0.37034853415E+04 0.  0.
        5    1    3    3  502    0  0.90623771661E+02  0.17277300425E+04  0.36246784924E+03  0.17676732728E+04  0.46999998093E+01 0.  1.
       -5    1    3    3    0  502 -0.90623771661E+02 -0.17277300425E+04  0.19115601812E+04  0.25782451754E+04  0.46999998093E+01 0. -1.
</event>
<event>
 5   0  0.1496000E-07  0.3719846E+04  0.7818609E-02  0.8063578E-01
        1   -1    0    0  501    0  0.00000000000E+00  0.00000000000E+00  0.25608237214E+04  0.25608237214E+04  0.50400001928E-02 0.  1.
       -1   -1    0    0    0  501  0.00000000000E+00  0.00000000000E+00 -0.13508598141E+04  0.13508598141E+04  0.50400001928E-02 0. -1.
    10030    2    1    2    0    0  0.00000000000E+00  0.00000000000E+00  0.12099639072E+04  0.39116835355E+04  0.37198461561E+04 0.  0.
        2    1    3    3  502    0 -0.50305540248E+03 -0.86474286018E+02 -0.12757648383E+04  0.13740882296E+04  0.25500000920E-02 0. -1.
       -2    1    3    3    0  502  0.50305540248E+03  0.86474286018E+02  0.24857287455E+04  0.25375953059E+04  0.25500000920E-02 0.  1.
</event>
<event>
 5   0  0.4793557E-07  0.3418925E+04  0.7818609E-02  0.8133277E-01
       -2   -1    0    0    0  501  0.00000000000E+00  0.00000000000E+00  0.16900974112E+04  0.16900974112E+04  0.25500000920E-02 0.  1.
        2   -1    0    0  501    0  0.00000000000E+00  0.00000000000E+00 -0.17290492092E+04  0.17290492092E+04  0.25500000920E-02 0. -1.
    10030    2    1    2    0    0  0.00000000000E+00  0.00000000000E+00 -0.38951797958E+02  0.34191466204E+04  0.34189247388E+04 0.  0.
        3    1    3    3  502    0  0.19305096546E+03 -0.18427289264E+03 -0.17080867107E+04  0.17288103990E+04  0.10100000352E+00 0. -1.
       -3    1    3    3    0  502 -0.19305096546E+03  0.18427289264E+03  0.16691349128E+04  0.16903362214E+04  0.10100000352E+00 0.  1.
</event>
<event>
 5   0  0.4857514E-07  0.3699543E+04  0.7818609E-02  0.8068063E-01
        2   -1    0    0  501    0  0.00000000000E+00  0.00000000000E+00  0.23434139044E+04  0.23434139044E+04  0.25500000920E-02 0. -1.
       -2   -1    0    0    0  501  0.00000000000E+00  0.00000000000E+00 -0.14601153558E+04  0.14601153558E+04  0.25500000920E-02 0.  1.
    10030    2    1    2    0    0  0.00000000000E+00  0.00000000000E+00  0.88329854856E+03  0.38035292602E+04  0.36995430133E+04 0.  0.
        5    1    3    3  502    0  0.64615301935E+03 -0.10654282570E+04 -0.96388414093E+03  0.15753557765E+04  0.46999998093E+01 0.  1.
       -5    1    3    3    0  502 -0.64615301935E+03  0.10654282570E+04  0.18471826895E+04  0.22281734837E+04  0.46999998093E+01 0. -1.
</event>
<event>
 5   0  0.4758908E-07  0.3707467E+04  0.7818609E-02  0.8066309E-01
        2   -1    0    0  501    0  0.00000000000E+00  0.00000000000E+00  0.23344031950E+04  0.23344031950E+04  0.25500000920E-02 0.  1.
       -2   -1    0    0    0  501  0.00000000000E+00  0.00000000000E+00 -0.14720369791E+04  0.14720369791E+04  0.25500000920E-02 0. -1.
    10030    2    1    2    0    0  0.00000000000E+00  0.00000000000E+00  0.86236621591E+03  0.38064401741E+04  0.37074669667E+04 0.  0.
        2    1    3    3  502    0  0.11184474410E+04 -0.94810027989E+03 -0.73334006209E+03  0.16393921025E+04  0.25500000920E-02 0. -1.
       -2    1    3    3    0  502 -0.11184474410E+04  0.94810027989E+03  0.15957062780E+04  0.21670480716E+04  0.25500000920E-02 0.  1.
</event>
<event>
 5   0  0.1522273E-07  0.3710460E+04  0.7818609E-02  0.8065648E-01
       -1   -1    0    0    0  501  0.00000000000E+00  0.00000000000E+00  0.20560623461E+04  0.20560623461E+04  0.50400001928E-02 0.  1.
        1   -1    0    0  501    0  0.00000000000E+00  0.00000000000E+00 -0.16740142457E+04  0.16740142457E+04  0.50400001928E-02 0. -1.
    10030    2    1    2    0    0  0.00000000000E+00  0.00000000000E+00  0.38204810041E+03  0.37300765918E+04  0.37104596251E+04 0.  0.
        4    1    3    3  502    0  0.10899469626E+04 -0.77604827469E+03 -0.11009322750E+04  0.17327113992E+04  0.12699999809E+01 0.  1.
       -4    1    3    3    0  502 -0.10899469626E+04  0.77604827469E+03  0.14829803754E+04  0.19973651926E+04  0.12699999809E+01 0. -1.
</event>
<event>
 5   0  0.4824268E-07  0.3781766E+04  0.7818609E-02  0.8050079E-01
        2   -1    0    0  501    0  0.00000000000E+00  0.00000000000E+00  0.16760814741E+04  0.16760814741E+04  0.25500000920E-02 0. -1.
       -2   -1    0    0    0  501  0.00000000000E+00  0.00000000000E+00 -0.21332132265E+04  0.21332132265E+04  0.25500000920E-02 0.  1.
    10030    2    1    2    0    0  0.00000000000E+00  0.00000000000E+00 -0.45713175242E+03  0.38092947006E+04  0.37817663436E+04 0.  0.
        1    1    3    3  502    0  0.43380228736E+03  0.97157295833E+03  0.13459184534E+04  0.17157024570E+04  0.50400001928E-02 0. -1.
       -1    1    3    3    0  502 -0.43380228736E+03 -0.97157295833E+03 -0.18030502058E+04  0.20935922436E+04  0.50400001928E-02 0.  1.
</event>
<event>
 5   0  0.1496000E-07  0.3747784E+04  0.7818609E-02  0.8057454E-01
       -1   -1    0    0    0  501  0.00000000000E+00  0.00000000000E+00  0.15605860693E+04  0.15605860693E+04  0.50400001928E-02 0. -1.
        1   -1    0    0  501    0  0.00000000000E+00  0.00000000000E+00 -0.22500975015E+04  0.22500975015E+04  0.50400001928E-02 0.  1.
    10030    2    1    2    0    0  0.00000000000E+00  0.00000000000E+00 -0.68951143222E+03  0.38106835708E+04  0.37477837800E+04 0.  0.
        2    1    3    3  502    0  0.31977772099E+03  0.20708177192E+03  0.15207935160E+04  0.15677862002E+04  0.25500000920E-02 0. -1.
       -2    1    3    3    0  502 -0.31977772099E+03 -0.20708177192E+03 -0.22103049482E+04  0.22428973706E+04  0.25500000920E-02 0.  1.
</event>
<event>
 5   0  0.1496287E-07  0.3761702E+04  0.7818609E-02  0.8054424E-01
        1   -1    0    0  501    0  0.00000000000E+00  0.00000000000E+00  0.12636678690E+04  0.12636678690E+04  0.50400001928E-02 0. -1.
       -1   -1    0    0    0  501  0.00000000000E+00  0.00000000000E+00 -0.27994694787E+04  0.27994694787E+04  0.50400001928E-02 0.  1.
    10030    2    1    2    0    0  0.00000000000E+00  0.00000000000E+00 -0.15358016097E+04  0.40631373477E+04  0.37617015461E+04 0.  0.
        1    1    3    3  502    0  0.51985261784E+03  0.56200047112E+03 -0.26235640942E+04  0.27329800275E+04  0.50400001928E-02 0.  1.
       -1    1    3    3    0  502 -0.51985261784E+03 -0.56200047112E+03  0.10877624845E+04  0.13301573203E+04  0.50400001928E-02 0. -1.
</event>
<event>
 5   0  0.1496000E-07  0.3674289E+04  0.7818609E-02  0.8073684E-01
        1   -1    0    0  501    0  0.00000000000E+00  0.00000000000E+00  0.16498411955E+04  0.16498411955E+04  0.50400001928E-02 0.  1.
       -1   -1    0    0    0  501  0.00000000000E+00  0.00000000000E+00 -0.20457120799E+04  0.20457120799E+04  0.50400001928E-02 0. -1.
    10030    2    1    2    0    0  0.00000000000E+00  0.00000000000E+00 -0.39587088442E+03  0.36955532754E+04  0.36742890815E+04 0.  0.
        3    1    3    3  502    0  0.15205335863E+04  0.10131475777E+04 -0.54916321981E+01  0.18271618892E+04  0.10100000352E+00 0.  1.
       -3    1    3    3    0  502 -0.15205335863E+04 -0.10131475777E+04 -0.39037925222E+03  0.18683913862E+04  0.10100000352E+00 0. -1.
</event>
<event>
 5   0  0.1496000E-07  0.3720798E+04  0.7818609E-02  0.8063368E-01
       -1   -1    0    0    0  501  0.00000000000E+00  0.00000000000E+00  0.13978029096E+04  0.13978029097E+04  0.50400001928E-02 0. -1.
        1   -1    0    0  501    0  0.00000000000E+00  0.00000000000E+00 -0.24760887873E+04  0.24760887873E+04  0.50400001928E-02 0.  1.
    10030    2    1    2    0    0  0.00000000000E+00  0.00000000000E+00 -0.10782858777E+04  0.38738916970E+04  0.37207978238E+04 0.  0.
        2    1    3    3  502    0  0.35119248538E+03  0.94195822872E+03  0.10906613100E+04  0.14832948323E+04  0.25500000920E-02 0. -1.
       -2    1    3    3    0  502 -0.35119248538E+03 -0.94195822872E+03 -0.21689471877E+04  0.23905968647E+04  0.25500000920E-02 0.  1.
</event>
<event>
 5   0  0.1496000E-07  0.3713651E+04  0.7818609E-02  0.8064943E-01
        1   -1    0    0  501    0  0.00000000000E+00  0.00000000000E+00  0.15792340569E+04  0.15792340569E+04  0.50400001928E-02 0. -1.
       -1   -1    0    0    0  501  0.00000000000E+00  0.00000000000E+00 -0.21832111180E+04  0.21832111180E+04  0.50400001928E-02 0.  1.
    10030    2    1    2    0    0  0.00000000000E+00  0.00000000000E+00 -0.60397706112E+03  0.37624451748E+04  0.37136512226E+04 0.  0.
        3    1    3    3  502    0 -0.92358754004E+02  0.62538000732E+03  0.14668522149E+04  0.15972744672E+04  0.10100000352E+00 0. -1.
       -3    1    3    3    0  502  0.92358754004E+02 -0.62538000732E+03 -0.20708292760E+04  0.21651707077E+04  0.10100000352E+00 0.  1.
</event>
<event>
 5   0  0.1496287E-07  0.3686778E+04  0.7818609E-02  0.8070898E-01
       -1   -1    0    0    0  501  0.00000000000E+00  0.00000000000E+00  0.14487056055E+04  0.14487056055E+04  0.50400001928E-02 0.  1.
        1   -1    0    0  501    0  0.00000000000E+00  0.00000000000E+00 -0.23455988607E+04  0.23455988607E+04  0.50400001928E-02 0. -1.
    10030    2    1    2    0    0  0.00000000000E+00  0.00000000000E+00 -0.89689325520E+03  0.37943044662E+04  0.36867775728E+04 0.  0.
        1    1    3    3  502    0 -0.47499243850E+03 -0.15467897317E+04  0.46043296156E+03  0.16823123380E+04  0.50400001928E-02 0.  1.
       -1    1    3    3    0  502  0.47499243850E+03  0.15467897317E+04 -0.13573262168E+04  0.21119921282E+04  0.50400001928E-02 0. -1.
</event>
<event>
 5   0  0.1496000E-07  0.3705294E+04  0.7818609E-02  0.8066790E-01
       -1   -1    0    0    0  501  0.00000000000E+00  0.00000000000E+00  0.23639594735E+04  0.23639594735E+04  0.50400001928E-02 0.  1.
        1   -1    0    0  501    0  0.00000000000E+00  0.00000000000E+00 -0.14519289328E+04  0.14519289328E+04  0.50400001928E-02 0. -1.
    10030    2    1    2    0    0  0.00000000000E+00  0.00000000000E+00  0.91203054075E+03  0.38158884063E+04  0.37052941344E+04 0.  0.
        2    1    3    3  502    0 -0.16248955845E+04 -0.39775019547E+03 -0.36386911430E+03  0.17119846993E+04  0.25500000920E-02 0. -1.
       -2    1    3    3    0  502  0.16248955845E+04  0.39775019547E+03  0.12758996550E+04  0.21039037070E+04  0.25500000920E-02 0.  1.
</event>
<event>
 5   0  0.4758908E-07  0.3700051E+04  0.7818609E-02  0.8067951E-01
       -2   -1    0    0    0  501  0.00000000000E+00  0.00000000000E+00  0.16706225717E+04  0.16706225717E+04  0.25500000920E-02 0. -1.
        2   -1    0    0  501    0  0.00000000000E+00  0.00000000000E+00 -0.20486935354E+04  0.20486935354E+04  0.25500000920E-02 0.  1.
    10030    2    1    2    0    0  0.00000000000E+00  0.00000000000E+00 -0.37807096362E+03  0.37193161071E+04  0.37000506282E+04 0.  0.
        2    1    3    3  502    0  0.41587646602E+03  0.14767982444E+04 -0.12282012385E+04  0.19652899460E+04  0.25500000920E-02 0.  1.
       -2    1    3    3    0  502 -0.41587646602E+03 -0.14767982444E+04  0.85013027484E+03  0.17540261611E+04  0.25500000920E-02 0. -1.
</event>
<event>
 5   0  0.1496000E-07  0.3672369E+04  0.7818609E-02  0.8074113E-01
       -1   -1    0    0    0  501  0.00000000000E+00  0.00000000000E+00  0.12826905487E+04  0.12826905487E+04  0.50400001928E-02 0. -1.
        1   -1    0    0  501    0  0.00000000000E+00  0.00000000000E+00 -0.26285160018E+04  0.26285160018E+04  0.50400001928E-02 0.  1.
    10030    2    1    2    0    0  0.00000000000E+00  0.00000000000E+00 -0.13458254532E+04  0.39112065505E+04  0.36723685178E+04 0.  0.
        2    1    3    3  502    0 -0.11091350209E+04 -0.12472309998E+04  0.14224521454E+03  0.16751117463E+04  0.25500000920E-02 0.  1.
       -2    1    3    3    0  502  0.11091350209E+04  0.12472309998E+04 -0.14880706677E+04  0.22360948042E+04  0.25500000920E-02 0. -1.
</event>
<event>
 5   0  0.1496000E-07  0.3716313E+04  0.7818609E-02  0.8064356E-01
        1   -1    0    0  501    0  0.00000000000E+00  0.00000000000E+00  0.18858941265E+04  0.18858941265E+04  0.50400001928E-02 0.  1.
       -1   -1    0    0    0  501  0.00000000000E+00  0.00000000000E+00 -0.18308267984E+04  0.18308267984E+04  0.50400001928E-02 0. -1.
    10030    2    1    2    0    0  0.00000000000E+00  0.00000000000E+00  0.55067328064E+02  0.37167209249E+04  0.37163129608E+04 0.  0.
        5    1    3    3  502    0 -0.52378229360E+03 -0.16081699773E+03 -0.17481931168E+04  0.18320511077E+04  0.46999998093E+01 0. -1.
       -5    1    3    3    0  502  0.52378229360E+03  0.16081699773E+03  0.18032604448E+04  0.18846698172E+04  0.46999998093E+01 0.  1.
</event>
<event>
 5   0  0.4793557E-07  0.3663405E+04  0.7818609E-02  0.8076121E-01
       -2   -1    0    0    0  501  0.00000000000E+00  0.00000000000E+00  0.16057461911E+04  0.16057461911E+04  0.25500000920E-02 0. -1.
        2   -1    0    0  501    0  0.00000000000E+00  0.00000000000E+00 -0.20894544176E+04  0.20894544176E+04  0.25500000920E-02 0.  1.
    10030    2    1    2    0    0  0.00000000000E+00  0.00000000000E+00 -0.48370822646E+03  0.36952006087E+04  0.36634046856E+04 0.  0.
        3    1    3    3  502    0  0.15875406181E+04 -0.97258071767E+02  0.67454042702E+03  0.17276426553E+04  0.10100000352E+00 0. -1.
       -3    1    3    3    0  502 -0.15875406181E+04  0.97258071767E+02 -0.11582486535E+04  0.19675579534E+04  0.10100000352E+00 0.  1.
</event>
<event>
 5   0  0.4793557E-07  0.3710523E+04  0.7818609E-02  0.8065634E-01
        2   -1    0    0  501    0  0.00000000000E+00  0.00000000000E+00  0.17700210400E+04  0.17700210400E+04  0.25500000920E-02 0. -1.
       -2   -1    0    0    0  501  0.00000000000E+00  0.00000000000E+00 -0.19446067613E+04  0.19446067613E+04  0.25500000920E-02 0.  1.
    10030    2    1    2    0    0  0.00000000000E+00  0.00000000000E+00 -0.17458572135E+03  0.37146278013E+04  0.37105228107E+04 0.  0.
        3    1    3    3  502    0 -0.59849781161E+03 -0.17553866222E+04 -0.13646998900E+03  0.18596252021E+04  0.10100000352E+00 0.  1.
       -3    1    3    3    0  502  0.59849781161E+03  0.17553866222E+04 -0.38115732347E+02  0.18550025993E+04  0.10100000352E+00 0. -1.
</event>
<event>
 5   0  0.4687817E-07  0.3796185E+04  0.7818609E-02  0.8046974E-01
       -2   -1    0    0    0  501  0.00000000000E+00  0.00000000000E+00  0.14820082652E+04  0.14820082652E+04  0.25500000920E-02 0. -1.
        2   -1    0    0  501    0  0.00000000000E+00  0.00000000000E+00 -0.24309952873E+04  0.24309952873E+04  0.25500000920E-02 0.  1.
    10030    2    1    2    0    0  0.00000000000E+00  0.00000000000E+00 -0.94898702209E+03  0.39130035525E+04  0.37961849841E+04 0.  0.
        4    1    3    3  502    0 -0.82489512365E+03 -0.16185040683E+04  0.92662007194E+02  0.18189544372E+04  0.12699999809E+01 0. -1.
       -4    1    3    3    0  502  0.82489512365E+03  0.16185040683E+04 -0.10416490293E+04  0.20940491153E+04  0.12699999809E+01 0.  1.
</event>
<event>
 5   0  0.4793557E-07  0.3883864E+04  0.7818609E-02  0.8028394E-01
       -2   -1    0    0    0  501  0.00000000000E+00  0.00000000000E+00  0.18187431468E+04  0.18187431468E+04  0.25500000920E-02 0.  1.
        2   -1    0    0  501    0  0.00000000000E+00  0.00000000000E+00 -0.20734649429E+04  0.20734649429E+04  0.25500000920E-02 0. -1.
    10030    2    1    2    0    0  0.00000000000E+00  0.00000000000E+00 -0.25472179605E+03  0.38922080897E+04  0.38838641351E+04 0.  0.
        3    1    3    3  502    0 -0.16954860222E+04 -0.60957831580E+03 -0.85337680297E+03  0.19936174540E+04  0.10100000352E+00 0. -1.
       -3    1    3    3    0  502  0.16954860222E+04  0.60957831580E+03  0.59865500692E+03  0.18985906358E+04  0.10100000352E+00 0.  1.
</event>
<event>
 5   0  0.4824268E-07  0.3663136E+04  0.7818609E-02  0.8076181E-01
        2   -1    0    0  501    0  0.00000000000E+00  0.00000000000E+00  0.21707214459E+04  0.21707214459E+04  0.25500000920E-02 0.  1.
       -2   -1    0    0    0  501  0.00000000000E+00  0.00000000000E+00 -0.15454040906E+04  0.15454040906E+04  0.25500000920E-02 0. -1.
    10030    2    1    2    0    0  0.00000000000E+00  0.00000000000E+00  0.62531735525E+03  0.37161255365E+04  0.36631362531E+04 0.  0.
        1    1    3    3  502    0  0.17852550691E+04 -0.23907729776E+03 -0.24333564656E+02  0.18013566383E+04  0.50400001928E-02 0. -1.
       -1    1    3    3    0  502 -0.17852550691E+04  0.23907729776E+03  0.64965091990E+03  0.19147688982E+04  0.50400001928E-02 0.  1.
</event>
<event>
 5   0  0.4857514E-07  0.3663635E+04  0.7818609E-02  0.8076069E-01
        2   -1    0    0  501    0  0.00000000000E+00  0.00000000000E+00  0.22211443958E+04  0.22211443958E+04  0.25500000920E-02 0. -1.
       -2   -1    0    0    0  501  0.00000000000E+00  0.00000000000E+00 -0.15107324074E+04  0.15107324074E+04  0.25500000920E-02 0.  1.
    10030    2    1    2    0    0  0.00000000000E+00  0.00000000000E+00  0.71041198843E+03  0.37318768032E+04  0.36636347090E+04 0.  0.
        5    1    3    3  502    0 -0.16982932180E+04  0.41898191419E+02  0.10532273904E+04  0.19988159842E+04  0.46999998093E+01 0.  1.
       -5    1    3    3    0  502  0.16982932180E+04 -0.41898191419E+02 -0.34281540197E+03  0.17330608191E+04  0.46999998093E+01 0. -1.
</event>
<event>
 5   0  0.4857514E-07  0.3698554E+04  0.7818609E-02  0.8068282E-01
        2   -1    0    0  501    0  0.00000000000E+00  0.00000000000E+00  0.18222098295E+04  0.18222098295E+04  0.25500000920E-02 0.  1.
       -2   -1    0    0    0  501  0.00000000000E+00  0.00000000000E+00 -0.18767457236E+04  0.18767457236E+04  0.25500000920E-02 0. -1.
    10030    2    1    2    0    0  0.00000000000E+00  0.00000000000E+00 -0.54535894081E+02  0.36989555531E+04  0.36985535037E+04 0.  0.
        5    1    3    3  502    0 -0.72505487347E+03  0.12579518232E+04 -0.11726675441E+04  0.18663650817E+04  0.46999998093E+01 0. -1.
       -5    1    3    3    0  502  0.72505487347E+03 -0.12579518232E+04  0.11181316500E+04  0.18325904714E+04  0.46999998093E+01 0.  1.
</event>
<event>
 5   0  0.1496000E-07  0.3723150E+04  0.7818609E-02  0.8062851E-01
       -1   -1    0    0    0  501  0.00000000000E+00  0.00000000000E+00  0.17993661987E+04  0.17993661987E+04  0.50400001928E-02 0.  1.
        1   -1    0    0  501    0  0.00000000000E+00  0.00000000000E+00 -0.19259345065E+04  0.19259345065E+04  0.50400001928E-02 0. -1.
    10030    2    1    2    0    0  0.00000000000E+00  0.00000000000E+00 -0.12656830784E+03  0.37253007052E+04  0.37231499846E+04 0.  0.
        5    1    3    3  502    0  0.15207041483E+03 -0.77022057713E+02  0.17915346597E+04  0.17996322778E+04  0.46999998093E+01 0.  1.
       -5    1    3    3    0  502 -0.15207041483E+03  0.77022057713E+02 -0.19181029675E+04  0.19256684274E+04  0.46999998093E+01 0. -1.
</event>
<event>
 5   0  0.1496287E-07  0.3679306E+04  0.7818609E-02  0.8072563E-01
        1   -1    0    0  501    0  0.00000000000E+00  0.00000000000E+00  0.23071077040E+04  0.23071077040E+04  0.50400001928E-02 0. -1.
       -1   -1    0    0    0  501  0.00000000000E+00  0.00000000000E+00 -0.14669114133E+04  0.14669114133E+04  0.50400001928E-02 0.  1.
    10030    2    1    2    0    0  0.00000000000E+00  0.00000000000E+00  0.84019629077E+03  0.37740191173E+04  0.36793057077E+04 0.  0.
        1    1    3    3  502    0  0.14987129519E+04 -0.10478405330E+04  0.62579034835E+03  0.19328020734E+04  0.50400001928E-02 0. -1.
       -1    1    3    3    0  502 -0.14987129519E+04  0.10478405330E+04  0.21440594242E+03  0.18412170439E+04  0.50400001928E-02 0.  1.
</event>
<event>
 5   0  0.1496000E-07  0.3368330E+04  0.7818609E-02  0.8145723E-01
        1   -1    0    0  501    0  0.00000000000E+00  0.00000000000E+00  0.18205301273E+04  0.18205301273E+04  0.50400001928E-02 0. -1.
       -1   -1    0    0    0  501  0.00000000000E+00  0.00000000000E+00 -0.15580143556E+04  0.15580143556E+04  0.50400001928E-02 0.  1.
    10030    2    1    2    0    0  0.00000000000E+00  0.00000000000E+00  0.26251577176E+03  0.33785444829E+04  0.33683301935E+04 0.  0.
        3    1    3    3  502    0  0.37606802673E+03  0.14690859359E+04  0.86612645582E+03  0.17463721526E+04  0.10100000352E+00 0. -1.
       -3    1    3    3    0  502 -0.37606802673E+03 -0.14690859359E+04 -0.60361068406E+03  0.16321723303E+04  0.10100000352E+00 0.  1.
</event>
<event>
 5   0  0.1496287E-07  0.3699594E+04  0.7818609E-02  0.8068052E-01
        1   -1    0    0  501    0  0.00000000000E+00  0.00000000000E+00  0.13504405719E+04  0.13504405719E+04  0.50400001928E-02 0. -1.
       -1   -1    0    0    0  501  0.00000000000E+00  0.00000000000E+00 -0.25338015307E+04  0.25338015307E+04  0.50400001928E-02 0.  1.
    10030    2    1    2    0    0  0.00000000000E+00  0.00000000000E+00 -0.11833609588E+04  0.38842421026E+04  0.36995937010E+04 0.  0.
        1    1    3    3  502    0  0.17464852788E+04  0.60033257920E+03 -0.70248634735E+03  0.19758788178E+04  0.50400001928E-02 0. -1.
       -1    1    3    3    0  502 -0.17464852788E+04 -0.60033257920E+03 -0.48087461143E+03  0.19083632847E+04  0.50400001928E-02 0.  1.
</event>
<event>
 5   0  0.1522273E-07  0.3721678E+04  0.7818609E-02  0.8063175E-01
       -1   -1    0    0    0  501  0.00000000000E+00  0.00000000000E+00  0.25817787322E+04  0.25817787322E+04  0.50400001928E-02 0.  1.
        1   -1    0    0  501    0  0.00000000000E+00  0.00000000000E+00 -0.13412157163E+04  0.13412157163E+04  0.50400001928E-02 0. -1.
    10030    2    1    2    0    0  0.00000000000E+00  0.00000000000E+00  0.12405630159E+04  0.39229944485E+04  0.37216782299E+04 0.  0.
        4    1    3    3  502    0  0.12858078292E+04  0.10127081118E+04  0.15535205276E+04  0.22566140867E+04  0.12699999809E+01 0.  1.
       -4    1    3    3    0  502 -0.12858078292E+04 -0.10127081118E+04 -0.31295751172E+03  0.16663803619E+04  0.12699999809E+01 0. -1.
</event>
<event>
 5   0  0.4687817E-07  0.3692914E+04  0.7818609E-02  0.8069534E-01
        2   -1    0    0  501    0  0.00000000000E+00  0.00000000000E+00  0.14245255973E+04  0.14245255973E+04  0.25500000920E-02 0. -1.
       -2   -1    0    0    0  501  0.00000000000E+00  0.00000000000E+00 -0.23933609677E+04  0.23933609677E+04  0.25500000920E-02 0.  1.
    10030    2    1    2    0    0  0.00000000000E+00  0.00000000000E+00 -0.96883537043E+03  0.38178865650E+04  0.36929142758E+04 0.  0.
        4    1    3    3  502    0 -0.17896414438E+04  0.31545040883E+03 -0.82271743105E+03  0.19947909770E+04  0.12699999809E+01 0.  1.
       -4    1    3    3    0  502  0.17896414438E+04 -0.31545040883E+03 -0.14611793938E+03  0.18230955880E+04  0.12699999809E+01 0. -1.
</event>
<event>
 5   0  0.4857514E-07  0.3714135E+04  0.7818609E-02  0.8064837E-01
       -2   -1    0    0    0  501  0.00000000000E+00  0.00000000000E+00  0.15481874456E+04  0.15481874456E+04  0.25500000920E-02 0.  1.
        2   -1    0    0  501    0  0.00000000000E+00  0.00000000000E+00 -0.22275719035E+04  0.22275719035E+04  0.25500000920E-02 0. -1.
    10030    2    1    2    0    0  0.00000000000E+00  0.00000000000E+00 -0.67938445799E+03  0.37757593491E+04  0.37141345453E+04 0.  0.
        5    1    3    3  502    0 -0.83694839432E+03 -0.59228621786E+03  0.12343490828E+04  0.16046573861E+04  0.46999998093E+01 0.  1.
       -5    1    3    3    0  502  0.83694839432E+03  0.59228621786E+03 -0.19137335408E+04  0.21711019630E+04  0.46999998093E+01 0. -1.
</event>
<event>
 5   0  0.1496287E-07  0.3724272E+04  0.7818609E-02  0.8062604E-01
       -1   -1    0    0    0  501  0.00000000000E+00  0.00000000000E+00  0.21191050474E+04  0.21191050474E+04  0.50400001928E-02 0.  1.
        1   -1    0    0  501    0  0.00000000000E+00  0.00000000000E+00 -0.16363280687E+04  0.16363280687E+04  0.50400001928E-02 0. -1.
    10030    2    1    2    0    0  0.00000000000E+00  0.00000000000E+00  0.48277697863E+03  0.37554331161E+04  0.37242723153E+04 0.  0.
        1    1    3    3  502    0 -0.84208650359E+02  0.40410549876E+02  0.21167414598E+04  0.21188011981E+04  0.50400001928E-02 0.  1.
       -1    1    3    3    0  502  0.84208650359E+02 -0.40410549876E+02 -0.16339644812E+04  0.16366319180E+04  0.50400001928E-02 0. -1.
</event>
<event>
 5   0  0.4793557E-07  0.3694795E+04  0.7818609E-02  0.8069116E-01
        2   -1    0    0  501    0  0.00000000000E+00  0.00000000000E+00  0.25109627802E+04  0.25109627802E+04  0.25500000920E-02 0. -1.
       -2   -1    0    0    0  501  0.00000000000E+00  0.00000000000E+00 -0.13591909323E+04  0.13591909323E+04  0.25500000920E-02 0.  1.
    10030    2    1    2    0    0  0.00000000000E+00  0.00000000000E+00  0.11517718480E+04  0.38701537125E+04  0.36947951727E+04 0.  0.
        3    1    3    3  502    0 -0.95817102483E+03 -0.75859011418E+02  0.22284299781E+04  0.24268799887E+04  0.10100000352E+00 0. -1.
       -3    1    3    3    0  502  0.95817102483E+03  0.75859011418E+02 -0.10766581301E+04  0.14432737238E+04  0.10100000352E+00 0.  1.
</event>
<event>
 5   0  0.4824268E-07  0.3727631E+04  0.7818609E-02  0.8061866E-01
       -2   -1    0    0    0  501  0.00000000000E+00  0.00000000000E+00  0.16999579124E+04  0.16999579124E+04  0.25500000920E-02 0.  1.
        2   -1    0    0  501    0  0.00000000000E+00  0.00000000000E+00 -0.20434670828E+04  0.20434670828E+04  0.25500000920E-02 0. -1.
    10030    2    1    2    0    0  0.00000000000E+00  0.00000000000E+00 -0.34350917044E+03  0.37434249952E+04  0.37276309024E+04 0.  0.
        1    1    3    3  502    0 -0.10088368570E+04 -0.49628787703E+03  0.13210681936E+04  0.17347260974E+04  0.50400001928E-02 0.  1.
       -1    1    3    3    0  502  0.10088368570E+04  0.49628787703E+03 -0.16645773641E+04  0.20086988978E+04  0.50400001928E-02 0. -1.
</event>
<event>
 5   0  0.4758908E-07  0.3700844E+04  0.7818609E-02  0.8067775E-01
        2   -1    0    0  501    0  0.00000000000E+00  0.00000000000E+00  0.18953750397E+04  0.18953750397E+04  0.25500000920E-02 0.  1.
       -2   -1    0    0    0  501  0.00000000000E+00  0.00000000000E+00 -0.18065353950E+04  0.18065353950E+04  0.25500000920E-02 0. -1.
    10030    2    1    2    0    0  0.00000000000E+00  0.00000000000E+00  0.88839644674E+02  0.37019104347E+04  0.37008442799E+04 0.  0.
        2    1    3    3  502    0  0.14158699543E+04  0.11486733733E+04 -0.27177858231E+03  0.18433669857E+04  0.25500000920E-02 0. -1.
       -2    1    3    3    0  502 -0.14158699543E+04 -0.11486733733E+04  0.36061822698E+03  0.18585434490E+04  0.25500000920E-02 0.  1.
</event>
<event>
 5   0  0.1496000E-07  0.3734976E+04  0.7818609E-02  0.8060255E-01
        1   -1    0    0  501    0  0.00000000000E+00  0.00000000000E+00  0.15337685313E+04  0.15337685313E+04  0.50400001928E-02 0. -1.
       -1   -1    0    0    0  501  0.00000000000E+00  0.00000000000E+00 -0.22738188553E+04  0.22738188553E+04  0.50400001928E-02 0.  1.
    10030    2    1    2    0    0  0.00000000000E+00  0.00000000000E+00 -0.74005032400E+03  0.38075873867E+04  0.37349762014E+04 0.  0.
        2    1    3    3  502    0  0.12932544668E+04 -0.21525807065E+03  0.98574252845E+03  0.16402839648E+04  0.25500000920E-02 0. -1.
       -2    1    3    3    0  502 -0.12932544668E+04  0.21525807065E+03 -0.17257928525E+04  0.21673034219E+04  0.25500000920E-02 0.  1.
</event>
<event>
 5   0  0.1522273E-07  0.3666533E+04  0.7818609E-02  0.8075419E-01
        1   -1    0    0  501    0  0.00000000000E+00  0.00000000000E+00  0.15418624560E+04  0.15418624560E+04  0.50400001928E-02 0. -1.
       -1   -1    0    0    0  501  0.00000000000E+00  0.00000000000E+00 -0.21797444791E+04  0.21797444791E+04  0.50400001928E-02 0.  1.
    10030    2    1    2    0    0  0.00000000000E+00  0.00000000000E+00 -0.63788202312E+03  0.37216069350E+04  0.36665330632E+04 0.  0.
        4    1    3    3  502    0  0.28412359645E+03 -0.94293634592E+02  0.15168852116E+04  0.15461435462E+04  0.12699999809E+01 0. -1.
       -4    1    3    3    0  502 -0.28412359645E+03  0.94293634592E+02 -0.21547672347E+04  0.21754633888E+04  0.12699999809E+01 0.  1.
</event>
<event>
 5   0  0.4857514E-07  0.3752467E+04  0.7818609E-02  0.8056433E-01
       -2   -1    0    0    0  501  0.00000000000E+00  0.00000000000E+00  0.13346177573E+04  0.13346177573E+04  0.25500000920E-02 0. -1.
        2   -1    0    0  501    0  0.00000000000E+00  0.00000000000E+00 -0.26376481548E+04  0.26376481548E+04  0.25500000920E-02 0.  1.
    10030    2    1    2    0    0  0.00000000000E+00  0.00000000000E+00 -0.13030303975E+04  0.39722659122E+04  0.37524669566E+04 0.  0.
        5    1    3    3  502    0 -0.73028921702E+03 -0.32751034753E+03  0.11448344896E+04  0.13968727453E+04  0.46999998093E+01 0. -1.
       -5    1    3    3    0  502  0.73028921702E+03  0.32751034753E+03 -0.24478648871E+04  0.25753931668E+04  0.46999998093E+01 0.  1.
</event>
<event>
 5   0  0.1496000E-07  0.3644224E+04  0.7818609E-02  0.8080436E-01
       -1   -1    0    0    0  501  0.00000000000E+00  0.00000000000E+00  0.17308422423E+04  0.17308422423E+04  0.50400001928E-02 0.  1.
        1   -1    0    0  501    0  0.00000000000E+00  0.00000000000E+00 -0.19181947974E+04  0.19181947974E+04  0.50400001928E-02 0. -1.
    10030    2    1    2    0    0  0.00000000000E+00  0.00000000000E+00 -0.18735255509E+03  0.36490370396E+04  0.36442242435E+04 0.  0.
        2    1    3    3  502    0  0.85911845683E+03  0.27329559144E+02 -0.17024284699E+04  0.19071167041E+04  0.25500000920E-02 0. -1.
       -2    1    3    3    0  502 -0.85911845683E+03 -0.27329559144E+02  0.15150759149E+04  0.17419203356E+04  0.25500000920E-02 0.  1.
</event>
<event>
 5   0  0.1496000E-07  0.3745279E+04  0.7818609E-02  0.8058001E-01
        1   -1    0    0  501    0  0.00000000000E+00  0.00000000000E+00  0.15295218000E+04  0.15295218000E+04  0.50400001928E-02 0. -1.
       -1   -1    0    0    0  501  0.00000000000E+00  0.00000000000E+00 -0.22927284184E+04  0.22927284184E+04  0.50400001928E-02 0.  1.
    10030    2    1    2    0    0  0.00000000000E+00  0.00000000000E+00 -0.76320661841E+03  0.38222502183E+04  0.37452786798E+04 0.  0.
        5    1    3    3  502    0  0.55116443817E+03 -0.37774185251E+03  0.14037160028E+04  0.15546420332E+04  0.46999998093E+01 0. -1.
       -5    1    3    3    0  502 -0.55116443817E+03  0.37774185251E+03 -0.21669226212E+04  0.22676081851E+04  0.46999998093E+01 0.  1.
</event>
<event>
 5   0  0.1522273E-07  0.3672985E+04  0.7818609E-02  0.8073975E-01
       -1   -1    0    0    0  501  0.00000000000E+00  0.00000000000E+00  0.15653973837E+04  0.15653973837E+04  0.50400001928E-02 0. -1.
        1   -1    0    0  501    0  0.00000000000E+00  0.00000000000E+00 -0.21545352933E+04  0.21545352933E+04  0.50400001928E-02 0.  1.
    10030    2    1    2    0    0  0.00000000000E+00  0.00000000000E+00 -0.58913790961E+03  0.37199326770E+04  0.36729845691E+04 0.  0.
        4    1    3    3  502    0  0.18138601098E+04 -0.25924755144E+03 -0.16886762184E+03  0.18400586071E+04  0.12699999809E+01 0. -1.
       -4    1    3    3    0  502 -0.18138601098E+04  0.25924755144E+03 -0.42027028777E+03  0.18798740699E+04  0.12699999809E+01 0.  1.
</event>
<event>
 5   0  0.1496000E-07  0.3675812E+04  0.7818609E-02  0.8073343E-01
       -1   -1    0    0    0  501  0.00000000000E+00  0.00000000000E+00  0.13736817422E+04  0.13736817422E+04  0.50400001928E-02 0. -1.
        1   -1    0    0  501    0  0.00000000000E+00  0.00000000000E+00 -0.24590110627E+04  0.24590110627E+04  0.50400001928E-02 0.  1.
    10030    2    1    2    0    0  0.00000000000E+00  0.00000000000E+00 -0.10853293205E+04  0.38326928049E+04  0.36758120739E+04 0.  0.
        3    1    3    3  502    0 -0.16943662508E+04  0.13093993645E+03  0.18711867174E+03  0.17096887630E+04  0.10100000352E+00 0.  1.
       -3    1    3    3    0  502  0.16943662508E+04 -0.13093993645E+03 -0.12724479922E+04  0.21230040419E+04  0.10100000352E+00 0. -1.
</event>
<event>
 5   0  0.1496000E-07  0.3704960E+04  0.7818609E-02  0.8066864E-01
       -1   -1    0    0    0  501  0.00000000000E+00  0.00000000000E+00  0.15224000934E+04  0.15224000934E+04  0.50400001928E-02 0.  1.
        1   -1    0    0  501    0  0.00000000000E+00  0.00000000000E+00 -0.22541260001E+04  0.22541260001E+04  0.50400001928E-02 0. -1.
    10030    2    1    2    0    0  0.00000000000E+00  0.00000000000E+00 -0.73172590671E+03  0.37765260935E+04  0.37049597207E+04 0.  0.
        5    1    3    3  502    0  0.97299820899E+03 -0.15044513695E+03 -0.19653455055E+04  0.21981729459E+04  0.46999998093E+01 0. -1.
       -5    1    3    3    0  502 -0.97299820899E+03  0.15044513695E+03  0.12336195988E+04  0.15783531476E+04  0.46999998093E+01 0.  1.
</event>
<event>
 5   0  0.1496287E-07  0.3615506E+04  0.7818609E-02  0.8086949E-01
       -1   -1    0    0    0  501  0.00000000000E+00  0.00000000000E+00  0.13133296657E+04  0.13133296657E+04  0.50400001928E-02 0.  1.
        1   -1    0    0  501    0  0.00000000000E+00  0.00000000000E+00 -0.24883096495E+04  0.24883096495E+04  0.50400001928E-02 0. -1.
    10030    2    1    2    0    0  0.00000000000E+00  0.00000000000E+00 -0.11749799838E+04  0.38016393152E+04  0.36155059840E+04 0.  0.
        1    1    3    3  502    0 -0.13882225605E+04  0.18782865814E+03  0.61393082721E+03  0.15294942115E+04  0.50400001928E-02 0.  1.
       -1    1    3    3    0  502  0.13882225605E+04 -0.18782865814E+03 -0.17889108111E+04  0.22721451037E+04  0.50400001928E-02 0. -1.
</event>
<event>
 5   0  0.4824268E-07  0.3630436E+04  0.7818609E-02  0.8083555E-01
        2   -1    0    0  501    0  0.00000000000E+00  0.00000000000E+00  0.29052487308E+04  0.29052487308E+04  0.25500000920E-02 0.  1.
       -2   -1    0    0    0  501  0.00000000000E+00  0.00000000000E+00 -0.11341597934E+04  0.11341597934E+04  0.25500000920E-02 0. -1.
    10030    2    1    2    0    0  0.00000000000E+00  0.00000000000E+00  0.17710889374E+04  0.40394085242E+04  0.36304359519E+04 0.  0.
        1    1    3    3  502    0  0.55120955394E+03  0.82225081413E+03  0.25784890564E+04  0.27619801208E+04  0.50400001928E-02 0.  1.
       -1    1    3    3    0  502 -0.55120955394E+03 -0.82225081413E+03 -0.80740011896E+03  0.12774284034E+04  0.50400001928E-02 0. -1.
</event>
<event>
 5   0  0.1496287E-07  0.3363307E+04  0.7818609E-02  0.8146971E-01
        1   -1    0    0  501    0  0.00000000000E+00  0.00000000000E+00  0.15910277660E+04  0.15910277660E+04  0.50400001928E-02 0. -1.
       -1   -1    0    0    0  501  0.00000000000E+00  0.00000000000E+00 -0.17774416527E+04  0.17774416527E+04  0.50400001928E-02 0.  1.
    10030    2    1    2    0    0  0.00000000000E+00  0.00000000000E+00 -0.18641388671E+03  0.33684694186E+04  0.33633073138E+04 0.  0.
        1    1    3    3  502    0 -0.14223361873E+04  0.56815122528E+03 -0.78862341322E+03  0.17227196326E+04  0.50400001928E-02 0.  1.
       -1    1    3    3    0  502  0.14223361873E+04 -0.56815122528E+03  0.60220952651E+03  0.16457497861E+04  0.50400001928E-02 0. -1.
</event>
<event>
 5   0  0.4687817E-07  0.3708821E+04  0.7818609E-02  0.8066010E-01
        2   -1    0    0  501    0  0.00000000000E+00  0.00000000000E+00  0.15439320654E+04  0.15439320654E+04  0.25500000920E-02 0.  1.
       -2   -1    0    0    0  501  0.00000000000E+00  0.00000000000E+00 -0.22273253730E+04  0.22273253730E+04  0.25500000920E-02 0. -1.
    10030    2    1    2    0    0  0.00000000000E+00  0.00000000000E+00 -0.68339330759E+03  0.37712574384E+04  0.37088214103E+04 0.  0.
        4    1    3    3  502    0 -0.16614164992E+04  0.81631012216E+03 -0.45387359624E+03  0.19059564144E+04  0.12699999809E+01 0.  1.
       -4    1    3    3    0  502  0.16614164992E+04 -0.81631012216E+03 -0.22951971135E+03  0.18653010240E+04  0.12699999809E+01 0. -1.
</event>
<event>
 5   0  0.4857514E-07  0.3721695E+04  0.7818609E-02  0.8063171E-01
       -2   -1    0    0    0  501  0.00000000000E+00  0.00000000000E+00  0.17119837929E+04  0.17119837929E+04  0.25500000920E-02 0.  1.
        2   -1    0    0  501    0  0.00000000000E+00  0.00000000000E+00 -0.20226550514E+04  0.20226550514E+04  0.25500000920E-02 0. -1.
    10030    2    1    2    0    0  0.00000000000E+00  0.00000000000E+00 -0.31067125851E+03  0.37346388443E+04  0.37216945961E+04 0.  0.
        5    1    3    3  502    0 -0.96529570224E+03 -0.12788268659E+04  0.79428372108E+03  0.17883239822E+04  0.46999998093E+01 0.  1.
       -5    1    3    3    0  502  0.96529570224E+03  0.12788268659E+04 -0.11049549796E+04  0.19463148621E+04  0.46999998093E+01 0. -1.
</event>
<event>
 5   0  0.1496000E-07  0.3645429E+04  0.7818609E-02  0.8080164E-01
       -1   -1    0    0    0  501  0.00000000000E+00  0.00000000000E+00  0.15008719245E+04  0.15008719245E+04  0.50400001928E-02 0.  1.
        1   -1    0    0  501    0  0.00000000000E+00  0.00000000000E+00 -0.22135726192E+04  0.22135726192E+04  0.50400001928E-02 0. -1.
    10030    2    1    2    0    0  0.00000000000E+00  0.00000000000E+00 -0.71270069472E+03  0.37144445437E+04  0.36454294655E+04 0.  0.
        2    1    3    3  502    0  0.15828447161E+04 -0.19896160152E+03  0.54199051858E+03  0.16848551381E+04  0.25500000920E-02 0.  1.
       -2    1    3    3    0  502 -0.15828447161E+04  0.19896160152E+03 -0.12546912133E+04  0.20295894055E+04  0.25500000920E-02 0. -1.
</event>
<event>
 5   0  0.1496287E-07  0.3717554E+04  0.7818609E-02  0.8064083E-01
        1   -1    0    0  501    0  0.00000000000E+00  0.00000000000E+00  0.14616622765E+04  0.14616622766E+04  0.50400001928E-02 0.  1.
       -1   -1    0    0    0  501  0.00000000000E+00  0.00000000000E+00 -0.23637822023E+04  0.23637822023E+04  0.50400001928E-02 0. -1.
    10030    2    1    2    0    0  0.00000000000E+00  0.00000000000E+00 -0.90211992578E+03  0.38254444789E+04  0.37175536446E+04 0.  0.
        1    1    3    3  502    0  0.90828774629E+03  0.14779417149E+04 -0.11380837332E+04  0.20747368331E+04  0.50400001928E-02 0. -1.
       -1    1    3    3    0  502 -0.90828774629E+03 -0.14779417149E+04  0.23596380744E+03  0.17507076458E+04  0.50400001928E-02 0.  1.
</event>
<event>
 5   0  0.4758908E-07  0.3687953E+04  0.7818609E-02  0.8070637E-01
        2   -1    0    0  501    0  0.00000000000E+00  0.00000000000E+00  0.29117029396E+04  0.29117029396E+04  0.25500000920E-02 0. -1.
       -2   -1    0    0    0  501  0.00000000000E+00  0.00000000000E+00 -0.11677870935E+04  0.11677870935E+04  0.25500000920E-02 0.  1.
    10030    2    1    2    0    0  0.00000000000E+00  0.00000000000E+00  0.17439158461E+04  0.40794900331E+04  0.36879528810E+04 0.  0.
        2    1    3    3  502    0 -0.50416603173E+03  0.48789203210E+03  0.27582968921E+04  0.28461243416E+04  0.25500000920E-02 0. -1.
       -2    1    3    3    0  502  0.50416603173E+03 -0.48789203210E+03 -0.10143810460E+04  0.12333656916E+04  0.25500000920E-02 0.  1.
</event>
<event>
 5   0  0.1496000E-07  0.3640419E+04  0.7818609E-02  0.8081295E-01
        1   -1    0    0  501    0  0.00000000000E+00  0.00000000000E+00  0.12596732757E+04  0.12596732757E+04  0.50400001928E-02 0. -1.
       -1   -1    0    0    0  501  0.00000000000E+00  0.00000000000E+00 -0.26301764532E+04  0.26301764533E+04  0.50400001928E-02 0.  1.
    10030    2    1    2    0    0  0.00000000000E+00  0.00000000000E+00 -0.13705031775E+04  0.38898497290E+04  0.36404192004E+04 0.  0.
        3    1    3    3  502    0  0.11750776933E+04 -0.13834004125E+04 -0.53968721148E+03  0.18936384510E+04  0.10100000352E+00 0.  1.
       -3    1    3    3    0  502 -0.11750776933E+04  0.13834004125E+04 -0.83081596606E+03  0.19962112780E+04  0.10100000352E+00 0. -1.
</event>
<event>
 5   0  0.1496000E-07  0.3645511E+04  0.7818609E-02  0.8080146E-01
        1   -1    0    0  501    0  0.00000000000E+00  0.00000000000E+00  0.18065322710E+04  0.18065322710E+04  0.50400001928E-02 0. -1.
       -1   -1    0    0    0  501  0.00000000000E+00  0.00000000000E+00 -0.18391248983E+04  0.18391248983E+04  0.50400001928E-02 0.  1.
    10030    2    1    2    0    0  0.00000000000E+00  0.00000000000E+00 -0.32592627316E+02  0.36456571694E+04  0.36455114754E+04 0.  0.
        3    1    3    3  502    0  0.79627455840E+01  0.45988031965E+03  0.17475443297E+04  0.18070596305E+04  0.10100000352E+00 0. -1.
       -3    1    3    3    0  502 -0.79627455840E+01 -0.45988031965E+03 -0.17801369571E+04  0.18385975388E+04  0.10100000352E+00 0.  1.
</event>
<event>
 5   0  0.4758908E-07  0.3729814E+04  0.7818609E-02  0.8061387E-01
       -2   -1    0    0    0  501  0.00000000000E+00  0.00000000000E+00  0.12419332544E+04  0.12419332544E+04  0.25500000920E-02 0. -1.
        2   -1    0    0  501    0  0.00000000000E+00  0.00000000000E+00 -0.28003751631E+04  0.28003751631E+04  0.25500000920E-02 0.  1.
    10030    2    1    2    0    0  0.00000000000E+00  0.00000000000E+00 -0.15584419087E+04  0.40423084175E+04  0.37298144940E+04 0.  0.
        2    1    3    3  502    0  0.86341964836E+03 -0.18650882195E+03  0.10008240844E+04  0.13348887136E+04  0.25500000920E-02 0. -1.
       -2    1    3    3    0  502 -0.86341964836E+03  0.18650882195E+03 -0.25592659931E+04  0.27074197039E+04  0.25500000920E-02 0.  1.
</event>
<event>
 5   0  0.1496000E-07  0.3704604E+04  0.7818609E-02  0.8066942E-01
        1   -1    0    0  501    0  0.00000000000E+00  0.00000000000E+00  0.17317550814E+04  0.17317550814E+04  0.50400001928E-02 0.  1.
       -1   -1    0    0    0  501  0.00000000000E+00  0.00000000000E+00 -0.19812400985E+04  0.19812400986E+04  0.50400001928E-02 0. -1.
    10030    2    1    2    0    0  0.00000000000E+00  0.00000000000E+00 -0.24948501714E+03  0.37129951800E+04  0.37046039509E+04 0.  0.
        5    1    3    3  502    0 -0.38382375853E+03 -0.17256573890E+04  0.42948961564E+03  0.18192574094E+04  0.46999998093E+01 0. -1.
       -5    1    3    3    0  502  0.38382375853E+03  0.17256573890E+04 -0.67897463278E+03  0.18937377706E+04  0.46999998093E+01 0.  1.
</event>
<event>
 5   0  0.4793557E-07  0.3711456E+04  0.7818609E-02  0.8065428E-01
        2   -1    0    0  501    0  0.00000000000E+00  0.00000000000E+00  0.18919641460E+04  0.18919641460E+04  0.25500000920E-02 0.  1.
       -2   -1    0    0    0  501  0.00000000000E+00  0.00000000000E+00 -0.18201857688E+04  0.18201857688E+04  0.25500000920E-02 0. -1.
    10030    2    1    2    0    0  0.00000000000E+00  0.00000000000E+00  0.71778377169E+02  0.37121499148E+04  0.37114558941E+04 0.  0.
        3    1    3    3  502    0 -0.17961870960E+04  0.21914504102E+03 -0.37578657582E+03  0.18481147675E+04  0.10100000352E+00 0. -1.
       -3    1    3    3    0  502  0.17961870960E+04 -0.21914504102E+03  0.44756495299E+03  0.18640351473E+04  0.10100000352E+00 0.  1.
</event>
<event>
 5   0  0.4793557E-07  0.3770358E+04  0.7818609E-02  0.8052546E-01
       -2   -1    0    0    0  501  0.00000000000E+00  0.00000000000E+00  0.18267845142E+04  0.18267845142E+04  0.25500000920E-02 0. -1.
        2   -1    0    0  501    0  0.00000000000E+00  0.00000000000E+00 -0.19454397738E+04  0.19454397738E+04  0.25500000920E-02 0.  1.
    10030    2    1    2    0    0  0.00000000000E+00  0.00000000000E+00 -0.11865525959E+03  0.37722242879E+04  0.37703576764E+04 0.  0.
        3    1    3    3  502    0 -0.16702660583E+04 -0.27138920484E+03 -0.89067729321E+03  0.19122622354E+04  0.10100000352E+00 0.  1.
       -3    1    3    3    0  502  0.16702660583E+04  0.27138920484E+03  0.77202203362E+03  0.18599620525E+04  0.10100000352E+00 0. -1.
</event>
<event>
 5   0  0.4758908E-07  0.3670732E+04  0.7818609E-02  0.8074479E-01
       -2   -1    0    0    0  501  0.00000000000E+00  0.00000000000E+00  0.11355523061E+04  0.11355523061E+04  0.25500000920E-02 0.  1.
        2   -1    0    0  501    0  0.00000000000E+00  0.00000000000E+00 -0.29664573172E+04  0.29664573172E+04  0.25500000920E-02 0. -1.
    10030    2    1    2    0    0  0.00000000000E+00  0.00000000000E+00 -0.18309050112E+04  0.41020096233E+04  0.36707315061E+04 0.  0.
        2    1    3    3  502    0  0.45677390671E+03  0.17773715286E+04 -0.88238732478E+03  0.20362463857E+04  0.25500000920E-02 0. -1.
       -2    1    3    3    0  502 -0.45677390671E+03 -0.17773715286E+04 -0.94851768638E+03  0.20657632376E+04  0.25500000920E-02 0.  1.
</event>
<event>
 5   0  0.1522273E-07  0.3651720E+04  0.7818609E-02  0.8078746E-01
        1   -1    0    0  501    0  0.00000000000E+00  0.00000000000E+00  0.22287602936E+04  0.22287602936E+04  0.50400001928E-02 0. -1.
       -1   -1    0    0    0  501  0.00000000000E+00  0.00000000000E+00 -0.14957933727E+04  0.14957933727E+04  0.50400001928E-02 0.  1.
    10030    2    1    2    0    0  0.00000000000E+00  0.00000000000E+00  0.73296692097E+03  0.37245536663E+04  0.36517200750E+04 0.  0.
        4    1    3    3  502    0 -0.19943064792E+03  0.36674926434E+03  0.21794298066E+04  0.22190523881E+04  0.12699999809E+01 0. -1.
       -4    1    3    3    0  502  0.19943064792E+03 -0.36674926434E+03 -0.14464628856E+04  0.15055012782E+04  0.12699999809E+01 0.  1.
</event>
<event>
 5   0  0.4824268E-07  0.3695018E+04  0.7818609E-02  0.8069067E-01
        2   -1    0    0  501    0  0.00000000000E+00  0.00000000000E+00  0.18479108788E+04  0.18479108789E+04  0.25500000920E-02 0.  1.
       -2   -1    0    0    0  501  0.00000000000E+00  0.00000000000E+00 -0.18471070498E+04  0.18471070498E+04  0.25500000920E-02 0. -1.
    10030    2    1    2    0    0  0.00000000000E+00  0.00000000000E+00  0.80382907317E+00  0.36950179286E+04  0.36950178412E+04 0.  0.
        1    1    3    3  502    0 -0.75389326064E+03 -0.15077580957E+04  0.75644405295E+03  0.18476734368E+04  0.50400001928E-02 0. -1.
       -1    1    3    3    0  502  0.75389326064E+03  0.15077580957E+04 -0.75564022388E+03  0.18473444919E+04  0.50400001928E-02 0.  1.
</event>
<event>
 5   0  0.4758908E-07  0.3716434E+04  0.7818609E-02  0.8064330E-01
        2   -1    0    0  501    0  0.00000000000E+00  0.00000000000E+00  0.15643269871E+04  0.15643269871E+04  0.25500000920E-02 0. -1.
       -2   -1    0    0    0  501  0.00000000000E+00  0.00000000000E+00 -0.22073198781E+04  0.22073198781E+04  0.25500000920E-02 0.  1.
    10030    2    1    2    0    0  0.00000000000E+00  0.00000000000E+00 -0.64299289103E+03  0.37716468652E+04  0.37164338038E+04 0.  0.
        2    1    3    3  502    0 -0.79879735177E+03  0.10042190744E+04 -0.16855016246E+04  0.21183599518E+04  0.25500000920E-02 0.  1.
       -2    1    3    3    0  502  0.79879735177E+03 -0.10042190744E+04  0.10425087336E+04  0.16532869135E+04  0.25500000920E-02 0. -1.
</event>
<event>
 5   0  0.4824268E-07  0.3707138E+04  0.7818609E-02  0.8066382E-01
       -2   -1    0    0    0  501  0.00000000000E+00  0.00000000000E+00  0.17265715448E+04  0.17265715448E+04  0.25500000920E-02 0. -1.
        2   -1    0    0  501    0  0.00000000000E+00  0.00000000000E+00 -0.19899078618E+04  0.19899078618E+04  0.25500000920E-02 0.  1.
    10030    2    1    2    0    0  0.00000000000E+00  0.00000000000E+00 -0.26333631695E+03  0.37164794066E+04  0.37071381366E+04 0.  0.
        1    1    3    3  502    0  0.20922044625E+03 -0.16488955773E+04 -0.95415514923E+03  0.19165181629E+04  0.50400001928E-02 0.  1.
       -1    1    3    3    0  502 -0.20922044625E+03  0.16488955773E+04  0.69081883228E+03  0.17999612437E+04  0.50400001928E-02 0. -1.
</event>
<event>
 5   0  0.4793557E-07  0.3681650E+04  0.7818609E-02  0.8072041E-01
       -2   -1    0    0    0  501  0.00000000000E+00  0.00000000000E+00  0.13448315007E+04  0.13448315007E+04  0.25500000920E-02 0. -1.
        2   -1    0    0  501    0  0.00000000000E+00  0.00000000000E+00 -0.25197475835E+04  0.25197475835E+04  0.25500000920E-02 0.  1.
    10030    2    1    2    0    0  0.00000000000E+00  0.00000000000E+00 -0.11749160828E+04  0.38645790842E+04  0.36816495890E+04 0.  0.
        3    1    3    3  502    0 -0.10267189813E+04  0.10328466350E+04  0.59441282564E+03  0.15729750969E+04  0.10100000352E+00 0. -1.
       -3    1    3    3    0  502  0.10267189813E+04 -0.10328466350E+04 -0.17693289085E+04  0.22916039873E+04  0.10100000352E+00 0.  1.
</event>
<event>
 5   0  0.1496000E-07  0.3401402E+04  0.7818609E-02  0.8137562E-01
       -1   -1    0    0    0  501  0.00000000000E+00  0.00000000000E+00  0.12051894431E+04  0.12051894431E+04  0.50400001928E-02 0.  1.
        1   -1    0    0  501    0  0.00000000000E+00  0.00000000000E+00 -0.23999410675E+04  0.23999410675E+04  0.50400001928E-02 0. -1.
    10030    2    1    2    0    0  0.00000000000E+00  0.00000000000E+00 -0.11947516244E+04  0.36051305106E+04  0.34014018514E+04 0.  0.
        2    1    3    3  502    0  0.82303823834E+03 -0.12532555483E+04  0.25341216628E+03  0.15206114353E+04  0.25500000920E-02 0. -1.
       -2    1    3    3    0  502 -0.82303823834E+03  0.12532555483E+04 -0.14481637906E+04  0.20845190754E+04  0.25500000920E-02 0.  1.
</event>
<event>
 5   0  0.4824268E-07  0.3673543E+04  0.7818609E-02  0.8073850E-01
        2   -1    0    0  501    0  0.00000000000E+00  0.00000000000E+00  0.21208807179E+04  0.21208807179E+04  0.25500000920E-02 0. -1.
       -2   -1    0    0    0  501  0.00000000000E+00  0.00000000000E+00 -0.15907208808E+04  0.15907208808E+04  0.25500000920E-02 0.  1.
    10030    2    1    2    0    0  0.00000000000E+00  0.00000000000E+00  0.53015983712E+03  0.37116015987E+04  0.36735428369E+04 0.  0.
        1    1    3    3  502    0  0.13280529236E+03 -0.12512505049E+04  0.16170250374E+04  0.20489106968E+04  0.50400001928E-02 0. -1.
       -1    1    3    3    0  502 -0.13280529236E+03  0.12512505049E+04 -0.10868652003E+04  0.16626909019E+04  0.50400001928E-02 0.  1.
</event>
<event>
 5   0  0.4687817E-07  0.3661120E+04  0.7818609E-02  0.8076633E-01
       -2   -1    0    0    0  501  0.00000000000E+00  0.00000000000E+00  0.14743130122E+04  0.14743130122E+04  0.25500000920E-02 0. -1.
        2   -1    0    0  501    0  0.00000000000E+00  0.00000000000E+00 -0.22728892646E+04  0.22728892646E+04  0.25500000920E-02 0.  1.
    10030    2    1    2    0    0  0.00000000000E+00  0.00000000000E+00 -0.79857625236E+03  0.37472022768E+04  0.36611201664E+04 0.  0.
        4    1    3    3  502    0 -0.57459490772E+03 -0.43974705457E+03 -0.21203151456E+04  0.22403737879E+04  0.12699999809E+01 0.  1.
       -4    1    3    3    0  502  0.57459490772E+03  0.43974705457E+03  0.13217388933E+04  0.15068284889E+04  0.12699999809E+01 0. -1.
</event>
<event>
 5   0  0.1496287E-07  0.3687859E+04  0.7818609E-02  0.8070658E-01
       -1   -1    0    0    0  501  0.00000000000E+00  0.00000000000E+00  0.19853638316E+04  0.19853638316E+04  0.50400001928E-02 0.  1.
        1   -1    0    0  501    0  0.00000000000E+00  0.00000000000E+00 -0.17125707332E+04  0.17125707332E+04  0.50400001928E-02 0. -1.
    10030    2    1    2    0    0  0.00000000000E+00  0.00000000000E+00  0.27279309843E+03  0.36979345648E+04  0.36878589955E+04 0.  0.
        1    1    3    3  502    0 -0.10862591293E+04  0.59473968566E+03 -0.12334991024E+04  0.17479113895E+04  0.50400001928E-02 0. -1.
       -1    1    3    3    0  502  0.10862591293E+04 -0.59473968566E+03  0.15062922008E+04  0.19500231753E+04  0.50400001928E-02 0.  1.
</event>
<event>
 5   0  0.1496000E-07  0.3790725E+04  0.7818609E-02  0.8048148E-01
        1   -1    0    0  501    0  0.00000000000E+00  0.00000000000E+00  0.17034371416E+04  0.17034371416E+04  0.50400001928E-02 0.  1.
       -1   -1    0    0    0  501  0.00000000000E+00  0.00000000000E+00 -0.21089122265E+04  0.21089122265E+04  0.50400001928E-02 0. -1.
    10030    2    1    2    0    0  0.00000000000E+00  0.00000000000E+00 -0.40547508488E+03  0.38123493682E+04  0.37907252156E+04 0.  0.
        2    1    3    3  502    0  0.22499368488E+03  0.57058707478E+03 -0.20063466886E+04  0.20980035279E+04  0.25500000920E-02 0. -1.
       -2    1    3    3    0  502 -0.22499368488E+03 -0.57058707478E+03  0.16008716038E+04  0.17143458402E+04  0.25500000920E-02 0.  1.
</event>
<event>
 5   0  0.1496000E-07  0.3664713E+04  0.7818609E-02  0.8075827E-01
       -1   -1    0    0    0  501  0.00000000000E+00  0.00000000000E+00  0.15144994331E+04  0.15144994331E+04  0.50400001928E-02 0. -1.
        1   -1    0    0  501    0  0.00000000000E+00  0.00000000000E+00 -0.22169244363E+04  0.22169244363E+04  0.50400001928E-02 0.  1.
    10030    2    1    2    0    0  0.00000000000E+00  0.00000000000E+00 -0.70242500318E+03  0.37314238695E+04  0.36647132505E+04 0.  0.
        5    1    3    3  502    0  0.50951981668E+03  0.85643099593E+03  0.12144468861E+04  0.15709830755E+04  0.46999998093E+01 0. -1.
       -5    1    3    3    0  502 -0.50951981668E+03 -0.85643099593E+03 -0.19168718893E+04  0.21604407940E+04  0.46999998093E+01 0.  1.
</event>
<event>
 5   0  0.1496000E-07  0.3705538E+04  0.7818609E-02  0.8066736E-01
       -1   -1    0    0    0  501  0.00000000000E+00  0.00000000000E+00  0.15525054201E+04  0.15525054201E+04  0.50400001928E-02 0.  1.
        1   -1    0    0  501    0  0.00000000000E+00  0.00000000000E+00 -0.22111057189E+04  0.22111057189E+04  0.50400001928E-02 0. -1.
    10030    2    1    2    0    0  0.00000000000E+00  0.00000000000E+00 -0.65860029885E+03  0.37636111390E+04  0.37055383485E+04 0.  0.
        3    1    3    3  502    0  0.23898971114E+03  0.10356408401E+04 -0.18706757158E+04  0.21515333313E+04  0.10100000352E+00 0. -1.
       -3    1    3    3    0  502 -0.23898971114E+03 -0.10356408401E+04  0.12120754169E+04  0.16120778078E+04  0.10100000352E+00 0.  1.
</event>
<event>
 5   0  0.4687817E-07  0.3697378E+04  0.7818609E-02  0.8068543E-01
        2   -1    0    0  501    0  0.00000000000E+00  0.00000000000E+00  0.15412138223E+04  0.15412138223E+04  0.25500000920E-02 0. -1.
       -2   -1    0    0    0  501  0.00000000000E+00  0.00000000000E+00 -0.22175055218E+04  0.22175055218E+04  0.25500000920E-02 0.  1.
    10030    2    1    2    0    0  0.00000000000E+00  0.00000000000E+00 -0.67629169956E+03  0.37587193441E+04  0.36973775361E+04 0.  0.
        4    1    3    3  502    0  0.50740565808E+03 -0.12112282160E+04 -0.16609307657E+04  0.21173631985E+04  0.12699999809E+01 0.  1.
       -4    1    3    3    0  502 -0.50740565808E+03  0.12112282160E+04  0.98463906618E+03  0.16413561456E+04  0.12699999809E+01 0. -1.
</event>
<event>
 5   0  0.1496287E-07  0.3723286E+04  0.7818609E-02  0.8062821E-01
       -1   -1    0    0    0  501  0.00000000000E+00  0.00000000000E+00  0.30475213910E+04  0.30475213910E+04  0.50400001928E-02 0. -1.
        1   -1    0    0  501    0  0.00000000000E+00  0.00000000000E+00 -0.11372241669E+04  0.11372241669E+04  0.50400001928E-02 0.  1.
    10030    2    1    2    0    0  0.00000000000E+00  0.00000000000E+00  0.19102972241E+04  0.41847455580E+04  0.37232861696E+04 0.  0.
        1    1    3    3  502    0  0.45316584716E+03 -0.90350823541E+03 -0.80194855324E+03  0.12902743501E+04  0.50400001928E-02 0.  1.
       -1    1    3    3    0  502 -0.45316584716E+03  0.90350823541E+03  0.27122457773E+04  0.28944712079E+04  0.50400001928E-02 0. -1.
</event>
<event>
 5   0  0.4857514E-07  0.3609243E+04  0.7818609E-02  0.8088378E-01
       -2   -1    0    0    0  501  0.00000000000E+00  0.00000000000E+00  0.13915771617E+04  0.13915771617E+04  0.25500000920E-02 0. -1.
        2   -1    0    0  501    0  0.00000000000E+00  0.00000000000E+00 -0.23402644203E+04  0.23402644203E+04  0.25500000920E-02 0.  1.
    10030    2    1    2    0    0  0.00000000000E+00  0.00000000000E+00 -0.94868725857E+03  0.37318415821E+04  0.36092428678E+04 0.  0.
        5    1    3    3  502    0 -0.17902943348E+04  0.39578117017E+02 -0.24333519417E+03  0.18071951581E+04  0.46999998093E+01 0. -1.
       -5    1    3    3    0  502  0.17902943348E+04 -0.39578117017E+02 -0.70535206440E+03  0.19246464240E+04  0.46999998093E+01 0.  1.
</event>
<event>
 5   0  0.4857514E-07  0.3737224E+04  0.7818609E-02  0.8059762E-01
       -2   -1    0    0    0  501  0.00000000000E+00  0.00000000000E+00  0.12884585200E+04  0.12884585200E+04  0.25500000920E-02 0.  1.
        2   -1    0    0  501    0  0.00000000000E+00  0.00000000000E+00 -0.27099913994E+04  0.27099913994E+04  0.25500000920E-02 0. -1.
    10030    2    1    2    0    0  0.00000000000E+00  0.00000000000E+00 -0.14215328793E+04  0.39984499194E+04  0.37372243752E+04 0.  0.
        5    1    3    3  502    0 -0.19953284325E+03 -0.48149307042E+03 -0.26306423269E+04  0.26817811385E+04  0.46999998093E+01 0. -1.
       -5    1    3    3    0  502  0.19953284325E+03  0.48149307042E+03  0.12091094476E+04  0.13166687809E+04  0.46999998093E+01 0.  1.
</event>
<event>
 5   0  0.4857514E-07  0.3710021E+04  0.7818609E-02  0.8065745E-01
       -2   -1    0    0    0  501  0.00000000000E+00  0.00000000000E+00  0.11045685802E+04  0.11045685802E+04  0.25500000920E-02 0. -1.
        2   -1    0    0  501    0  0.00000000000E+00  0.00000000000E+00 -0.31153006383E+04  0.31153006383E+04  0.25500000920E-02 0.  1.
    10030    2    1    2    0    0  0.00000000000E+00  0.00000000000E+00 -0.20107320581E+04  0.42198692185E+04  0.37100205945E+04 0.  0.
        5    1    3    3  502    0  0.16608547599E+03 -0.16917558791E+04 -0.16074197594E+03  0.17074783783E+04  0.46999998093E+01 0. -1.
       -5    1    3    3    0  502 -0.16608547599E+03  0.16917558791E+04 -0.18499900822E+04  0.25123908402E+04  0.46999998093E+01 0.  1.
</event>
<event>
 5   0  0.4758908E-07  0.3679028E+04  0.7818609E-02  0.8072625E-01
        2   -1    0    0  501    0  0.00000000000E+00  0.00000000000E+00  0.24600194238E+04  0.24600194238E+04  0.25500000920E-02 0.  1.
       -2   -1    0    0    0  501  0.00000000000E+00  0.00000000000E+00 -0.13755224400E+04  0.13755224400E+04  0.25500000920E-02 0. -1.
    10030    2    1    2    0    0  0.00000000000E+00  0.00000000000E+00  0.10844969838E+04  0.38355418639E+04  0.36790280892E+04 0.  0.
        2    1    3    3  502    0 -0.10665433272E+04  0.43858008014E+03  0.20363771774E+04  0.23402348524E+04  0.25500000920E-02 0.  1.
       -2    1    3    3    0  502  0.10665433272E+04 -0.43858008014E+03 -0.95188019362E+03  0.14953070115E+04  0.25500000920E-02 0. -1.
</event>
<event>
 5   0  0.1522273E-07  0.3478196E+04  0.7818609E-02  0.8118977E-01
       -1   -1    0    0    0  501  0.00000000000E+00  0.00000000000E+00  0.92740650693E+03  0.92740650694E+03  0.50400001928E-02 0.  1.
        1   -1    0    0  501    0  0.00000000000E+00  0.00000000000E+00 -0.32612037109E+04  0.32612037110E+04  0.50400001928E-02 0. -1.
    10030    2    1    2    0    0  0.00000000000E+00  0.00000000000E+00 -0.23337972040E+04  0.41886102179E+04  0.34781958208E+04 0.  0.
        4    1    3    3  502    0  0.76132065639E+03  0.15073510148E+03 -0.30410929242E+04  0.31385630469E+04  0.12699999809E+01 0. -1.
       -4    1    3    3    0  502 -0.76132065639E+03 -0.15073510148E+03  0.70729572019E+03  0.10500471710E+04  0.12699999809E+01 0.  1.
</event>
<event>
 5   0  0.4824268E-07  0.3709479E+04  0.7818609E-02  0.8065864E-01
        2   -1    0    0  501    0  0.00000000000E+00  0.00000000000E+00  0.21623599787E+04  0.21623599787E+04  0.25500000920E-02 0.  1.
       -2   -1    0    0    0  501  0.00000000000E+00  0.00000000000E+00 -0.15908815964E+04  0.15908815964E+04  0.25500000920E-02 0. -1.
    10030    2    1    2    0    0  0.00000000000E+00  0.00000000000E+00  0.57147838227E+03  0.37532415752E+04  0.37094790443E+04 0.  0.
        1    1    3    3  502    0 -0.52118025992E+03  0.17459729458E+04 -0.64769867141E+02  0.18232513613E+04  0.50400001928E-02 0. -1.
       -1    1    3    3    0  502  0.52118025992E+03 -0.17459729458E+04  0.63624824942E+03  0.19299902139E+04  0.50400001928E-02 0.  1.
</event>
<event>
 5   0  0.4857514E-07  0.3675761E+04  0.7818609E-02  0.8073355E-01
       -2   -1    0    0    0  501  0.00000000000E+00  0.00000000000E+00  0.17019132748E+04  0.17019132748E+04  0.25500000920E-02 0. -1.
        2   -1    0    0  501    0  0.00000000000E+00  0.00000000000E+00 -0.19847102618E+04  0.19847102618E+04  0.25500000920E-02 0.  1.
    10030    2    1    2    0    0  0.00000000000E+00  0.00000000000E+00 -0.28279698698E+03  0.36866235366E+04  0.36757610049E+04 0.  0.
        5    1    3    3  502    0  0.14188290536E+04 -0.65717922967E+03  0.82728292358E+03  0.17690052427E+04  0.46999998093E+01 0. -1.
       -5    1    3    3    0  502 -0.14188290536E+04  0.65717922967E+03 -0.11100799106E+04  0.19176182939E+04  0.46999998093E+01 0.  1.
</event>
<event>
 5   0  0.4687817E-07  0.3527305E+04  0.7818609E-02  0.8107349E-01
       -2   -1    0    0    0  501  0.00000000000E+00  0.00000000000E+00  0.15323282385E+04  0.15323282385E+04  0.25500000920E-02 0. -1.
        2   -1    0    0  501    0  0.00000000000E+00  0.00000000000E+00 -0.20298985918E+04  0.20298985918E+04  0.25500000920E-02 0.  1.
    10030    2    1    2    0    0  0.00000000000E+00  0.00000000000E+00 -0.49757035328E+03  0.35622268304E+04  0.35273054496E+04 0.  0.
        4    1    3    3  502    0 -0.85589588537E+03 -0.14778412033E+04  0.19591158791E+03  0.17189983572E+04  0.12699999809E+01 0. -1.
       -4    1    3    3    0  502  0.85589588537E+03  0.14778412033E+04 -0.69348194119E+03  0.18432284732E+04  0.12699999809E+01 0.  1.
</event>
<event>
 5   0  0.4793557E-07  0.3709883E+04  0.7818609E-02  0.8065775E-01
        2   -1    0    0  501    0  0.00000000000E+00  0.00000000000E+00  0.24535269983E+04  0.24535269983E+04  0.25500000920E-02 0.  1.
       -2   -1    0    0    0  501  0.00000000000E+00  0.00000000000E+00 -0.14023926656E+04  0.14023926656E+04  0.25500000920E-02 0. -1.
    10030    2    1    2    0    0  0.00000000000E+00  0.00000000000E+00  0.10511343327E+04  0.38559196640E+04  0.37098831612E+04 0.  0.
        3    1    3    3  502    0  0.10905836616E+04 -0.14977613523E+04  0.61937786321E+03  0.19535328866E+04  0.10100000352E+00 0.  1.
       -3    1    3    3    0  502 -0.10905836616E+04  0.14977613523E+04  0.43175646950E+03  0.19023867773E+04  0.10100000352E+00 0. -1.
</event>
<event>
 5   0  0.4857514E-07  0.4415001E+04  0.7818609E-02  0.7925689E-01
       -2   -1    0    0    0  501  0.00000000000E+00  0.00000000000E+00  0.22599308298E+04  0.22599308299E+04  0.25500000920E-02 0.  1.
        2   -1    0    0  501    0  0.00000000000E+00  0.00000000000E+00 -0.21562868733E+04  0.21562868733E+04  0.25500000920E-02 0. -1.
    10030    2    1    2    0    0  0.00000000000E+00  0.00000000000E+00  0.10364395652E+03  0.44162177032E+04  0.44150013287E+04 0.  0.
        5    1    3    3  502    0 -0.54975792772E+03  0.11766640958E+04 -0.17336809911E+04  0.21662049862E+04  0.46999998093E+01 0. -1.
       -5    1    3    3    0  502  0.54975792772E+03 -0.11766640958E+04  0.18373249476E+04  0.22500127170E+04  0.46999998093E+01 0.  1.
</event>
<event>
 5   0  0.1522273E-07  0.3716228E+04  0.7818609E-02  0.8064375E-01
        1   -1    0    0  501    0  0.00000000000E+00  0.00000000000E+00  0.19530905229E+04  0.19530905230E+04  0.50400001928E-02 0.  1.
       -1   -1    0    0    0  501  0.00000000000E+00  0.00000000000E+00 -0.17677562861E+04  0.17677562861E+04  0.50400001928E-02 0. -1.
    10030    2    1    2    0    0  0.00000000000E+00  0.00000000000E+00  0.18533423684E+03  0.37208468091E+04  0.37162282219E+04 0.  0.
        4    1    3    3  502    0  0.12093215082E+03  0.13929482097E+04  0.13179760891E+04  0.19214556681E+04  0.12699999809E+01 0.  1.
       -4    1    3    3    0  502 -0.12093215082E+03 -0.13929482097E+04 -0.11326418522E+04  0.17993911410E+04  0.12699999809E+01 0. -1.
</event>
<event>
 5   0  0.1496000E-07  0.3591535E+04  0.7818609E-02  0.8092433E-01
       -1   -1    0    0    0  501  0.00000000000E+00  0.00000000000E+00  0.26066007526E+04  0.26066007526E+04  0.50400001928E-02 0. -1.
        1   -1    0    0  501    0  0.00000000000E+00  0.00000000000E+00 -0.12371595870E+04  0.12371595870E+04  0.50400001928E-02 0.  1.
    10030    2    1    2    0    0  0.00000000000E+00  0.00000000000E+00  0.13694411656E+04  0.38437603396E+04  0.35915351094E+04 0.  0.
        3    1    3    3  502    0 -0.47180698476E+03  0.12272209887E+04  0.19937748336E+04  0.23882653293E+04  0.10100000352E+00 0. -1.
       -3    1    3    3    0  502  0.47180698476E+03 -0.12272209887E+04 -0.62433366796E+03  0.14554950103E+04  0.10100000352E+00 0.  1.
</event>
<event>
 5   0  0.1496000E-07  0.3714286E+04  0.7818609E-02  0.8064803E-01
       -1   -1    0    0    0  501  0.00000000000E+00  0.00000000000E+00  0.12459625235E+04  0.12459625235E+04  0.50400001928E-02 0. -1.
        1   -1    0    0  501    0  0.00000000000E+00  0.00000000000E+00 -0.27681245347E+04  0.27681245347E+04  0.50400001928E-02 0.  1.
    10030    2    1    2    0    0  0.00000000000E+00  0.00000000000E+00 -0.15221620112E+04  0.40140870582E+04  0.37142856274E+04 0.  0.
        5    1    3    3  502    0 -0.15643405343E+04  0.33660344896E+03 -0.17797633431E+04  0.23933329974E+04  0.46999998093E+01 0.  1.
       -5    1    3    3    0  502  0.15643405343E+04 -0.33660344896E+03  0.25760133188E+03  0.16207540607E+04  0.46999998093E+01 0. -1.
</event>
<event>
 5   0  0.4824268E-07  0.3821281E+04  0.7818609E-02  0.8041603E-01
        2   -1    0    0  501    0  0.00000000000E+00  0.00000000000E+00  0.21349170170E+04  0.21349170170E+04  0.25500000920E-02 0. -1.
       -2   -1    0    0    0  501  0.00000000000E+00  0.00000000000E+00 -0.17099242310E+04  0.17099242310E+04  0.25500000920E-02 0.  1.
    10030    2    1    2    0    0  0.00000000000E+00  0.00000000000E+00  0.42499278608E+03  0.38448412480E+04  0.38212805909E+04 0.  0.
        1    1    3    3  502    0 -0.44245128954E+03  0.10351460134E+04  0.17657945430E+04  0.20941157515E+04  0.50400001928E-02 0. -1.
       -1    1    3    3    0  502  0.44245128954E+03 -0.10351460134E+04 -0.13408017569E+04  0.17507254965E+04  0.50400001928E-02 0.  1.
</event>
<event>
 5   0  0.4857514E-07  0.3696789E+04  0.7818609E-02  0.8068674E-01
        2   -1    0    0  501    0  0.00000000000E+00  0.00000000000E+00  0.24496422649E+04  0.24496422649E+04  0.25500000920E-02 0.  1.
       -2   -1    0    0    0  501  0.00000000000E+00  0.00000000000E+00 -0.13947191496E+04  0.13947191496E+04  0.25500000920E-02 0. -1.
    10030    2    1    2    0    0  0.00000000000E+00  0.00000000000E+00  0.10549231153E+04  0.38443614145E+04  0.36967894052E+04 0.  0.
        5    1    3    3  502    0 -0.10872000043E+04  0.49005959508E+03 -0.94113770165E+03  0.15191854790E+04  0.46999998093E+01 0. -1.
       -5    1    3    3    0  502  0.10872000043E+04 -0.49005959508E+03  0.19960608169E+04  0.23251759355E+04  0.46999998093E+01 0.  1.
</event>
<event>
 5   0  0.1496000E-07  0.3729877E+04  0.7818609E-02  0.8061373E-01
        1   -1    0    0  501    0  0.00000000000E+00  0.00000000000E+00  0.23267371562E+04  0.23267371562E+04  0.50400001928E-02 0.  1.
       -1   -1    0    0    0  501  0.00000000000E+00  0.00000000000E+00 -0.14947954815E+04  0.14947954815E+04  0.50400001928E-02 0. -1.
    10030    2    1    2    0    0  0.00000000000E+00  0.00000000000E+00  0.83194167475E+03  0.38215326377E+04  0.37298773104E+04 0.  0.
        5    1    3    3  502    0  0.82028927870E+03 -0.52262800049E+03  0.20462854075E+04  0.22656832494E+04  0.46999998093E+01 0.  1.
       -5    1    3    3    0  502 -0.82028927870E+03  0.52262800049E+03 -0.12143437328E+04  0.15558493883E+04  0.46999998093E+01 0. -1.
</event>
<event>
 5   0  0.1496287E-07  0.3205478E+04  0.7818609E-02  0.8187372E-01
        1   -1    0    0  501    0  0.00000000000E+00  0.00000000000E+00  0.24112813829E+04  0.24112813829E+04  0.50400001928E-02 0.  1.
       -1   -1    0    0    0  501  0.00000000000E+00  0.00000000000E+00 -0.10653139176E+04  0.10653139176E+04  0.50400001928E-02 0. -1.
    10030    2    1    2    0    0  0.00000000000E+00  0.00000000000E+00  0.13459674653E+04  0.34765953006E+04  0.32054775723E+04 0.  0.
        1    1    3    3  502    0  0.29829621886E+03 -0.39310326640E+03 -0.98087050992E+03  0.10980062702E+04  0.50400001928E-02 0. -1.
       -1    1    3    3    0  502 -0.29829621886E+03  0.39310326640E+03  0.23268379752E+04  0.23785890303E+04  0.50400001928E-02 0.  1.
</event>
<event>
 5   0  0.4687817E-07  0.3652180E+04  0.7818609E-02  0.8078643E-01
       -2   -1    0    0    0  501  0.00000000000E+00  0.00000000000E+00  0.18122019651E+04  0.18122019652E+04  0.25500000920E-02 0.  1.
        2   -1    0    0  501    0  0.00000000000E+00  0.00000000000E+00 -0.18400846417E+04  0.18400846417E+04  0.25500000920E-02 0. -1.
    10030    2    1    2    0    0  0.00000000000E+00  0.00000000000E+00 -0.27882676552E+02  0.36522866069E+04  0.36521801729E+04 0.  0.
        4    1    3    3  502    0 -0.19873874999E+03  0.17536194252E+04  0.45503417292E+03  0.18225630005E+04  0.12699999809E+01 0.  1.
       -4    1    3    3    0  502  0.19873874999E+03 -0.17536194252E+04 -0.48291684947E+03  0.18297236064E+04  0.12699999809E+01 0. -1.
</event>
<event>
 5   0  0.1496287E-07  0.3692965E+04  0.7818609E-02  0.8069523E-01
        1   -1    0    0  501    0  0.00000000000E+00  0.00000000000E+00  0.20982779606E+04  0.20982779606E+04  0.50400001928E-02 0.  1.
       -1   -1    0    0    0  501  0.00000000000E+00  0.00000000000E+00 -0.16249029587E+04  0.16249029587E+04  0.50400001928E-02 0. -1.
    10030    2    1    2    0    0  0.00000000000E+00  0.00000000000E+00  0.47337500195E+03  0.37231809193E+04  0.36929652402E+04 0.  0.
        1    1    3    3  502    0 -0.46699431842E+03 -0.80677865244E+03 -0.13702554166E+04  0.16572795160E+04  0.50400001928E-02 0. -1.
       -1    1    3    3    0  502  0.46699431842E+03  0.80677865244E+03  0.18436304186E+04  0.20659014032E+04  0.50400001928E-02 0.  1.
</event>
<event>
 5   0  0.4687817E-07  0.3660634E+04  0.7818609E-02  0.8076742E-01
        2   -1    0    0  501    0  0.00000000000E+00  0.00000000000E+00  0.14978588690E+04  0.14978588690E+04  0.25500000920E-02 0. -1.
       -2   -1    0    0    0  501  0.00000000000E+00  0.00000000000E+00 -0.22365660364E+04  0.22365660364E+04  0.25500000920E-02 0.  1.
    10030    2    1    2    0    0  0.00000000000E+00  0.00000000000E+00 -0.73870716734E+03  0.37344249054E+04  0.36606339744E+04 0.  0.
        4    1    3    3  502    0  0.46177689947E+03 -0.36772987122E+03 -0.21367888130E+04  0.22168290884E+04  0.12699999809E+01 0.  1.
       -4    1    3    3    0  502 -0.46177689947E+03  0.36772987122E+03  0.13980816456E+04  0.15175958170E+04  0.12699999809E+01 0. -1.
</event>
<event>
 5   0  0.4824268E-07  0.3710073E+04  0.7818609E-02  0.8065733E-01
       -2   -1    0    0    0  501  0.00000000000E+00  0.00000000000E+00  0.21582315711E+04  0.21582315711E+04  0.25500000920E-02 0. -1.
        2   -1    0    0  501    0  0.00000000000E+00  0.00000000000E+00 -0.15944350441E+04  0.15944350441E+04  0.25500000920E-02 0.  1.
    10030    2    1    2    0    0  0.00000000000E+00  0.00000000000E+00  0.56379652698E+03  0.37526666153E+04  0.37100728027E+04 0.  0.
        1    1    3    3  502    0 -0.16197846782E+04 -0.19801822943E+03  0.11742090022E+04  0.20103930969E+04  0.50400001928E-02 0. -1.
       -1    1    3    3    0  502  0.16197846782E+04  0.19801822943E+03 -0.61041247520E+03  0.17422735184E+04  0.50400001928E-02 0.  1.
</event>
<event>
 5   0  0.1496000E-07  0.3607273E+04  0.7818609E-02  0.8088828E-01
       -1   -1    0    0    0  501  0.00000000000E+00  0.00000000000E+00  0.14043114976E+04  0.14043114976E+04  0.50400001928E-02 0. -1.
        1   -1    0    0  501    0  0.00000000000E+00  0.00000000000E+00 -0.23165127184E+04  0.23165127184E+04  0.50400001928E-02 0.  1.
    10030    2    1    2    0    0  0.00000000000E+00  0.00000000000E+00 -0.91220122078E+03  0.37208242160E+04  0.36072734550E+04 0.  0.
        2    1    3    3  502    0 -0.66634894460E+03  0.15864735842E+03 -0.21771293196E+04  0.22823413362E+04  0.25500000920E-02 0.  1.
       -2    1    3    3    0  502  0.66634894460E+03 -0.15864735842E+03  0.12649280989E+04  0.14384828798E+04  0.25500000920E-02 0. -1.
</event>
<event>
 5   0  0.1496287E-07  0.3719542E+04  0.7818609E-02  0.8063645E-01
        1   -1    0    0  501    0  0.00000000000E+00  0.00000000000E+00  0.17887029518E+04  0.17887029518E+04  0.50400001928E-02 0. -1.
       -1   -1    0    0    0  501  0.00000000000E+00  0.00000000000E+00 -0.19336623093E+04  0.19336623093E+04  0.50400001928E-02 0.  1.
    10030    2    1    2    0    0  0.00000000000E+00  0.00000000000E+00 -0.14495935751E+03  0.37223652611E+04  0.37195416279E+04 0.  0.
        1    1    3    3  502    0  0.15750422172E+04 -0.34129974306E+03  0.85639731595E+03  0.18250095516E+04  0.50400001928E-02 0. -1.
       -1    1    3    3    0  502 -0.15750422172E+04  0.34129974306E+03 -0.10013566735E+04  0.18973557095E+04  0.50400001928E-02 0.  1.
</event>
<event>
 5   0  0.4687817E-07  0.3704836E+04  0.7818609E-02  0.8066891E-01
        2   -1    0    0  501    0  0.00000000000E+00  0.00000000000E+00  0.22311738179E+04  0.22311738179E+04  0.25500000920E-02 0.  1.
       -2   -1    0    0    0  501  0.00000000000E+00  0.00000000000E+00 -0.15379580508E+04  0.15379580508E+04  0.25500000920E-02 0. -1.
    10030    2    1    2    0    0  0.00000000000E+00  0.00000000000E+00  0.69321576715E+03  0.37691318687E+04  0.37048356163E+04 0.  0.
        4    1    3    3  502    0  0.11736231245E+04 -0.96835171282E+03 -0.72830514134E+03  0.16868687767E+04  0.12699999809E+01 0. -1.
       -4    1    3    3    0  502 -0.11736231245E+04  0.96835171282E+03  0.14215209085E+04  0.20822630920E+04  0.12699999809E+01 0.  1.
</event>
<event>
 5   0  0.1522273E-07  0.3592046E+04  0.7818609E-02  0.8092316E-01
       -1   -1    0    0    0  501  0.00000000000E+00  0.00000000000E+00  0.18839991057E+04  0.18839991057E+04  0.50400001928E-02 0. -1.
        1   -1    0    0  501    0  0.00000000000E+00  0.00000000000E+00 -0.17121551013E+04  0.17121551013E+04  0.50400001928E-02 0.  1.
    10030    2    1    2    0    0  0.00000000000E+00  0.00000000000E+00  0.17184400447E+03  0.35961542070E+04  0.35920460352E+04 0.  0.
        4    1    3    3  502    0 -0.64975816092E+03 -0.69578966002E+03 -0.14387735360E+04  0.17252187744E+04  0.12699999809E+01 0.  1.
       -4    1    3    3    0  502  0.64975816092E+03  0.69578966002E+03  0.16106175404E+04  0.18709354327E+04  0.12699999809E+01 0. -1.
</event>
<event>
 5   0  0.4687817E-07  0.3734764E+04  0.7818609E-02  0.8060301E-01
       -2   -1    0    0    0  501  0.00000000000E+00  0.00000000000E+00  0.11379213990E+04  0.11379213990E+04  0.25500000920E-02 0. -1.
        2   -1    0    0  501    0  0.00000000000E+00  0.00000000000E+00 -0.30644611447E+04  0.30644611447E+04  0.25500000920E-02 0.  1.
    10030    2    1    2    0    0  0.00000000000E+00  0.00000000000E+00 -0.19265397457E+04  0.42023825437E+04  0.37347642030E+04 0.  0.
        4    1    3    3  502    0  0.15877045487E+04  0.40744557030E+03  0.43332389275E+02  0.16397246524E+04  0.12699999809E+01 0. -1.
       -4    1    3    3    0  502 -0.15877045487E+04 -0.40744557030E+03 -0.19698721350E+04  0.25626578913E+04  0.12699999809E+01 0.  1.
</event>
<event>
 5   0  0.1496000E-07  0.3714470E+04  0.7818609E-02  0.8064763E-01
        1   -1    0    0  501    0  0.00000000000E+00  0.00000000000E+00  0.16984387921E+04  0.16984387921E+04  0.50400001928E-02 0.  1.
       -1   -1    0    0    0  501  0.00000000000E+00  0.00000000000E+00 -0.20308775921E+04  0.20308775921E+04  0.50400001928E-02 0. -1.
    10030    2    1    2    0    0  0.00000000000E+00  0.00000000000E+00 -0.33243880001E+03  0.37293163842E+04  0.37144696981E+04 0.  0.
        2    1    3    3  502    0  0.56841281863E+03 -0.17048854293E+04  0.30426201346E+03  0.18227185280E+04  0.25500000920E-02 0.  1.
       -2    1    3    3    0  502 -0.56841281863E+03  0.17048854293E+04 -0.63670081347E+03  0.19065978562E+04  0.25500000920E-02 0. -1.
</event>
<event>
 5   0  0.4824268E-07  0.3709280E+04  0.7818609E-02  0.8065908E-01
        2   -1    0    0  501    0  0.00000000000E+00  0.00000000000E+00  0.18727486439E+04  0.18727486439E+04  0.25500000920E-02 0.  1.
       -2   -1    0    0    0  501  0.00000000000E+00  0.00000000000E+00 -0.18367062959E+04  0.18367062959E+04  0.25500000920E-02 0. -1.
    10030    2    1    2    0    0  0.00000000000E+00  0.00000000000E+00  0.36042347930E+02  0.37094549398E+04  0.37092798357E+04 0.  0.
        1    1    3    3  502    0  0.14133783000E+04  0.43760329755E+02  0.12181345069E+04  0.18663881864E+04  0.50400001928E-02 0.  1.
       -1    1    3    3    0  502 -0.14133783000E+04 -0.43760329755E+02 -0.11820921590E+04  0.18430667534E+04  0.50400001928E-02 0. -1.
</event>
<event>
 5   0  0.1496000E-07  0.3674745E+04  0.7818609E-02  0.8073582E-01
       -1   -1    0    0    0  501  0.00000000000E+00  0.00000000000E+00  0.17227147080E+04  0.17227147080E+04  0.50400001928E-02 0.  1.
        1   -1    0    0  501    0  0.00000000000E+00  0.00000000000E+00 -0.19596619324E+04  0.19596619324E+04  0.50400001928E-02 0. -1.
    10030    2    1    2    0    0  0.00000000000E+00  0.00000000000E+00 -0.23694722438E+03  0.36823766404E+04  0.36747453973E+04 0.  0.
        3    1    3    3  502    0  0.14286787366E+04 -0.11318604404E+04  0.11375629911E+03  0.18262451902E+04  0.10100000352E+00 0. -1.
       -3    1    3    3    0  502 -0.14286787366E+04  0.11318604404E+04 -0.35070352349E+03  0.18561314502E+04  0.10100000352E+00 0.  1.
</event>
<event>
 5   0  0.1496287E-07  0.3627465E+04  0.7818609E-02  0.8084229E-01
       -1   -1    0    0    0  501  0.00000000000E+00  0.00000000000E+00  0.15645409108E+04  0.15645409108E+04  0.50400001928E-02 0. -1.
        1   -1    0    0  501    0  0.00000000000E+00  0.00000000000E+00 -0.21026135776E+04  0.21026135777E+04  0.50400001928E-02 0.  1.
    10030    2    1    2    0    0  0.00000000000E+00  0.00000000000E+00 -0.53807266688E+03  0.36671544884E+04  0.36274646583E+04 0.  0.
        1    1    3    3  502    0  0.65280801486E+03  0.11728107579E+04 -0.15022115679E+04  0.20145180497E+04  0.50400001928E-02 0.  1.
       -1    1    3    3    0  502 -0.65280801486E+03 -0.11728107579E+04  0.96413890097E+03  0.16526364387E+04  0.50400001928E-02 0. -1.
</event>
<event>
 5   0  0.1496000E-07  0.3720869E+04  0.7818609E-02  0.8063353E-01
       -1   -1    0    0    0  501  0.00000000000E+00  0.00000000000E+00  0.17124575510E+04  0.17124575510E+04  0.50400001928E-02 0. -1.
        1   -1    0    0  501    0  0.00000000000E+00  0.00000000000E+00 -0.20211987550E+04  0.20211987550E+04  0.50400001928E-02 0.  1.
    10030    2    1    2    0    0  0.00000000000E+00  0.00000000000E+00 -0.30874120394E+03  0.37336563060E+04  0.37208692910E+04 0.  0.
        3    1    3    3  502    0  0.25836294152E+03  0.26494345488E+02  0.16941773607E+04  0.17139691653E+04  0.10100000352E+00 0. -1.
       -3    1    3    3    0  502 -0.25836294152E+03 -0.26494345488E+02 -0.20029185646E+04  0.20196871408E+04  0.10100000352E+00 0.  1.
</event>
<event>
 5   0  0.4793557E-07  0.3710821E+04  0.7818609E-02  0.8065568E-01
       -2   -1    0    0    0  501  0.00000000000E+00  0.00000000000E+00  0.15211006480E+04  0.15211006480E+04  0.25500000920E-02 0.  1.
        2   -1    0    0  501    0  0.00000000000E+00  0.00000000000E+00 -0.22631956453E+04  0.22631956453E+04  0.25500000920E-02 0. -1.
    10030    2    1    2    0    0  0.00000000000E+00  0.00000000000E+00 -0.74209499729E+03  0.37842962933E+04  0.37108211289E+04 0.  0.
        3    1    3    3  502    0 -0.68441004503E+03 -0.26246567350E+03  0.13671789120E+04  0.15512844765E+04  0.10100000352E+00 0.  1.
       -3    1    3    3    0  502  0.68441004503E+03  0.26246567350E+03 -0.21092739093E+04  0.22330118168E+04  0.10100000352E+00 0. -1.
</event>
<event>
 5   0  0.4758908E-07  0.3836141E+04  0.7818609E-02  0.8038443E-01
       -2   -1    0    0    0  501  0.00000000000E+00  0.00000000000E+00  0.29209990609E+04  0.29209990609E+04  0.25500000920E-02 0. -1.
        2   -1    0    0  501    0  0.00000000000E+00  0.00000000000E+00 -0.12594986646E+04  0.12594986646E+04  0.25500000920E-02 0.  1.
    10030    2    1    2    0    0  0.00000000000E+00  0.00000000000E+00  0.16615003963E+04  0.41804977255E+04  0.38361409862E+04 0.  0.
        2    1    3    3  502    0 -0.23313386538E+03  0.27356786641E+01 -0.12439989899E+04  0.12656588679E+04  0.25500000920E-02 0.  1.
       -2    1    3    3    0  502  0.23313386538E+03 -0.27356786641E+01  0.29054993861E+04  0.29148388576E+04  0.25500000920E-02 0. -1.
</event>
<event>
 5   0  0.1522273E-07  0.3725141E+04  0.7818609E-02  0.8062413E-01
       -1   -1    0    0    0  501  0.00000000000E+00  0.00000000000E+00  0.17449072875E+04  0.17449072875E+04  0.50400001928E-02 0.  1.
        1   -1    0    0  501    0  0.00000000000E+00  0.00000000000E+00 -0.19881675397E+04  0.19881675397E+04  0.50400001928E-02 0. -1.
    10030    2    1    2    0    0  0.00000000000E+00  0.00000000000E+00 -0.24326025223E+03  0.37330748272E+04  0.37251405497E+04 0.  0.
        4    1    3    3  502    0 -0.52847746260E+03 -0.13964563050E+04  0.99419903424E+03  0.17938260709E+04  0.12699999809E+01 0.  1.
       -4    1    3    3    0  502  0.52847746260E+03  0.13964563050E+04 -0.12374592865E+04  0.19392487563E+04  0.12699999809E+01 0. -1.
</event>
<event>
 5   0  0.4824268E-07  0.3729932E+04  0.7818609E-02  0.8061361E-01
        2   -1    0    0  501    0  0.00000000000E+00  0.00000000000E+00  0.23330025024E+04  0.23330025024E+04  0.25500000920E-02 0.  1.
       -2   -1    0    0    0  501  0.00000000000E+00  0.00000000000E+00 -0.14908251426E+04  0.14908251426E+04  0.25500000920E-02 0. -1.
    10030    2    1    2    0    0  0.00000000000E+00  0.00000000000E+00  0.84217735974E+03  0.38238276450E+04  0.37299323256E+04 0.  0.
        1    1    3    3  502    0 -0.67916577032E+03 -0.16188724173E+04  0.10662843030E+04  0.20540146693E+04  0.50400001928E-02 0. -1.
       -1    1    3    3    0  502  0.67916577032E+03  0.16188724173E+04 -0.22410694321E+03  0.17698129757E+04  0.50400001928E-02 0.  1.
</event>
<event>
 5   0  0.4857514E-07  0.3669587E+04  0.7818609E-02  0.8074735E-01
        2   -1    0    0  501    0  0.00000000000E+00  0.00000000000E+00  0.18840265289E+04  0.18840265289E+04  0.25500000920E-02 0. -1.
       -2   -1    0    0    0  501  0.00000000000E+00  0.00000000000E+00 -0.17868474693E+04  0.17868474693E+04  0.25500000920E-02 0.  1.
    10030    2    1    2    0    0  0.00000000000E+00  0.00000000000E+00  0.97179059628E+02  0.36708739983E+04  0.36695874620E+04 0.  0.
        5    1    3    3  502    0  0.52867750918E+03  0.24444027169E+03  0.17890831370E+04  0.18815130922E+04  0.46999998093E+01 0. -1.
       -5    1    3    3    0  502 -0.52867750918E+03 -0.24444027169E+03 -0.16919040774E+04  0.17893609061E+04  0.46999998093E+01 0.  1.
</event>
<event>
 5   0  0.1522273E-07  0.3722462E+04  0.7818609E-02  0.8063002E-01
        1   -1    0    0  501    0  0.00000000000E+00  0.00000000000E+00  0.20088174494E+04  0.20088174495E+04  0.50400001928E-02 0.  1.
       -1   -1    0    0    0  501  0.00000000000E+00  0.00000000000E+00 -0.17244872195E+04  0.17244872195E+04  0.50400001928E-02 0. -1.
    10030    2    1    2    0    0  0.00000000000E+00  0.00000000000E+00  0.28433022997E+03  0.37333046689E+04  0.37224615608E+04 0.  0.
        4    1    3    3  502    0  0.12988137961E+04  0.12813236627E+04 -0.22697059288E+03  0.18385387863E+04  0.12699999809E+01 0.  1.
       -4    1    3    3    0  502 -0.12988137961E+04 -0.12813236627E+04  0.51130082285E+03  0.18947658827E+04  0.12699999809E+01 0. -1.
</event>
<event>
 5   0  0.4824268E-07  0.3734497E+04  0.7818609E-02  0.8060360E-01
       -2   -1    0    0    0  501  0.00000000000E+00  0.00000000000E+00  0.16054107948E+04  0.16054107948E+04  0.25500000920E-02 0.  1.
        2   -1    0    0  501    0  0.00000000000E+00  0.00000000000E+00 -0.21717909058E+04  0.21717909058E+04  0.25500000920E-02 0. -1.
    10030    2    1    2    0    0  0.00000000000E+00  0.00000000000E+00 -0.56638011103E+03  0.37772017006E+04  0.37344967876E+04 0.  0.
        1    1    3    3  502    0  0.10294285385E+03 -0.14579085279E+04 -0.14585988266E+04  0.20648498841E+04  0.50400001928E-02 0. -1.
       -1    1    3    3    0  502 -0.10294285385E+03  0.14579085279E+04  0.89221871554E+03  0.17123518165E+04  0.50400001928E-02 0.  1.
</event>
<event>
 5   0  0.1496287E-07  0.3678278E+04  0.7818609E-02  0.8072793E-01
       -1   -1    0    0    0  501  0.00000000000E+00  0.00000000000E+00  0.13295021002E+04  0.13295021002E+04  0.50400001928E-02 0. -1.
        1   -1    0    0  501    0  0.00000000000E+00  0.00000000000E+00 -0.25441341473E+04  0.25441341474E+04  0.50400001928E-02 0.  1.
    10030    2    1    2    0    0  0.00000000000E+00  0.00000000000E+00 -0.12146320472E+04  0.38736362475E+04  0.36782776905E+04 0.  0.
        1    1    3    3  502    0  0.45335400399E+03 -0.14219807400E+02  0.12696758813E+04  0.13482614359E+04  0.50400001928E-02 0. -1.
       -1    1    3    3    0  502 -0.45335400399E+03  0.14219807400E+02 -0.24843079285E+04  0.25253748117E+04  0.50400001928E-02 0.  1.
</event>
<event>
 5   0  0.4824268E-07  0.3698686E+04  0.7818609E-02  0.8068253E-01
       -2   -1    0    0    0  501  0.00000000000E+00  0.00000000000E+00  0.14958671046E+04  0.14958671046E+04  0.25500000920E-02 0.  1.
        2   -1    0    0  501    0  0.00000000000E+00  0.00000000000E+00 -0.22863463578E+04  0.22863463578E+04  0.25500000920E-02 0. -1.
    10030    2    1    2    0    0  0.00000000000E+00  0.00000000000E+00 -0.79047925321E+03  0.37822134624E+04  0.36986864189E+04 0.  0.
        1    1    3    3  502    0 -0.79952397112E+03  0.13881964742E+04  0.54960830565E+03  0.16936343528E+04  0.50400001928E-02 0.  1.
       -1    1    3    3    0  502  0.79952397112E+03 -0.13881964742E+04 -0.13400875589E+04  0.20885791096E+04  0.50400001928E-02 0. -1.
</event>
<event>
 5   0  0.1522273E-07  0.3052026E+04  0.7818609E-02  0.8229029E-01
        1   -1    0    0  501    0  0.00000000000E+00  0.00000000000E+00  0.12132301733E+04  0.12132301733E+04  0.50400001928E-02 0.  1.
       -1   -1    0    0    0  501  0.00000000000E+00  0.00000000000E+00 -0.19194347036E+04  0.19194347036E+04  0.50400001928E-02 0. -1.
    10030    2    1    2    0    0  0.00000000000E+00  0.00000000000E+00 -0.70620453027E+03  0.31326648769E+04  0.30520262765E+04 0.  0.
        4    1    3    3  502    0 -0.14555800863E+01 -0.98410742550E+03 -0.15502127353E+04  0.18362000657E+04  0.12699999809E+01 0. -1.
       -4    1    3    3    0  502  0.14555800863E+01  0.98410742550E+03  0.84400820504E+03  0.12964648112E+04  0.12699999809E+01 0.  1.
</event>
<event>
 5   0  0.4758908E-07  0.3703672E+04  0.7818609E-02  0.8067149E-01
       -2   -1    0    0    0  501  0.00000000000E+00  0.00000000000E+00  0.15299832443E+04  0.15299832443E+04  0.25500000920E-02 0.  1.
        2   -1    0    0  501    0  0.00000000000E+00  0.00000000000E+00 -0.22413948485E+04  0.22413948485E+04  0.25500000920E-02 0. -1.
    10030    2    1    2    0    0  0.00000000000E+00  0.00000000000E+00 -0.71141160423E+03  0.37713780929E+04  0.37036719953E+04 0.  0.
        2    1    3    3  502    0  0.62480432185E+03 -0.13308103437E+04  0.79087112493E+03  0.16694052078E+04  0.25500000920E-02 0.  1.
       -2    1    3    3    0  502 -0.62480432185E+03  0.13308103437E+04 -0.15022827292E+04  0.21019728851E+04  0.25500000920E-02 0. -1.
</event>
<event>
 5   0  0.4758908E-07  0.3585674E+04  0.7818609E-02  0.8093781E-01
       -2   -1    0    0    0  501  0.00000000000E+00  0.00000000000E+00  0.22752780395E+04  0.22752780395E+04  0.25500000920E-02 0.  1.
        2   -1    0    0  501    0  0.00000000000E+00  0.00000000000E+00 -0.14126908368E+04  0.14126908368E+04  0.25500000920E-02 0. -1.
    10030    2    1    2    0    0  0.00000000000E+00  0.00000000000E+00  0.86258720275E+03  0.36879688763E+04  0.35856739604E+04 0.  0.
        2    1    3    3  502    0  0.10880616534E+03 -0.17473637536E+04  0.34082271948E+02  0.17510798012E+04  0.25500000920E-02 0. -1.
       -2    1    3    3    0  502 -0.10880616534E+03  0.17473637536E+04  0.82850493080E+03  0.19368890751E+04  0.25500000920E-02 0.  1.
</event>
<event>
 5   0  0.1522273E-07  0.3753839E+04  0.7818609E-02  0.8056134E-01
       -1   -1    0    0    0  501  0.00000000000E+00  0.00000000000E+00  0.21135479777E+04  0.21135479777E+04  0.50400001928E-02 0.  1.
        1   -1    0    0  501    0  0.00000000000E+00  0.00000000000E+00 -0.16667832834E+04  0.16667832834E+04  0.50400001928E-02 0. -1.
    10030    2    1    2    0    0  0.00000000000E+00  0.00000000000E+00  0.44676469427E+03  0.37803312611E+04  0.37538388020E+04 0.  0.
        4    1    3    3  502    0 -0.33907727294E+03 -0.17070068184E+03  0.20744823052E+04  0.21089311433E+04  0.12699999809E+01 0.  1.
       -4    1    3    3    0  502  0.33907727294E+03  0.17070068184E+03 -0.16277176109E+04  0.16714001177E+04  0.12699999809E+01 0. -1.
</event>
<event>
 5   0  0.1496000E-07  0.3730495E+04  0.7818609E-02  0.8061237E-01
        1   -1    0    0  501    0  0.00000000000E+00  0.00000000000E+00  0.21232732338E+04  0.21232732338E+04  0.50400001928E-02 0.  1.
       -1   -1    0    0    0  501  0.00000000000E+00  0.00000000000E+00 -0.16385781150E+04  0.16385781150E+04  0.50400001928E-02 0. -1.
    10030    2    1    2    0    0  0.00000000000E+00  0.00000000000E+00  0.48469511881E+03  0.37618513489E+04  0.37304954380E+04 0.  0.
        5    1    3    3  502    0  0.12747258289E+04  0.68702518398E+03 -0.94320320839E+03  0.17281735806E+04  0.46999998093E+01 0. -1.
       -5    1    3    3    0  502 -0.12747258289E+04 -0.68702518398E+03  0.14278983272E+04  0.20336777683E+04  0.46999998093E+01 0.  1.
</event>
<event>
 5   0  0.1496000E-07  0.3677543E+04  0.7818609E-02  0.8072957E-01
        1   -1    0    0  501    0  0.00000000000E+00  0.00000000000E+00  0.15865744887E+04  0.15865744887E+04  0.50400001928E-02 0.  1.
       -1   -1    0    0    0  501  0.00000000000E+00  0.00000000000E+00 -0.21310570270E+04  0.21310570270E+04  0.50400001928E-02 0. -1.
    10030    2    1    2    0    0  0.00000000000E+00  0.00000000000E+00 -0.54448253833E+03  0.37176315157E+04  0.36775430456E+04 0.  0.
        2    1    3    3  502    0  0.16862647478E+04  0.50688377991E+03  0.26330798005E+03  0.17803794703E+04  0.25500000920E-02 0.  1.
       -2    1    3    3    0  502 -0.16862647478E+04 -0.50688377991E+03 -0.80779051838E+03  0.19372520454E+04  0.25500000920E-02 0. -1.
</event>
<event>
 5   0  0.4793557E-07  0.3589122E+04  0.7818609E-02  0.8092988E-01
        2   -1    0    0  501    0  0.00000000000E+00  0.00000000000E+00  0.23107887702E+04  0.23107887702E+04  0.25500000920E-02 0. -1.
       -2   -1    0    0    0  501  0.00000000000E+00  0.00000000000E+00 -0.13936582457E+04  0.13936582457E+04  0.25500000920E-02 0.  1.
    10030    2    1    2    0    0  0.00000000000E+00  0.00000000000E+00  0.91713052456E+03  0.37044470159E+04  0.35891223572E+04 0.  0.
        3    1    3    3  502    0  0.11466273128E+04 -0.70158356588E+03  0.16856635810E+04  0.21560230548E+04  0.10100000352E+00 0. -1.
       -3    1    3    3    0  502 -0.11466273128E+04  0.70158356588E+03 -0.76853305639E+03  0.15484239611E+04  0.10100000352E+00 0.  1.
</event>
<event>
 5   0  0.1496000E-07  0.3675009E+04  0.7818609E-02  0.8073523E-01
       -1   -1    0    0    0  501  0.00000000000E+00  0.00000000000E+00  0.15391604511E+04  0.15391604511E+04  0.50400001928E-02 0. -1.
        1   -1    0    0  501    0  0.00000000000E+00  0.00000000000E+00 -0.21936777657E+04  0.21936777657E+04  0.50400001928E-02 0.  1.
    10030    2    1    2    0    0  0.00000000000E+00  0.00000000000E+00 -0.65451731461E+03  0.37328382168E+04  0.36750086038E+04 0.  0.
        2    1    3    3  502    0  0.33013056775E+03  0.17122281429E+04  0.26126424744E+03  0.17632272719E+04  0.25500000920E-02 0. -1.
       -2    1    3    3    0  502 -0.33013056775E+03 -0.17122281429E+04 -0.91578156205E+03  0.19696109450E+04  0.25500000920E-02 0.  1.
</event>
<event>
 5   0  0.1496287E-07  0.3116469E+04  0.7818609E-02  0.8211233E-01
        1   -1    0    0  501    0  0.00000000000E+00  0.00000000000E+00  0.19665864311E+04  0.19665864311E+04  0.50400001928E-02 0.  1.
       -1   -1    0    0    0  501  0.00000000000E+00  0.00000000000E+00 -0.12346747822E+04  0.12346747822E+04  0.50400001928E-02 0. -1.
    10030    2    1    2    0    0  0.00000000000E+00  0.00000000000E+00  0.73191164891E+03  0.32012612133E+04  0.31164689464E+04 0.  0.
        1    1    3    3  502    0 -0.52651382579E+03 -0.11968637051E+04 -0.50468695081E+03  0.14015735642E+04  0.50400001928E-02 0. -1.
       -1    1    3    3    0  502  0.52651382579E+03  0.11968637051E+04  0.12365985997E+04  0.17996876491E+04  0.50400001928E-02 0.  1.
</event>
<event>
 5   0  0.4824268E-07  0.3678176E+04  0.7818609E-02  0.8072816E-01
       -2   -1    0    0    0  501  0.00000000000E+00  0.00000000000E+00  0.14391538535E+04  0.14391538535E+04  0.25500000920E-02 0.  1.
        2   -1    0    0  501    0  0.00000000000E+00  0.00000000000E+00 -0.23501621661E+04  0.23501621661E+04  0.25500000920E-02 0. -1.
    10030    2    1    2    0    0  0.00000000000E+00  0.00000000000E+00 -0.91100831261E+03  0.37893160197E+04  0.36781761447E+04 0.  0.
        1    1    3    3  502    0  0.91303006722E+03  0.21338531814E+03 -0.20854243448E+04  0.22865152297E+04  0.50400001928E-02 0. -1.
       -1    1    3    3    0  502 -0.91303006722E+03 -0.21338531814E+03  0.11744160322E+04  0.15028007900E+04  0.50400001928E-02 0.  1.
</event>
<event>
 5   0  0.1496000E-07  0.3662429E+04  0.7818609E-02  0.8076339E-01
        3   -1    0    0  501    0  0.00000000000E+00  0.00000000000E+00  0.18452332544E+04  0.18452332572E+04  0.10100000352E+00 0.  1.
       -3   -1    0    0    0  501  0.00000000000E+00  0.00000000000E+00 -0.18173025399E+04  0.18173025427E+04  0.10100000352E+00 0. -1.
    10030    2    1    2    0    0  0.00000000000E+00  0.00000000000E+00  0.27930714544E+02  0.36625357999E+04  0.36624292977E+04 0.  0.
        3    1    3    3  502    0  0.60149099283E+03 -0.16253334301E+04  0.60546113369E+03  0.18357786817E+04  0.10100000352E+00 0. -1.
       -3    1    3    3    0  502 -0.60149099283E+03  0.16253334301E+04 -0.57753041915E+03  0.18267571182E+04  0.10100000352E+00 0.  1.
</event>
<event>
 5   0  0.1496000E-07  0.3738161E+04  0.7818609E-02  0.8059557E-01
       -1   -1    0    0    0  501  0.00000000000E+00  0.00000000000E+00  0.17852157530E+04  0.17852157530E+04  0.50400001928E-02 0.  1.
        1   -1    0    0  501    0  0.00000000000E+00  0.00000000000E+00 -0.19568849679E+04  0.19568849680E+04  0.50400001928E-02 0. -1.
    10030    2    1    2    0    0  0.00000000000E+00  0.00000000000E+00 -0.17166921496E+03  0.37421007209E+04  0.37381609765E+04 0.  0.
        5    1    3    3  502    0 -0.11008103850E+04 -0.76420765512E+03 -0.13901440810E+04  0.19308856776E+04  0.46999998093E+01 0. -1.
       -5    1    3    3    0  502  0.11008103850E+04  0.76420765512E+03  0.12184748661E+04  0.18112150433E+04  0.46999998093E+01 0.  1.
</event>
<event>
 5   0  0.4758908E-07  0.3680972E+04  0.7818609E-02  0.8072192E-01
        2   -1    0    0  501    0  0.00000000000E+00  0.00000000000E+00  0.10751860052E+04  0.10751860052E+04  0.25500000920E-02 0.  1.
       -2   -1    0    0    0  501  0.00000000000E+00  0.00000000000E+00 -0.31505145262E+04  0.31505145262E+04  0.25500000920E-02 0. -1.
    10030    2    1    2    0    0  0.00000000000E+00  0.00000000000E+00 -0.20753285210E+04  0.42257005314E+04  0.36809722236E+04 0.  0.
        2    1    3    3  502    0  0.13623690480E+03  0.16231691963E+04 -0.20212873023E+04  0.25959277904E+04  0.25500000920E-02 0. -1.
       -2    1    3    3    0  502 -0.13623690480E+03 -0.16231691963E+04 -0.54041218704E+02  0.16297727411E+04  0.25500000920E-02 0.  1.
</event>
<event>
 5   0  0.4758908E-07  0.3710928E+04  0.7818609E-02  0.8065544E-01
        2   -1    0    0  501    0  0.00000000000E+00  0.00000000000E+00  0.19124367922E+04  0.19124367922E+04  0.25500000920E-02 0.  1.
       -2   -1    0    0    0  501  0.00000000000E+00  0.00000000000E+00 -0.18001885126E+04  0.18001885126E+04  0.25500000920E-02 0. -1.
    10030    2    1    2    0    0  0.00000000000E+00  0.00000000000E+00  0.11224827957E+03  0.37126253048E+04  0.37109280481E+04 0.  0.
        2    1    3    3  502    0  0.10262214204E+04  0.83213706573E+03  0.13594725407E+04  0.18957183569E+04  0.25500000920E-02 0.  1.
       -2    1    3    3    0  502 -0.10262214204E+04 -0.83213706573E+03 -0.12472242611E+04  0.18169069479E+04  0.25500000920E-02 0. -1.
</event>
<event>
 5   0  0.1496000E-07  0.3127493E+04  0.7818609E-02  0.8208233E-01
       -1   -1    0    0    0  501  0.00000000000E+00  0.00000000000E+00  0.12929584717E+04  0.12929584717E+04  0.50400001928E-02 0. -1.
        1   -1    0    0  501    0  0.00000000000E+00  0.00000000000E+00 -0.18912461815E+04  0.18912461815E+04  0.50400001928E-02 0.  1.
    10030    2    1    2    0    0  0.00000000000E+00  0.00000000000E+00 -0.59828770984E+03  0.31842046532E+04  0.31274927801E+04 0.  0.
        3    1    3    3  502    0 -0.29117525283E+03  0.15442021444E+03 -0.18554811769E+04  0.18845262106E+04  0.10100000352E+00 0.  1.
       -3    1    3    3    0  502  0.29117525283E+03 -0.15442021444E+03  0.12571934670E+04  0.12996784426E+04  0.10100000352E+00 0. -1.
</event>
<event>
 5   0  0.4857514E-07  0.3705594E+04  0.7818609E-02  0.8066723E-01
        2   -1    0    0  501    0  0.00000000000E+00  0.00000000000E+00  0.13452682388E+04  0.13452682388E+04  0.25500000920E-02 0.  1.
       -2   -1    0    0    0  501  0.00000000000E+00  0.00000000000E+00 -0.25518011500E+04  0.25518011500E+04  0.25500000920E-02 0. -1.
    10030    2    1    2    0    0  0.00000000000E+00  0.00000000000E+00 -0.12065329113E+04  0.38970693888E+04  0.37055941704E+04 0.  0.
        5    1    3    3  502    0  0.66361111184E+03  0.11262014406E+04  0.77764149104E+03  0.15210055132E+04  0.46999998093E+01 0.  1.
       -5    1    3    3    0  502 -0.66361111184E+03 -0.11262014406E+04 -0.19841744023E+04  0.23760638757E+04  0.46999998093E+01 0. -1.
</event>
<event>
 5   0  0.1522273E-07  0.3721847E+04  0.7818609E-02  0.8063137E-01
        1   -1    0    0  501    0  0.00000000000E+00  0.00000000000E+00  0.15477673504E+04  0.15477673504E+04  0.50400001928E-02 0.  1.
       -1   -1    0    0    0  501  0.00000000000E+00  0.00000000000E+00 -0.22374402018E+04  0.22374402018E+04  0.50400001928E-02 0. -1.
    10030    2    1    2    0    0  0.00000000000E+00  0.00000000000E+00 -0.68967285139E+03  0.37852075522E+04  0.37218473331E+04 0.  0.
        4    1    3    3  502    0  0.45082203149E+03  0.17721509443E+04  0.64062880538E+01  0.18286066080E+04  0.12699999809E+01 0. -1.
       -4    1    3    3    0  502 -0.45082203149E+03 -0.17721509443E+04 -0.69607913944E+03  0.19566009442E+04  0.12699999809E+01 0.  1.
</event>
<event>
 5   0  0.4758908E-07  0.3699198E+04  0.7818609E-02  0.8068140E-01
       -2   -1    0    0    0  501  0.00000000000E+00  0.00000000000E+00  0.16068928031E+04  0.16068928031E+04  0.25500000920E-02 0. -1.
        2   -1    0    0  501    0  0.00000000000E+00  0.00000000000E+00 -0.21289638055E+04  0.21289638055E+04  0.25500000920E-02 0.  1.
    10030    2    1    2    0    0  0.00000000000E+00  0.00000000000E+00 -0.52207100243E+03  0.37358566086E+04  0.36991980845E+04 0.  0.
        2    1    3    3  502    0  0.61276720155E+03  0.26086195111E+03 -0.20036741048E+04  0.21114550715E+04  0.25500000920E-02 0.  1.
       -2    1    3    3    0  502 -0.61276720155E+03 -0.26086195111E+03  0.14816031024E+04  0.16244015371E+04  0.25500000920E-02 0. -1.
</event>
<event>
 5   0  0.1496000E-07  0.3669902E+04  0.7818609E-02  0.8074665E-01
        1   -1    0    0  501    0  0.00000000000E+00  0.00000000000E+00  0.18445863216E+04  0.18445863216E+04  0.50400001928E-02 0. -1.
       -1   -1    0    0    0  501  0.00000000000E+00  0.00000000000E+00 -0.18253657973E+04  0.18253657973E+04  0.50400001928E-02 0.  1.
    10030    2    1    2    0    0  0.00000000000E+00  0.00000000000E+00  0.19220524238E+02  0.36699521189E+04  0.36699017871E+04 0.  0.
        5    1    3    3  502    0 -0.15439655706E+04  0.91163030489E+03 -0.38042482382E+03  0.18329333410E+04  0.46999998093E+01 0. -1.
       -5    1    3    3    0  502  0.15439655706E+04 -0.91163030489E+03  0.39964534806E+03  0.18370187779E+04  0.46999998093E+01 0.  1.
</event>
<event>
 5   0  0.1496000E-07  0.3397955E+04  0.7818609E-02  0.8138408E-01
       -3   -1    0    0    0  501  0.00000000000E+00  0.00000000000E+00  0.14359698044E+04  0.14359698080E+04  0.10100000352E+00 0. -1.
        3   -1    0    0  501    0  0.00000000000E+00  0.00000000000E+00 -0.20101570943E+04  0.20101570968E+04  0.10100000352E+00 0.  1.
    10030    2    1    2    0    0  0.00000000000E+00  0.00000000000E+00 -0.57418728983E+03  0.34461269048E+04  0.33979552087E+04 0.  0.
        3    1    3    3  502    0 -0.31293578233E+03 -0.14502873058E+04 -0.11266352054E+04  0.18629463141E+04  0.10100000352E+00 0.  1.
       -3    1    3    3    0  502  0.31293578233E+03  0.14502873058E+04  0.55244791554E+03  0.15831805907E+04  0.10100000352E+00 0. -1.
</event>
<event>
 5   0  0.1496000E-07  0.3658469E+04  0.7818609E-02  0.8077228E-01
        1   -1    0    0  501    0  0.00000000000E+00  0.00000000000E+00  0.12179626077E+04  0.12179626077E+04  0.50400001928E-02 0. -1.
       -1   -1    0    0    0  501  0.00000000000E+00  0.00000000000E+00 -0.27472921063E+04  0.27472921063E+04  0.50400001928E-02 0.  1.
    10030    2    1    2    0    0  0.00000000000E+00  0.00000000000E+00 -0.15293294986E+04  0.39652547140E+04  0.36584691104E+04 0.  0.
        2    1    3    3  502    0  0.10946528454E+04 -0.56956945246E+03  0.69891243805E+03  0.14181511941E+04  0.25500000920E-02 0. -1.
       -2    1    3    3    0  502 -0.10946528454E+04  0.56956945246E+03 -0.22282419366E+04  0.25471035199E+04  0.25500000920E-02 0.  1.
</event>
<event>
 5   0  0.1496000E-07  0.3659625E+04  0.7818609E-02  0.8076969E-01
       -1   -1    0    0    0  501  0.00000000000E+00  0.00000000000E+00  0.29308329365E+04  0.29308329365E+04  0.50400001928E-02 0. -1.
        1   -1    0    0  501    0  0.00000000000E+00  0.00000000000E+00 -0.11424105366E+04  0.11424105366E+04  0.50400001928E-02 0.  1.
    10030    2    1    2    0    0  0.00000000000E+00  0.00000000000E+00  0.17884223999E+04  0.40732434731E+04  0.36596253512E+04 0.  0.
        5    1    3    3  502    0  0.13426750004E+04  0.27810056741E+03  0.22427953470E+04  0.26287390781E+04  0.46999998093E+01 0. -1.
       -5    1    3    3    0  502 -0.13426750004E+04 -0.27810056741E+03 -0.45437294708E+03  0.14445043950E+04  0.46999998093E+01 0.  1.
</event>
<event>
 5   0  0.4758908E-07  0.3718692E+04  0.7818609E-02  0.8063832E-01
       -2   -1    0    0    0  501  0.00000000000E+00  0.00000000000E+00  0.14373397636E+04  0.14373397636E+04  0.25500000920E-02 0. -1.
        2   -1    0    0  501    0  0.00000000000E+00  0.00000000000E+00 -0.24052546959E+04  0.24052546959E+04  0.25500000920E-02 0.  1.
    10030    2    1    2    0    0  0.00000000000E+00  0.00000000000E+00 -0.96791493236E+03  0.38425944595E+04  0.37186923594E+04 0.  0.
        2    1    3    3  502    0 -0.36643311540E+02 -0.18864361561E+02 -0.24047826463E+04  0.24051357909E+04  0.25500000920E-02 0.  1.
       -2    1    3    3    0  502  0.36643311540E+02  0.18864361561E+02  0.14368677140E+04  0.14374586686E+04  0.25500000920E-02 0. -1.
</event>
<event>
 5   0  0.4758908E-07  0.3753419E+04  0.7818609E-02  0.8056226E-01
        2   -1    0    0  501    0  0.00000000000E+00  0.00000000000E+00  0.26970543517E+04  0.26970543517E+04  0.25500000920E-02 0.  1.
       -2   -1    0    0    0  501  0.00000000000E+00  0.00000000000E+00 -0.13058832650E+04  0.13058832650E+04  0.25500000920E-02 0. -1.
    10030    2    1    2    0    0  0.00000000000E+00  0.00000000000E+00  0.13911710868E+04  0.40029376167E+04  0.37534187843E+04 0.  0.
        2    1    3    3  502    0 -0.17881945059E+04  0.17559819727E+03  0.12734195104E+04  0.22022878030E+04  0.25500000920E-02 0.  1.
       -2    1    3    3    0  502  0.17881945059E+04 -0.17559819727E+03  0.11775157640E+03  0.18006498137E+04  0.25500000920E-02 0. -1.
</event>
<event>
 5   0  0.1522273E-07  0.3704021E+04  0.7818609E-02  0.8067071E-01
        1   -1    0    0  501    0  0.00000000000E+00  0.00000000000E+00  0.18342202603E+04  0.18342202603E+04  0.50400001928E-02 0. -1.
       -1   -1    0    0    0  501  0.00000000000E+00  0.00000000000E+00 -0.18699729703E+04  0.18699729704E+04  0.50400001928E-02 0.  1.
    10030    2    1    2    0    0  0.00000000000E+00  0.00000000000E+00 -0.35752710070E+02  0.37041932306E+04  0.37040206848E+04 0.  0.
        4    1    3    3  502    0 -0.13260290014E+04  0.27080733916E+03  0.12464021252E+04  0.18398938551E+04  0.12699999809E+01 0. -1.
       -4    1    3    3    0  502  0.13260290014E+04 -0.27080733916E+03 -0.12821548352E+04  0.18642993756E+04  0.12699999809E+01 0.  1.
</event>
<event>
 5   0  0.4687817E-07  0.3693912E+04  0.7818609E-02  0.8069312E-01
        2   -1    0    0  501    0  0.00000000000E+00  0.00000000000E+00  0.30320566064E+04  0.30320566064E+04  0.25500000920E-02 0. -1.
       -2   -1    0    0    0  501  0.00000000000E+00  0.00000000000E+00 -0.11250602128E+04  0.11250602128E+04  0.25500000920E-02 0.  1.
    10030    2    1    2    0    0  0.00000000000E+00  0.00000000000E+00  0.19069963936E+04  0.41571168192E+04  0.36939118835E+04 0.  0.
        4    1    3    3  502    0  0.49997502227E+02  0.13176864423E+04  0.24088966930E+04  0.27461941303E+04  0.12699999809E+01 0. -1.
       -4    1    3    3    0  502 -0.49997502227E+02 -0.13176864423E+04 -0.50190029943E+03  0.14109226889E+04  0.12699999809E+01 0.  1.
</event>
<event>
 5   0  0.1496000E-07  0.3529820E+04  0.7818609E-02  0.8106759E-01
        3   -1    0    0  501    0  0.00000000000E+00  0.00000000000E+00  0.26058346849E+04  0.26058346868E+04  0.10100000352E+00 0. -1.
       -3   -1    0    0    0  501  0.00000000000E+00  0.00000000000E+00 -0.11953585383E+04  0.11953585426E+04  0.10100000352E+00 0.  1.
    10030    2    1    2    0    0  0.00000000000E+00  0.00000000000E+00  0.14104761466E+04  0.38011932294E+04  0.35298196848E+04 0.  0.
        3    1    3    3  502    0 -0.10522702881E+04 -0.12553559598E+04  0.14128028337E+04  0.21631465974E+04  0.10100000352E+00 0. -1.
       -3    1    3    3    0  502  0.10522702881E+04  0.12553559598E+04 -0.23266871351E+01  0.16380466320E+04  0.10100000352E+00 0.  1.
</event>
<event>
 5   0  0.1496000E-07  0.3701797E+04  0.7818609E-02  0.8067564E-01
       -1   -1    0    0    0  501  0.00000000000E+00  0.00000000000E+00  0.15083745009E+04  0.15083745009E+04  0.50400001928E-02 0. -1.
        1   -1    0    0  501    0  0.00000000000E+00  0.00000000000E+00 -0.22712031061E+04  0.22712031061E+04  0.50400001928E-02 0.  1.
    10030    2    1    2    0    0  0.00000000000E+00  0.00000000000E+00 -0.76282860520E+03  0.37795776070E+04  0.37017967808E+04 0.  0.
        5    1    3    3  502    0 -0.19034181735E+03  0.45356391290E+03  0.14404128302E+04  0.15220911412E+04  0.46999998093E+01 0. -1.
       -5    1    3    3    0  502  0.19034181735E+03 -0.45356391290E+03 -0.22032414354E+04  0.22574864658E+04  0.46999998093E+01 0.  1.
</event>
<event>
 5   0  0.4758908E-07  0.3712516E+04  0.7818609E-02  0.8065194E-01
        2   -1    0    0  501    0  0.00000000000E+00  0.00000000000E+00  0.21070496229E+04  0.21070496229E+04  0.25500000920E-02 0. -1.
       -2   -1    0    0    0  501  0.00000000000E+00  0.00000000000E+00 -0.16353168075E+04  0.16353168075E+04  0.25500000920E-02 0.  1.
    10030    2    1    2    0    0  0.00000000000E+00  0.00000000000E+00  0.47173281534E+03  0.37423664304E+04  0.37125159461E+04 0.  0.
        2    1    3    3  502    0 -0.56084444048E+03 -0.14624979071E+04 -0.76825884398E+03  0.17446112077E+04  0.25500000920E-02 0.  1.
       -2    1    3    3    0  502  0.56084444048E+03  0.14624979071E+04  0.12399916593E+04  0.19977552227E+04  0.25500000920E-02 0. -1.
</event>
<event>
 5   0  0.1496287E-07  0.3723875E+04  0.7818609E-02  0.8062691E-01
        1   -1    0    0  501    0  0.00000000000E+00  0.00000000000E+00  0.10036316480E+04  0.10036316480E+04  0.50400001928E-02 0.  1.
       -1   -1    0    0    0  501  0.00000000000E+00  0.00000000000E+00 -0.34542663326E+04  0.34542663326E+04  0.50400001928E-02 0. -1.
    10030    2    1    2    0    0  0.00000000000E+00  0.00000000000E+00 -0.24506346846E+04  0.44578979806E+04  0.37238748701E+04 0.  0.
        1    1    3    3  502    0 -0.16833287922E+04  0.35838938523E+03 -0.20758339073E+04  0.26965023984E+04  0.50400001928E-02 0.  1.
       -1    1    3    3    0  502  0.16833287922E+04 -0.35838938523E+03 -0.37480077731E+03  0.17613955822E+04  0.50400001928E-02 0. -1.
</event>
<event>
 5   0  0.4758908E-07  0.3670857E+04  0.7818609E-02  0.8074451E-01
        2   -1    0    0  501    0  0.00000000000E+00  0.00000000000E+00  0.13687823159E+04  0.13687823159E+04  0.25500000920E-02 0.  1.
       -2   -1    0    0    0  501  0.00000000000E+00  0.00000000000E+00 -0.24611643649E+04  0.24611643649E+04  0.25500000920E-02 0. -1.
    10030    2    1    2    0    0  0.00000000000E+00  0.00000000000E+00 -0.10923820490E+04  0.38299466808E+04  0.36708572619E+04 0.  0.
        2    1    3    3  502    0 -0.60468601344E+03  0.15086986603E+04  0.34339282777E+03  0.16612451524E+04  0.25500000920E-02 0.  1.
       -2    1    3    3    0  502  0.60468601344E+03 -0.15086986603E+04 -0.14357748768E+04  0.21687015284E+04  0.25500000920E-02 0. -1.
</event>
<event>
 5   0  0.4758908E-07  0.3701886E+04  0.7818609E-02  0.8067544E-01
       -2   -1    0    0    0  501  0.00000000000E+00  0.00000000000E+00  0.25388617948E+04  0.25388617948E+04  0.25500000920E-02 0. -1.
        2   -1    0    0  501    0  0.00000000000E+00  0.00000000000E+00 -0.13494194697E+04  0.13494194697E+04  0.25500000920E-02 0.  1.
    10030    2    1    2    0    0  0.00000000000E+00  0.00000000000E+00  0.11894423251E+04  0.38882812645E+04  0.37018857555E+04 0.  0.
        2    1    3    3  502    0  0.27073903861E+03 -0.71594642617E+02  0.25164809999E+04  0.25320154113E+04  0.25500000920E-02 0. -1.
       -2    1    3    3    0  502 -0.27073903861E+03  0.71594642617E+02 -0.13270386749E+04  0.13562658532E+04  0.25500000920E-02 0.  1.
</event>
<event>
 5   0  0.1496000E-07  0.3713555E+04  0.7818609E-02  0.8064965E-01
        1   -1    0    0  501    0  0.00000000000E+00  0.00000000000E+00  0.23888408801E+04  0.23888408801E+04  0.50400001928E-02 0.  1.
       -1   -1    0    0    0  501  0.00000000000E+00  0.00000000000E+00 -0.14432197711E+04  0.14432197711E+04  0.50400001928E-02 0. -1.
    10030    2    1    2    0    0  0.00000000000E+00  0.00000000000E+00  0.94562110900E+03  0.38320606511E+04  0.37135548403E+04 0.  0.
        3    1    3    3  502    0  0.38547225789E+03  0.98584402777E+03  0.20469900853E+04  0.23044838312E+04  0.10100000352E+00 0.  1.
       -3    1    3    3    0  502 -0.38547225789E+03 -0.98584402777E+03 -0.11013689763E+04  0.15275768199E+04  0.10100000352E+00 0. -1.
</event>
<event>
 5   0  0.1496287E-07  0.3719127E+04  0.7818609E-02  0.8063736E-01
       -1   -1    0    0    0  501  0.00000000000E+00  0.00000000000E+00  0.12381822448E+04  0.12381822448E+04  0.50400001928E-02 0.  1.
        1   -1    0    0  501    0  0.00000000000E+00  0.00000000000E+00 -0.27927852711E+04  0.27927852711E+04  0.50400001928E-02 0. -1.
    10030    2    1    2    0    0  0.00000000000E+00  0.00000000000E+00 -0.15546030263E+04  0.40309675159E+04  0.37191273902E+04 0.  0.
        1    1    3    3  502    0 -0.78538696864E+03 -0.21024080110E+03  0.10353322759E+04  0.13164143749E+04  0.50400001928E-02 0.  1.
       -1    1    3    3    0  502  0.78538696864E+03  0.21024080110E+03 -0.25899353023E+04  0.27145531409E+04  0.50400001928E-02 0. -1.
</event>
<event>
 5   0  0.1496000E-07  0.3711274E+04  0.7818609E-02  0.8065468E-01
       -1   -1    0    0    0  501  0.00000000000E+00  0.00000000000E+00  0.17306619277E+04  0.17306619277E+04  0.50400001928E-02 0.  1.
        1   -1    0    0  501    0  0.00000000000E+00  0.00000000000E+00 -0.19896369605E+04  0.19896369605E+04  0.50400001928E-02 0. -1.
    10030    2    1    2    0    0  0.00000000000E+00  0.00000000000E+00 -0.25897503283E+03  0.37202988882E+04  0.37112741410E+04 0.  0.
        3    1    3    3  502    0  0.14499261471E+03 -0.14352886534E+04  0.10405321875E+04  0.17787027914E+04  0.10100000352E+00 0.  1.
       -3    1    3    3    0  502 -0.14499261471E+03  0.14352886534E+04 -0.12995072203E+04  0.19415960967E+04  0.10100000352E+00 0. -1.
</event>
<event>
 5   0  0.1522273E-07  0.3728012E+04  0.7818609E-02  0.8061782E-01
        1   -1    0    0  501    0  0.00000000000E+00  0.00000000000E+00  0.12990755067E+04  0.12990755067E+04  0.50400001928E-02 0.  1.
       -1   -1    0    0    0  501  0.00000000000E+00  0.00000000000E+00 -0.26746086762E+04  0.26746086762E+04  0.50400001928E-02 0. -1.
    10030    2    1    2    0    0  0.00000000000E+00  0.00000000000E+00 -0.13755331695E+04  0.39736841829E+04  0.37280121359E+04 0.  0.
        4    1    3    3  502    0 -0.40463509771E+03 -0.66132238375E+02 -0.26259489779E+04  0.26577646026E+04  0.12699999809E+01 0. -1.
       -4    1    3    3    0  502  0.40463509771E+03  0.66132238375E+02  0.12504158084E+04  0.13159195804E+04  0.12699999809E+01 0.  1.
</event>
<event>
 5   0  0.1522273E-07  0.3497363E+04  0.7818609E-02  0.8114415E-01
       -1   -1    0    0    0  501  0.00000000000E+00  0.00000000000E+00  0.14851746367E+04  0.14851746367E+04  0.50400001928E-02 0.  1.
        1   -1    0    0  501    0  0.00000000000E+00  0.00000000000E+00 -0.20589411048E+04  0.20589411048E+04  0.50400001928E-02 0. -1.
    10030    2    1    2    0    0  0.00000000000E+00  0.00000000000E+00 -0.57376646809E+03  0.35441157416E+04  0.34973630680E+04 0.  0.
        4    1    3    3  502    0  0.56178299761E+03 -0.89943737312E+03 -0.16959012683E+04  0.20001676053E+04  0.12699999809E+01 0. -1.
       -4    1    3    3    0  502 -0.56178299761E+03  0.89943737312E+03  0.11221348002E+04  0.15439481362E+04  0.12699999809E+01 0.  1.
</event>
<event>
 5   0  0.4824268E-07  0.3666438E+04  0.7818609E-02  0.8075440E-01
        2   -1    0    0  501    0  0.00000000000E+00  0.00000000000E+00  0.22462720167E+04  0.22462720167E+04  0.25500000920E-02 0. -1.
       -2   -1    0    0    0  501  0.00000000000E+00  0.00000000000E+00 -0.14961198982E+04  0.14961198982E+04  0.25500000920E-02 0.  1.
    10030    2    1    2    0    0  0.00000000000E+00  0.00000000000E+00  0.75015211848E+03  0.37423919150E+04  0.36664381959E+04 0.  0.
        1    1    3    3  502    0 -0.16065696754E+04  0.34540928802E+02  0.12756420344E+04  0.20517119188E+04  0.50400001928E-02 0. -1.
       -1    1    3    3    0  502  0.16065696754E+04 -0.34540928802E+02 -0.52548991591E+03  0.16906799962E+04  0.50400001928E-02 0.  1.
</event>
<event>
 5   0  0.4793557E-07  0.3686223E+04  0.7818609E-02  0.8071022E-01
       -2   -1    0    0    0  501  0.00000000000E+00  0.00000000000E+00  0.21403448523E+04  0.21403448523E+04  0.25500000920E-02 0.  1.
        2   -1    0    0  501    0  0.00000000000E+00  0.00000000000E+00 -0.15871551250E+04  0.15871551250E+04  0.25500000920E-02 0. -1.
    10030    2    1    2    0    0  0.00000000000E+00  0.00000000000E+00  0.55318972726E+03  0.37274999773E+04  0.36862226203E+04 0.  0.
        3    1    3    3  502    0  0.17728786264E+04  0.36313694151E+02  0.78485827897E+03  0.19391801970E+04  0.10100000352E+00 0.  1.
       -3    1    3    3    0  502 -0.17728786264E+04 -0.36313694151E+02 -0.23166855171E+03  0.17883197802E+04  0.10100000352E+00 0. -1.
</event>
<event>
 5   0  0.1496000E-07  0.3680927E+04  0.7818609E-02  0.8072202E-01
        3   -1    0    0  501    0  0.00000000000E+00  0.00000000000E+00  0.24923970529E+04  0.24923970549E+04  0.10100000352E+00 0. -1.
       -3   -1    0    0    0  501  0.00000000000E+00  0.00000000000E+00 -0.13590555861E+04  0.13590555898E+04  0.10100000352E+00 0.  1.
    10030    2    1    2    0    0  0.00000000000E+00  0.00000000000E+00  0.11333414668E+04  0.38514526447E+04  0.36809271378E+04 0.  0.
        3    1    3    3  502    0  0.11047524272E+04 -0.91657709960E+03 -0.63852088083E+03  0.15710825664E+04  0.10100000352E+00 0.  1.
       -3    1    3    3    0  502 -0.11047524272E+04  0.91657709960E+03  0.17718623476E+04  0.22803700783E+04  0.10100000352E+00 0. -1.
</event>
<event>
 5   0  0.4758908E-07  0.3047282E+04  0.7818609E-02  0.8230357E-01
        2   -1    0    0  501    0  0.00000000000E+00  0.00000000000E+00  0.21515348670E+04  0.21515348670E+04  0.25500000920E-02 0. -1.
       -2   -1    0    0    0  501  0.00000000000E+00  0.00000000000E+00 -0.10789887556E+04  0.10789887556E+04  0.25500000920E-02 0.  1.
    10030    2    1    2    0    0  0.00000000000E+00  0.00000000000E+00  0.10725461114E+04  0.32305236226E+04  0.30472820209E+04 0.  0.
        2    1    3    3  502    0 -0.57191838609E+03  0.13533790111E+04  0.10858266070E+03  0.14732669759E+04  0.25500000920E-02 0.  1.
       -2    1    3    3    0  502  0.57191838609E+03 -0.13533790111E+04  0.96396345072E+03  0.17572566467E+04  0.25500000920E-02 0. -1.
</event>
<event>
 5   0  0.4687817E-07  0.3737774E+04  0.7818609E-02  0.8059642E-01
        2   -1    0    0  501    0  0.00000000000E+00  0.00000000000E+00  0.16945486567E+04  0.16945486567E+04  0.25500000920E-02 0. -1.
       -2   -1    0    0    0  501  0.00000000000E+00  0.00000000000E+00 -0.20611610673E+04  0.20611610673E+04  0.25500000920E-02 0.  1.
    10030    2    1    2    0    0  0.00000000000E+00  0.00000000000E+00 -0.36661241058E+03  0.37557097239E+04  0.37377735179E+04 0.  0.
        4    1    3    3  502    0  0.12298393188E+04  0.13481197064E+04  0.22212053328E+03  0.18382792598E+04  0.12699999809E+01 0.  1.
       -4    1    3    3    0  502 -0.12298393188E+04 -0.13481197064E+04 -0.58873294386E+03  0.19174304642E+04  0.12699999809E+01 0. -1.
</event>
<event>
 5   0  0.1522273E-07  0.3716715E+04  0.7818609E-02  0.8064268E-01
        1   -1    0    0  501    0  0.00000000000E+00  0.00000000000E+00  0.24729857478E+04  0.24729857478E+04  0.50400001928E-02 0. -1.
       -1   -1    0    0    0  501  0.00000000000E+00  0.00000000000E+00 -0.13964868857E+04  0.13964868857E+04  0.50400001928E-02 0.  1.
    10030    2    1    2    0    0  0.00000000000E+00  0.00000000000E+00  0.10764988621E+04  0.38694726334E+04  0.37167147672E+04 0.  0.
        4    1    3    3  502    0  0.17008971358E+03  0.83104403396E+03 -0.11831668746E+04  0.14558331509E+04  0.12699999809E+01 0.  1.
       -4    1    3    3    0  502 -0.17008971358E+03 -0.83104403396E+03  0.22596657367E+04  0.24136394826E+04  0.12699999809E+01 0. -1.
</event>
<event>
 5   0  0.4857514E-07  0.3398055E+04  0.7818609E-02  0.8138384E-01
        2   -1    0    0  501    0  0.00000000000E+00  0.00000000000E+00  0.17209749325E+04  0.17209749325E+04  0.25500000920E-02 0. -1.
       -2   -1    0    0    0  501  0.00000000000E+00  0.00000000000E+00 -0.16773597474E+04  0.16773597474E+04  0.25500000920E-02 0.  1.
    10030    2    1    2    0    0  0.00000000000E+00  0.00000000000E+00  0.43615185073E+02  0.33983346799E+04  0.33980547836E+04 0.  0.
        5    1    3    3  502    0  0.14927227244E+04 -0.79182271636E+03  0.19921341564E+03  0.17014442163E+04  0.46999998093E+01 0. -1.
       -5    1    3    3    0  502 -0.14927227244E+04  0.79182271636E+03 -0.15559823057E+03  0.16968904636E+04  0.46999998093E+01 0.  1.
</event>
<event>
 5   0  0.4793557E-07  0.3716284E+04  0.7818609E-02  0.8064363E-01
        2   -1    0    0  501    0  0.00000000000E+00  0.00000000000E+00  0.19557477332E+04  0.19557477332E+04  0.25500000920E-02 0.  1.
       -2   -1    0    0    0  501  0.00000000000E+00  0.00000000000E+00 -0.17654073993E+04  0.17654073993E+04  0.25500000920E-02 0. -1.
    10030    2    1    2    0    0  0.00000000000E+00  0.00000000000E+00  0.19034033389E+03  0.37211551325E+04  0.37162839070E+04 0.  0.
        3    1    3    3  502    0 -0.70909102668E+03  0.89910075953E+03 -0.13701342354E+04  0.17856259667E+04  0.10100000352E+00 0. -1.
       -3    1    3    3    0  502  0.70909102668E+03 -0.89910075953E+03  0.15604745693E+04  0.19355291658E+04  0.10100000352E+00 0.  1.
</event>
<event>
 5   0  0.1522273E-07  0.3694617E+04  0.7818609E-02  0.8069156E-01
       -1   -1    0    0    0  501  0.00000000000E+00  0.00000000000E+00  0.13068766879E+04  0.13068766879E+04  0.50400001928E-02 0.  1.
        1   -1    0    0  501    0  0.00000000000E+00  0.00000000000E+00 -0.26112247358E+04  0.26112247358E+04  0.50400001928E-02 0. -1.
    10030    2    1    2    0    0  0.00000000000E+00  0.00000000000E+00 -0.13043480478E+04  0.39181014237E+04  0.36946170216E+04 0.  0.
        4    1    3    3  502    0 -0.68924075418E+03 -0.11818181283E+04  0.66420032943E+03  0.15208256298E+04  0.12699999809E+01 0.  1.
       -4    1    3    3    0  502  0.68924075418E+03  0.11818181283E+04 -0.19685483773E+04  0.23972757939E+04  0.12699999809E+01 0. -1.
</event>
<event>
 5   0  0.1496000E-07  0.3695442E+04  0.7818609E-02  0.8068973E-01
        1   -1    0    0  501    0  0.00000000000E+00  0.00000000000E+00  0.19143813838E+04  0.19143813838E+04  0.50400001928E-02 0.  1.
       -1   -1    0    0    0  501  0.00000000000E+00  0.00000000000E+00 -0.17833821833E+04  0.17833821833E+04  0.50400001928E-02 0. -1.
    10030    2    1    2    0    0  0.00000000000E+00  0.00000000000E+00  0.13099920052E+03  0.36977635672E+04  0.36954424103E+04 0.  0.
        3    1    3    3  502    0  0.75977409565E+03  0.71303087543E+03 -0.14613696993E+04  0.17947899916E+04  0.10100000352E+00 0. -1.
       -3    1    3    3    0  502 -0.75977409565E+03 -0.71303087543E+03  0.15923688999E+04  0.19029735755E+04  0.10100000352E+00 0.  1.
</event>
<event>
 5   0  0.4687817E-07  0.3684881E+04  0.7818609E-02  0.8071321E-01
        2   -1    0    0  501    0  0.00000000000E+00  0.00000000000E+00  0.20744093446E+04  0.20744093446E+04  0.25500000920E-02 0. -1.
       -2   -1    0    0    0  501  0.00000000000E+00  0.00000000000E+00 -0.16364110754E+04  0.16364110754E+04  0.25500000920E-02 0.  1.
    10030    2    1    2    0    0  0.00000000000E+00  0.00000000000E+00  0.43799826923E+03  0.37108204200E+04  0.36848806909E+04 0.  0.
        4    1    3    3  502    0  0.52643382141E+03 -0.97079048753E+03 -0.12661769323E+04  0.16801108225E+04  0.12699999809E+01 0.  1.
       -4    1    3    3    0  502 -0.52643382141E+03  0.97079048753E+03  0.17041752016E+04  0.20307095975E+04  0.12699999809E+01 0. -1.
</event>
<event>
 5   0  0.4793557E-07  0.3704525E+04  0.7818609E-02  0.8066960E-01
        2   -1    0    0  501    0  0.00000000000E+00  0.00000000000E+00  0.27431211198E+04  0.27431211198E+04  0.25500000920E-02 0.  1.
       -2   -1    0    0    0  501  0.00000000000E+00  0.00000000000E+00 -0.12507197014E+04  0.12507197014E+04  0.25500000920E-02 0. -1.
    10030    2    1    2    0    0  0.00000000000E+00  0.00000000000E+00  0.14924014184E+04  0.39938408212E+04  0.37045245999E+04 0.  0.
        3    1    3    3  502    0  0.14399099864E+04 -0.97382423766E+00  0.20023278817E+04  0.24663046595E+04  0.10100000352E+00 0.  1.
       -3    1    3    3    0  502 -0.14399099864E+04  0.97382423766E+00 -0.50992646328E+03  0.15275361617E+04  0.10100000352E+00 0. -1.
</event>
<event>
 5   0  0.4758908E-07  0.3708189E+04  0.7818609E-02  0.8066149E-01
       -2   -1    0    0    0  501  0.00000000000E+00  0.00000000000E+00  0.18104384913E+04  0.18104384913E+04  0.25500000920E-02 0. -1.
        2   -1    0    0  501    0  0.00000000000E+00  0.00000000000E+00 -0.18988033495E+04  0.18988033495E+04  0.25500000920E-02 0.  1.
    10030    2    1    2    0    0  0.00000000000E+00  0.00000000000E+00 -0.88364858169E+02  0.37092418409E+04  0.37081891384E+04 0.  0.
        2    1    3    3  502    0  0.61208617152E+03  0.12448305479E+04 -0.12747406329E+04  0.18839363724E+04  0.25500000920E-02 0.  1.
       -2    1    3    3    0  502 -0.61208617152E+03 -0.12448305479E+04  0.11863757747E+04  0.18253054684E+04  0.25500000920E-02 0. -1.
</event>
<event>
 5   0  0.4758908E-07  0.3725358E+04  0.7818609E-02  0.8062365E-01
       -2   -1    0    0    0  501  0.00000000000E+00  0.00000000000E+00  0.19500880198E+04  0.19500880198E+04  0.25500000920E-02 0. -1.
        2   -1    0    0  501    0  0.00000000000E+00  0.00000000000E+00 -0.17791879792E+04  0.17791879792E+04  0.25500000920E-02 0.  1.
    10030    2    1    2    0    0  0.00000000000E+00  0.00000000000E+00  0.17090004057E+03  0.37292759990E+04  0.37253580570E+04 0.  0.
        2    1    3    3  502    0  0.35598783020E+03  0.17304785922E+04  0.67623140477E+03  0.18917115018E+04  0.25500000920E-02 0. -1.
       -2    1    3    3    0  502 -0.35598783020E+03 -0.17304785922E+04 -0.50533136420E+03  0.18375644971E+04  0.25500000920E-02 0.  1.
</event>
<event>
 5   0  0.4687817E-07  0.3745723E+04  0.7818609E-02  0.8057904E-01
        2   -1    0    0  501    0  0.00000000000E+00  0.00000000000E+00  0.19245669868E+04  0.19245669868E+04  0.25500000920E-02 0.  1.
       -2   -1    0    0    0  501  0.00000000000E+00  0.00000000000E+00 -0.18225449534E+04  0.18225449534E+04  0.25500000920E-02 0. -1.
    10030    2    1    2    0    0  0.00000000000E+00  0.00000000000E+00  0.10202203345E+03  0.37471119402E+04  0.37457228137E+04 0.  0.
        4    1    3    3  502    0 -0.68697411093E+03  0.63567751658E+03 -0.15718078731E+04  0.18293717328E+04  0.12699999809E+01 0. -1.
       -4    1    3    3    0  502  0.68697411093E+03 -0.63567751658E+03  0.16738299065E+04  0.19177402074E+04  0.12699999809E+01 0.  1.
</event>
<event>
 5   0  0.4857514E-07  0.3152939E+04  0.7818609E-02  0.8201358E-01
        2   -1    0    0  501    0  0.00000000000E+00  0.00000000000E+00  0.20333010114E+04  0.20333010114E+04  0.25500000920E-02 0.  1.
       -2   -1    0    0    0  501  0.00000000000E+00  0.00000000000E+00 -0.12222765194E+04  0.12222765194E+04  0.25500000920E-02 0. -1.
    10030    2    1    2    0    0  0.00000000000E+00  0.00000000000E+00  0.81102449210E+03  0.32555775308E+04  0.31529389991E+04 0.  0.
        5    1    3    3  502    0 -0.69656886750E+03 -0.13705806728E+04  0.45545709314E+02  0.15381144527E+04  0.46999998093E+01 0.  1.
       -5    1    3    3    0  502  0.69656886750E+03  0.13705806728E+04  0.76547878278E+03  0.17174630781E+04  0.46999998093E+01 0. -1.
</event>
<event>
 5   0  0.4857514E-07  0.3693274E+04  0.7818609E-02  0.8069454E-01
        2   -1    0    0  501    0  0.00000000000E+00  0.00000000000E+00  0.16213494951E+04  0.16213494951E+04  0.25500000920E-02 0. -1.
       -2   -1    0    0    0  501  0.00000000000E+00  0.00000000000E+00 -0.21032281271E+04  0.21032281271E+04  0.25500000920E-02 0.  1.
    10030    2    1    2    0    0  0.00000000000E+00  0.00000000000E+00 -0.48187863203E+03  0.37245776222E+04  0.36932738117E+04 0.  0.
        5    1    3    3  502    0  0.15234699319E+04  0.11567051991E+03 -0.12868924162E+04  0.19976121955E+04  0.46999998093E+01 0. -1.
       -5    1    3    3    0  502 -0.15234699319E+04 -0.11567051991E+03  0.80501378416E+03  0.17269654268E+04  0.46999998093E+01 0.  1.
</event>
<event>
 5   0  0.4793557E-07  0.3695582E+04  0.7818609E-02  0.8068942E-01
       -2   -1    0    0    0  501  0.00000000000E+00  0.00000000000E+00  0.20685041991E+04  0.20685041991E+04  0.25500000920E-02 0. -1.
        2   -1    0    0  501    0  0.00000000000E+00  0.00000000000E+00 -0.16506279265E+04  0.16506279265E+04  0.25500000920E-02 0.  1.
    10030    2    1    2    0    0  0.00000000000E+00  0.00000000000E+00  0.41787627260E+03  0.37191321256E+04  0.36955815765E+04 0.  0.
        3    1    3    3  502    0 -0.16953306015E+03  0.70314534759E+03 -0.15022433592E+04  0.16673002005E+04  0.10100000352E+00 0.  1.
       -3    1    3    3    0  502  0.16953306015E+03 -0.70314534759E+03  0.19201196318E+04  0.20518319251E+04  0.10100000352E+00 0. -1.
</event>
<event>
 5   0  0.1496287E-07  0.3084150E+04  0.7818609E-02  0.8220101E-01
       -1   -1    0    0    0  501  0.00000000000E+00  0.00000000000E+00  0.13650312088E+04  0.13650312088E+04  0.50400001928E-02 0.  1.
        1   -1    0    0  501    0  0.00000000000E+00  0.00000000000E+00 -0.17420810677E+04  0.17420810677E+04  0.50400001928E-02 0. -1.
    10030    2    1    2    0    0  0.00000000000E+00  0.00000000000E+00 -0.37704985891E+03  0.31071122765E+04  0.30841498185E+04 0.  0.
        1    1    3    3  502    0  0.45255162489E+03 -0.12569999697E+04  0.58736699569E+03  0.14594012076E+04  0.50400001928E-02 0.  1.
       -1    1    3    3    0  502 -0.45255162489E+03  0.12569999697E+04 -0.96441685460E+03  0.16477110689E+04  0.50400001928E-02 0. -1.
</event>
<event>
 5   0  0.1496287E-07  0.3734564E+04  0.7818609E-02  0.8060345E-01
       -1   -1    0    0    0  501  0.00000000000E+00  0.00000000000E+00  0.18302240493E+04  0.18302240493E+04  0.50400001928E-02 0. -1.
        1   -1    0    0  501    0  0.00000000000E+00  0.00000000000E+00 -0.19050902414E+04  0.19050902414E+04  0.50400001928E-02 0.  1.
    10030    2    1    2    0    0  0.00000000000E+00  0.00000000000E+00 -0.74866192096E+02  0.37353142907E+04  0.37345639510E+04 0.  0.
        1    1    3    3  502    0 -0.12296450626E+04 -0.33153012716E+03  0.13284190884E+04  0.18402816305E+04  0.50400001928E-02 0. -1.
       -1    1    3    3    0  502  0.12296450626E+04  0.33153012716E+03 -0.14032852805E+04  0.18950326603E+04  0.50400001928E-02 0.  1.
</event>
<event>
 5   0  0.4758908E-07  0.3683295E+04  0.7818609E-02  0.8071674E-01
        2   -1    0    0  501    0  0.00000000000E+00  0.00000000000E+00  0.17460164416E+04  0.17460164416E+04  0.25500000920E-02 0.  1.
       -2   -1    0    0    0  501  0.00000000000E+00  0.00000000000E+00 -0.19425167315E+04  0.19425167315E+04  0.25500000920E-02 0. -1.
    10030    2    1    2    0    0  0.00000000000E+00  0.00000000000E+00 -0.19650028990E+03  0.36885331732E+04  0.36832953460E+04 0.  0.
        2    1    3    3  502    0  0.11782539460E+04 -0.12087910426E+04 -0.83564501521E+03  0.18835500358E+04  0.25500000920E-02 0. -1.
       -2    1    3    3    0  502 -0.11782539460E+04  0.12087910426E+04  0.63914472531E+03  0.18049831373E+04  0.25500000920E-02 0.  1.
</event>
<event>
 5   0  0.4687817E-07  0.3761505E+04  0.7818609E-02  0.8054467E-01
       -2   -1    0    0    0  501  0.00000000000E+00  0.00000000000E+00  0.16798428186E+04  0.16798428186E+04  0.25500000920E-02 0. -1.
        2   -1    0    0  501    0  0.00000000000E+00  0.00000000000E+00 -0.21056914012E+04  0.21056914012E+04  0.25500000920E-02 0.  1.
    10030    2    1    2    0    0  0.00000000000E+00  0.00000000000E+00 -0.42584858258E+03  0.37855342198E+04  0.37615053255E+04 0.  0.
        4    1    3    3  502    0  0.14258446021E+04 -0.51344601294E+03 -0.13338478969E+04  0.20188639039E+04  0.12699999809E+01 0.  1.
       -4    1    3    3    0  502 -0.14258446021E+04  0.51344601294E+03  0.90799931429E+03  0.17666703159E+04  0.12699999809E+01 0. -1.
</event>
<event>
 5   0  0.1496000E-07  0.3723103E+04  0.7818609E-02  0.8062861E-01
       -1   -1    0    0    0  501  0.00000000000E+00  0.00000000000E+00  0.33314510580E+04  0.33314510580E+04  0.50400001928E-02 0. -1.
        1   -1    0    0  501    0  0.00000000000E+00  0.00000000000E+00 -0.10401995311E+04  0.10401995312E+04  0.50400001928E-02 0.  1.
    10030    2    1    2    0    0  0.00000000000E+00  0.00000000000E+00  0.22912515268E+04  0.43716505891E+04  0.37231029148E+04 0.  0.
        5    1    3    3  502    0 -0.35386945287E+03 -0.14332243474E+03 -0.99372707741E+03  0.10645564825E+04  0.46999998093E+01 0.  1.
       -5    1    3    3    0  502  0.35386945287E+03  0.14332243474E+03  0.32849786042E+04  0.33070941066E+04  0.46999998093E+01 0. -1.
</event>
<event>
 5   0  0.4824268E-07  0.3691124E+04  0.7818609E-02  0.8069932E-01
       -2   -1    0    0    0  501  0.00000000000E+00  0.00000000000E+00  0.15554616635E+04  0.15554616635E+04  0.25500000920E-02 0.  1.
        2   -1    0    0  501    0  0.00000000000E+00  0.00000000000E+00 -0.21897670252E+04  0.21897670252E+04  0.25500000920E-02 0. -1.
    10030    2    1    2    0    0  0.00000000000E+00  0.00000000000E+00 -0.63430536169E+03  0.37452286887E+04  0.36911237636E+04 0.  0.
        1    1    3    3  502    0 -0.14219157826E+04 -0.45924245591E+03  0.78193824328E+03  0.16864683639E+04  0.50400001928E-02 0.  1.
       -1    1    3    3    0  502  0.14219157826E+04  0.45924245591E+03 -0.14162436050E+04  0.20587603247E+04  0.50400001928E-02 0. -1.
</event>
<event>
 5   0  0.1496000E-07  0.3512311E+04  0.7818609E-02  0.8110879E-01
        1   -1    0    0  501    0  0.00000000000E+00  0.00000000000E+00  0.14382834220E+04  0.14382834220E+04  0.50400001928E-02 0. -1.
       -1   -1    0    0    0  501  0.00000000000E+00  0.00000000000E+00 -0.21442802451E+04  0.21442802451E+04  0.50400001928E-02 0.  1.
    10030    2    1    2    0    0  0.00000000000E+00  0.00000000000E+00 -0.70599682315E+03  0.35825636671E+04  0.35123113351E+04 0.  0.
        5    1    3    3  502    0 -0.13733393407E+04  0.23346559702E+03  0.73773285765E+03  0.15763372066E+04  0.46999998093E+01 0. -1.
       -5    1    3    3    0  502  0.13733393407E+04 -0.23346559702E+03 -0.14437296808E+04  0.20062264605E+04  0.46999998093E+01 0.  1.
</event>
<event>
 5   0  0.1522273E-07  0.3685329E+04  0.7818609E-02  0.8071221E-01
        1   -1    0    0  501    0  0.00000000000E+00  0.00000000000E+00  0.29810181139E+04  0.29810181139E+04  0.50400001928E-02 0.  1.
       -1   -1    0    0    0  501  0.00000000000E+00  0.00000000000E+00 -0.11390107460E+04  0.11390107460E+04  0.50400001928E-02 0. -1.
    10030    2    1    2    0    0  0.00000000000E+00  0.00000000000E+00  0.18420073679E+04  0.41200288599E+04  0.36853285692E+04 0.  0.
        4    1    3    3  502    0  0.11537837565E+04 -0.86738901773E+03 -0.35944660436E+03  0.14875429873E+04  0.12699999809E+01 0.  1.
       -4    1    3    3    0  502 -0.11537837565E+04  0.86738901773E+03  0.22014539722E+04  0.26324858726E+04  0.12699999809E+01 0. -1.
</event>
<event>
 5   0  0.1496287E-07  0.3599653E+04  0.7818609E-02  0.8090571E-01
       -1   -1    0    0    0  501  0.00000000000E+00  0.00000000000E+00  0.15176561918E+04  0.15176561918E+04  0.50400001928E-02 0. -1.
        1   -1    0    0  501    0  0.00000000000E+00  0.00000000000E+00 -0.21344594336E+04  0.21344594336E+04  0.50400001928E-02 0.  1.
    10030    2    1    2    0    0  0.00000000000E+00  0.00000000000E+00 -0.61680324173E+03  0.36521156254E+04  0.35996530808E+04 0.  0.
        1    1    3    3  502    0 -0.71608721487E+03  0.11634286018E+04  0.88043905974E+03  0.16252753455E+04  0.50400001928E-02 0. -1.
       -1    1    3    3    0  502  0.71608721487E+03 -0.11634286018E+04 -0.14972423015E+04  0.20268402799E+04  0.50400001928E-02 0.  1.
</event>
<event>
 5   0  0.1496287E-07  0.3619792E+04  0.7818609E-02  0.8085973E-01
        1   -1    0    0  501    0  0.00000000000E+00  0.00000000000E+00  0.11664347543E+04  0.11664347543E+04  0.50400001928E-02 0. -1.
       -1   -1    0    0    0  501  0.00000000000E+00  0.00000000000E+00 -0.28083205836E+04  0.28083205836E+04  0.50400001928E-02 0.  1.
    10030    2    1    2    0    0  0.00000000000E+00  0.00000000000E+00 -0.16418858293E+04  0.39747553379E+04  0.36197915575E+04 0.  0.
        1    1    3    3  502    0  0.85245944537E+03 -0.27459142759E+03 -0.25479521585E+04  0.27007679945E+04  0.50400001928E-02 0.  1.
       -1    1    3    3    0  502 -0.85245944537E+03  0.27459142759E+03  0.90606632923E+03  0.12739873434E+04  0.50400001928E-02 0. -1.
</event>
<event>
 5   0  0.1496287E-07  0.3717779E+04  0.7818609E-02  0.8064033E-01
       -1   -1    0    0    0  501  0.00000000000E+00  0.00000000000E+00  0.24303996271E+04  0.24303996271E+04  0.50400001928E-02 0.  1.
        1   -1    0    0  501    0  0.00000000000E+00  0.00000000000E+00 -0.14217705756E+04  0.14217705756E+04  0.50400001928E-02 0. -1.
    10030    2    1    2    0    0  0.00000000000E+00  0.00000000000E+00  0.10086290515E+04  0.38521702027E+04  0.37177792709E+04 0.  0.
        1    1    3    3  502    0 -0.16386195148E+04 -0.53401435557E+03 -0.21744685898E+03  0.17371034462E+04  0.50400001928E-02 0.  1.
       -1    1    3    3    0  502  0.16386195148E+04  0.53401435557E+03  0.12260759104E+04  0.21150667565E+04  0.50400001928E-02 0. -1.
</event>
<event>
 5   0  0.1496000E-07  0.3738638E+04  0.7818609E-02  0.8059453E-01
        1   -1    0    0  501    0  0.00000000000E+00  0.00000000000E+00  0.15737762213E+04  0.15737762213E+04  0.50400001928E-02 0. -1.
       -1   -1    0    0    0  501  0.00000000000E+00  0.00000000000E+00 -0.22203618053E+04  0.22203618053E+04  0.50400001928E-02 0.  1.
    10030    2    1    2    0    0  0.00000000000E+00  0.00000000000E+00 -0.64658558400E+03  0.37941380266E+04  0.37386375122E+04 0.  0.
        2    1    3    3  502    0 -0.78294042053E+03 -0.12316062532E+04 -0.15087530683E+04  0.20990915859E+04  0.25500000920E-02 0.  1.
       -2    1    3    3    0  502  0.78294042053E+03  0.12316062532E+04  0.86216748434E+03  0.16950464406E+04  0.25500000920E-02 0. -1.
</event>
<event>
 5   0  0.1496000E-07  0.3666029E+04  0.7818609E-02  0.8075532E-01
       -1   -1    0    0    0  501  0.00000000000E+00  0.00000000000E+00  0.12206969257E+04  0.12206969257E+04  0.50400001928E-02 0. -1.
        1   -1    0    0  501    0  0.00000000000E+00  0.00000000000E+00 -0.27524778870E+04  0.27524778870E+04  0.50400001928E-02 0.  1.
    10030    2    1    2    0    0  0.00000000000E+00  0.00000000000E+00 -0.15317809613E+04  0.39731748127E+04  0.36660285295E+04 0.  0.
        5    1    3    3  502    0 -0.13475291572E+03  0.10443095059E+04 -0.23919887989E+04  0.26134982679E+04  0.46999998093E+01 0.  1.
       -5    1    3    3    0  502  0.13475291572E+03 -0.10443095059E+04  0.86020783760E+03  0.13596765448E+04  0.46999998093E+01 0. -1.
</event>
<event>
 5   0  0.4793557E-07  0.3706823E+04  0.7818609E-02  0.8066451E-01
        2   -1    0    0  501    0  0.00000000000E+00  0.00000000000E+00  0.28861726268E+04  0.28861726268E+04  0.25500000920E-02 0.  1.
       -2   -1    0    0    0  501  0.00000000000E+00  0.00000000000E+00 -0.11902038833E+04  0.11902038833E+04  0.25500000920E-02 0. -1.
    10030    2    1    2    0    0  0.00000000000E+00  0.00000000000E+00  0.16959687435E+04  0.40763765101E+04  0.37068228273E+04 0.  0.
        3    1    3    3  502    0  0.16757231135E+02 -0.14434551513E+04  0.21263255767E+04  0.25700396976E+04  0.10100000352E+00 0.  1.
       -3    1    3    3    0  502 -0.16757231135E+02  0.14434551513E+04 -0.43035683327E+03  0.15063368125E+04  0.10100000352E+00 0. -1.
</event>
<event>
 5   0  0.1496000E-07  0.3577260E+04  0.7818609E-02  0.8095721E-01
       -1   -1    0    0    0  501  0.00000000000E+00  0.00000000000E+00  0.16234752681E+04  0.16234752681E+04  0.50400001928E-02 0.  1.
        1   -1    0    0  501    0  0.00000000000E+00  0.00000000000E+00 -0.19705852842E+04  0.19705852842E+04  0.50400001928E-02 0. -1.
    10030    2    1    2    0    0  0.00000000000E+00  0.00000000000E+00 -0.34711001604E+03  0.35940605523E+04  0.35772595503E+04 0.  0.
        3    1    3    3  502    0  0.24528714834E+03 -0.53154965719E+03 -0.18716069096E+04  0.19610260726E+04  0.10100000352E+00 0. -1.
       -3    1    3    3    0  502 -0.24528714834E+03  0.53154965719E+03  0.15244968936E+04  0.16330344797E+04  0.10100000352E+00 0.  1.
</event>
<event>
 5   0  0.1496000E-07  0.3717347E+04  0.7818609E-02  0.8064128E-01
       -1   -1    0    0    0  501  0.00000000000E+00  0.00000000000E+00  0.14637267921E+04  0.14637267921E+04  0.50400001928E-02 0. -1.
        1   -1    0    0  501    0  0.00000000000E+00  0.00000000000E+00 -0.23601860245E+04  0.23601860245E+04  0.50400001928E-02 0.  1.
    10030    2    1    2    0    0  0.00000000000E+00  0.00000000000E+00 -0.89645923242E+03  0.38239128166E+04  0.37173471823E+04 0.  0.
        2    1    3    3  502    0 -0.15033108498E+04 -0.29713368078E+03  0.63379695326E+03  0.16582914440E+04  0.25500000920E-02 0. -1.
       -2    1    3    3    0  502  0.15033108498E+04  0.29713368078E+03 -0.15302561857E+04  0.21656213725E+04  0.25500000920E-02 0.  1.
</event>
<event>
 5   0  0.4857514E-07  0.3737900E+04  0.7818609E-02  0.8059614E-01
        2   -1    0    0  501    0  0.00000000000E+00  0.00000000000E+00  0.21901689077E+04  0.21901689077E+04  0.25500000920E-02 0.  1.
       -2   -1    0    0    0  501  0.00000000000E+00  0.00000000000E+00 -0.15948427213E+04  0.15948427213E+04  0.25500000920E-02 0. -1.
    10030    2    1    2    0    0  0.00000000000E+00  0.00000000000E+00  0.59532618636E+03  0.37850116290E+04  0.37379004485E+04 0.  0.
        5    1    3    3  502    0 -0.82087420867E+03  0.13232545873E+04  0.13441857453E+04  0.20571083046E+04  0.46999998093E+01 0.  1.
       -5    1    3    3    0  502  0.82087420867E+03 -0.13232545873E+04 -0.74885955892E+03  0.17279033243E+04  0.46999998093E+01 0. -1.
</event>
<event>
 5   0  0.4793557E-07  0.3744355E+04  0.7818609E-02  0.8058203E-01
        2   -1    0    0  501    0  0.00000000000E+00  0.00000000000E+00  0.26157073698E+04  0.26157073698E+04  0.25500000920E-02 0.  1.
       -2   -1    0    0    0  501  0.00000000000E+00  0.00000000000E+00 -0.13400000365E+04  0.13400000365E+04  0.25500000920E-02 0. -1.
    10030    2    1    2    0    0  0.00000000000E+00  0.00000000000E+00  0.12757073333E+04  0.39557074064E+04  0.37443546686E+04 0.  0.
        3    1    3    3  502    0 -0.68543450602E+03 -0.17421772964E+04  0.64500065271E+03  0.19801585912E+04  0.10100000352E+00 0. -1.
       -3    1    3    3    0  502  0.68543450602E+03  0.17421772964E+04  0.63070668062E+03  0.19755488152E+04  0.10100000352E+00 0.  1.
</event>
<event>
 5   0  0.1496287E-07  0.3755131E+04  0.7818609E-02  0.8055853E-01
        1   -1    0    0  501    0  0.00000000000E+00  0.00000000000E+00  0.22468148491E+04  0.22468148491E+04  0.50400001928E-02 0.  1.
       -1   -1    0    0    0  501  0.00000000000E+00  0.00000000000E+00 -0.15690000674E+04  0.15690000674E+04  0.50400001928E-02 0. -1.
    10030    2    1    2    0    0  0.00000000000E+00  0.00000000000E+00  0.67781478168E+03  0.38158149165E+04  0.37551312359E+04 0.  0.
        1    1    3    3  502    0 -0.93741567622E+03  0.16175474987E+04  0.51504225011E+03  0.19391948277E+04  0.50400001928E-02 0.  1.
       -1    1    3    3    0  502  0.93741567622E+03 -0.16175474987E+04  0.16277253157E+03  0.18766200888E+04  0.50400001928E-02 0. -1.
</event>
<event>
 5   0  0.4687817E-07  0.3496510E+04  0.7818609E-02  0.8114618E-01
        2   -1    0    0  501    0  0.00000000000E+00  0.00000000000E+00  0.21987975131E+04  0.21987975131E+04  0.25500000920E-02 0. -1.
       -2   -1    0    0    0  501  0.00000000000E+00  0.00000000000E+00 -0.13900303447E+04  0.13900303447E+04  0.25500000920E-02 0.  1.
    10030    2    1    2    0    0  0.00000000000E+00  0.00000000000E+00  0.80876716842E+03  0.35888278579E+04  0.34965098399E+04 0.  0.
        4    1    3    3  502    0 -0.36988099851E+03 -0.13022805304E+04 -0.73100877887E+03  0.15385454106E+04  0.12699999809E+01 0.  1.
       -4    1    3    3    0  502  0.36988099851E+03  0.13022805304E+04  0.15397759473E+04  0.20502824473E+04  0.12699999809E+01 0. -1.
</event>
<event>
 5   0  0.4824268E-07  0.3703192E+04  0.7818609E-02  0.8067255E-01
       -2   -1    0    0    0  501  0.00000000000E+00  0.00000000000E+00  0.15848989438E+04  0.15848989438E+04  0.25500000920E-02 0. -1.
        2   -1    0    0  501    0  0.00000000000E+00  0.00000000000E+00 -0.21631717018E+04  0.21631717018E+04  0.25500000920E-02 0.  1.
    10030    2    1    2    0    0  0.00000000000E+00  0.00000000000E+00 -0.57827275802E+03  0.37480706456E+04  0.37031924311E+04 0.  0.
        1    1    3    3  502    0 -0.12767855684E+04  0.11175301523E+04  0.46102973462E+03  0.17582956080E+04  0.50400001928E-02 0.  1.
       -1    1    3    3    0  502  0.12767855684E+04 -0.11175301523E+04 -0.10393024926E+04  0.19897750376E+04  0.50400001928E-02 0. -1.
</event>
<event>
 5   0  0.4793557E-07  0.3731438E+04  0.7818609E-02  0.8061030E-01
       -2   -1    0    0    0  501  0.00000000000E+00  0.00000000000E+00  0.11893902668E+04  0.11893902668E+04  0.25500000920E-02 0. -1.
        2   -1    0    0  501    0  0.00000000000E+00  0.00000000000E+00 -0.29266312320E+04  0.29266312320E+04  0.25500000920E-02 0.  1.
    10030    2    1    2    0    0  0.00000000000E+00  0.00000000000E+00 -0.17372409652E+04  0.41160214988E+04  0.37314376327E+04 0.  0.
        3    1    3    3  502    0  0.10615397366E+04 -0.57836430040E+03 -0.24361911182E+04  0.27196321537E+04  0.10100000352E+00 0.  1.
       -3    1    3    3    0  502 -0.10615397366E+04  0.57836430040E+03  0.69895015304E+03  0.13963893451E+04  0.10100000352E+00 0. -1.
</event>
<event>
 5   0  0.1496000E-07  0.3833684E+04  0.7818609E-02  0.8038965E-01
        1   -1    0    0  501    0  0.00000000000E+00  0.00000000000E+00  0.26895043256E+04  0.26895043256E+04  0.50400001928E-02 0.  1.
       -1   -1    0    0    0  501  0.00000000000E+00  0.00000000000E+00 -0.13661561922E+04  0.13661561922E+04  0.50400001928E-02 0. -1.
    10030    2    1    2    0    0  0.00000000000E+00  0.00000000000E+00  0.13233481334E+04  0.40556605178E+04  0.38336838620E+04 0.  0.
        5    1    3    3  502    0 -0.48590478619E+03  0.14980982279E+04  0.18175782672E+04  0.24049978397E+04  0.46999998093E+01 0. -1.
       -5    1    3    3    0  502  0.48590478619E+03 -0.14980982279E+04 -0.49423013375E+03  0.16506626781E+04  0.46999998093E+01 0.  1.
</event>
<event>
 5   0  0.1496000E-07  0.3715261E+04  0.7818609E-02  0.8064588E-01
        1   -1    0    0  501    0  0.00000000000E+00  0.00000000000E+00  0.16068257181E+04  0.16068257181E+04  0.50400001928E-02 0. -1.
       -1   -1    0    0    0  501  0.00000000000E+00  0.00000000000E+00 -0.21475831095E+04  0.21475831095E+04  0.50400001928E-02 0.  1.
    10030    2    1    2    0    0  0.00000000000E+00  0.00000000000E+00 -0.54075739136E+03  0.37544088276E+04  0.37152613755E+04 0.  0.
        2    1    3    3  502    0 -0.12797621847E+04 -0.11904504467E+04  0.36539943703E+03  0.17856316149E+04  0.25500000920E-02 0. -1.
       -2    1    3    3    0  502  0.12797621847E+04  0.11904504467E+04 -0.90615682839E+03  0.19687772127E+04  0.25500000920E-02 0.  1.
</event>
<event>
 5   0  0.1496000E-07  0.3716194E+04  0.7818609E-02  0.8064383E-01
       -1   -1    0    0    0  501  0.00000000000E+00  0.00000000000E+00  0.20706713003E+04  0.20706713003E+04  0.50400001928E-02 0. -1.
        1   -1    0    0  501    0  0.00000000000E+00  0.00000000000E+00 -0.16673454024E+04  0.16673454024E+04  0.50400001928E-02 0.  1.
    10030    2    1    2    0    0  0.00000000000E+00  0.00000000000E+00  0.40332589789E+03  0.37380167027E+04  0.37161938983E+04 0.  0.
        3    1    3    3  502    0  0.13840283240E+04 -0.99561213491E+03 -0.54142169500E+03  0.17888307318E+04  0.10100000352E+00 0.  1.
       -3    1    3    3    0  502 -0.13840283240E+04  0.99561213491E+03  0.94474759288E+03  0.19491859709E+04  0.10100000352E+00 0. -1.
</event>
<event>
 5   0  0.4758908E-07  0.3738311E+04  0.7818609E-02  0.8059524E-01
       -2   -1    0    0    0  501  0.00000000000E+00  0.00000000000E+00  0.27140566070E+04  0.27140566070E+04  0.25500000920E-02 0.  1.
        2   -1    0    0  501    0  0.00000000000E+00  0.00000000000E+00 -0.12872766860E+04  0.12872766860E+04  0.25500000920E-02 0. -1.
    10030    2    1    2    0    0  0.00000000000E+00  0.00000000000E+00  0.14267799210E+04  0.40013332929E+04  0.37383107386E+04 0.  0.
        2    1    3    3  502    0  0.67962754750E+03  0.12781385999E+04  0.19790454800E+04  0.24519691873E+04  0.25500000920E-02 0.  1.
       -2    1    3    3    0  502 -0.67962754750E+03 -0.12781385999E+04 -0.55226555895E+03  0.15493641056E+04  0.25500000920E-02 0. -1.
</event>
<event>
 5   0  0.4687817E-07  0.3720539E+04  0.7818609E-02  0.8063425E-01
        2   -1    0    0  501    0  0.00000000000E+00  0.00000000000E+00  0.11052866764E+04  0.11052866764E+04  0.25500000920E-02 0. -1.
       -2   -1    0    0    0  501  0.00000000000E+00  0.00000000000E+00 -0.31309551759E+04  0.31309551759E+04  0.25500000920E-02 0.  1.
    10030    2    1    2    0    0  0.00000000000E+00  0.00000000000E+00 -0.20256684995E+04  0.42362418523E+04  0.37205392299E+04 0.  0.
        4    1    3    3  502    0  0.22019297487E+03 -0.12018357088E+04  0.58435036818E+03  0.13543858323E+04  0.12699999809E+01 0. -1.
       -4    1    3    3    0  502 -0.22019297487E+03  0.12018357088E+04 -0.26100188677E+04  0.28818560199E+04  0.12699999809E+01 0.  1.
</event>
<event>
 5   0  0.1496000E-07  0.3724055E+04  0.7818609E-02  0.8062652E-01
        1   -1    0    0  501    0  0.00000000000E+00  0.00000000000E+00  0.18473693831E+04  0.18473693831E+04  0.50400001928E-02 0. -1.
       -1   -1    0    0    0  501  0.00000000000E+00  0.00000000000E+00 -0.18768018294E+04  0.18768018294E+04  0.50400001928E-02 0.  1.
    10030    2    1    2    0    0  0.00000000000E+00  0.00000000000E+00 -0.29432446245E+02  0.37241712125E+04  0.37240549071E+04 0.  0.
        2    1    3    3  502    0  0.13522535584E+04 -0.12799370868E+04 -0.32538260480E+02  0.18622264553E+04  0.25500000920E-02 0. -1.
       -2    1    3    3    0  502 -0.13522535584E+04  0.12799370868E+04  0.31058142356E+01  0.18619447571E+04  0.25500000920E-02 0.  1.
</event>
<event>
 5   0  0.1496000E-07  0.3702898E+04  0.7818609E-02  0.8067320E-01
        1   -1    0    0  501    0  0.00000000000E+00  0.00000000000E+00  0.14534055342E+04  0.14534055342E+04  0.50400001928E-02 0.  1.
       -1   -1    0    0    0  501  0.00000000000E+00  0.00000000000E+00 -0.23585041366E+04  0.23585041366E+04  0.50400001928E-02 0. -1.
    10030    2    1    2    0    0  0.00000000000E+00  0.00000000000E+00 -0.90509860238E+03  0.38119096708E+04  0.37028977650E+04 0.  0.
        5    1    3    3  502    0  0.38389963259E+03 -0.71866763249E+03 -0.21640151264E+04  0.23123247288E+04  0.46999998093E+01 0. -1.
       -5    1    3    3    0  502 -0.38389963259E+03  0.71866763249E+03  0.12589165240E+04  0.14995849420E+04  0.46999998093E+01 0.  1.
</event>
<event>
 5   0  0.1496000E-07  0.3661647E+04  0.7818609E-02  0.8076515E-01
       -1   -1    0    0    0  501  0.00000000000E+00  0.00000000000E+00  0.21201812516E+04  0.21201812516E+04  0.50400001928E-02 0. -1.
        1   -1    0    0  501    0  0.00000000000E+00  0.00000000000E+00 -0.15809566500E+04  0.15809566500E+04  0.50400001928E-02 0.  1.
    10030    2    1    2    0    0  0.00000000000E+00  0.00000000000E+00  0.53922460164E+03  0.37011379016E+04  0.36616469786E+04 0.  0.
        2    1    3    3  502    0  0.12373927967E+04  0.85158188893E+03 -0.78837691287E+03  0.16964288384E+04  0.25500000920E-02 0.  1.
       -2    1    3    3    0  502 -0.12373927967E+04 -0.85158188893E+03  0.13276015145E+04  0.20047090632E+04  0.25500000920E-02 0. -1.
</event>
<event>
 5   0  0.4758908E-07  0.3738002E+04  0.7818609E-02  0.8059592E-01
        2   -1    0    0  501    0  0.00000000000E+00  0.00000000000E+00  0.24679028194E+04  0.24679028194E+04  0.25500000920E-02 0. -1.
       -2   -1    0    0    0  501  0.00000000000E+00  0.00000000000E+00 -0.14154387499E+04  0.14154387499E+04  0.25500000920E-02 0.  1.
    10030    2    1    2    0    0  0.00000000000E+00  0.00000000000E+00  0.10524640695E+04  0.38833415693E+04  0.37380022908E+04 0.  0.
        2    1    3    3  502    0  0.13705907284E+04 -0.34565525455E+03 -0.74408212443E+03  0.15973899673E+04  0.25500000920E-02 0.  1.
       -2    1    3    3    0  502 -0.13705907284E+04  0.34565525455E+03  0.17965461939E+04  0.22859516020E+04  0.25500000920E-02 0. -1.
</event>
<event>
 5   0  0.4793557E-07  0.3716957E+04  0.7818609E-02  0.8064214E-01
        2   -1    0    0  501    0  0.00000000000E+00  0.00000000000E+00  0.22130430209E+04  0.22130430209E+04  0.25500000920E-02 0. -1.
       -2   -1    0    0    0  501  0.00000000000E+00  0.00000000000E+00 -0.15607205571E+04  0.15607205571E+04  0.25500000920E-02 0.  1.
    10030    2    1    2    0    0  0.00000000000E+00  0.00000000000E+00  0.65232246377E+03  0.37737635780E+04  0.37169566780E+04 0.  0.
        3    1    3    3  502    0  0.93174350201E+03  0.10435917375E+04 -0.91593807110E+03  0.16721758964E+04  0.10100000352E+00 0.  1.
       -3    1    3    3    0  502 -0.93174350201E+03 -0.10435917375E+04  0.15682605349E+04  0.21015876816E+04  0.10100000352E+00 0. -1.
</event>
<event>
 5   0  0.4758908E-07  0.3605181E+04  0.7818609E-02  0.8089306E-01
       -2   -1    0    0    0  501  0.00000000000E+00  0.00000000000E+00  0.25245381134E+04  0.25245381134E+04  0.25500000920E-02 0. -1.
        2   -1    0    0  501    0  0.00000000000E+00  0.00000000000E+00 -0.12870998004E+04  0.12870998004E+04  0.25500000920E-02 0.  1.
    10030    2    1    2    0    0  0.00000000000E+00  0.00000000000E+00  0.12374383130E+04  0.38116379139E+04  0.36051809952E+04 0.  0.
        2    1    3    3  502    0  0.39413873660E+03 -0.96586038930E+03 -0.93553516625E+03  0.14012343425E+04  0.25500000920E-02 0.  1.
       -2    1    3    3    0  502 -0.39413873660E+03  0.96586038930E+03  0.21729734792E+04  0.24104035714E+04  0.25500000920E-02 0. -1.
</event>
<event>
 5   0  0.1496000E-07  0.3754360E+04  0.7818609E-02  0.8056021E-01
       -1   -1    0    0    0  501  0.00000000000E+00  0.00000000000E+00  0.13014915043E+04  0.13014915044E+04  0.50400001928E-02 0.  1.
        1   -1    0    0  501    0  0.00000000000E+00  0.00000000000E+00 -0.27075129451E+04  0.27075129451E+04  0.50400001928E-02 0. -1.
    10030    2    1    2    0    0  0.00000000000E+00  0.00000000000E+00 -0.14060214408E+04  0.40090044495E+04  0.37543601830E+04 0.  0.
        3    1    3    3  502    0 -0.17398687441E+03  0.13935369415E+04 -0.20331247412E+04  0.24709943066E+04  0.10100000352E+00 0. -1.
       -3    1    3    3    0  502  0.17398687441E+03 -0.13935369415E+04  0.62710330048E+03  0.15380101428E+04  0.10100000352E+00 0.  1.
</event>
<event>
 5   0  0.1496000E-07  0.3684969E+04  0.7818609E-02  0.8071301E-01
        1   -1    0    0  501    0  0.00000000000E+00  0.00000000000E+00  0.23908025370E+04  0.23908025370E+04  0.50400001928E-02 0. -1.
       -1   -1    0    0    0  501  0.00000000000E+00  0.00000000000E+00 -0.14199202662E+04  0.14199202662E+04  0.50400001928E-02 0.  1.
    10030    2    1    2    0    0  0.00000000000E+00  0.00000000000E+00  0.97088227079E+03  0.38107228033E+04  0.36849689143E+04 0.  0.
        5    1    3    3  502    0 -0.88231179032E+03  0.15973110163E+03  0.21499470470E+04  0.23294382402E+04  0.46999998093E+01 0. -1.
       -5    1    3    3    0  502  0.88231179032E+03 -0.15973110163E+03 -0.11790647762E+04  0.14812845630E+04  0.46999998093E+01 0.  1.
</event>
<event>
 5   0  0.4857514E-07  0.3775269E+04  0.7818609E-02  0.8051483E-01
        2   -1    0    0  501    0  0.00000000000E+00  0.00000000000E+00  0.11911530448E+04  0.11911530448E+04  0.25500000920E-02 0. -1.
       -2   -1    0    0    0  501  0.00000000000E+00  0.00000000000E+00 -0.29913574482E+04  0.29913574482E+04  0.25500000920E-02 0.  1.
    10030    2    1    2    0    0  0.00000000000E+00  0.00000000000E+00 -0.18002044034E+04  0.41825104930E+04  0.37752692792E+04 0.  0.
        5    1    3    3  502    0  0.10137687889E+04  0.14350929834E+04 -0.16643912578E+04  0.24202147378E+04  0.46999998093E+01 0. -1.
       -5    1    3    3    0  502 -0.10137687889E+04 -0.14350929834E+04 -0.13581314559E+03  0.17622957552E+04  0.46999998093E+01 0.  1.
</event>
<event>
 5   0  0.1496000E-07  0.3680497E+04  0.7818609E-02  0.8072298E-01
       -1   -1    0    0    0  501  0.00000000000E+00  0.00000000000E+00  0.13885560966E+04  0.13885560966E+04  0.50400001928E-02 0. -1.
        1   -1    0    0  501    0  0.00000000000E+00  0.00000000000E+00 -0.24388752687E+04  0.24388752687E+04  0.50400001928E-02 0.  1.
    10030    2    1    2    0    0  0.00000000000E+00  0.00000000000E+00 -0.10503191721E+04  0.38274313653E+04  0.36804973160E+04 0.  0.
        5    1    3    3  502    0  0.79031304858E+02  0.43129434155E+03  0.13334327975E+04  0.14036829669E+04  0.46999998093E+01 0. -1.
       -5    1    3    3    0  502 -0.79031304858E+02 -0.43129434155E+03 -0.23837519696E+04  0.24237483984E+04  0.46999998093E+01 0.  1.
</event>
<event>
 5   0  0.1496000E-07  0.3683498E+04  0.7818609E-02  0.8071629E-01
       -1   -1    0    0    0  501  0.00000000000E+00  0.00000000000E+00  0.18435122792E+04  0.18435122792E+04  0.50400001928E-02 0.  1.
        1   -1    0    0  501    0  0.00000000000E+00  0.00000000000E+00 -0.18399871100E+04  0.18399871101E+04  0.50400001928E-02 0. -1.
    10030    2    1    2    0    0  0.00000000000E+00  0.00000000000E+00  0.35251691255E+01  0.36834993892E+04  0.36834977024E+04 0.  0.
        2    1    3    3  502    0  0.68774083278E+03 -0.57009722898E+03 -0.16088406885E+04  0.18402083210E+04  0.25500000920E-02 0. -1.
       -2    1    3    3    0  502 -0.68774083278E+03  0.57009722898E+03  0.16123658576E+04  0.18432910683E+04  0.25500000920E-02 0.  1.
</event>
<event>
 5   0  0.4857514E-07  0.3685018E+04  0.7818609E-02  0.8071290E-01
        2   -1    0    0  501    0  0.00000000000E+00  0.00000000000E+00  0.26221267811E+04  0.26221267811E+04  0.25500000920E-02 0.  1.
       -2   -1    0    0    0  501  0.00000000000E+00  0.00000000000E+00 -0.12946891274E+04  0.12946891274E+04  0.25500000920E-02 0. -1.
    10030    2    1    2    0    0  0.00000000000E+00  0.00000000000E+00  0.13274376538E+04  0.39168159085E+04  0.36850177932E+04 0.  0.
        5    1    3    3  502    0  0.95083732055E+03 -0.14963467382E+04  0.11969442226E+04  0.21391219538E+04  0.46999998093E+01 0. -1.
       -5    1    3    3    0  502 -0.95083732055E+03  0.14963467382E+04  0.13049343111E+03  0.17776939547E+04  0.46999998093E+01 0.  1.
</event>
<event>
 5   0  0.1496287E-07  0.3695061E+04  0.7818609E-02  0.8069057E-01
        1   -1    0    0  501    0  0.00000000000E+00  0.00000000000E+00  0.20836024930E+04  0.20836024930E+04  0.50400001928E-02 0.  1.
       -1   -1    0    0    0  501  0.00000000000E+00  0.00000000000E+00 -0.16382055112E+04  0.16382055112E+04  0.50400001928E-02 0. -1.
    10030    2    1    2    0    0  0.00000000000E+00  0.00000000000E+00  0.44539698183E+03  0.37218080042E+04  0.36950610751E+04 0.  0.
        1    1    3    3  502    0 -0.11438599835E+04 -0.10414218485E+04  0.12401560055E+04  0.19826653895E+04  0.50400001928E-02 0.  1.
       -1    1    3    3    0  502  0.11438599835E+04  0.10414218485E+04 -0.79475902371E+03  0.17391426147E+04  0.50400001928E-02 0. -1.
</event>
<event>
 5   0  0.4793557E-07  0.3708544E+04  0.7818609E-02  0.8066071E-01
        2   -1    0    0  501    0  0.00000000000E+00  0.00000000000E+00  0.22723836481E+04  0.22723836481E+04  0.25500000920E-02 0. -1.
       -2   -1    0    0    0  501  0.00000000000E+00  0.00000000000E+00 -0.15130916514E+04  0.15130916514E+04  0.25500000920E-02 0.  1.
    10030    2    1    2    0    0  0.00000000000E+00  0.00000000000E+00  0.75929199670E+03  0.37854752995E+04  0.37085440414E+04 0.  0.
        3    1    3    3  502    0  0.64797432838E+03  0.78883717159E+03  0.19597206019E+04  0.22096695819E+04  0.10100000352E+00 0. -1.
       -3    1    3    3    0  502 -0.64797432838E+03 -0.78883717159E+03 -0.12004286052E+04  0.15758057177E+04  0.10100000352E+00 0.  1.
</event>
<event>
 5   0  0.4824268E-07  0.3717801E+04  0.7818609E-02  0.8064028E-01
        2   -1    0    0  501    0  0.00000000000E+00  0.00000000000E+00  0.18935856669E+04  0.18935856669E+04  0.25500000920E-02 0.  1.
       -2   -1    0    0    0  501  0.00000000000E+00  0.00000000000E+00 -0.18248503297E+04  0.18248503297E+04  0.25500000920E-02 0. -1.
    10030    2    1    2    0    0  0.00000000000E+00  0.00000000000E+00  0.68735337188E+02  0.37184359966E+04  0.37178006555E+04 0.  0.
        1    1    3    3  502    0 -0.10037836957E+04  0.11006264947E+04  0.11465604163E+04  0.18797768955E+04  0.50400001928E-02 0.  1.
       -1    1    3    3    0  502  0.10037836957E+04 -0.11006264947E+04 -0.10778250791E+04  0.18386591011E+04  0.50400001928E-02 0. -1.
</event>
<event>
 5   0  0.4793557E-07  0.3693486E+04  0.7818609E-02  0.8069407E-01
       -2   -1    0    0    0  501  0.00000000000E+00  0.00000000000E+00  0.21487001661E+04  0.21487001661E+04  0.25500000920E-02 0.  1.
        2   -1    0    0  501    0  0.00000000000E+00  0.00000000000E+00 -0.15872202132E+04  0.15872202132E+04  0.25500000920E-02 0. -1.
    10030    2    1    2    0    0  0.00000000000E+00  0.00000000000E+00  0.56147995296E+03  0.37359203793E+04  0.36934863399E+04 0.  0.
        3    1    3    3  502    0 -0.32130428727E+03  0.26584486831E+03 -0.15389705233E+04  0.15944717686E+04  0.10100000352E+00 0. -1.
       -3    1    3    3    0  502  0.32130428727E+03 -0.26584486831E+03  0.21004504762E+04  0.21414486107E+04  0.10100000352E+00 0.  1.
</event>
<event>
 5   0  0.1496000E-07  0.3780391E+04  0.7818609E-02  0.8050376E-01
        1   -1    0    0  501    0  0.00000000000E+00  0.00000000000E+00  0.22253123628E+04  0.22253123628E+04  0.50400001928E-02 0. -1.
       -1   -1    0    0    0  501  0.00000000000E+00  0.00000000000E+00 -0.16055451498E+04  0.16055451498E+04  0.50400001928E-02 0.  1.
    10030    2    1    2    0    0  0.00000000000E+00  0.00000000000E+00  0.61976721300E+03  0.38308575126E+04  0.37803912342E+04 0.  0.
        2    1    3    3  502    0  0.76843390120E+03  0.68363938570E+03 -0.12971576911E+04  0.16554369652E+04  0.25500000920E-02 0.  1.
       -2    1    3    3    0  502 -0.76843390120E+03 -0.68363938570E+03  0.19169249041E+04  0.21754205474E+04  0.25500000920E-02 0. -1.
</event>
<event>
 5   0  0.4687817E-07  0.3694112E+04  0.7818609E-02  0.8069268E-01
       -2   -1    0    0    0  501  0.00000000000E+00  0.00000000000E+00  0.22820117692E+04  0.22820117692E+04  0.25500000920E-02 0. -1.
        2   -1    0    0  501    0  0.00000000000E+00  0.00000000000E+00 -0.14950034418E+04  0.14950034418E+04  0.25500000920E-02 0.  1.
    10030    2    1    2    0    0  0.00000000000E+00  0.00000000000E+00  0.78700832747E+03  0.37770152110E+04  0.36941117737E+04 0.  0.
        4    1    3    3  502    0 -0.95264133249E+03 -0.10499662252E+04  0.16039905967E+04  0.21407339932E+04  0.12699999809E+01 0. -1.
       -4    1    3    3    0  502  0.95264133249E+03  0.10499662252E+04 -0.81698226926E+03  0.16362812178E+04  0.12699999809E+01 0.  1.
</event>
<event>
 5   0  0.1496000E-07  0.3686307E+04  0.7818609E-02  0.8071003E-01
       -1   -1    0    0    0  501  0.00000000000E+00  0.00000000000E+00  0.16879008719E+04  0.16879008719E+04  0.50400001928E-02 0.  1.
        1   -1    0    0  501    0  0.00000000000E+00  0.00000000000E+00 -0.20126865107E+04  0.20126865107E+04  0.50400001928E-02 0. -1.
    10030    2    1    2    0    0  0.00000000000E+00  0.00000000000E+00 -0.32478563886E+03  0.37005873826E+04  0.36863072668E+04 0.  0.
        5    1    3    3  502    0  0.52718167145E+03  0.70521719892E+03 -0.17879064779E+04  0.19929584733E+04  0.46999998093E+01 0. -1.
       -5    1    3    3    0  502 -0.52718167145E+03 -0.70521719892E+03  0.14631208391E+04  0.17076289094E+04  0.46999998093E+01 0.  1.
</event>
<event>
 5   0  0.1496000E-07  0.3721963E+04  0.7818609E-02  0.8063112E-01
       -1   -1    0    0    0  501  0.00000000000E+00  0.00000000000E+00  0.16809287028E+04  0.16809287028E+04  0.50400001928E-02 0. -1.
        1   -1    0    0  501    0  0.00000000000E+00  0.00000000000E+00 -0.20603208517E+04  0.20603208517E+04  0.50400001928E-02 0.  1.
    10030    2    1    2    0    0  0.00000000000E+00  0.00000000000E+00 -0.37939214894E+03  0.37412495545E+04  0.37219631683E+04 0.  0.
        2    1    3    3  502    0  0.11610661936E+04 -0.14540243084E+04 -0.15805182304E+03  0.18674158011E+04  0.25500000920E-02 0. -1.
       -2    1    3    3    0  502 -0.11610661936E+04  0.14540243084E+04 -0.22134032589E+03  0.18738337534E+04  0.25500000920E-02 0.  1.
</event>
<event>
 5   0  0.1496000E-07  0.3750364E+04  0.7818609E-02  0.8056891E-01
       -1   -1    0    0    0  501  0.00000000000E+00  0.00000000000E+00  0.13407112001E+04  0.13407112001E+04  0.50400001928E-02 0. -1.
        1   -1    0    0  501    0  0.00000000000E+00  0.00000000000E+00 -0.26227179733E+04  0.26227179734E+04  0.50400001928E-02 0.  1.
    10030    2    1    2    0    0  0.00000000000E+00  0.00000000000E+00 -0.12820067732E+04  0.39634291735E+04  0.37503639086E+04 0.  0.
        2    1    3    3  502    0 -0.27012587911E+03 -0.14331997554E+04  0.60463574807E+03  0.15788014179E+04  0.25500000920E-02 0. -1.
       -2    1    3    3    0  502  0.27012587911E+03  0.14331997554E+04 -0.18866425213E+04  0.23846277556E+04  0.25500000920E-02 0.  1.
</event>
<event>
 5   0  0.1496000E-07  0.3740297E+04  0.7818609E-02  0.8059090E-01
        1   -1    0    0  501    0  0.00000000000E+00  0.00000000000E+00  0.13224791482E+04  0.13224791482E+04  0.50400001928E-02 0. -1.
       -1   -1    0    0    0  501  0.00000000000E+00  0.00000000000E+00 -0.26446210826E+04  0.26446210826E+04  0.50400001928E-02 0.  1.
    10030    2    1    2    0    0  0.00000000000E+00  0.00000000000E+00 -0.13221419344E+04  0.39671002307E+04  0.37402974408E+04 0.  0.
        3    1    3    3  502    0  0.91544265674E+03 -0.58617822733E+03 -0.22751286945E+04  0.25214778917E+04  0.10100000352E+00 0.  1.
       -3    1    3    3    0  502 -0.91544265674E+03  0.58617822733E+03  0.95298676005E+03  0.14456223390E+04  0.10100000352E+00 0. -1.
</event>
<event>
 5   0  0.1496000E-07  0.3653477E+04  0.7818609E-02  0.8078351E-01
       -1   -1    0    0    0  501  0.00000000000E+00  0.00000000000E+00  0.16555563553E+04  0.16555563553E+04  0.50400001928E-02 0.  1.
        1   -1    0    0  501    0  0.00000000000E+00  0.00000000000E+00 -0.20156202408E+04  0.20156202408E+04  0.50400001928E-02 0. -1.
    10030    2    1    2    0    0  0.00000000000E+00  0.00000000000E+00 -0.36006388556E+03  0.36711765961E+04  0.36534766453E+04 0.  0.
        5    1    3    3  502    0 -0.77887995998E+03  0.10440928395E+04 -0.14669265179E+04  0.19618051250E+04  0.46999998093E+01 0. -1.
       -5    1    3    3    0  502  0.77887995998E+03 -0.10440928395E+04  0.11068626323E+04  0.17093714711E+04  0.46999998093E+01 0.  1.
</event>
<event>
 5   0  0.4857514E-07  0.3716484E+04  0.7818609E-02  0.8064319E-01
        2   -1    0    0  501    0  0.00000000000E+00  0.00000000000E+00  0.27719918322E+04  0.27719918322E+04  0.25500000920E-02 0.  1.
       -2   -1    0    0    0  501  0.00000000000E+00  0.00000000000E+00 -0.12456972958E+04  0.12456972958E+04  0.25500000920E-02 0. -1.
    10030    2    1    2    0    0  0.00000000000E+00  0.00000000000E+00  0.15262945364E+04  0.40176891280E+04  0.37164836764E+04 0.  0.
        5    1    3    3  502    0  0.51244076248E+03  0.17844824265E+04  0.67893960299E+03  0.19768546078E+04  0.46999998093E+01 0.  1.
       -5    1    3    3    0  502 -0.51244076248E+03 -0.17844824265E+04  0.84735493343E+03  0.20408345202E+04  0.46999998093E+01 0. -1.
</event>
<event>
 5   0  0.1496000E-07  0.3667076E+04  0.7818609E-02  0.8075298E-01
       -1   -1    0    0    0  501  0.00000000000E+00  0.00000000000E+00  0.18997349313E+04  0.18997349313E+04  0.50400001928E-02 0. -1.
        1   -1    0    0  501    0  0.00000000000E+00  0.00000000000E+00 -0.17696475035E+04  0.17696475035E+04  0.50400001928E-02 0.  1.
    10030    2    1    2    0    0  0.00000000000E+00  0.00000000000E+00  0.13008742783E+03  0.36693824348E+04  0.36670757715E+04 0.  0.
        3    1    3    3  502    0 -0.11706345700E+04  0.51933384430E+03 -0.12479433248E+04  0.17881430285E+04  0.10100000352E+00 0.  1.
       -3    1    3    3    0  502  0.11706345700E+04 -0.51933384430E+03  0.13780307526E+04  0.18812394063E+04  0.10100000352E+00 0. -1.
</event>
<event>
 5   0  0.1496000E-07  0.4014072E+04  0.7818609E-02  0.8001714E-01
        1   -1    0    0  501    0  0.00000000000E+00  0.00000000000E+00  0.25568570013E+04  0.25568570013E+04  0.50400001928E-02 0.  1.
       -1   -1    0    0    0  501  0.00000000000E+00  0.00000000000E+00 -0.15754476405E+04  0.15754476405E+04  0.50400001928E-02 0. -1.
    10030    2    1    2    0    0  0.00000000000E+00  0.00000000000E+00  0.98140936088E+03  0.41323046418E+04  0.40140724108E+04 0.  0.
        5    1    3    3  502    0 -0.34932172417E+03  0.19126546645E+04 -0.21854786722E+02  0.19444210589E+04  0.46999998093E+01 0. -1.
       -5    1    3    3    0  502  0.34932172417E+03 -0.19126546645E+04  0.10032641476E+04  0.21878835829E+04  0.46999998093E+01 0.  1.
</event>
<event>
 5   0  0.1522273E-07  0.3678254E+04  0.7818609E-02  0.8072798E-01
       -1   -1    0    0    0  501  0.00000000000E+00  0.00000000000E+00  0.14814292090E+04  0.14814292090E+04  0.50400001928E-02 0. -1.
        1   -1    0    0  501    0  0.00000000000E+00  0.00000000000E+00 -0.22831920541E+04  0.22831920541E+04  0.50400001928E-02 0.  1.
    10030    2    1    2    0    0  0.00000000000E+00  0.00000000000E+00 -0.80176284505E+03  0.37646212631E+04  0.36782536067E+04 0.  0.
        4    1    3    3  502    0  0.52810786632E+03  0.17497456677E+04 -0.19143525833E+03  0.18377042447E+04  0.12699999809E+01 0. -1.
       -4    1    3    3    0  502 -0.52810786632E+03 -0.17497456677E+04 -0.61032758672E+03  0.19269170184E+04  0.12699999809E+01 0.  1.
</event>
<event>
 5   0  0.1496000E-07  0.3759386E+04  0.7818609E-02  0.8054927E-01
        1   -1    0    0  501    0  0.00000000000E+00  0.00000000000E+00  0.16247343731E+04  0.16247343731E+04  0.50400001928E-02 0.  1.
       -1   -1    0    0    0  501  0.00000000000E+00  0.00000000000E+00 -0.21746605099E+04  0.21746605099E+04  0.50400001928E-02 0. -1.
    10030    2    1    2    0    0  0.00000000000E+00  0.00000000000E+00 -0.54992613676E+03  0.37993948830E+04  0.37593859500E+04 0.  0.
        2    1    3    3  502    0 -0.13857911734E+04  0.78359420095E+03  0.73507714043E+03  0.17535037640E+04  0.25500000920E-02 0.  1.
       -2    1    3    3    0  502  0.13857911734E+04 -0.78359420095E+03 -0.12850032772E+04  0.20458911189E+04  0.25500000920E-02 0. -1.
</event>
<event>
 5   0  0.4758908E-07  0.3679019E+04  0.7818609E-02  0.8072627E-01
        2   -1    0    0  501    0  0.00000000000E+00  0.00000000000E+00  0.14260310357E+04  0.14260310357E+04  0.25500000920E-02 0. -1.
       -2   -1    0    0    0  501  0.00000000000E+00  0.00000000000E+00 -0.23728761461E+04  0.23728761461E+04  0.25500000920E-02 0.  1.
    10030    2    1    2    0    0  0.00000000000E+00  0.00000000000E+00 -0.94684511047E+03  0.37989071818E+04  0.36790189063E+04 0.  0.
        2    1    3    3  502    0 -0.15466982269E+04 -0.13732783008E+03  0.54495154395E+03  0.16456325602E+04  0.25500000920E-02 0. -1.
       -2    1    3    3    0  502  0.15466982269E+04  0.13732783008E+03 -0.14917966544E+04  0.21532746216E+04  0.25500000920E-02 0.  1.
</event>
<event>
 5   0  0.4793557E-07  0.3673654E+04  0.7818609E-02  0.8073826E-01
        2   -1    0    0  501    0  0.00000000000E+00  0.00000000000E+00  0.21155254169E+04  0.21155254169E+04  0.25500000920E-02 0.  1.
       -2   -1    0    0    0  501  0.00000000000E+00  0.00000000000E+00 -0.15948442473E+04  0.15948442473E+04  0.25500000920E-02 0. -1.
    10030    2    1    2    0    0  0.00000000000E+00  0.00000000000E+00  0.52068116956E+03  0.37103696642E+04  0.36736540617E+04 0.  0.
        3    1    3    3  502    0 -0.16990354760E+03  0.99055150015E+03 -0.12925150730E+04  0.16372705073E+04  0.10100000352E+00 0. -1.
       -3    1    3    3    0  502  0.16990354760E+03 -0.99055150015E+03  0.18131962426E+04  0.20730991569E+04  0.10100000352E+00 0.  1.
</event>
<event>
 5   0  0.4687817E-07  0.3655353E+04  0.7818609E-02  0.8077929E-01
        2   -1    0    0  501    0  0.00000000000E+00  0.00000000000E+00  0.21715779116E+04  0.21715779116E+04  0.25500000920E-02 0.  1.
       -2   -1    0    0    0  501  0.00000000000E+00  0.00000000000E+00 -0.15382370772E+04  0.15382370772E+04  0.25500000920E-02 0. -1.
    10030    2    1    2    0    0  0.00000000000E+00  0.00000000000E+00  0.63334083445E+03  0.37098149888E+04  0.36553531482E+04 0.  0.
        4    1    3    3  502    0 -0.66378495220E+02  0.17010819240E+04  0.99164647212E+03  0.19701396284E+04  0.12699999809E+01 0.  1.
       -4    1    3    3    0  502  0.66378495220E+02 -0.17010819240E+04 -0.35830563768E+03  0.17396753604E+04  0.12699999809E+01 0. -1.
</event>
<event>
 5   0  0.1496000E-07  0.3648335E+04  0.7818609E-02  0.8079509E-01
       -1   -1    0    0    0  501  0.00000000000E+00  0.00000000000E+00  0.10336347435E+04  0.10336347436E+04  0.50400001928E-02 0.  1.
        1   -1    0    0  501    0  0.00000000000E+00  0.00000000000E+00 -0.32193071944E+04  0.32193071944E+04  0.50400001928E-02 0. -1.
    10030    2    1    2    0    0  0.00000000000E+00  0.00000000000E+00 -0.21856724508E+04  0.42529419379E+04  0.36483353828E+04 0.  0.
        5    1    3    3  502    0 -0.17513504799E+04  0.29693830052E+03 -0.15765259962E+04  0.23750488762E+04  0.46999998093E+01 0. -1.
       -5    1    3    3    0  502  0.17513504799E+04 -0.29693830052E+03 -0.60914645464E+03  0.18778930617E+04  0.46999998093E+01 0.  1.
</event>
<event>
 5   0  0.4824268E-07  0.3688481E+04  0.7818609E-02  0.8070519E-01
        2   -1    0    0  501    0  0.00000000000E+00  0.00000000000E+00  0.20389242332E+04  0.20389242332E+04  0.25500000920E-02 0.  1.
       -2   -1    0    0    0  501  0.00000000000E+00  0.00000000000E+00 -0.16681456000E+04  0.16681456000E+04  0.25500000920E-02 0. -1.
    10030    2    1    2    0    0  0.00000000000E+00  0.00000000000E+00  0.37077863317E+03  0.37070698332E+04  0.36884807108E+04 0.  0.
        1    1    3    3  502    0  0.16746523522E+03 -0.13073087295E+04  0.14818991099E+04  0.19832109548E+04  0.50400001928E-02 0.  1.
       -1    1    3    3    0  502 -0.16746523522E+03  0.13073087295E+04 -0.11111204767E+04  0.17238588785E+04  0.50400001928E-02 0. -1.
</event>
<event>
 5   0  0.4857514E-07  0.3644973E+04  0.7818609E-02  0.8080267E-01
       -2   -1    0    0    0  501  0.00000000000E+00  0.00000000000E+00  0.11930279679E+04  0.11930279679E+04  0.25500000920E-02 0.  1.
        2   -1    0    0  501    0  0.00000000000E+00  0.00000000000E+00 -0.27840562933E+04  0.27840562933E+04  0.25500000920E-02 0. -1.
    10030    2    1    2    0    0  0.00000000000E+00  0.00000000000E+00 -0.15910283254E+04  0.39770842612E+04  0.36449729887E+04 0.  0.
        5    1    3    3  502    0  0.16578972779E+04  0.52539062535E+02 -0.16193248244E+04  0.23181067090E+04  0.46999998093E+01 0. -1.
       -5    1    3    3    0  502 -0.16578972779E+04 -0.52539062535E+02  0.28296499013E+02  0.16589775523E+04  0.46999998093E+01 0.  1.
</event>
<event>
 5   0  0.1522273E-07  0.3710984E+04  0.7818609E-02  0.8065532E-01
        1   -1    0    0  501    0  0.00000000000E+00  0.00000000000E+00  0.13751948420E+04  0.13751948421E+04  0.50400001928E-02 0. -1.
       -1   -1    0    0    0  501  0.00000000000E+00  0.00000000000E+00 -0.25035364687E+04  0.25035364687E+04  0.50400001928E-02 0.  1.
    10030    2    1    2    0    0  0.00000000000E+00  0.00000000000E+00 -0.11283416266E+04  0.38787313107E+04  0.37109839335E+04 0.  0.
        4    1    3    3  502    0 -0.14901557640E+04 -0.11043702204E+04 -0.51035513245E+03  0.19237104145E+04  0.12699999809E+01 0. -1.
       -4    1    3    3    0  502  0.14901557640E+04  0.11043702204E+04 -0.61798649416E+03  0.19550208962E+04  0.12699999809E+01 0.  1.
</event>
<event>
 5   0  0.1496000E-07  0.3681299E+04  0.7818609E-02  0.8072119E-01
        1   -1    0    0  501    0  0.00000000000E+00  0.00000000000E+00  0.15209868328E+04  0.15209868328E+04  0.50400001928E-02 0. -1.
       -1   -1    0    0    0  501  0.00000000000E+00  0.00000000000E+00 -0.22274945358E+04  0.22274945358E+04  0.50400001928E-02 0.  1.
    10030    2    1    2    0    0  0.00000000000E+00  0.00000000000E+00 -0.70650770301E+03  0.37484813686E+04  0.36812986074E+04 0.  0.
        2    1    3    3  502    0  0.82190197820E+03 -0.15678585711E+04  0.16021719625E+03  0.17774624921E+04  0.25500000920E-02 0. -1.
       -2    1    3    3    0  502 -0.82190197820E+03  0.15678585711E+04 -0.86672489926E+03  0.19710188766E+04  0.25500000920E-02 0.  1.
</event>
<event>
 5   0  0.1496000E-07  0.3629305E+04  0.7818609E-02  0.8083812E-01
        1   -1    0    0  501    0  0.00000000000E+00  0.00000000000E+00  0.11738384062E+04  0.11738384062E+04  0.50400001928E-02 0. -1.
       -1   -1    0    0    0  501  0.00000000000E+00  0.00000000000E+00 -0.28052960029E+04  0.28052960029E+04  0.50400001928E-02 0.  1.
    10030    2    1    2    0    0  0.00000000000E+00  0.00000000000E+00 -0.16314575968E+04  0.39791344091E+04  0.36293052718E+04 0.  0.
        2    1    3    3  502    0  0.14972222451E+04 -0.77426929154E+03 -0.15526765290E+04  0.22917180871E+04  0.25500000920E-02 0.  1.
       -2    1    3    3    0  502 -0.14972222451E+04  0.77426929154E+03 -0.78781067742E+02  0.16874163220E+04  0.25500000920E-02 0. -1.
</event>
<event>
 5   0  0.1496000E-07  0.3706949E+04  0.7818609E-02  0.8066424E-01
       -1   -1    0    0    0  501  0.00000000000E+00  0.00000000000E+00  0.12749742200E+04  0.12749742200E+04  0.50400001928E-02 0. -1.
        1   -1    0    0  501    0  0.00000000000E+00  0.00000000000E+00 -0.26944602227E+04  0.26944602228E+04  0.50400001928E-02 0.  1.
    10030    2    1    2    0    0  0.00000000000E+00  0.00000000000E+00 -0.14194860027E+04  0.39694344428E+04  0.37069487835E+04 0.  0.
        5    1    3    3  502    0  0.80548003758E+03  0.10712839737E+04 -0.20805868340E+04  0.24749365865E+04  0.46999998093E+01 0.  1.
       -5    1    3    3    0  502 -0.80548003758E+03 -0.10712839737E+04  0.66110083129E+03  0.14944978563E+04  0.46999998093E+01 0. -1.
</event>
<event>
 5   0  0.1522273E-07  0.3655802E+04  0.7818609E-02  0.8077828E-01
       -1   -1    0    0    0  501  0.00000000000E+00  0.00000000000E+00  0.26421842373E+04  0.26421842373E+04  0.50400001928E-02 0.  1.
        1   -1    0    0  501    0  0.00000000000E+00  0.00000000000E+00 -0.12645682859E+04  0.12645682859E+04  0.50400001928E-02 0. -1.
    10030    2    1    2    0    0  0.00000000000E+00  0.00000000000E+00  0.13776159514E+04  0.39067525232E+04  0.36558021785E+04 0.  0.
        4    1    3    3  502    0  0.65735368343E+03  0.98163792403E+03 -0.80174752214E+03  0.14277701430E+04  0.12699999809E+01 0.  1.
       -4    1    3    3    0  502 -0.65735368343E+03 -0.98163792403E+03  0.21793634735E+04  0.24789823802E+04  0.12699999809E+01 0. -1.
</event>
<event>
 5   0  0.4758908E-07  0.3704544E+04  0.7818609E-02  0.8066956E-01
        2   -1    0    0  501    0  0.00000000000E+00  0.00000000000E+00  0.23788015721E+04  0.23788015721E+04  0.25500000920E-02 0. -1.
       -2   -1    0    0    0  501  0.00000000000E+00  0.00000000000E+00 -0.14422855867E+04  0.14422855867E+04  0.25500000920E-02 0.  1.
    10030    2    1    2    0    0  0.00000000000E+00  0.00000000000E+00  0.93651598540E+03  0.38210871588E+04  0.37045438160E+04 0.  0.
        2    1    3    3  502    0  0.14607986356E+03 -0.52782569051E+03 -0.13568635681E+04  0.14632217974E+04  0.25500000920E-02 0.  1.
       -2    1    3    3    0  502 -0.14607986356E+03  0.52782569051E+03  0.22933795535E+04  0.23578653614E+04  0.25500000920E-02 0. -1.
</event>
<event>
 5   0  0.4758908E-07  0.3683594E+04  0.7818609E-02  0.8071607E-01
       -2   -1    0    0    0  501  0.00000000000E+00  0.00000000000E+00  0.21844410763E+04  0.21844410763E+04  0.25500000920E-02 0.  1.
        2   -1    0    0  501    0  0.00000000000E+00  0.00000000000E+00 -0.15528987046E+04  0.15528987046E+04  0.25500000920E-02 0. -1.
    10030    2    1    2    0    0  0.00000000000E+00  0.00000000000E+00  0.63154237173E+03  0.37373397809E+04  0.36835937440E+04 0.  0.
        2    1    3    3  502    0  0.14784936250E+04  0.95566693868E+03 -0.23339611661E+03  0.17758706158E+04  0.25500000920E-02 0. -1.
       -2    1    3    3    0  502 -0.14784936250E+04 -0.95566693868E+03  0.86493848834E+03  0.19614691651E+04  0.25500000920E-02 0.  1.
</event>
<event>
 5   0  0.4793557E-07  0.3607078E+04  0.7818609E-02  0.8088872E-01
       -2   -1    0    0    0  501  0.00000000000E+00  0.00000000000E+00  0.12596479139E+04  0.12596479139E+04  0.25500000920E-02 0.  1.
        2   -1    0    0  501    0  0.00000000000E+00  0.00000000000E+00 -0.25822713193E+04  0.25822713193E+04  0.25500000920E-02 0. -1.
    10030    2    1    2    0    0  0.00000000000E+00  0.00000000000E+00 -0.13226234054E+04  0.38419192332E+04  0.36070778647E+04 0.  0.
        3    1    3    3  502    0  0.13548477675E+04 -0.10509349515E+04 -0.65731936642E+02  0.17159246613E+04  0.10100000352E+00 0. -1.
       -3    1    3    3    0  502 -0.13548477675E+04  0.10509349515E+04 -0.12568914688E+04  0.21259945719E+04  0.10100000352E+00 0.  1.
</event>
<event>
 5   0  0.1496287E-07  0.3738361E+04  0.7818609E-02  0.8059513E-01
       -1   -1    0    0    0  501  0.00000000000E+00  0.00000000000E+00  0.20247935175E+04  0.20247935175E+04  0.50400001928E-02 0. -1.
        1   -1    0    0  501    0  0.00000000000E+00  0.00000000000E+00 -0.17255265178E+04  0.17255265178E+04  0.50400001928E-02 0.  1.
    10030    2    1    2    0    0  0.00000000000E+00  0.00000000000E+00  0.29926699973E+03  0.37503200353E+04  0.37383605538E+04 0.  0.
        1    1    3    3  502    0  0.14623678257E+03  0.70528407995E+03  0.18799772435E+04  0.20132375086E+04  0.50400001928E-02 0. -1.
       -1    1    3    3    0  502 -0.14623678257E+03 -0.70528407995E+03 -0.15807102437E+04  0.17370825267E+04  0.50400001928E-02 0.  1.
</event>
<event>
 5   0  0.1496000E-07  0.3755993E+04  0.7818609E-02  0.8055665E-01
       -1   -1    0    0    0  501  0.00000000000E+00  0.00000000000E+00  0.32809947196E+04  0.32809947196E+04  0.50400001928E-02 0. -1.
        1   -1    0    0  501    0  0.00000000000E+00  0.00000000000E+00 -0.10749392608E+04  0.10749392608E+04  0.50400001928E-02 0.  1.
    10030    2    1    2    0    0  0.00000000000E+00  0.00000000000E+00  0.22060554588E+04  0.43559339805E+04  0.37559925659E+04 0.  0.
        2    1    3    3  502    0  0.27544429905E+03  0.18564082701E+04  0.10231089163E+04  0.21374922414E+04  0.25500000920E-02 0.  1.
       -2    1    3    3    0  502 -0.27544429905E+03 -0.18564082701E+04  0.11829465425E+04  0.22184417391E+04  0.25500000920E-02 0. -1.
</event>
<event>
 5   0  0.1496000E-07  0.3701956E+04  0.7818609E-02  0.8067528E-01
        1   -1    0    0  501    0  0.00000000000E+00  0.00000000000E+00  0.20568215715E+04  0.20568215715E+04  0.50400001928E-02 0. -1.
       -1   -1    0    0    0  501  0.00000000000E+00  0.00000000000E+00 -0.16657351913E+04  0.16657351913E+04  0.50400001928E-02 0.  1.
    10030    2    1    2    0    0  0.00000000000E+00  0.00000000000E+00  0.39108638020E+03  0.37225567628E+04  0.37019562795E+04 0.  0.
        2    1    3    3  502    0  0.95348798049E+03  0.34713697268E+03  0.17522135127E+04  0.20248198934E+04  0.25500000920E-02 0. -1.
       -2    1    3    3    0  502 -0.95348798049E+03 -0.34713697268E+03 -0.13611271325E+04  0.16977368694E+04  0.25500000920E-02 0.  1.
</event>
<event>
 5   0  0.4793557E-07  0.3691821E+04  0.7818609E-02  0.8069777E-01
       -2   -1    0    0    0  501  0.00000000000E+00  0.00000000000E+00  0.25036489847E+04  0.25036489847E+04  0.25500000920E-02 0. -1.
        2   -1    0    0  501    0  0.00000000000E+00  0.00000000000E+00 -0.13609677428E+04  0.13609677428E+04  0.25500000920E-02 0.  1.
    10030    2    1    2    0    0  0.00000000000E+00  0.00000000000E+00  0.11426812419E+04  0.38646167275E+04  0.36918209639E+04 0.  0.
        3    1    3    3  502    0  0.88970289621E+03  0.85299134161E+03  0.20097817665E+04  0.23576234287E+04  0.10100000352E+00 0. -1.
       -3    1    3    3    0  502 -0.88970289621E+03 -0.85299134161E+03 -0.86710052462E+03  0.15069932987E+04  0.10100000352E+00 0.  1.
</event>
<event>
 5   0  0.4758908E-07  0.3813828E+04  0.7818609E-02  0.8043194E-01
       -2   -1    0    0    0  501  0.00000000000E+00  0.00000000000E+00  0.13575838806E+04  0.13575838807E+04  0.25500000920E-02 0. -1.
        2   -1    0    0  501    0  0.00000000000E+00  0.00000000000E+00 -0.26785242613E+04  0.26785242613E+04  0.25500000920E-02 0.  1.
    10030    2    1    2    0    0  0.00000000000E+00  0.00000000000E+00 -0.13209403806E+04  0.40361081419E+04  0.38138281876E+04 0.  0.
        2    1    3    3  502    0  0.12168225938E+04 -0.18874697001E+03  0.88042665483E+03  0.15137482413E+04  0.25500000920E-02 0. -1.
       -2    1    3    3    0  502 -0.12168225938E+04  0.18874697001E+03 -0.22013670355E+04  0.25223599006E+04  0.25500000920E-02 0.  1.
</event>
<event>
 5   0  0.4758908E-07  0.3320418E+04  0.7818609E-02  0.8157719E-01
        2   -1    0    0  501    0  0.00000000000E+00  0.00000000000E+00  0.25742226006E+04  0.25742226006E+04  0.25500000920E-02 0. -1.
       -2   -1    0    0    0  501  0.00000000000E+00  0.00000000000E+00 -0.10707287303E+04  0.10707287303E+04  0.25500000920E-02 0.  1.
    10030    2    1    2    0    0  0.00000000000E+00  0.00000000000E+00  0.15034938703E+04  0.36449513309E+04  0.33204181042E+04 0.  0.
        2    1    3    3  502    0  0.96350365459E+03 -0.20036155155E+03  0.22195224823E+04  0.24279135267E+04  0.25500000920E-02 0. -1.
       -2    1    3    3    0  502 -0.96350365459E+03  0.20036155155E+03 -0.71602861200E+03  0.12170378042E+04  0.25500000920E-02 0.  1.
</event>
<event>
 5   0  0.1522273E-07  0.3640410E+04  0.7818609E-02  0.8081298E-01
       -1   -1    0    0    0  501  0.00000000000E+00  0.00000000000E+00  0.12112795938E+04  0.12112795938E+04  0.50400001928E-02 0. -1.
        1   -1    0    0  501    0  0.00000000000E+00  0.00000000000E+00 -0.27352444824E+04  0.27352444824E+04  0.50400001928E-02 0.  1.
    10030    2    1    2    0    0  0.00000000000E+00  0.00000000000E+00 -0.15239648886E+04  0.39465240762E+04  0.36404097712E+04 0.  0.
        4    1    3    3  502    0  0.44240169350E+03  0.10767071931E+04 -0.22789799473E+04  0.25590562423E+04  0.12699999809E+01 0.  1.
       -4    1    3    3    0  502 -0.44240169350E+03 -0.10767071931E+04  0.75501505874E+03  0.13874678338E+04  0.12699999809E+01 0. -1.
</event>
<event>
 5   0  0.4824268E-07  0.3696879E+04  0.7818609E-02  0.8068654E-01
        2   -1    0    0  501    0  0.00000000000E+00  0.00000000000E+00  0.11217941764E+04  0.11217941764E+04  0.25500000920E-02 0.  1.
       -2   -1    0    0    0  501  0.00000000000E+00  0.00000000000E+00 -0.30457720818E+04  0.30457720818E+04  0.25500000920E-02 0. -1.
    10030    2    1    2    0    0  0.00000000000E+00  0.00000000000E+00 -0.19239779054E+04  0.41675662582E+04  0.36968794322E+04 0.  0.
        1    1    3    3  502    0 -0.80353839626E+03 -0.10894999449E+04 -0.23808211158E+04  0.27387941269E+04  0.50400001928E-02 0. -1.
       -1    1    3    3    0  502  0.80353839626E+03  0.10894999449E+04  0.45684321044E+03  0.14287721313E+04  0.50400001928E-02 0.  1.
</event>
<event>
 5   0  0.4793557E-07  0.3727128E+04  0.7818609E-02  0.8061976E-01
        2   -1    0    0  501    0  0.00000000000E+00  0.00000000000E+00  0.25771640186E+04  0.25771640186E+04  0.25500000920E-02 0.  1.
       -2   -1    0    0    0  501  0.00000000000E+00  0.00000000000E+00 -0.13475551151E+04  0.13475551151E+04  0.25500000920E-02 0. -1.
    10030    2    1    2    0    0  0.00000000000E+00  0.00000000000E+00  0.12296089035E+04  0.39247191338E+04  0.37271278786E+04 0.  0.
        3    1    3    3  502    0  0.70298953894E+03 -0.10250369748E+04  0.20769312567E+04  0.24204418082E+04  0.10100000352E+00 0.  1.
       -3    1    3    3    0  502 -0.70298953894E+03  0.10250369748E+04 -0.84732235323E+03  0.15042773255E+04  0.10100000352E+00 0. -1.
</event>
<event>
 5   0  0.1496000E-07  0.3679709E+04  0.7818609E-02  0.8072474E-01
       -1   -1    0    0    0  501  0.00000000000E+00  0.00000000000E+00  0.14115504054E+04  0.14115504055E+04  0.50400001928E-02 0. -1.
        1   -1    0    0  501    0  0.00000000000E+00  0.00000000000E+00 -0.23981176477E+04  0.23981176477E+04  0.50400001928E-02 0.  1.
    10030    2    1    2    0    0  0.00000000000E+00  0.00000000000E+00 -0.98656724225E+03  0.38096680532E+04  0.36797086504E+04 0.  0.
        2    1    3    3  502    0 -0.17312833523E+03 -0.89872856918E+02  0.14008142982E+04  0.14143306717E+04  0.25500000920E-02 0. -1.
       -2    1    3    3    0  502  0.17312833523E+03  0.89872856918E+02 -0.23873815405E+04  0.23953373814E+04  0.25500000920E-02 0.  1.
</event>
<event>
 5   0  0.4793557E-07  0.3699009E+04  0.7818609E-02  0.8068181E-01
        2   -1    0    0  501    0  0.00000000000E+00  0.00000000000E+00  0.23488981648E+04  0.23488981648E+04  0.25500000920E-02 0.  1.
       -2   -1    0    0    0  501  0.00000000000E+00  0.00000000000E+00 -0.14562857090E+04  0.14562857090E+04  0.25500000920E-02 0. -1.
    10030    2    1    2    0    0  0.00000000000E+00  0.00000000000E+00  0.89261245585E+03  0.38051838738E+04  0.36990089642E+04 0.  0.
        3    1    3    3  502    0  0.12948888880E+04  0.13052139570E+04  0.65293515253E+03  0.19510625386E+04  0.10100000352E+00 0.  1.
       -3    1    3    3    0  502 -0.12948888880E+04 -0.13052139570E+04  0.23967730332E+03  0.18541213353E+04  0.10100000352E+00 0. -1.
</event>
<event>
 5   0  0.4758908E-07  0.3694506E+04  0.7818609E-02  0.8069181E-01
        2   -1    0    0  501    0  0.00000000000E+00  0.00000000000E+00  0.15202858776E+04  0.15202858776E+04  0.25500000920E-02 0. -1.
       -2   -1    0    0    0  501  0.00000000000E+00  0.00000000000E+00 -0.22445404677E+04  0.22445404677E+04  0.25500000920E-02 0.  1.
    10030    2    1    2    0    0  0.00000000000E+00  0.00000000000E+00 -0.72425459007E+03  0.37648263453E+04  0.36945057449E+04 0.  0.
        2    1    3    3  502    0  0.47834184687E+03 -0.13306107596E+04  0.84919803579E+03  0.16493857099E+04  0.25500000920E-02 0. -1.
       -2    1    3    3    0  502 -0.47834184687E+03  0.13306107596E+04 -0.15734526259E+04  0.21154406354E+04  0.25500000920E-02 0.  1.
</event>
<event>
 5   0  0.4857514E-07  0.3693963E+04  0.7818609E-02  0.8069301E-01
       -2   -1    0    0    0  501  0.00000000000E+00  0.00000000000E+00  0.19713610334E+04  0.19713610334E+04  0.25500000920E-02 0.  1.
        2   -1    0    0  501    0  0.00000000000E+00  0.00000000000E+00 -0.17304494290E+04  0.17304494290E+04  0.25500000920E-02 0. -1.
    10030    2    1    2    0    0  0.00000000000E+00  0.00000000000E+00  0.24091160438E+03  0.37018104623E+04  0.36939629530E+04 0.  0.
        5    1    3    3  502    0  0.33993423427E+03  0.55657703814E+01  0.19397276624E+04  0.19693023526E+04  0.46999998093E+01 0.  1.
       -5    1    3    3    0  502 -0.33993423427E+03 -0.55657703814E+01 -0.16988160580E+04  0.17325081098E+04  0.46999998093E+01 0. -1.
</event>
<event>
 5   0  0.1496000E-07  0.3703164E+04  0.7818609E-02  0.8067261E-01
       -1   -1    0    0    0  501  0.00000000000E+00  0.00000000000E+00  0.19341871725E+04  0.19341871725E+04  0.50400001928E-02 0. -1.
        1   -1    0    0  501    0  0.00000000000E+00  0.00000000000E+00 -0.17725049105E+04  0.17725049105E+04  0.50400001928E-02 0.  1.
    10030    2    1    2    0    0  0.00000000000E+00  0.00000000000E+00  0.16168226199E+03  0.37066920830E+04  0.37031641935E+04 0.  0.
        5    1    3    3  502    0 -0.91373543412E+03 -0.11774835353E+04  0.11805024437E+04  0.19013121861E+04  0.46999998093E+01 0. -1.
       -5    1    3    3    0  502  0.91373543412E+03  0.11774835353E+04 -0.10188201817E+04  0.18053798969E+04  0.46999998093E+01 0.  1.
</event>
<event>
 5   0  0.1496000E-07  0.3684691E+04  0.7818609E-02  0.8071363E-01
        1   -1    0    0  501    0  0.00000000000E+00  0.00000000000E+00  0.25954723952E+04  0.25954723952E+04  0.50400001928E-02 0. -1.
       -1   -1    0    0    0  501  0.00000000000E+00  0.00000000000E+00 -0.13077530161E+04  0.13077530161E+04  0.50400001928E-02 0.  1.
    10030    2    1    2    0    0  0.00000000000E+00  0.00000000000E+00  0.12877193791E+04  0.39032254113E+04  0.36846909520E+04 0.  0.
        5    1    3    3  502    0 -0.16599052574E+04  0.19330152794E+03  0.14654653418E+04  0.22226699490E+04  0.46999998093E+01 0. -1.
       -5    1    3    3    0  502  0.16599052574E+04 -0.19330152794E+03 -0.17774596269E+03  0.16805554622E+04  0.46999998093E+01 0.  1.
</event>
<event>
 5   0  0.4824268E-07  0.3726117E+04  0.7818609E-02  0.8062198E-01
        2   -1    0    0  501    0  0.00000000000E+00  0.00000000000E+00  0.12518934336E+04  0.12518934336E+04  0.25500000920E-02 0.  1.
       -2   -1    0    0    0  501  0.00000000000E+00  0.00000000000E+00 -0.27725904363E+04  0.27725904363E+04  0.25500000920E-02 0. -1.
    10030    2    1    2    0    0  0.00000000000E+00  0.00000000000E+00 -0.15206970027E+04  0.40244838700E+04  0.37261174224E+04 0.  0.
        1    1    3    3  502    0 -0.15493549146E+04  0.55367141718E+03  0.18367298378E+03  0.16555326800E+04  0.50400001928E-02 0. -1.
       -1    1    3    3    0  502  0.15493549146E+04 -0.55367141718E+03 -0.17043699865E+04  0.23689511900E+04  0.50400001928E-02 0.  1.
</event>
<event>
 5   0  0.1522273E-07  0.3671482E+04  0.7818609E-02  0.8074311E-01
       -1   -1    0    0    0  501  0.00000000000E+00  0.00000000000E+00  0.23566108036E+04  0.23566108036E+04  0.50400001928E-02 0. -1.
        1   -1    0    0  501    0  0.00000000000E+00  0.00000000000E+00 -0.14299964301E+04  0.14299964301E+04  0.50400001928E-02 0.  1.
    10030    2    1    2    0    0  0.00000000000E+00  0.00000000000E+00  0.92661437351E+03  0.37866072338E+04  0.36714820094E+04 0.  0.
        4    1    3    3  502    0 -0.86848703416E+03  0.11382308119E+04  0.16482925359E+04  0.21832794156E+04  0.12699999809E+01 0. -1.
       -4    1    3    3    0  502  0.86848703416E+03 -0.11382308119E+04 -0.72167816237E+03  0.16033278182E+04  0.12699999809E+01 0.  1.
</event>
<event>
 5   0  0.4758908E-07  0.3717218E+04  0.7818609E-02  0.8064157E-01
        2   -1    0    0  501    0  0.00000000000E+00  0.00000000000E+00  0.19789303966E+04  0.19789303966E+04  0.25500000920E-02 0. -1.
       -2   -1    0    0    0  501  0.00000000000E+00  0.00000000000E+00 -0.17456034773E+04  0.17456034773E+04  0.25500000920E-02 0.  1.
    10030    2    1    2    0    0  0.00000000000E+00  0.00000000000E+00  0.23332691934E+03  0.37245338739E+04  0.37172181974E+04 0.  0.
        2    1    3    3  502    0  0.12711220853E+04 -0.13545395262E+04  0.54097812184E+02  0.18583474533E+04  0.25500000920E-02 0. -1.
       -2    1    3    3    0  502 -0.12711220853E+04  0.13545395262E+04  0.17922910715E+03  0.18661864207E+04  0.25500000920E-02 0.  1.
</event>
<event>
 5   0  0.1496287E-07  0.3706970E+04  0.7818609E-02  0.8066419E-01
        1   -1    0    0  501    0  0.00000000000E+00  0.00000000000E+00  0.20482097963E+04  0.20482097963E+04  0.50400001928E-02 0. -1.
       -1   -1    0    0    0  501  0.00000000000E+00  0.00000000000E+00 -0.16772726409E+04  0.16772726409E+04  0.50400001928E-02 0.  1.
    10030    2    1    2    0    0  0.00000000000E+00  0.00000000000E+00  0.37093715539E+03  0.37254824372E+04  0.37069697890E+04 0.  0.
        1    1    3    3  502    0  0.40868705811E+03 -0.37498836264E+03 -0.15919123782E+04  0.16857717530E+04  0.50400001928E-02 0.  1.
       -1    1    3    3    0  502 -0.40868705811E+03  0.37498836264E+03  0.19628495336E+04  0.20397106841E+04  0.50400001928E-02 0. -1.
</event>
<event>
 5   0  0.4687817E-07  0.3676717E+04  0.7818609E-02  0.8073141E-01
        2   -1    0    0  501    0  0.00000000000E+00  0.00000000000E+00  0.16472486794E+04  0.16472486794E+04  0.25500000920E-02 0.  1.
       -2   -1    0    0    0  501  0.00000000000E+00  0.00000000000E+00 -0.20516403635E+04  0.20516403635E+04  0.25500000920E-02 0. -1.
    10030    2    1    2    0    0  0.00000000000E+00  0.00000000000E+00 -0.40439168404E+03  0.36988890429E+04  0.36767169482E+04 0.  0.
        4    1    3    3  502    0 -0.50767238267E+02  0.13521800613E+04  0.10497329211E+04  0.17125738084E+04  0.12699999809E+01 0.  1.
       -4    1    3    3    0  502  0.50767238267E+02 -0.13521800613E+04 -0.14541246052E+04  0.19863152345E+04  0.12699999809E+01 0. -1.
</event>
<event>
 5   0  0.1522273E-07  0.3728235E+04  0.7818609E-02  0.8061733E-01
        1   -1    0    0  501    0  0.00000000000E+00  0.00000000000E+00  0.21928953542E+04  0.21928953542E+04  0.50400001928E-02 0.  1.
       -1   -1    0    0    0  501  0.00000000000E+00  0.00000000000E+00 -0.15846326589E+04  0.15846326589E+04  0.50400001928E-02 0. -1.
    10030    2    1    2    0    0  0.00000000000E+00  0.00000000000E+00  0.60826269530E+03  0.37775280131E+04  0.37282347544E+04 0.  0.
        4    1    3    3  502    0  0.11519561218E+04  0.14516617174E+04  0.50830828568E+03  0.19216408547E+04  0.12699999809E+01 0.  1.
       -4    1    3    3    0  502 -0.11519561218E+04 -0.14516617174E+04  0.99954409623E+02  0.18558871585E+04  0.12699999809E+01 0. -1.
</event>
<event>
 5   0  0.1496000E-07  0.3672216E+04  0.7818609E-02  0.8074147E-01
        4   -1    0    0  501    0  0.00000000000E+00  0.00000000000E+00  0.14407332664E+04  0.14407338261E+04  0.12699999809E+01 0.  1.
       -4   -1    0    0    0  501  0.00000000000E+00  0.00000000000E+00 -0.23399832905E+04  0.23399836351E+04  0.12699999809E+01 0. -1.
    10030    2    1    2    0    0  0.00000000000E+00  0.00000000000E+00 -0.89925002413E+03  0.37807174612E+04  0.36722164854E+04 0.  0.
        1    1    3    3  502    0 -0.16110199566E+04 -0.14718428634E+03 -0.13437580800E+04  0.21030297887E+04  0.50400001928E-02 0. -1.
       -1    1    3    3    0  502  0.16110199566E+04  0.14718428634E+03  0.44450805588E+03  0.16776876725E+04  0.50400001928E-02 0.  1.
</event>
<event>
 5   0  0.1522273E-07  0.3705957E+04  0.7818609E-02  0.8066643E-01
        1   -1    0    0  501    0  0.00000000000E+00  0.00000000000E+00  0.20388639969E+04  0.20388639970E+04  0.50400001928E-02 0. -1.
       -1   -1    0    0    0  501  0.00000000000E+00  0.00000000000E+00 -0.16840401210E+04  0.16840401210E+04  0.50400001928E-02 0.  1.
    10030    2    1    2    0    0  0.00000000000E+00  0.00000000000E+00  0.35482387599E+03  0.37229041179E+04  0.37059567035E+04 0.  0.
        4    1    3    3  502    0 -0.46516892512E+03  0.10059521127E+04  0.16691962356E+04  0.20036315699E+04  0.12699999809E+01 0. -1.
       -4    1    3    3    0  502  0.46516892512E+03 -0.10059521127E+04 -0.13143723596E+04  0.17192725481E+04  0.12699999809E+01 0.  1.
</event>
<event>
 5   0  0.1496000E-07  0.3694499E+04  0.7818609E-02  0.8069182E-01
       -1   -1    0    0    0  501  0.00000000000E+00  0.00000000000E+00  0.24721429742E+04  0.24721429742E+04  0.50400001928E-02 0.  1.
        1   -1    0    0  501    0  0.00000000000E+00  0.00000000000E+00 -0.13803128017E+04  0.13803128017E+04  0.50400001928E-02 0. -1.
    10030    2    1    2    0    0  0.00000000000E+00  0.00000000000E+00  0.10918301725E+04  0.38524557759E+04  0.36944989349E+04 0.  0.
        5    1    3    3  502    0  0.16638896155E+04  0.41138213253E+03 -0.17240933433E+03  0.17226465046E+04  0.46999998093E+01 0. -1.
       -5    1    3    3    0  502 -0.16638896155E+04 -0.41138213253E+03  0.12642395068E+04  0.21298092713E+04  0.46999998093E+01 0.  1.
</event>
<event>
 5   0  0.4824268E-07  0.3672359E+04  0.7818609E-02  0.8074115E-01
        2   -1    0    0  501    0  0.00000000000E+00  0.00000000000E+00  0.14757763433E+04  0.14757763433E+04  0.25500000920E-02 0.  1.
       -2   -1    0    0    0  501  0.00000000000E+00  0.00000000000E+00 -0.22845970305E+04  0.22845970305E+04  0.25500000920E-02 0. -1.
    10030    2    1    2    0    0  0.00000000000E+00  0.00000000000E+00 -0.80882068719E+03  0.37603733737E+04  0.36723585073E+04 0.  0.
        1    1    3    3  502    0 -0.77004688692E+03 -0.91040036767E+02 -0.21087211927E+04  0.22467678040E+04  0.50400001928E-02 0. -1.
       -1    1    3    3    0  502  0.77004688692E+03  0.91040036767E+02  0.12999005055E+04  0.15136055697E+04  0.50400001928E-02 0.  1.
</event>
<event>
 5   0  0.1496000E-07  0.3641196E+04  0.7818609E-02  0.8081120E-01
        1   -1    0    0  501    0  0.00000000000E+00  0.00000000000E+00  0.22450730485E+04  0.22450730485E+04  0.50400001928E-02 0. -1.
       -1   -1    0    0    0  501  0.00000000000E+00  0.00000000000E+00 -0.14763782653E+04  0.14763782653E+04  0.50400001928E-02 0.  1.
    10030    2    1    2    0    0  0.00000000000E+00  0.00000000000E+00  0.76869478314E+03  0.37214513138E+04  0.36411959864E+04 0.  0.
        5    1    3    3  502    0  0.13478018587E+04 -0.11144336803E+04 -0.13279186902E+03  0.17539065108E+04  0.46999998093E+01 0.  1.
       -5    1    3    3    0  502 -0.13478018587E+04  0.11144336803E+04  0.90148665216E+03  0.19675448031E+04  0.46999998093E+01 0. -1.
</event>
<event>
 5   0  0.4824268E-07  0.3686472E+04  0.7818609E-02  0.8070966E-01
        2   -1    0    0  501    0  0.00000000000E+00  0.00000000000E+00  0.19835090000E+04  0.19835090000E+04  0.25500000920E-02 0.  1.
       -2   -1    0    0    0  501  0.00000000000E+00  0.00000000000E+00 -0.17128827769E+04  0.17128827769E+04  0.25500000920E-02 0. -1.
    10030    2    1    2    0    0  0.00000000000E+00  0.00000000000E+00  0.27062622309E+03  0.36963917769E+04  0.36864717029E+04 0.  0.
        1    1    3    3  502    0  0.14811081133E+04  0.47313559652E+03  0.11279163042E+04  0.19208679615E+04  0.50400001928E-02 0.  1.
       -1    1    3    3    0  502 -0.14811081133E+04 -0.47313559652E+03 -0.85729008113E+03  0.17755238155E+04  0.50400001928E-02 0. -1.
</event>
<event>
 5   0  0.1496000E-07  0.3429691E+04  0.7818609E-02  0.8130657E-01
       -1   -1    0    0    0  501  0.00000000000E+00  0.00000000000E+00  0.16528445537E+04  0.16528445537E+04  0.50400001928E-02 0.  1.
        1   -1    0    0  501    0  0.00000000000E+00  0.00000000000E+00 -0.17791727087E+04  0.17791727087E+04  0.50400001928E-02 0. -1.
    10030    2    1    2    0    0  0.00000000000E+00  0.00000000000E+00 -0.12632815492E+03  0.34320172624E+04  0.34296914856E+04 0.  0.
        3    1    3    3  502    0  0.51049019479E+03 -0.14979902764E+04 -0.72400634155E+03  0.17403333876E+04  0.10100000352E+00 0. -1.
       -3    1    3    3    0  502 -0.51049019479E+03  0.14979902764E+04  0.59767818663E+03  0.16916838748E+04  0.10100000352E+00 0.  1.
</event>
<event>
 5   0  0.1496000E-07  0.3658018E+04  0.7818609E-02  0.8077330E-01
       -1   -1    0    0    0  501  0.00000000000E+00  0.00000000000E+00  0.21186934552E+04  0.21186934552E+04  0.50400001928E-02 0.  1.
        1   -1    0    0  501    0  0.00000000000E+00  0.00000000000E+00 -0.15789326536E+04  0.15789326536E+04  0.50400001928E-02 0. -1.
    10030    2    1    2    0    0  0.00000000000E+00  0.00000000000E+00  0.53976080161E+03  0.36976261087E+04  0.36580181953E+04 0.  0.
        5    1    3    3  502    0  0.15935954820E+04  0.52465530434E+03  0.10060811678E+04  0.19562799276E+04  0.46999998093E+01 0.  1.
       -5    1    3    3    0  502 -0.15935954820E+04 -0.52465530434E+03 -0.46632036623E+03  0.17413461812E+04  0.46999998093E+01 0. -1.
</event>
<event>
 5   0  0.4687817E-07  0.3713015E+04  0.7818609E-02  0.8065084E-01
       -2   -1    0    0    0  501  0.00000000000E+00  0.00000000000E+00  0.13753812059E+04  0.13753812059E+04  0.25500000920E-02 0. -1.
        2   -1    0    0  501    0  0.00000000000E+00  0.00000000000E+00 -0.25059384768E+04  0.25059384768E+04  0.25500000920E-02 0.  1.
    10030    2    1    2    0    0  0.00000000000E+00  0.00000000000E+00 -0.11305572709E+04  0.38813196827E+04  0.37130153160E+04 0.  0.
        4    1    3    3  502    0 -0.76720436511E+03 -0.10891977492E+04 -0.19168135591E+04  0.23343371881E+04  0.12699999809E+01 0.  1.
       -4    1    3    3    0  502  0.76720436511E+03  0.10891977492E+04  0.78625628827E+03  0.15469824945E+04  0.12699999809E+01 0. -1.
</event>
<event>
 5   0  0.4758908E-07  0.3675102E+04  0.7818609E-02  0.8073502E-01
       -2   -1    0    0    0  501  0.00000000000E+00  0.00000000000E+00  0.20298726071E+04  0.20298726071E+04  0.25500000920E-02 0. -1.
        2   -1    0    0  501    0  0.00000000000E+00  0.00000000000E+00 -0.16634512414E+04  0.16634512414E+04  0.25500000920E-02 0.  1.
    10030    2    1    2    0    0  0.00000000000E+00  0.00000000000E+00  0.36642136566E+03  0.36933238485E+04  0.36751022343E+04 0.  0.
        2    1    3    3  502    0  0.10283946945E+04  0.14111744242E+04  0.75839906464E+03  0.19037274081E+04  0.25500000920E-02 0. -1.
       -2    1    3    3    0  502 -0.10283946945E+04 -0.14111744242E+04 -0.39197769897E+03  0.17895964404E+04  0.25500000920E-02 0.  1.
</event>
<event>
 5   0  0.1496287E-07  0.3736973E+04  0.7818609E-02  0.8059817E-01
        1   -1    0    0  501    0  0.00000000000E+00  0.00000000000E+00  0.28163156303E+04  0.28163156303E+04  0.50400001928E-02 0.  1.
       -1   -1    0    0    0  501  0.00000000000E+00  0.00000000000E+00 -0.12396488085E+04  0.12396488085E+04  0.50400001928E-02 0. -1.
    10030    2    1    2    0    0  0.00000000000E+00  0.00000000000E+00  0.15766668218E+04  0.40559644388E+04  0.37369732755E+04 0.  0.
        1    1    3    3  502    0  0.18470817736E+03  0.16610117065E+04 -0.11855380798E+03  0.16754497920E+04  0.50400001928E-02 0. -1.
       -1    1    3    3    0  502 -0.18470817736E+03 -0.16610117065E+04  0.16952206298E+04  0.23805146468E+04  0.50400001928E-02 0.  1.
</event>
<event>
 5   0  0.4857514E-07  0.3674848E+04  0.7818609E-02  0.8073559E-01
       -2   -1    0    0    0  501  0.00000000000E+00  0.00000000000E+00  0.13774431833E+04  0.13774431833E+04  0.25500000920E-02 0.  1.
        2   -1    0    0  501    0  0.00000000000E+00  0.00000000000E+00 -0.24510101712E+04  0.24510101712E+04  0.25500000920E-02 0. -1.
    10030    2    1    2    0    0  0.00000000000E+00  0.00000000000E+00 -0.10735669879E+04  0.38284533544E+04  0.36748481614E+04 0.  0.
        5    1    3    3  502    0 -0.21536857740E+03 -0.23674916682E+03  0.13481737374E+04  0.13856508609E+04  0.46999998093E+01 0.  1.
       -5    1    3    3    0  502  0.21536857740E+03  0.23674916682E+03 -0.24217407253E+04  0.24428024936E+04  0.46999998093E+01 0. -1.
</event>
<event>
 5   0  0.1496287E-07  0.3642486E+04  0.7818609E-02  0.8080829E-01
        1   -1    0    0  501    0  0.00000000000E+00  0.00000000000E+00  0.15641088409E+04  0.15641088409E+04  0.50400001928E-02 0. -1.
       -1   -1    0    0    0  501  0.00000000000E+00  0.00000000000E+00 -0.21206486957E+04  0.21206486957E+04  0.50400001928E-02 0.  1.
    10030    2    1    2    0    0  0.00000000000E+00  0.00000000000E+00 -0.55653985487E+03  0.36847575366E+04  0.36424856202E+04 0.  0.
        1    1    3    3  502    0 -0.38866508170E+03 -0.98364787105E+03 -0.17781437213E+04  0.20689172950E+04  0.50400001928E-02 0.  1.
       -1    1    3    3    0  502  0.38866508170E+03  0.98364787105E+03  0.12216038664E+04  0.16158402416E+04  0.50400001928E-02 0. -1.
</event>
<event>
 5   0  0.4687817E-07  0.3668151E+04  0.7818609E-02  0.8075057E-01
        2   -1    0    0  501    0  0.00000000000E+00  0.00000000000E+00  0.19655697833E+04  0.19655697833E+04  0.25500000920E-02 0. -1.
       -2   -1    0    0    0  501  0.00000000000E+00  0.00000000000E+00 -0.17113784300E+04  0.17113784300E+04  0.25500000920E-02 0.  1.
    10030    2    1    2    0    0  0.00000000000E+00  0.00000000000E+00  0.25419135333E+03  0.36769482133E+04  0.36681514308E+04 0.  0.
        4    1    3    3  502    0 -0.12764371666E+04  0.38643203266E+03 -0.11349751721E+04  0.17512258022E+04  0.12699999809E+01 0.  1.
       -4    1    3    3    0  502  0.12764371666E+04 -0.38643203266E+03  0.13891665254E+04  0.19257224111E+04  0.12699999809E+01 0. -1.
</event>
<event>
 5   0  0.1522273E-07  0.3721507E+04  0.7818609E-02  0.8063212E-01
       -1   -1    0    0    0  501  0.00000000000E+00  0.00000000000E+00  0.19468414691E+04  0.19468414691E+04  0.50400001928E-02 0. -1.
        1   -1    0    0  501    0  0.00000000000E+00  0.00000000000E+00 -0.17784719021E+04  0.17784719021E+04  0.50400001928E-02 0.  1.
    10030    2    1    2    0    0  0.00000000000E+00  0.00000000000E+00  0.16836956698E+03  0.37253133713E+04  0.37215066039E+04 0.  0.
        4    1    3    3  502    0 -0.14625001230E+04  0.76313670552E+03  0.94594691112E+03  0.19016049570E+04  0.12699999809E+01 0.  1.
       -4    1    3    3    0  502  0.14625001230E+04 -0.76313670552E+03 -0.77757734414E+03  0.18237084142E+04  0.12699999809E+01 0. -1.
</event>
<event>
 5   0  0.1496000E-07  0.3675687E+04  0.7818609E-02  0.8073371E-01
       -1   -1    0    0    0  501  0.00000000000E+00  0.00000000000E+00  0.15275075648E+04  0.15275075648E+04  0.50400001928E-02 0. -1.
        1   -1    0    0  501    0  0.00000000000E+00  0.00000000000E+00 -0.22112292147E+04  0.22112292147E+04  0.50400001928E-02 0.  1.
    10030    2    1    2    0    0  0.00000000000E+00  0.00000000000E+00 -0.68372164984E+03  0.37387367795E+04  0.36756873387E+04 0.  0.
        2    1    3    3  502    0 -0.17157386585E+04 -0.64002605760E+03 -0.50034377004E+03  0.18983509652E+04  0.25500000920E-02 0. -1.
       -2    1    3    3    0  502  0.17157386585E+04  0.64002605760E+03 -0.18337787980E+03  0.18403858143E+04  0.25500000920E-02 0.  1.
</event>
<event>
 5   0  0.4758908E-07  0.3595676E+04  0.7818609E-02  0.8091483E-01
       -2   -1    0    0    0  501  0.00000000000E+00  0.00000000000E+00  0.13104193842E+04  0.13104193842E+04  0.25500000920E-02 0. -1.
        2   -1    0    0  501    0  0.00000000000E+00  0.00000000000E+00 -0.24665547730E+04  0.24665547730E+04  0.25500000920E-02 0.  1.
    10030    2    1    2    0    0  0.00000000000E+00  0.00000000000E+00 -0.11561353888E+04  0.37769741572E+04  0.35956758401E+04 0.  0.
        2    1    3    3  502    0 -0.41133164813E+03 -0.36985056201E+03 -0.23749445131E+04  0.24385127851E+04  0.25500000920E-02 0.  1.
       -2    1    3    3    0  502  0.41133164813E+03  0.36985056201E+03  0.12188091243E+04  0.13384613721E+04  0.25500000920E-02 0. -1.
</event>
<event>
 5   0  0.1496000E-07  0.3694936E+04  0.7818609E-02  0.8069085E-01
       -3   -1    0    0    0  501  0.00000000000E+00  0.00000000000E+00  0.13802118476E+04  0.13802118513E+04  0.10100000352E+00 0. -1.
        3   -1    0    0  501    0  0.00000000000E+00  0.00000000000E+00 -0.24729086162E+04  0.24729086183E+04  0.10100000352E+00 0.  1.
    10030    2    1    2    0    0  0.00000000000E+00  0.00000000000E+00 -0.10926967687E+04  0.38531204695E+04  0.36949358756E+04 0.  0.
        2    1    3    3  502    0 -0.14372692223E+04 -0.38944423526E+03 -0.16866556956E+04  0.22499371248E+04  0.25500000920E-02 0.  1.
       -2    1    3    3    0  502  0.14372692223E+04  0.38944423526E+03  0.59395892698E+03  0.16031833447E+04  0.25500000920E-02 0. -1.
</event>
<event>
 5   0  0.1496287E-07  0.3718090E+04  0.7818609E-02  0.8063965E-01
        1   -1    0    0  501    0  0.00000000000E+00  0.00000000000E+00  0.24816036369E+04  0.24816036369E+04  0.50400001928E-02 0. -1.
       -1   -1    0    0    0  501  0.00000000000E+00  0.00000000000E+00 -0.13926672446E+04  0.13926672446E+04  0.50400001928E-02 0.  1.
    10030    2    1    2    0    0  0.00000000000E+00  0.00000000000E+00  0.10889363923E+04  0.38742708815E+04  0.37180898855E+04 0.  0.
        1    1    3    3  502    0 -0.10876589139E+04 -0.11982115111E+03  0.21104918721E+04  0.23772957249E+04  0.50400001928E-02 0. -1.
       -1    1    3    3    0  502  0.10876589139E+04  0.11982115111E+03 -0.10215554798E+04  0.14969751566E+04  0.50400001928E-02 0.  1.
</event>
<event>
 5   0  0.1496000E-07  0.3665799E+04  0.7818609E-02  0.8075584E-01
        1   -1    0    0  501    0  0.00000000000E+00  0.00000000000E+00  0.27869877232E+04  0.27869877232E+04  0.50400001928E-02 0.  1.
       -1   -1    0    0    0  501  0.00000000000E+00  0.00000000000E+00 -0.12054307565E+04  0.12054307565E+04  0.50400001928E-02 0. -1.
    10030    2    1    2    0    0  0.00000000000E+00  0.00000000000E+00  0.15815569667E+04  0.39924184797E+04  0.36657990777E+04 0.  0.
        5    1    3    3  502    0 -0.69535750924E+03  0.16579391214E+04  0.11792289022E+04  0.21500900190E+04  0.46999998093E+01 0.  1.
       -5    1    3    3    0  502  0.69535750924E+03 -0.16579391214E+04  0.40232806445E+03  0.18423284607E+04  0.46999998093E+01 0. -1.
</event>
<event>
 5   0  0.4758908E-07  0.3620618E+04  0.7818609E-02  0.8085785E-01
       -2   -1    0    0    0  501  0.00000000000E+00  0.00000000000E+00  0.11167418703E+04  0.11167418703E+04  0.25500000920E-02 0. -1.
        2   -1    0    0  501    0  0.00000000000E+00  0.00000000000E+00 -0.29346244265E+04  0.29346244265E+04  0.25500000920E-02 0.  1.
    10030    2    1    2    0    0  0.00000000000E+00  0.00000000000E+00 -0.18178825562E+04  0.40513662968E+04  0.36206176107E+04 0.  0.
        2    1    3    3  502    0 -0.15857845037E+04  0.12801106834E+03 -0.18754878789E+04  0.24593808387E+04  0.25500000920E-02 0.  1.
       -2    1    3    3    0  502  0.15857845037E+04 -0.12801106834E+03  0.57605322666E+02  0.15919854582E+04  0.25500000920E-02 0. -1.
</event>
<event>
 5   0  0.4758908E-07  0.3726008E+04  0.7818609E-02  0.8062222E-01
        2   -1    0    0  501    0  0.00000000000E+00  0.00000000000E+00  0.15536989068E+04  0.15536989068E+04  0.25500000920E-02 0.  1.
       -2   -1    0    0    0  501  0.00000000000E+00  0.00000000000E+00 -0.22338844451E+04  0.22338844451E+04  0.25500000920E-02 0. -1.
    10030    2    1    2    0    0  0.00000000000E+00  0.00000000000E+00 -0.68018553837E+03  0.37875833519E+04  0.37260079551E+04 0.  0.
        2    1    3    3  502    0  0.26606656531E+03  0.32416418334E+03 -0.21852789714E+04  0.22251557289E+04  0.25500000920E-02 0. -1.
       -2    1    3    3    0  502 -0.26606656531E+03 -0.32416418334E+03  0.15050934331E+04  0.15624276230E+04  0.25500000920E-02 0.  1.
</event>
<event>
 5   0  0.1496287E-07  0.3643081E+04  0.7818609E-02  0.8080694E-01
        1   -1    0    0  501    0  0.00000000000E+00  0.00000000000E+00  0.13643997162E+04  0.13643997162E+04  0.50400001928E-02 0. -1.
       -1   -1    0    0    0  501  0.00000000000E+00  0.00000000000E+00 -0.24318455573E+04  0.24318455573E+04  0.50400001928E-02 0.  1.
    10030    2    1    2    0    0  0.00000000000E+00  0.00000000000E+00 -0.10674458410E+04  0.37962452735E+04  0.36430807777E+04 0.  0.
        1    1    3    3  502    0 -0.17780295069E+04  0.61749673422E+02 -0.94106353246E+03  0.20126605580E+04  0.50400001928E-02 0.  1.
       -1    1    3    3    0  502  0.17780295069E+04 -0.61749673422E+02 -0.12638230857E+03  0.17835847155E+04  0.50400001928E-02 0. -1.
</event>
<event>
 5   0  0.4793557E-07  0.3685982E+04  0.7818609E-02  0.8071075E-01
       -2   -1    0    0    0  501  0.00000000000E+00  0.00000000000E+00  0.12818458914E+04  0.12818458914E+04  0.25500000920E-02 0. -1.
        2   -1    0    0  501    0  0.00000000000E+00  0.00000000000E+00 -0.26497851623E+04  0.26497851623E+04  0.25500000920E-02 0.  1.
    10030    2    1    2    0    0  0.00000000000E+00  0.00000000000E+00 -0.13679392708E+04  0.39316310537E+04  0.36859822156E+04 0.  0.
        3    1    3    3  502    0  0.27669630618E+03  0.17708084926E+04 -0.22606659340E+03  0.18064965203E+04  0.10100000352E+00 0.  1.
       -3    1    3    3    0  502 -0.27669630618E+03 -0.17708084926E+04 -0.11418726774E+04  0.21251345333E+04  0.10100000352E+00 0. -1.
</event>
<event>
 5   0  0.4793557E-07  0.3618996E+04  0.7818609E-02  0.8086154E-01
        2   -1    0    0  501    0  0.00000000000E+00  0.00000000000E+00  0.13717842543E+04  0.13717842543E+04  0.25500000920E-02 0. -1.
       -2   -1    0    0    0  501  0.00000000000E+00  0.00000000000E+00 -0.23868785347E+04  0.23868785347E+04  0.25500000920E-02 0.  1.
    10030    2    1    2    0    0  0.00000000000E+00  0.00000000000E+00 -0.10150942804E+04  0.37586627889E+04  0.36189956567E+04 0.  0.
        3    1    3    3  502    0 -0.23239970759E+03 -0.10463522421E+04  0.10065985253E+04  0.14704092083E+04  0.10100000352E+00 0. -1.
       -3    1    3    3    0  502  0.23239970759E+03  0.10463522421E+04 -0.20216928057E+04  0.22882535806E+04  0.10100000352E+00 0.  1.
</event>
<event>
 5   0  0.4687817E-07  0.3740037E+04  0.7818609E-02  0.8059147E-01
        2   -1    0    0  501    0  0.00000000000E+00  0.00000000000E+00  0.17561099793E+04  0.17561099793E+04  0.25500000920E-02 0.  1.
       -2   -1    0    0    0  501  0.00000000000E+00  0.00000000000E+00 -0.19913155334E+04  0.19913155334E+04  0.25500000920E-02 0. -1.
    10030    2    1    2    0    0  0.00000000000E+00  0.00000000000E+00 -0.23520555416E+03  0.37474255127E+04  0.37400369410E+04 0.  0.
        4    1    3    3  502    0 -0.12600225646E+04  0.69205003170E+03 -0.13159493293E+04  0.19489264634E+04  0.12699999809E+01 0. -1.
       -4    1    3    3    0  502  0.12600225646E+04 -0.69205003170E+03  0.10807437752E+04  0.17984990492E+04  0.12699999809E+01 0.  1.
</event>
<event>
 5   0  0.1522273E-07  0.3600569E+04  0.7818609E-02  0.8090361E-01
       -1   -1    0    0    0  501  0.00000000000E+00  0.00000000000E+00  0.19004301233E+04  0.19004301233E+04  0.50400001928E-02 0. -1.
        1   -1    0    0  501    0  0.00000000000E+00  0.00000000000E+00 -0.17054165907E+04  0.17054165907E+04  0.50400001928E-02 0.  1.
    10030    2    1    2    0    0  0.00000000000E+00  0.00000000000E+00  0.19501353254E+03  0.36058467140E+04  0.36005694337E+04 0.  0.
        4    1    3    3  502    0 -0.18555753363E+03  0.97131472562E+03 -0.14090716386E+04  0.17214436935E+04  0.12699999809E+01 0.  1.
       -4    1    3    3    0  502  0.18555753363E+03 -0.97131472562E+03  0.16040851711E+04  0.18844030205E+04  0.12699999809E+01 0. -1.
</event>
<event>
 5   0  0.1522273E-07  0.3771164E+04  0.7818609E-02  0.8052371E-01
       -1   -1    0    0    0  501  0.00000000000E+00  0.00000000000E+00  0.14966087436E+04  0.14966087437E+04  0.50400001928E-02 0.  1.
        1   -1    0    0  501    0  0.00000000000E+00  0.00000000000E+00 -0.23756510972E+04  0.23756510972E+04  0.50400001928E-02 0. -1.
    10030    2    1    2    0    0  0.00000000000E+00  0.00000000000E+00 -0.87904235352E+03  0.38722598408E+04  0.37711643846E+04 0.  0.
        4    1    3    3  502    0  0.51071647220E+03 -0.75031095058E+03  0.12575467678E+04  0.15508782427E+04  0.12699999809E+01 0.  1.
       -4    1    3    3    0  502 -0.51071647220E+03  0.75031095058E+03 -0.21365891214E+04  0.23213815981E+04  0.12699999809E+01 0. -1.
</event>
<event>
 5   0  0.4857514E-07  0.3649394E+04  0.7818609E-02  0.8079270E-01
        2   -1    0    0  501    0  0.00000000000E+00  0.00000000000E+00  0.11399826838E+04  0.11399826838E+04  0.25500000920E-02 0.  1.
       -2   -1    0    0    0  501  0.00000000000E+00  0.00000000000E+00 -0.29206751874E+04  0.29206751874E+04  0.25500000920E-02 0. -1.
    10030    2    1    2    0    0  0.00000000000E+00  0.00000000000E+00 -0.17806925036E+04  0.40606578713E+04  0.36493939983E+04 0.  0.
        5    1    3    3  502    0  0.15462508200E+04  0.44675978264E+03  0.66189354485E+02  0.16108659231E+04  0.46999998093E+01 0.  1.
       -5    1    3    3    0  502 -0.15462508200E+04 -0.44675978264E+03 -0.18468818581E+04  0.24497919482E+04  0.46999998093E+01 0. -1.
</event>
<event>
 5   0  0.1522273E-07  0.3680231E+04  0.7818609E-02  0.8072357E-01
       -1   -1    0    0    0  501  0.00000000000E+00  0.00000000000E+00  0.17215021809E+04  0.17215021809E+04  0.50400001928E-02 0. -1.
        1   -1    0    0  501    0  0.00000000000E+00  0.00000000000E+00 -0.19669010084E+04  0.19669010084E+04  0.50400001928E-02 0.  1.
    10030    2    1    2    0    0  0.00000000000E+00  0.00000000000E+00 -0.24539882742E+03  0.36884031893E+04  0.36802306317E+04 0.  0.
        4    1    3    3  502    0 -0.14803948470E+04 -0.62851797674E+03  0.77338843787E+03  0.17845825951E+04  0.12699999809E+01 0. -1.
       -4    1    3    3    0  502  0.14803948470E+04  0.62851797674E+03 -0.10187872653E+04  0.19038205942E+04  0.12699999809E+01 0.  1.
</event>
<event>
 5   0  0.4793557E-07  0.3491446E+04  0.7818609E-02  0.8115820E-01
       -2   -1    0    0    0  501  0.00000000000E+00  0.00000000000E+00  0.13735400906E+04  0.13735400906E+04  0.25500000920E-02 0. -1.
        2   -1    0    0  501    0  0.00000000000E+00  0.00000000000E+00 -0.22187554530E+04  0.22187554530E+04  0.25500000920E-02 0.  1.
    10030    2    1    2    0    0  0.00000000000E+00  0.00000000000E+00 -0.84521536241E+03  0.35922955436E+04  0.34914464429E+04 0.  0.
        3    1    3    3  502    0 -0.18531515493E+03  0.15600906909E+04  0.36051133001E+03  0.16118911563E+04  0.10100000352E+00 0. -1.
       -3    1    3    3    0  502  0.18531515493E+03 -0.15600906909E+04 -0.12057266924E+04  0.19804043873E+04  0.10100000352E+00 0.  1.
</event>
<event>
 5   0  0.4793557E-07  0.3688391E+04  0.7818609E-02  0.8070539E-01
        2   -1    0    0  501    0  0.00000000000E+00  0.00000000000E+00  0.26062932545E+04  0.26062932545E+04  0.25500000920E-02 0.  1.
       -2   -1    0    0    0  501  0.00000000000E+00  0.00000000000E+00 -0.13049404106E+04  0.13049404106E+04  0.25500000920E-02 0. -1.
    10030    2    1    2    0    0  0.00000000000E+00  0.00000000000E+00  0.13013528439E+04  0.39112336652E+04  0.36883911885E+04 0.  0.
        3    1    3    3  502    0 -0.54114485011E+03  0.46892742612E+03  0.24528638012E+04  0.25552439252E+04  0.10100000352E+00 0.  1.
       -3    1    3    3    0  502  0.54114485011E+03 -0.46892742612E+03 -0.11515109574E+04  0.13559897400E+04  0.10100000352E+00 0. -1.
</event>
<event>
 5   0  0.1522273E-07  0.3724000E+04  0.7818609E-02  0.8062664E-01
       -1   -1    0    0    0  501  0.00000000000E+00  0.00000000000E+00  0.14806628844E+04  0.14806628844E+04  0.50400001928E-02 0. -1.
        1   -1    0    0  501    0  0.00000000000E+00  0.00000000000E+00 -0.23415483376E+04  0.23415483376E+04  0.50400001928E-02 0.  1.
    10030    2    1    2    0    0  0.00000000000E+00  0.00000000000E+00 -0.86088545311E+03  0.38222112220E+04  0.37239998472E+04 0.  0.
        4    1    3    3  502    0 -0.66670408987E+03 -0.44942025189E+03 -0.21541892691E+04  0.22993490222E+04  0.12699999809E+01 0.  1.
       -4    1    3    3    0  502  0.66670408987E+03  0.44942025189E+03  0.12933038159E+04  0.15228621998E+04  0.12699999809E+01 0. -1.
</event>
<event>
 5   0  0.1496000E-07  0.3708728E+04  0.7818609E-02  0.8066030E-01
       -1   -1    0    0    0  501  0.00000000000E+00  0.00000000000E+00  0.17325279196E+04  0.17325279196E+04  0.50400001928E-02 0. -1.
        1   -1    0    0  501    0  0.00000000000E+00  0.00000000000E+00 -0.19847677337E+04  0.19847677337E+04  0.50400001928E-02 0.  1.
    10030    2    1    2    0    0  0.00000000000E+00  0.00000000000E+00 -0.25223981407E+03  0.37172956532E+04  0.37087278209E+04 0.  0.
        3    1    3    3  502    0 -0.45600043560E+03  0.16574716797E+04  0.57084016275E+03  0.18113550916E+04  0.10100000352E+00 0. -1.
       -3    1    3    3    0  502  0.45600043560E+03 -0.16574716797E+04 -0.82307997682E+03  0.19059405617E+04  0.10100000352E+00 0.  1.
</event>
<event>
 5   0  0.1522273E-07  0.3669544E+04  0.7818609E-02  0.8074745E-01
       -1   -1    0    0    0  501  0.00000000000E+00  0.00000000000E+00  0.12784019228E+04  0.12784019228E+04  0.50400001928E-02 0.  1.
        1   -1    0    0  501    0  0.00000000000E+00  0.00000000000E+00 -0.26332788701E+04  0.26332788701E+04  0.50400001928E-02 0. -1.
    10030    2    1    2    0    0  0.00000000000E+00  0.00000000000E+00 -0.13548769473E+04  0.39116807930E+04  0.36695442611E+04 0.  0.
        4    1    3    3  502    0 -0.52950855745E+03  0.14165944577E+04  0.42999061039E+03  0.15722635618E+04  0.12699999809E+01 0.  1.
       -4    1    3    3    0  502  0.52950855745E+03 -0.14165944577E+04 -0.17848675577E+04  0.23394172311E+04  0.12699999809E+01 0. -1.
</event>
<event>
 5   0  0.4857514E-07  0.3715249E+04  0.7818609E-02  0.8064591E-01
        2   -1    0    0  501    0  0.00000000000E+00  0.00000000000E+00  0.28694458652E+04  0.28694458652E+04  0.25500000920E-02 0.  1.
       -2   -1    0    0    0  501  0.00000000000E+00  0.00000000000E+00 -0.12025904884E+04  0.12025904884E+04  0.25500000920E-02 0. -1.
    10030    2    1    2    0    0  0.00000000000E+00  0.00000000000E+00  0.16668553768E+04  0.40720363536E+04  0.37152487424E+04 0.  0.
        5    1    3    3  502    0 -0.11907873820E+04  0.23094678202E+03  0.23754632746E+04  0.26672380592E+04  0.46999998093E+01 0.  1.
       -5    1    3    3    0  502  0.11907873820E+04 -0.23094678202E+03 -0.70860789782E+03  0.14047982945E+04  0.46999998093E+01 0. -1.
</event>
<event>
 5   0  0.1522273E-07  0.3704473E+04  0.7818609E-02  0.8066971E-01
        1   -1    0    0  501    0  0.00000000000E+00  0.00000000000E+00  0.26172688835E+04  0.26172688835E+04  0.50400001928E-02 0. -1.
       -1   -1    0    0    0  501  0.00000000000E+00  0.00000000000E+00 -0.13108241549E+04  0.13108241549E+04  0.50400001928E-02 0.  1.
    10030    2    1    2    0    0  0.00000000000E+00  0.00000000000E+00  0.13064447286E+04  0.39280930384E+04  0.37044725791E+04 0.  0.
        4    1    3    3  502    0  0.60098120204E+03  0.61912926979E+03 -0.10847020138E+04  0.13860301330E+04  0.12699999809E+01 0.  1.
       -4    1    3    3    0  502 -0.60098120204E+03 -0.61912926979E+03  0.23911467425E+04  0.25420629054E+04  0.12699999809E+01 0. -1.
</event>
<event>
 5   0  0.1496000E-07  0.3183654E+04  0.7818609E-02  0.8193148E-01
        1   -1    0    0  501    0  0.00000000000E+00  0.00000000000E+00  0.22073634537E+04  0.22073634537E+04  0.50400001928E-02 0. -1.
       -1   -1    0    0    0  501  0.00000000000E+00  0.00000000000E+00 -0.11479362194E+04  0.11479362194E+04  0.50400001928E-02 0.  1.
    10030    2    1    2    0    0  0.00000000000E+00  0.00000000000E+00  0.10594272343E+04  0.33552996731E+04  0.31836535351E+04 0.  0.
        2    1    3    3  502    0 -0.59201544992E+03 -0.40594355003E+03 -0.96767646663E+03  0.12048527723E+04  0.25500000920E-02 0.  1.
       -2    1    3    3    0  502  0.59201544992E+03  0.40594355003E+03  0.20271037010E+04  0.21504469008E+04  0.25500000920E-02 0. -1.
</event>
<event>
 5   0  0.1496000E-07  0.3674169E+04  0.7818609E-02  0.8073710E-01
       -3   -1    0    0    0  501  0.00000000000E+00  0.00000000000E+00  0.12579829301E+04  0.12579829342E+04  0.10100000352E+00 0. -1.
        3   -1    0    0  501    0  0.00000000000E+00  0.00000000000E+00 -0.26827709505E+04  0.26827709524E+04  0.10100000352E+00 0.  1.
    10030    2    1    2    0    0  0.00000000000E+00  0.00000000000E+00 -0.14247880204E+04  0.39407538866E+04  0.36741693336E+04 0.  0.
        2    1    3    3  502    0 -0.13947679518E+04 -0.21548676494E+03  0.54897423503E+03  0.15143265487E+04  0.25500000920E-02 0. -1.
       -2    1    3    3    0  502  0.13947679518E+04  0.21548676494E+03 -0.19737622555E+04  0.24264273379E+04  0.25500000920E-02 0.  1.
</event>
<event>
 5   0  0.4758908E-07  0.3626755E+04  0.7818609E-02  0.8084390E-01
       -2   -1    0    0    0  501  0.00000000000E+00  0.00000000000E+00  0.22136580609E+04  0.22136580609E+04  0.25500000920E-02 0.  1.
        2   -1    0    0  501    0  0.00000000000E+00  0.00000000000E+00 -0.14854770352E+04  0.14854770352E+04  0.25500000920E-02 0. -1.
    10030    2    1    2    0    0  0.00000000000E+00  0.00000000000E+00  0.72818102568E+03  0.36991350962E+04  0.36267551411E+04 0.  0.
        2    1    3    3  502    0 -0.11263534969E+04 -0.11643740535E+04 -0.46697065423E+03  0.16859717460E+04  0.25500000920E-02 0. -1.
       -2    1    3    3    0  502  0.11263534969E+04  0.11643740535E+04  0.11951516799E+04  0.20131633502E+04  0.25500000920E-02 0.  1.
</event>
<event>
 5   0  0.4687817E-07  0.3665789E+04  0.7818609E-02  0.8075586E-01
        2   -1    0    0  501    0  0.00000000000E+00  0.00000000000E+00  0.28956113328E+04  0.28956113328E+04  0.25500000920E-02 0. -1.
       -2   -1    0    0    0  501  0.00000000000E+00  0.00000000000E+00 -0.11602046555E+04  0.11602046555E+04  0.25500000920E-02 0.  1.
    10030    2    1    2    0    0  0.00000000000E+00  0.00000000000E+00  0.17354066773E+04  0.40558159882E+04  0.36657887275E+04 0.  0.
        4    1    3    3  502    0  0.15065904673E+04  0.11787867049E+03 -0.27985440151E+03  0.15368898191E+04  0.12699999809E+01 0.  1.
       -4    1    3    3    0  502 -0.15065904673E+04 -0.11787867049E+03  0.20152610788E+04  0.25189261692E+04  0.12699999809E+01 0. -1.
</event>
<event>
 5   0  0.4793557E-07  0.3648490E+04  0.7818609E-02  0.8079474E-01
        2   -1    0    0  501    0  0.00000000000E+00  0.00000000000E+00  0.19709680220E+04  0.19709680220E+04  0.25500000920E-02 0.  1.
       -2   -1    0    0    0  501  0.00000000000E+00  0.00000000000E+00 -0.16884441265E+04  0.16884441265E+04  0.25500000920E-02 0. -1.
    10030    2    1    2    0    0  0.00000000000E+00  0.00000000000E+00  0.28252389547E+03  0.36594121485E+04  0.36484897589E+04 0.  0.
        3    1    3    3  502    0 -0.78535353077E+03 -0.16448744697E+04  0.67032414150E+02  0.18239752038E+04  0.10100000352E+00 0. -1.
       -3    1    3    3    0  502  0.78535353077E+03  0.16448744697E+04  0.21549148132E+03  0.18354369447E+04  0.10100000352E+00 0.  1.
</event>
<event>
 5   0  0.1496287E-07  0.3633568E+04  0.7818609E-02  0.8082846E-01
       -1   -1    0    0    0  501  0.00000000000E+00  0.00000000000E+00  0.15250871856E+04  0.15250871856E+04  0.50400001928E-02 0.  1.
        1   -1    0    0  501    0  0.00000000000E+00  0.00000000000E+00 -0.21642720593E+04  0.21642720593E+04  0.50400001928E-02 0. -1.
    10030    2    1    2    0    0  0.00000000000E+00  0.00000000000E+00 -0.63918487361E+03  0.36893592449E+04  0.36335677144E+04 0.  0.
        1    1    3    3  502    0 -0.69361097868E+03 -0.89826431714E+03 -0.17600826034E+04  0.20942458653E+04  0.50400001928E-02 0. -1.
       -1    1    3    3    0  502  0.69361097868E+03  0.89826431714E+03  0.11208977298E+04  0.15951133797E+04  0.50400001928E-02 0.  1.
</event>
<event>
 5   0  0.1496000E-07  0.3645296E+04  0.7818609E-02  0.8080194E-01
        1   -1    0    0  501    0  0.00000000000E+00  0.00000000000E+00  0.24987027773E+04  0.24987027773E+04  0.50400001928E-02 0.  1.
       -1   -1    0    0    0  501  0.00000000000E+00  0.00000000000E+00 -0.13295082879E+04  0.13295082879E+04  0.50400001928E-02 0. -1.
    10030    2    1    2    0    0  0.00000000000E+00  0.00000000000E+00  0.11691944894E+04  0.38282110652E+04  0.36452961753E+04 0.  0.
        3    1    3    3  502    0  0.34449387414E+02  0.97048598634E+03  0.22043985957E+04  0.24088177575E+04  0.10100000352E+00 0.  1.
       -3    1    3    3    0  502 -0.34449387414E+02 -0.97048598634E+03 -0.10352041063E+04  0.14193933077E+04  0.10100000352E+00 0. -1.
</event>
<event>
 5   0  0.1496000E-07  0.3708966E+04  0.7818609E-02  0.8065978E-01
       -1   -1    0    0    0  501  0.00000000000E+00  0.00000000000E+00  0.23665410110E+04  0.23665410110E+04  0.50400001928E-02 0. -1.
        1   -1    0    0  501    0  0.00000000000E+00  0.00000000000E+00 -0.14532212738E+04  0.14532212739E+04  0.50400001928E-02 0.  1.
    10030    2    1    2    0    0  0.00000000000E+00  0.00000000000E+00  0.91331973714E+03  0.38197622848E+04  0.37089662941E+04 0.  0.
        5    1    3    3  502    0  0.39064460930E+03 -0.14648092058E+04  0.15566564458E+04  0.21728945212E+04  0.46999998093E+01 0. -1.
       -5    1    3    3    0  502 -0.39064460930E+03  0.14648092058E+04 -0.64333670867E+03  0.16468677636E+04  0.46999998093E+01 0.  1.
</event>
<event>
 5   0  0.1496000E-07  0.3664714E+04  0.7818609E-02  0.8075827E-01
        1   -1    0    0  501    0  0.00000000000E+00  0.00000000000E+00  0.31519043221E+04  0.31519043221E+04  0.50400001928E-02 0.  1.
       -1   -1    0    0    0  501  0.00000000000E+00  0.00000000000E+00 -0.10652391851E+04  0.10652391851E+04  0.50400001928E-02 0. -1.
    10030    2    1    2    0    0  0.00000000000E+00  0.00000000000E+00  0.20866651370E+04  0.42171435071E+04  0.36647138996E+04 0.  0.
        5    1    3    3  502    0 -0.14344020971E+04 -0.10456904685E+04  0.52036838327E+03  0.18498062808E+04  0.46999998093E+01 0.  1.
       -5    1    3    3    0  502  0.14344020971E+04  0.10456904685E+04  0.15662967538E+04  0.23673372263E+04  0.46999998093E+01 0. -1.
</event>
<event>
 5   0  0.4758908E-07  0.3704851E+04  0.7818609E-02  0.8066888E-01
        2   -1    0    0  501    0  0.00000000000E+00  0.00000000000E+00  0.27379380601E+04  0.27379380601E+04  0.25500000920E-02 0. -1.
       -2   -1    0    0    0  501  0.00000000000E+00  0.00000000000E+00 -0.12533079470E+04  0.12533079471E+04  0.25500000920E-02 0.  1.
    10030    2    1    2    0    0  0.00000000000E+00  0.00000000000E+00  0.14846301130E+04  0.39912460071E+04  0.37048506200E+04 0.  0.
        2    1    3    3  502    0 -0.11711126862E+04 -0.12173852753E+04  0.15613115906E+04  0.23002664444E+04  0.25500000920E-02 0. -1.
       -2    1    3    3    0  502  0.11711126862E+04  0.12173852753E+04 -0.76681477626E+02  0.16909795627E+04  0.25500000920E-02 0.  1.
</event>
<event>
 5   0  0.4758908E-07  0.3503026E+04  0.7818609E-02  0.8113073E-01
       -2   -1    0    0    0  501  0.00000000000E+00  0.00000000000E+00  0.17862602032E+04  0.17862602032E+04  0.25500000920E-02 0.  1.
        2   -1    0    0  501    0  0.00000000000E+00  0.00000000000E+00 -0.17174412507E+04  0.17174412507E+04  0.25500000920E-02 0. -1.
    10030    2    1    2    0    0  0.00000000000E+00  0.00000000000E+00  0.68818952523E+02  0.35037014539E+04  0.35030255251E+04 0.  0.
        2    1    3    3  502    0 -0.11450827781E+04  0.73594011414E+03 -0.10680620448E+04  0.17301962178E+04  0.25500000920E-02 0. -1.
       -2    1    3    3    0  502  0.11450827781E+04 -0.73594011414E+03  0.11368809973E+04  0.17735052361E+04  0.25500000920E-02 0.  1.
</event>
<event>
 5   0  0.1496000E-07  0.3233279E+04  0.7818609E-02  0.8180083E-01
       -1   -1    0    0    0  501  0.00000000000E+00  0.00000000000E+00  0.12008618940E+04  0.12008618940E+04  0.50400001928E-02 0. -1.
        1   -1    0    0  501    0  0.00000000000E+00  0.00000000000E+00 -0.21763735099E+04  0.21763735099E+04  0.50400001928E-02 0.  1.
    10030    2    1    2    0    0  0.00000000000E+00  0.00000000000E+00 -0.97551161588E+03  0.33772354039E+04  0.32332794591E+04 0.  0.
        3    1    3    3  502    0 -0.93952193844E+02  0.10215138730E+04 -0.17928692156E+04  0.20655986159E+04  0.10100000352E+00 0.  1.
       -3    1    3    3    0  502  0.93952193844E+02 -0.10215138730E+04  0.81735759972E+03  0.13116367880E+04  0.10100000352E+00 0. -1.
</event>
<event>
 5   0  0.1496287E-07  0.3718448E+04  0.7818609E-02  0.8063886E-01
        1   -1    0    0  501    0  0.00000000000E+00  0.00000000000E+00  0.18509726947E+04  0.18509726947E+04  0.50400001928E-02 0.  1.
       -1   -1    0    0    0  501  0.00000000000E+00  0.00000000000E+00 -0.18675122091E+04  0.18675122091E+04  0.50400001928E-02 0. -1.
    10030    2    1    2    0    0  0.00000000000E+00  0.00000000000E+00 -0.16539514446E+02  0.37184849038E+04  0.37184481204E+04 0.  0.
        1    1    3    3  502    0 -0.65085174955E+03 -0.83346234523E+03  0.15209434032E+04  0.18524406378E+04  0.50400001928E-02 0.  1.
       -1    1    3    3    0  502  0.65085174955E+03  0.83346234523E+03 -0.15374829176E+04  0.18660442660E+04  0.50400001928E-02 0. -1.
</event>
<event>
 5   0  0.4824268E-07  0.3451903E+04  0.7818609E-02  0.8125284E-01
        2   -1    0    0  501    0  0.00000000000E+00  0.00000000000E+00  0.21336944179E+04  0.21336944179E+04  0.25500000920E-02 0. -1.
       -2   -1    0    0    0  501  0.00000000000E+00  0.00000000000E+00 -0.13961271133E+04  0.13961271133E+04  0.25500000920E-02 0.  1.
    10030    2    1    2    0    0  0.00000000000E+00  0.00000000000E+00  0.73756730462E+03  0.35298215312E+04  0.34519030278E+04 0.  0.
        1    1    3    3  502    0  0.94531994685E+03  0.11209180248E+04  0.12997300881E+04  0.19594349497E+04  0.50400001928E-02 0. -1.
       -1    1    3    3    0  502 -0.94531994685E+03 -0.11209180248E+04 -0.56216278345E+03  0.15703865815E+04  0.50400001928E-02 0.  1.
</event>
<event>
 5   0  0.4857514E-07  0.3701385E+04  0.7818609E-02  0.8067655E-01
       -2   -1    0    0    0  501  0.00000000000E+00  0.00000000000E+00  0.23664657104E+04  0.23664657104E+04  0.25500000920E-02 0.  1.
        2   -1    0    0  501    0  0.00000000000E+00  0.00000000000E+00 -0.14473324562E+04  0.14473324562E+04  0.25500000920E-02 0. -1.
    10030    2    1    2    0    0  0.00000000000E+00  0.00000000000E+00  0.91913325422E+03  0.38137981665E+04  0.37013849457E+04 0.  0.
        5    1    3    3  502    0 -0.14151804214E+04  0.83833289376E+03 -0.41442992150E+03  0.16962641055E+04  0.46999998093E+01 0. -1.
       -5    1    3    3    0  502  0.14151804214E+04 -0.83833289376E+03  0.13335631757E+04  0.21175340610E+04  0.46999998093E+01 0.  1.
</event>
<event>
 5   0  0.1496000E-07  0.3897315E+04  0.7818609E-02  0.8025588E-01
        1   -1    0    0  501    0  0.00000000000E+00  0.00000000000E+00  0.15605782818E+04  0.15605782818E+04  0.50400001928E-02 0.  1.
       -1   -1    0    0    0  501  0.00000000000E+00  0.00000000000E+00 -0.24332430476E+04  0.24332430476E+04  0.50400001928E-02 0. -1.
    10030    2    1    2    0    0  0.00000000000E+00  0.00000000000E+00 -0.87266476573E+03  0.39938213294E+04  0.38973151037E+04 0.  0.
        2    1    3    3  502    0 -0.16391521861E+04  0.84425482110E+03  0.20990202124E+03  0.18557060518E+04  0.25500000920E-02 0.  1.
       -2    1    3    3    0  502  0.16391521861E+04 -0.84425482110E+03 -0.10825667870E+04  0.21381152776E+04  0.25500000920E-02 0. -1.
</event>
<event>
 5   0  0.1496000E-07  0.3565250E+04  0.7818609E-02  0.8098498E-01
        1   -1    0    0  501    0  0.00000000000E+00  0.00000000000E+00  0.20629473449E+04  0.20629473449E+04  0.50400001928E-02 0.  1.
       -1   -1    0    0    0  501  0.00000000000E+00  0.00000000000E+00 -0.15403941302E+04  0.15403941302E+04  0.50400001928E-02 0. -1.
    10030    2    1    2    0    0  0.00000000000E+00  0.00000000000E+00  0.52255321473E+03  0.36033414751E+04  0.35652500507E+04 0.  0.
        2    1    3    3  502    0  0.14793308021E+04  0.33148204284E+03 -0.68653385807E+03  0.16642201493E+04  0.25500000920E-02 0. -1.
       -2    1    3    3    0  502 -0.14793308021E+04 -0.33148204284E+03  0.12090870728E+04  0.19391213259E+04  0.25500000920E-02 0.  1.
</event>
<event>
 5   0  0.1496000E-07  0.3743772E+04  0.7818609E-02  0.8058330E-01
       -1   -1    0    0    0  501  0.00000000000E+00  0.00000000000E+00  0.19417551714E+04  0.19417551714E+04  0.50400001928E-02 0. -1.
        1   -1    0    0  501    0  0.00000000000E+00  0.00000000000E+00 -0.18045304990E+04  0.18045304990E+04  0.50400001928E-02 0.  1.
    10030    2    1    2    0    0  0.00000000000E+00  0.00000000000E+00  0.13722467244E+03  0.37462856704E+04  0.37437715894E+04 0.  0.
        3    1    3    3  502    0 -0.15688583727E+04  0.95555227709E+03 -0.29157336149E+03  0.18599494034E+04  0.10100000352E+00 0.  1.
       -3    1    3    3    0  502  0.15688583727E+04 -0.95555227709E+03  0.42879803393E+03  0.18863362670E+04  0.10100000352E+00 0. -1.
</event>
<event>
 5   0  0.4793557E-07  0.3687482E+04  0.7818609E-02  0.8070742E-01
       -2   -1    0    0    0  501  0.00000000000E+00  0.00000000000E+00  0.18875849127E+04  0.18875849127E+04  0.25500000920E-02 0.  1.
        2   -1    0    0  501    0  0.00000000000E+00  0.00000000000E+00 -0.18009153822E+04  0.18009153822E+04  0.25500000920E-02 0. -1.
    10030    2    1    2    0    0  0.00000000000E+00  0.00000000000E+00  0.86669530454E+02  0.36885002949E+04  0.36874819075E+04 0.  0.
        3    1    3    3  502    0  0.25233668066E+03  0.92151373298E+03 -0.15339708325E+04  0.18071878390E+04  0.10100000352E+00 0. -1.
       -3    1    3    3    0  502 -0.25233668066E+03 -0.92151373298E+03  0.16206403629E+04  0.18813124559E+04  0.10100000352E+00 0.  1.
</event>
<event>
 5   0  0.1496000E-07  0.3645227E+04  0.7818609E-02  0.8080210E-01
        1   -1    0    0  501    0  0.00000000000E+00  0.00000000000E+00  0.19084231715E+04  0.19084231715E+04  0.50400001928E-02 0. -1.
       -1   -1    0    0    0  501  0.00000000000E+00  0.00000000000E+00 -0.17406620866E+04  0.17406620866E+04  0.50400001928E-02 0.  1.
    10030    2    1    2    0    0  0.00000000000E+00  0.00000000000E+00  0.16776108491E+03  0.36490852581E+04  0.36452269394E+04 0.  0.
        5    1    3    3  502    0 -0.82334412749E+03 -0.36900536261E+03 -0.15014108974E+04  0.17516612922E+04  0.46999998093E+01 0.  1.
       -5    1    3    3    0  502  0.82334412749E+03  0.36900536261E+03  0.16691719823E+04  0.18974239659E+04  0.46999998093E+01 0. -1.
</event>
<event>
 5   0  0.1522273E-07  0.3698379E+04  0.7818609E-02  0.8068321E-01
        1   -1    0    0  501    0  0.00000000000E+00  0.00000000000E+00  0.19821637071E+04  0.19821637071E+04  0.50400001928E-02 0. -1.
       -1   -1    0    0    0  501  0.00000000000E+00  0.00000000000E+00 -0.17251362163E+04  0.17251362163E+04  0.50400001928E-02 0.  1.
    10030    2    1    2    0    0  0.00000000000E+00  0.00000000000E+00  0.25702749078E+03  0.37072999233E+04  0.36983793195E+04 0.  0.
        4    1    3    3  502    0 -0.13184106239E+04  0.62942169093E+03  0.12648805580E+04  0.19324343914E+04  0.12699999809E+01 0. -1.
       -4    1    3    3    0  502  0.13184106239E+04 -0.62942169093E+03 -0.10078530672E+04  0.17748655319E+04  0.12699999809E+01 0.  1.
</event>
<event>
 5   0  0.4793557E-07  0.3725367E+04  0.7818609E-02  0.8062363E-01
        2   -1    0    0  501    0  0.00000000000E+00  0.00000000000E+00  0.12910214436E+04  0.12910214436E+04  0.25500000920E-02 0. -1.
       -2   -1    0    0    0  501  0.00000000000E+00  0.00000000000E+00 -0.26874765114E+04  0.26874765114E+04  0.25500000920E-02 0.  1.
    10030    2    1    2    0    0  0.00000000000E+00  0.00000000000E+00 -0.13964550678E+04  0.39784979551E+04  0.37253669916E+04 0.  0.
        3    1    3    3  502    0  0.97215262239E+03 -0.13542970958E+03  0.99242809860E+03  0.13958278793E+04  0.10100000352E+00 0. -1.
       -3    1    3    3    0  502 -0.97215262239E+03  0.13542970958E+03 -0.23888831664E+04  0.25826700758E+04  0.10100000352E+00 0.  1.
</event>
<event>
 5   0  0.4857514E-07  0.3674386E+04  0.7818609E-02  0.8073662E-01
       -2   -1    0    0    0  501  0.00000000000E+00  0.00000000000E+00  0.15288822837E+04  0.15288822837E+04  0.25500000920E-02 0. -1.
        2   -1    0    0  501    0  0.00000000000E+00  0.00000000000E+00 -0.22076772891E+04  0.22076772891E+04  0.25500000920E-02 0.  1.
    10030    2    1    2    0    0  0.00000000000E+00  0.00000000000E+00 -0.67879500541E+03  0.37365595727E+04  0.36743863136E+04 0.  0.
        5    1    3    3  502    0 -0.18103420821E+04  0.20046880702E+03 -0.95060404724E+02  0.18238927510E+04  0.46999998093E+01 0. -1.
       -5    1    3    3    0  502  0.18103420821E+04 -0.20046880702E+03 -0.58373460068E+03  0.19126668217E+04  0.46999998093E+01 0.  1.
</event>
<event>
 5   0  0.4857514E-07  0.3701867E+04  0.7818609E-02  0.8067548E-01
        2   -1    0    0  501    0  0.00000000000E+00  0.00000000000E+00  0.23728044870E+04  0.23728044870E+04  0.25500000920E-02 0. -1.
       -2   -1    0    0    0  501  0.00000000000E+00  0.00000000000E+00 -0.14438417910E+04  0.14438417910E+04  0.25500000920E-02 0.  1.
    10030    2    1    2    0    0  0.00000000000E+00  0.00000000000E+00  0.92896269600E+03  0.38166462779E+04  0.37018667075E+04 0.  0.
        5    1    3    3  502    0 -0.24080775051E+03  0.68271735662E+03  0.22207782216E+04  0.23358016528E+04  0.46999998093E+01 0. -1.
       -5    1    3    3    0  502  0.24080775051E+03 -0.68271735662E+03 -0.12918155256E+04  0.14808446251E+04  0.46999998093E+01 0.  1.
</event>
<event>
 5   0  0.4857514E-07  0.3613087E+04  0.7818609E-02  0.8087501E-01
       -2   -1    0    0    0  501  0.00000000000E+00  0.00000000000E+00  0.12675966673E+04  0.12675966673E+04  0.25500000920E-02 0. -1.
        2   -1    0    0  501    0  0.00000000000E+00  0.00000000000E+00 -0.25746353999E+04  0.25746353999E+04  0.25500000920E-02 0.  1.
    10030    2    1    2    0    0  0.00000000000E+00  0.00000000000E+00 -0.13070387326E+04  0.38422320672E+04  0.36130869086E+04 0.  0.
        5    1    3    3  502    0  0.11743881627E+04  0.68561653330E+03 -0.19181944442E+04  0.23513293268E+04  0.46999998093E+01 0.  1.
       -5    1    3    3    0  502 -0.11743881627E+04 -0.68561653330E+03  0.61115571155E+03  0.14909027404E+04  0.46999998093E+01 0. -1.
</event>
<event>
 5   0  0.4758908E-07  0.3640431E+04  0.7818609E-02  0.8081293E-01
        2   -1    0    0  501    0  0.00000000000E+00  0.00000000000E+00  0.20710150281E+04  0.20710150281E+04  0.25500000920E-02 0.  1.
       -2   -1    0    0    0  501  0.00000000000E+00  0.00000000000E+00 -0.15997873430E+04  0.15997873430E+04  0.25500000920E-02 0. -1.
    10030    2    1    2    0    0  0.00000000000E+00  0.00000000000E+00  0.47122768509E+03  0.36708023711E+04  0.36404305400E+04 0.  0.
        2    1    3    3  502    0 -0.67891586812E+03  0.16624748667E+04 -0.64246033642E+02  0.17969076190E+04  0.25500000920E-02 0. -1.
       -2    1    3    3    0  502  0.67891586812E+03 -0.16624748667E+04  0.53547371873E+03  0.18738947521E+04  0.25500000920E-02 0.  1.
</event>
<event>
 5   0  0.4687817E-07  0.3454218E+04  0.7818609E-02  0.8124726E-01
       -2   -1    0    0    0  501  0.00000000000E+00  0.00000000000E+00  0.13557742359E+04  0.13557742359E+04  0.25500000920E-02 0.  1.
        2   -1    0    0  501    0  0.00000000000E+00  0.00000000000E+00 -0.22001490096E+04  0.22001490096E+04  0.25500000920E-02 0. -1.
    10030    2    1    2    0    0  0.00000000000E+00  0.00000000000E+00 -0.84437477369E+03  0.35559232455E+04  0.34542179100E+04 0.  0.
        4    1    3    3  502    0  0.61969869370E+03 -0.97541034174E+03  0.89913569436E+03  0.14642057285E+04  0.12699999809E+01 0.  1.
       -4    1    3    3    0  502 -0.61969869370E+03  0.97541034174E+03 -0.17435104680E+04  0.20917175170E+04  0.12699999809E+01 0. -1.
</event>
<event>
 5   0  0.4793557E-07  0.3721567E+04  0.7818609E-02  0.8063199E-01
        2   -1    0    0  501    0  0.00000000000E+00  0.00000000000E+00  0.13442116005E+04  0.13442116005E+04  0.25500000920E-02 0. -1.
       -2   -1    0    0    0  501  0.00000000000E+00  0.00000000000E+00 -0.25758704663E+04  0.25758704663E+04  0.25500000920E-02 0.  1.
    10030    2    1    2    0    0  0.00000000000E+00  0.00000000000E+00 -0.12316588658E+04  0.39200820668E+04  0.37215668540E+04 0.  0.
        3    1    3    3  502    0 -0.11240645111E+04  0.58817233288E+03 -0.20497086789E+04  0.24105545828E+04  0.10100000352E+00 0.  1.
       -3    1    3    3    0  502  0.11240645111E+04 -0.58817233288E+03  0.81804981301E+03  0.15095274840E+04  0.10100000352E+00 0. -1.
</event>
<event>
 5   0  0.4857514E-07  0.3700200E+04  0.7818609E-02  0.8067917E-01
       -2   -1    0    0    0  501  0.00000000000E+00  0.00000000000E+00  0.16956127143E+04  0.16956127143E+04  0.25500000920E-02 0. -1.
        2   -1    0    0  501    0  0.00000000000E+00  0.00000000000E+00 -0.20186626970E+04  0.20186626970E+04  0.25500000920E-02 0.  1.
    10030    2    1    2    0    0  0.00000000000E+00  0.00000000000E+00 -0.32304998261E+03  0.37142754113E+04  0.37002000675E+04 0.  0.
        5    1    3    3  502    0 -0.67920116342E+03 -0.17203895198E+04 -0.11901149992E+03  0.18534400847E+04  0.46999998093E+01 0. -1.
       -5    1    3    3    0  502  0.67920116342E+03  0.17203895198E+04 -0.20403848268E+03  0.18608353266E+04  0.46999998093E+01 0.  1.
</event>
<event>
 5   0  0.4824268E-07  0.3695224E+04  0.7818609E-02  0.8069021E-01
       -2   -1    0    0    0  501  0.00000000000E+00  0.00000000000E+00  0.19540319068E+04  0.19540319068E+04  0.25500000920E-02 0. -1.
        2   -1    0    0  501    0  0.00000000000E+00  0.00000000000E+00 -0.17469878528E+04  0.17469878528E+04  0.25500000920E-02 0.  1.
    10030    2    1    2    0    0  0.00000000000E+00  0.00000000000E+00  0.20704405402E+03  0.37010197597E+04  0.36952239473E+04 0.  0.
        1    1    3    3  502    0  0.51124888242E+03  0.82756730493E+03  0.16767903239E+04  0.19385223379E+04  0.50400001928E-02 0. -1.
       -1    1    3    3    0  502 -0.51124888242E+03 -0.82756730493E+03 -0.14697462699E+04  0.17624974218E+04  0.50400001928E-02 0.  1.
</event>
<event>
 5   0  0.4824268E-07  0.3698626E+04  0.7818609E-02  0.8068266E-01
        2   -1    0    0  501    0  0.00000000000E+00  0.00000000000E+00  0.16404378676E+04  0.16404378676E+04  0.25500000920E-02 0.  1.
       -2   -1    0    0    0  501  0.00000000000E+00  0.00000000000E+00 -0.20847834569E+04  0.20847834569E+04  0.25500000920E-02 0. -1.
    10030    2    1    2    0    0  0.00000000000E+00  0.00000000000E+00 -0.44434558934E+03  0.37252213245E+04  0.36986255439E+04 0.  0.
        1    1    3    3  502    0  0.21414284747E+03 -0.47505022140E+03 -0.20093128498E+04  0.20757812988E+04  0.50400001928E-02 0. -1.
       -1    1    3    3    0  502 -0.21414284747E+03  0.47505022140E+03  0.15649672605E+04  0.16494400257E+04  0.50400001928E-02 0.  1.
</event>
<event>
 5   0  0.1496000E-07  0.3684157E+04  0.7818609E-02  0.8071482E-01
       -1   -1    0    0    0  501  0.00000000000E+00  0.00000000000E+00  0.18258121752E+04  0.18258121752E+04  0.50400001928E-02 0. -1.
        1   -1    0    0  501    0  0.00000000000E+00  0.00000000000E+00 -0.18584895485E+04  0.18584895485E+04  0.50400001928E-02 0.  1.
    10030    2    1    2    0    0  0.00000000000E+00  0.00000000000E+00 -0.32677373267E+02  0.36843017238E+04  0.36841568073E+04 0.  0.
        2    1    3    3  502    0  0.17721166235E+04 -0.45931421328E+03 -0.22100736180E+03  0.18439661406E+04  0.25500000920E-02 0.  1.
       -2    1    3    3    0  502 -0.17721166235E+04  0.45931421328E+03  0.18832998854E+03  0.18403355831E+04  0.25500000920E-02 0. -1.
</event>
<event>
 5   0  0.4793557E-07  0.3750401E+04  0.7818609E-02  0.8056883E-01
        2   -1    0    0  501    0  0.00000000000E+00  0.00000000000E+00  0.19650622511E+04  0.19650622511E+04  0.25500000920E-02 0. -1.
       -2   -1    0    0    0  501  0.00000000000E+00  0.00000000000E+00 -0.17894477796E+04  0.17894477796E+04  0.25500000920E-02 0.  1.
    10030    2    1    2    0    0  0.00000000000E+00  0.00000000000E+00  0.17561447151E+03  0.37545100308E+04  0.37504006624E+04 0.  0.
        3    1    3    3  502    0  0.59557296319E+03 -0.11103865611E+04 -0.13024948000E+04  0.18122246505E+04  0.10100000352E+00 0.  1.
       -3    1    3    3    0  502 -0.59557296319E+03  0.11103865611E+04  0.14781092716E+04  0.19422853803E+04  0.10100000352E+00 0. -1.
</event>
<event>
 5   0  0.1522273E-07  0.4220251E+04  0.7818609E-02  0.7961531E-01
        1   -1    0    0  501    0  0.00000000000E+00  0.00000000000E+00  0.20503706205E+04  0.20503706205E+04  0.50400001928E-02 0.  1.
       -1   -1    0    0    0  501  0.00000000000E+00  0.00000000000E+00 -0.21716222415E+04  0.21716222415E+04  0.50400001928E-02 0. -1.
    10030    2    1    2    0    0  0.00000000000E+00  0.00000000000E+00 -0.12125162097E+03  0.42219928620E+04  0.42202513872E+04 0.  0.
        4    1    3    3  502    0  0.10603963220E+04 -0.45130294673E+03 -0.18289847380E+04  0.21617820181E+04  0.12699999809E+01 0. -1.
       -4    1    3    3    0  502 -0.10603963220E+04  0.45130294673E+03  0.17077331170E+04  0.20602108439E+04  0.12699999809E+01 0.  1.
</event>
<event>
 5   0  0.1496287E-07  0.3777734E+04  0.7818609E-02  0.8050950E-01
        1   -1    0    0  501    0  0.00000000000E+00  0.00000000000E+00  0.19147918411E+04  0.19147918411E+04  0.50400001928E-02 0.  1.
       -1   -1    0    0    0  501  0.00000000000E+00  0.00000000000E+00 -0.18632934850E+04  0.18632934850E+04  0.50400001928E-02 0. -1.
    10030    2    1    2    0    0  0.00000000000E+00  0.00000000000E+00  0.51498356069E+02  0.37780853261E+04  0.37777343277E+04 0.  0.
        1    1    3    3  502    0  0.79906304320E+03 -0.42820812067E+03  0.16829955421E+04  0.19116322702E+04  0.50400001928E-02 0.  1.
       -1    1    3    3    0  502 -0.79906304320E+03  0.42820812067E+03 -0.16314971861E+04  0.18664530559E+04  0.50400001928E-02 0. -1.
</event>
<event>
 5   0  0.1496000E-07  0.3492278E+04  0.7818609E-02  0.8115623E-01
       -1   -1    0    0    0  501  0.00000000000E+00  0.00000000000E+00  0.15199676260E+04  0.15199676260E+04  0.50400001928E-02 0.  1.
        1   -1    0    0  501    0  0.00000000000E+00  0.00000000000E+00 -0.20059641748E+04  0.20059641748E+04  0.50400001928E-02 0. -1.
    10030    2    1    2    0    0  0.00000000000E+00  0.00000000000E+00 -0.48599654884E+03  0.35259318008E+04  0.34922775402E+04 0.  0.
        5    1    3    3  502    0  0.13840961023E+04  0.10451681248E+04 -0.38861592290E+02  0.17348287359E+04  0.46999998093E+01 0.  1.
       -5    1    3    3    0  502 -0.13840961023E+04 -0.10451681248E+04 -0.44713495655E+03  0.17911030649E+04  0.46999998093E+01 0. -1.
</event>
<event>
 5   0  0.4687817E-07  0.3673881E+04  0.7818609E-02  0.8073775E-01
        2   -1    0    0  501    0  0.00000000000E+00  0.00000000000E+00  0.25026852608E+04  0.25026852608E+04  0.25500000920E-02 0. -1.
       -2   -1    0    0    0  501  0.00000000000E+00  0.00000000000E+00 -0.13482923196E+04  0.13482923196E+04  0.25500000920E-02 0.  1.
    10030    2    1    2    0    0  0.00000000000E+00  0.00000000000E+00  0.11543929413E+04  0.38509775804E+04  0.36738814981E+04 0.  0.
        4    1    3    3  502    0 -0.71378319514E+03  0.87750288189E+03 -0.93993254169E+03  0.14707047811E+04  0.12699999809E+01 0.  1.
       -4    1    3    3    0  502  0.71378319514E+03 -0.87750288189E+03  0.20943254830E+04  0.23802727993E+04  0.12699999809E+01 0. -1.
</event>
<event>
 5   0  0.1522273E-07  0.3718537E+04  0.7818609E-02  0.8063866E-01
        1   -1    0    0  501    0  0.00000000000E+00  0.00000000000E+00  0.25403432813E+04  0.25403432813E+04  0.50400001928E-02 0.  1.
       -1   -1    0    0    0  501  0.00000000000E+00  0.00000000000E+00 -0.13607920469E+04  0.13607920469E+04  0.50400001928E-02 0. -1.
    10030    2    1    2    0    0  0.00000000000E+00  0.00000000000E+00  0.11795512344E+04  0.39011353282E+04  0.37185367733E+04 0.  0.
        4    1    3    3  502    0  0.62253440237E+03  0.12626534407E+04  0.18639240620E+04  0.23358204801E+04  0.12699999809E+01 0.  1.
       -4    1    3    3    0  502 -0.62253440237E+03 -0.12626534407E+04 -0.68437282763E+03  0.15653148481E+04  0.12699999809E+01 0. -1.
</event>
<event>
 5   0  0.4758908E-07  0.3876579E+04  0.7818609E-02  0.8029918E-01
       -2   -1    0    0    0  501  0.00000000000E+00  0.00000000000E+00  0.25802400954E+04  0.25802400954E+04  0.25500000920E-02 0.  1.
        2   -1    0    0  501    0  0.00000000000E+00  0.00000000000E+00 -0.14560526579E+04  0.14560526579E+04  0.25500000920E-02 0. -1.
    10030    2    1    2    0    0  0.00000000000E+00  0.00000000000E+00  0.11241874375E+04  0.40362927533E+04  0.38765786198E+04 0.  0.
        2    1    3    3  502    0  0.85156203763E+03  0.11145053758E+04 -0.83081417294E+03  0.16301939537E+04  0.25500000920E-02 0. -1.
       -2    1    3    3    0  502 -0.85156203763E+03 -0.11145053758E+04  0.19550016104E+04  0.24060987996E+04  0.25500000920E-02 0.  1.
</event>
<event>
 5   0  0.4824268E-07  0.3646985E+04  0.7818609E-02  0.8079813E-01
       -2   -1    0    0    0  501  0.00000000000E+00  0.00000000000E+00  0.14308510311E+04  0.14308510311E+04  0.25500000920E-02 0.  1.
        2   -1    0    0  501    0  0.00000000000E+00  0.00000000000E+00 -0.23238791279E+04  0.23238791279E+04  0.25500000920E-02 0. -1.
    10030    2    1    2    0    0  0.00000000000E+00  0.00000000000E+00 -0.89302809679E+03  0.37547301589E+04  0.36469849718E+04 0.  0.
        1    1    3    3  502    0 -0.39870016776E+03  0.11191920277E+04 -0.18707016050E+04  0.22160950146E+04  0.50400001928E-02 0. -1.
       -1    1    3    3    0  502  0.39870016776E+03 -0.11191920277E+04  0.97767350820E+03  0.15386351443E+04  0.50400001928E-02 0.  1.
</event>
<event>
 5   0  0.4857514E-07  0.3052144E+04  0.7818609E-02  0.8228996E-01
        2   -1    0    0  501    0  0.00000000000E+00  0.00000000000E+00  0.16704544524E+04  0.16704544524E+04  0.25500000920E-02 0. -1.
       -2   -1    0    0    0  501  0.00000000000E+00  0.00000000000E+00 -0.13941686467E+04  0.13941686467E+04  0.25500000920E-02 0.  1.
    10030    2    1    2    0    0  0.00000000000E+00  0.00000000000E+00  0.27628580567E+03  0.30646230991E+04  0.30521436554E+04 0.  0.
        5    1    3    3  502    0 -0.38691312506E+03 -0.12594048680E+04 -0.63511675141E+03  0.14625996601E+04  0.46999998093E+01 0.  1.
       -5    1    3    3    0  502  0.38691312506E+03  0.12594048680E+04  0.91140255708E+03  0.16020234389E+04  0.46999998093E+01 0. -1.
</event>
<event>
 5   0  0.1496000E-07  0.3820177E+04  0.7818609E-02  0.8041839E-01
       -1   -1    0    0    0  501  0.00000000000E+00  0.00000000000E+00  0.22704043046E+04  0.22704043046E+04  0.50400001928E-02 0.  1.
        1   -1    0    0  501    0  0.00000000000E+00  0.00000000000E+00 -0.16069553127E+04  0.16069553127E+04  0.50400001928E-02 0. -1.
    10030    2    1    2    0    0  0.00000000000E+00  0.00000000000E+00  0.66344899185E+03  0.38773596173E+04  0.38201770950E+04 0.  0.
        2    1    3    3  502    0 -0.36811639689E+02  0.17911227577E+04  0.10041841949E+04  0.20537433450E+04  0.25500000920E-02 0.  1.
       -2    1    3    3    0  502  0.36811639689E+02 -0.17911227577E+04 -0.34073520301E+03  0.18236162723E+04  0.25500000920E-02 0. -1.
</event>
<event>
 5   0  0.1522273E-07  0.3742958E+04  0.7818609E-02  0.8058508E-01
       -1   -1    0    0    0  501  0.00000000000E+00  0.00000000000E+00  0.23561229722E+04  0.23561229722E+04  0.50400001928E-02 0. -1.
        1   -1    0    0  501    0  0.00000000000E+00  0.00000000000E+00 -0.14865243838E+04  0.14865243838E+04  0.50400001928E-02 0.  1.
    10030    2    1    2    0    0  0.00000000000E+00  0.00000000000E+00  0.86959858848E+03  0.38426473560E+04  0.37429583216E+04 0.  0.
        4    1    3    3  502    0  0.15970242523E+04  0.97311102813E+03  0.50740125627E+03  0.19377536436E+04  0.12699999809E+01 0.  1.
       -4    1    3    3    0  502 -0.15970242523E+04 -0.97311102813E+03  0.36219733221E+03  0.19048937124E+04  0.12699999809E+01 0. -1.
</event>
<event>
 5   0  0.4687817E-07  0.3717873E+04  0.7818609E-02  0.8064013E-01
        2   -1    0    0  501    0  0.00000000000E+00  0.00000000000E+00  0.15413132209E+04  0.15413132209E+04  0.25500000920E-02 0.  1.
       -2   -1    0    0    0  501  0.00000000000E+00  0.00000000000E+00 -0.22420130038E+04  0.22420130038E+04  0.25500000920E-02 0. -1.
    10030    2    1    2    0    0  0.00000000000E+00  0.00000000000E+00 -0.70069978289E+03  0.37833262248E+04  0.37178726629E+04 0.  0.
        4    1    3    3  502    0  0.29855874329E+03  0.16553228736E+04  0.45504552193E+03  0.17424979710E+04  0.12699999809E+01 0.  1.
       -4    1    3    3    0  502 -0.29855874329E+03 -0.16553228736E+04 -0.11557453048E+04  0.20408282538E+04  0.12699999809E+01 0. -1.
</event>
<event>
 5   0  0.4793557E-07  0.3677682E+04  0.7818609E-02  0.8072926E-01
        2   -1    0    0  501    0  0.00000000000E+00  0.00000000000E+00  0.17920020659E+04  0.17920020660E+04  0.25500000920E-02 0.  1.
       -2   -1    0    0    0  501  0.00000000000E+00  0.00000000000E+00 -0.18869038624E+04  0.18869038624E+04  0.25500000920E-02 0. -1.
    10030    2    1    2    0    0  0.00000000000E+00  0.00000000000E+00 -0.94901796417E+02  0.36789059283E+04  0.36776816717E+04 0.  0.
        3    1    3    3  502    0  0.88588410900E+03 -0.14075780245E+04 -0.83210289725E+03  0.18596940048E+04  0.10100000352E+00 0.  1.
       -3    1    3    3    0  502 -0.88588410900E+03  0.14075780245E+04  0.73720110083E+03  0.18192119236E+04  0.10100000352E+00 0. -1.
</event>
<event>
 5   0  0.1496287E-07  0.3681849E+04  0.7818609E-02  0.8071996E-01
        1   -1    0    0  501    0  0.00000000000E+00  0.00000000000E+00  0.24630271554E+04  0.24630271554E+04  0.50400001928E-02 0.  1.
       -1   -1    0    0    0  501  0.00000000000E+00  0.00000000000E+00 -0.13759499522E+04  0.13759499523E+04  0.50400001928E-02 0. -1.
    10030    2    1    2    0    0  0.00000000000E+00  0.00000000000E+00  0.10870772032E+04  0.38389771077E+04  0.36818485015E+04 0.  0.
        1    1    3    3  502    0 -0.41237121007E+03  0.15343270621E+04 -0.42609035667E+03  0.16449202231E+04  0.50400001928E-02 0.  1.
       -1    1    3    3    0  502  0.41237121007E+03 -0.15343270621E+04  0.15131675599E+04  0.21940568846E+04  0.50400001928E-02 0. -1.
</event>
<event>
 5   0  0.1496000E-07  0.3654343E+04  0.7818609E-02  0.8078156E-01
        1   -1    0    0  501    0  0.00000000000E+00  0.00000000000E+00  0.10544547558E+04  0.10544547558E+04  0.50400001928E-02 0. -1.
       -1   -1    0    0    0  501  0.00000000000E+00  0.00000000000E+00 -0.31661433750E+04  0.31661433750E+04  0.50400001928E-02 0.  1.
    10030    2    1    2    0    0  0.00000000000E+00  0.00000000000E+00 -0.21116886192E+04  0.42205981308E+04  0.36543425889E+04 0.  0.
        3    1    3    3  502    0  0.36452003867E+03 -0.13350466250E+04  0.32205547720E+03  0.14208955240E+04  0.10100000352E+00 0. -1.
       -3    1    3    3    0  502 -0.36452003867E+03  0.13350466250E+04 -0.24337440964E+04  0.27997026068E+04  0.10100000352E+00 0.  1.
</event>
<event>
 5   0  0.1496000E-07  0.3700689E+04  0.7818609E-02  0.8067809E-01
       -1   -1    0    0    0  501  0.00000000000E+00  0.00000000000E+00  0.23058701760E+04  0.23058701760E+04  0.50400001928E-02 0.  1.
        1   -1    0    0  501    0  0.00000000000E+00  0.00000000000E+00 -0.14848077417E+04  0.14848077417E+04  0.50400001928E-02 0. -1.
    10030    2    1    2    0    0  0.00000000000E+00  0.00000000000E+00  0.82106243430E+03  0.37906779178E+04  0.37006885245E+04 0.  0.
        2    1    3    3  502    0 -0.15257195858E+04  0.75273151622E+03 -0.33472457296E+03  0.17339162407E+04  0.25500000920E-02 0. -1.
       -2    1    3    3    0  502  0.15257195858E+04 -0.75273151622E+03  0.11557870073E+04  0.20567616771E+04  0.25500000920E-02 0.  1.
</event>
<event>
 5   0  0.1496000E-07  0.3691846E+04  0.7818609E-02  0.8069771E-01
        1   -1    0    0  501    0  0.00000000000E+00  0.00000000000E+00  0.24729819811E+04  0.24729819811E+04  0.50400001928E-02 0. -1.
       -1   -1    0    0    0  501  0.00000000000E+00  0.00000000000E+00 -0.13778631767E+04  0.13778631767E+04  0.50400001928E-02 0.  1.
    10030    2    1    2    0    0  0.00000000000E+00  0.00000000000E+00  0.10951188044E+04  0.38508451579E+04  0.36918455052E+04 0.  0.
        2    1    3    3  502    0  0.15775121194E+03  0.73772218109E+03 -0.12097270231E+04  0.14256784111E+04  0.25500000920E-02 0.  1.
       -2    1    3    3    0  502 -0.15775121194E+03 -0.73772218109E+03  0.23048458275E+04  0.24251667468E+04  0.25500000920E-02 0. -1.
</event>
<event>
 5   0  0.4857514E-07  0.3708420E+04  0.7818609E-02  0.8066098E-01
        2   -1    0    0  501    0  0.00000000000E+00  0.00000000000E+00  0.18908368058E+04  0.18908368058E+04  0.25500000920E-02 0. -1.
       -2   -1    0    0    0  501  0.00000000000E+00  0.00000000000E+00 -0.18182927448E+04  0.18182927448E+04  0.25500000920E-02 0.  1.
    10030    2    1    2    0    0  0.00000000000E+00  0.00000000000E+00  0.72544060952E+02  0.37091295506E+04  0.37084200655E+04 0.  0.
        5    1    3    3  502    0  0.44254300217E+03 -0.15430014583E+04 -0.89200840667E+03  0.18364092400E+04  0.46999998093E+01 0.  1.
       -5    1    3    3    0  502 -0.44254300217E+03  0.15430014583E+04  0.96455246762E+03  0.18727203106E+04  0.46999998093E+01 0. -1.
</event>
<event>
 5   0  0.1496000E-07  0.3691611E+04  0.7818609E-02  0.8069823E-01
        1   -1    0    0  501    0  0.00000000000E+00  0.00000000000E+00  0.18044842939E+04  0.18044842939E+04  0.50400001928E-02 0.  1.
       -1   -1    0    0    0  501  0.00000000000E+00  0.00000000000E+00 -0.18880732889E+04  0.18880732889E+04  0.50400001928E-02 0. -1.
    10030    2    1    2    0    0  0.00000000000E+00  0.00000000000E+00 -0.83588994964E+02  0.36925575828E+04  0.36916113531E+04 0.  0.
        5    1    3    3  502    0  0.17874810133E+04  0.13499066010E+03 -0.48198189772E+03  0.18562433814E+04  0.46999998093E+01 0. -1.
       -5    1    3    3    0  502 -0.17874810133E+04 -0.13499066010E+03  0.39839290275E+03  0.18363142014E+04  0.46999998093E+01 0.  1.
</event>
<event>
 5   0  0.1496000E-07  0.3722081E+04  0.7818609E-02  0.8063086E-01
        1   -1    0    0  501    0  0.00000000000E+00  0.00000000000E+00  0.14752104490E+04  0.14752104490E+04  0.50400001928E-02 0.  1.
       -1   -1    0    0    0  501  0.00000000000E+00  0.00000000000E+00 -0.23477820104E+04  0.23477820104E+04  0.50400001928E-02 0. -1.
    10030    2    1    2    0    0  0.00000000000E+00  0.00000000000E+00 -0.87257156134E+03  0.38229924594E+04  0.37220814359E+04 0.  0.
        3    1    3    3  502    0  0.15903609913E+04 -0.92369889859E+03 -0.14395606572E+03  0.18447739961E+04  0.10100000352E+00 0. -1.
       -3    1    3    3    0  502 -0.15903609913E+04  0.92369889859E+03 -0.72861549562E+03  0.19782184633E+04  0.10100000352E+00 0.  1.
</event>
<event>
 5   0  0.1496000E-07  0.3704663E+04  0.7818609E-02  0.8066929E-01
       -1   -1    0    0    0  501  0.00000000000E+00  0.00000000000E+00  0.12918692410E+04  0.12918692410E+04  0.50400001928E-02 0. -1.
        1   -1    0    0  501    0  0.00000000000E+00  0.00000000000E+00 -0.26559436201E+04  0.26559436201E+04  0.50400001928E-02 0.  1.
    10030    2    1    2    0    0  0.00000000000E+00  0.00000000000E+00 -0.13640743792E+04  0.39478128611E+04  0.37046629367E+04 0.  0.
        5    1    3    3  502    0 -0.85423218506E+03 -0.10205865638E+04  0.69085288660E+03  0.14995363821E+04  0.46999998093E+01 0. -1.
       -5    1    3    3    0  502  0.85423218506E+03  0.10205865638E+04 -0.20549272658E+04  0.24482764790E+04  0.46999998093E+01 0.  1.
</event>
<event>
 5   0  0.1496287E-07  0.3708553E+04  0.7818609E-02  0.8066069E-01
       -1   -1    0    0    0  501  0.00000000000E+00  0.00000000000E+00  0.15003728711E+04  0.15003728711E+04  0.50400001928E-02 0. -1.
        1   -1    0    0  501    0  0.00000000000E+00  0.00000000000E+00 -0.22916578362E+04  0.22916578362E+04  0.50400001928E-02 0.  1.
    10030    2    1    2    0    0  0.00000000000E+00  0.00000000000E+00 -0.79128496510E+03  0.37920307073E+04  0.37085529509E+04 0.  0.
        1    1    3    3  502    0  0.93946869174E+01  0.18205203639E+04 -0.75564511647E+03  0.19711372853E+04  0.50400001928E-02 0.  1.
       -1    1    3    3    0  502 -0.93946869174E+01 -0.18205203639E+04 -0.35639848626E+02  0.18208934220E+04  0.50400001928E-02 0. -1.
</event>
<event>
 5   0  0.4758908E-07  0.3687274E+04  0.7818609E-02  0.8070788E-01
        2   -1    0    0  501    0  0.00000000000E+00  0.00000000000E+00  0.22044381643E+04  0.22044381643E+04  0.25500000920E-02 0.  1.
       -2   -1    0    0    0  501  0.00000000000E+00  0.00000000000E+00 -0.15418886892E+04  0.15418886892E+04  0.25500000920E-02 0. -1.
    10030    2    1    2    0    0  0.00000000000E+00  0.00000000000E+00  0.66254947517E+03  0.37463268535E+04  0.36872744794E+04 0.  0.
        2    1    3    3  502    0 -0.34679662011E+03 -0.11959607206E+04 -0.10500607088E+04  0.16288699866E+04  0.25500000920E-02 0. -1.
       -2    1    3    3    0  502  0.34679662011E+03  0.11959607206E+04  0.17126101840E+04  0.21174568669E+04  0.25500000920E-02 0.  1.
</event>
<event>
 5   0  0.4824268E-07  0.3702705E+04  0.7818609E-02  0.8067363E-01
       -2   -1    0    0    0  501  0.00000000000E+00  0.00000000000E+00  0.18660918940E+04  0.18660918940E+04  0.25500000920E-02 0. -1.
        2   -1    0    0  501    0  0.00000000000E+00  0.00000000000E+00 -0.18367296082E+04  0.18367296082E+04  0.25500000920E-02 0.  1.
    10030    2    1    2    0    0  0.00000000000E+00  0.00000000000E+00  0.29362285812E+02  0.37028215022E+04  0.37027050833E+04 0.  0.
        1    1    3    3  502    0  0.80743678118E+03  0.16503887034E+04  0.24221676828E+03  0.18532150417E+04  0.50400001928E-02 0.  1.
       -1    1    3    3    0  502 -0.80743678118E+03 -0.16503887034E+04 -0.21285448247E+03  0.18496064605E+04  0.50400001928E-02 0. -1.
</event>
<event>
 5   0  0.1496000E-07  0.3952509E+04  0.7818609E-02  0.8014196E-01
       -3   -1    0    0    0  501  0.00000000000E+00  0.00000000000E+00  0.23152071891E+04  0.23152071913E+04  0.10100000352E+00 0. -1.
        3   -1    0    0  501    0  0.00000000000E+00  0.00000000000E+00 -0.16869251527E+04  0.16869251558E+04  0.10100000352E+00 0.  1.
    10030    2    1    2    0    0  0.00000000000E+00  0.00000000000E+00  0.62828203634E+03  0.40021323470E+04  0.39525086978E+04 0.  0.
        3    1    3    3  502    0  0.89182336322E+03  0.66532573194E+02  0.20985966596E+04  0.22812021928E+04  0.10100000352E+00 0. -1.
       -3    1    3    3    0  502 -0.89182336322E+03 -0.66532573194E+02 -0.14703146232E+04  0.17209301543E+04  0.10100000352E+00 0.  1.
</event>
<event>
 5   0  0.1496000E-07  0.3640657E+04  0.7818609E-02  0.8081242E-01
       -1   -1    0    0    0  501  0.00000000000E+00  0.00000000000E+00  0.10359490702E+04  0.10359490702E+04  0.50400001928E-02 0.  1.
        1   -1    0    0  501    0  0.00000000000E+00  0.00000000000E+00 -0.31986087695E+04  0.31986087695E+04  0.50400001928E-02 0. -1.
    10030    2    1    2    0    0  0.00000000000E+00  0.00000000000E+00 -0.21626596993E+04  0.42345578397E+04  0.36406569631E+04 0.  0.
        2    1    3    3  502    0 -0.14297788530E+04 -0.11012545200E+04 -0.80469384138E+03  0.19759962715E+04  0.25500000920E-02 0.  1.
       -2    1    3    3    0  502  0.14297788530E+04  0.11012545200E+04 -0.13579658579E+04  0.22585615683E+04  0.25500000920E-02 0. -1.
</event>
<event>
 5   0  0.1496000E-07  0.3732884E+04  0.7818609E-02  0.8060713E-01
       -1   -1    0    0    0  501  0.00000000000E+00  0.00000000000E+00  0.12210956418E+04  0.12210956418E+04  0.50400001928E-02 0. -1.
        1   -1    0    0  501    0  0.00000000000E+00  0.00000000000E+00 -0.28528532475E+04  0.28528532475E+04  0.50400001928E-02 0.  1.
    10030    2    1    2    0    0  0.00000000000E+00  0.00000000000E+00 -0.16317576056E+04  0.40739488893E+04  0.37328844972E+04 0.  0.
        3    1    3    3  502    0 -0.16411388101E+03 -0.16789451541E+04 -0.16874821423E+04  0.23860817646E+04  0.10100000352E+00 0.  1.
       -3    1    3    3    0  502  0.16411388101E+03  0.16789451541E+04  0.55724536736E+02  0.16878671247E+04  0.10100000352E+00 0. -1.
</event>
<event>
 5   0  0.4758908E-07  0.3682804E+04  0.7818609E-02  0.8071783E-01
       -2   -1    0    0    0  501  0.00000000000E+00  0.00000000000E+00  0.13509306081E+04  0.13509306081E+04  0.25500000920E-02 0. -1.
        2   -1    0    0  501    0  0.00000000000E+00  0.00000000000E+00 -0.25099454107E+04  0.25099454107E+04  0.25500000920E-02 0.  1.
    10030    2    1    2    0    0  0.00000000000E+00  0.00000000000E+00 -0.11590148026E+04  0.38608760188E+04  0.36828044097E+04 0.  0.
        2    1    3    3  502    0 -0.14239625697E+04 -0.74689323500E+03  0.36123501860E+03  0.16480320516E+04  0.25500000920E-02 0. -1.
       -2    1    3    3    0  502  0.14239625697E+04  0.74689323500E+03 -0.15202498212E+04  0.22128439672E+04  0.25500000920E-02 0.  1.
</event>
<event>
 5   0  0.4824268E-07  0.3710676E+04  0.7818609E-02  0.8065600E-01
        2   -1    0    0  501    0  0.00000000000E+00  0.00000000000E+00  0.17398896368E+04  0.17398896368E+04  0.25500000920E-02 0. -1.
       -2   -1    0    0    0  501  0.00000000000E+00  0.00000000000E+00 -0.19784467048E+04  0.19784467048E+04  0.25500000920E-02 0.  1.
    10030    2    1    2    0    0  0.00000000000E+00  0.00000000000E+00 -0.23855706800E+03  0.37183363415E+04  0.37106759053E+04 0.  0.
        1    1    3    3  502    0  0.11091474584E+04 -0.41228847648E+03  0.13126883844E+04  0.17672975603E+04  0.50400001928E-02 0. -1.
       -1    1    3    3    0  502 -0.11091474584E+04  0.41228847648E+03 -0.15512454524E+04  0.19510387812E+04  0.50400001928E-02 0.  1.
</event>
<event>
 5   0  0.1496287E-07  0.3712453E+04  0.7818609E-02  0.8065208E-01
       -1   -1    0    0    0  501  0.00000000000E+00  0.00000000000E+00  0.16140383290E+04  0.16140383290E+04  0.50400001928E-02 0. -1.
        1   -1    0    0  501    0  0.00000000000E+00  0.00000000000E+00 -0.21347548729E+04  0.21347548729E+04  0.50400001928E-02 0.  1.
    10030    2    1    2    0    0  0.00000000000E+00  0.00000000000E+00 -0.52071654393E+03  0.37487932019E+04  0.37124526598E+04 0.  0.
        1    1    3    3  502    0 -0.63911517952E+02 -0.89235410291E+03 -0.19026846191E+04  0.21025197471E+04  0.50400001928E-02 0.  1.
       -1    1    3    3    0  502  0.63911517952E+02  0.89235410291E+03  0.13819680752E+04  0.16462734548E+04  0.50400001928E-02 0. -1.
</event>
<event>
 5   0  0.4758908E-07  0.3657357E+04  0.7818609E-02  0.8077478E-01
       -2   -1    0    0    0  501  0.00000000000E+00  0.00000000000E+00  0.19060533860E+04  0.19060533860E+04  0.25500000920E-02 0.  1.
        2   -1    0    0  501    0  0.00000000000E+00  0.00000000000E+00 -0.17544444898E+04  0.17544444898E+04  0.25500000920E-02 0. -1.
    10030    2    1    2    0    0  0.00000000000E+00  0.00000000000E+00  0.15160889615E+03  0.36604978758E+04  0.36573568928E+04 0.  0.
        2    1    3    3  502    0  0.96278447563E+03  0.70414553278E+03 -0.13114920071E+04  0.17727905016E+04  0.25500000920E-02 0. -1.
       -2    1    3    3    0  502 -0.96278447563E+03 -0.70414553278E+03  0.14631009032E+04  0.18877073743E+04  0.25500000920E-02 0.  1.
</event>
<event>
 5   0  0.1522273E-07  0.3691007E+04  0.7818609E-02  0.8069958E-01
       -1   -1    0    0    0  501  0.00000000000E+00  0.00000000000E+00  0.18076863526E+04  0.18076863526E+04  0.50400001928E-02 0. -1.
        1   -1    0    0  501    0  0.00000000000E+00  0.00000000000E+00 -0.18841120519E+04  0.18841120519E+04  0.50400001928E-02 0.  1.
    10030    2    1    2    0    0  0.00000000000E+00  0.00000000000E+00 -0.76425699302E+02  0.36917984045E+04  0.36910072571E+04 0.  0.
        4    1    3    3  502    0 -0.64816536517E+03 -0.12366378819E+04 -0.12453229885E+04  0.18708881714E+04  0.12699999809E+01 0.  1.
       -4    1    3    3    0  502  0.64816536517E+03  0.12366378819E+04  0.11688972892E+04  0.18209102331E+04  0.12699999809E+01 0. -1.
</event>
<event>
 5   0  0.1496000E-07  0.3688532E+04  0.7818609E-02  0.8070508E-01
        1   -1    0    0  501    0  0.00000000000E+00  0.00000000000E+00  0.13767326325E+04  0.13767326325E+04  0.50400001928E-02 0. -1.
       -1   -1    0    0    0  501  0.00000000000E+00  0.00000000000E+00 -0.24705716413E+04  0.24705716414E+04  0.50400001928E-02 0.  1.
    10030    2    1    2    0    0  0.00000000000E+00  0.00000000000E+00 -0.10938390088E+04  0.38473042739E+04  0.36885317402E+04 0.  0.
        3    1    3    3  502    0  0.47751368824E+03 -0.15787261178E+04  0.31377971653E+03  0.16789440723E+04  0.10100000352E+00 0. -1.
       -3    1    3    3    0  502 -0.47751368824E+03  0.15787261178E+04 -0.14076187254E+04  0.21683602015E+04  0.10100000352E+00 0.  1.
</event>
<event>
 5   0  0.4857514E-07  0.3626417E+04  0.7818609E-02  0.8084467E-01
       -2   -1    0    0    0  501  0.00000000000E+00  0.00000000000E+00  0.18505763513E+04  0.18505763513E+04  0.25500000920E-02 0.  1.
        2   -1    0    0  501    0  0.00000000000E+00  0.00000000000E+00 -0.17765949588E+04  0.17765949588E+04  0.25500000920E-02 0. -1.
    10030    2    1    2    0    0  0.00000000000E+00  0.00000000000E+00  0.73981392583E+02  0.36271713101E+04  0.36264167530E+04 0.  0.
        5    1    3    3  502    0  0.16807493491E+04 -0.66452488706E+03  0.18259167801E+03  0.18165553972E+04  0.46999998093E+01 0. -1.
       -5    1    3    3    0  502 -0.16807493491E+04  0.66452488706E+03 -0.10861028543E+03  0.18106159129E+04  0.46999998093E+01 0.  1.
</event>
<event>
 5   0  0.4758908E-07  0.3727127E+04  0.7818609E-02  0.8061977E-01
        2   -1    0    0  501    0  0.00000000000E+00  0.00000000000E+00  0.22349986941E+04  0.22349986941E+04  0.25500000920E-02 0. -1.
       -2   -1    0    0    0  501  0.00000000000E+00  0.00000000000E+00 -0.15538571437E+04  0.15538571437E+04  0.25500000920E-02 0.  1.
    10030    2    1    2    0    0  0.00000000000E+00  0.00000000000E+00  0.68114155047E+03  0.37888558378E+04  0.37271268758E+04 0.  0.
        2    1    3    3  502    0  0.13920695861E+04  0.68239167442E+03 -0.71065102908E+03  0.17054445212E+04  0.25500000920E-02 0.  1.
       -2    1    3    3    0  502 -0.13920695861E+04 -0.68239167442E+03  0.13917925795E+04  0.20834113166E+04  0.25500000920E-02 0. -1.
</event>
<event>
 5   0  0.1496000E-07  0.3660672E+04  0.7818609E-02  0.8076734E-01
        3   -1    0    0  501    0  0.00000000000E+00  0.00000000000E+00  0.19158148846E+04  0.19158148872E+04  0.10100000352E+00 0. -1.
       -3   -1    0    0    0  501  0.00000000000E+00  0.00000000000E+00 -0.17486706383E+04  0.17486706412E+04  0.10100000352E+00 0.  1.
    10030    2    1    2    0    0  0.00000000000E+00  0.00000000000E+00  0.16714424627E+03  0.36644855284E+04  0.36606716582E+04 0.  0.
        4    1    3    3  502    0  0.11220776674E+04 -0.94891652997E+03  0.11758673959E+04  0.18820644564E+04  0.12699999809E+01 0. -1.
       -4    1    3    3    0  502 -0.11220776674E+04  0.94891652997E+03 -0.10087231496E+04  0.17824210720E+04  0.12699999809E+01 0.  1.
</event>
<event>
 5   0  0.1496000E-07  0.3713202E+04  0.7818609E-02  0.8065042E-01
        1   -1    0    0  501    0  0.00000000000E+00  0.00000000000E+00  0.20210949585E+04  0.20210949585E+04  0.50400001928E-02 0.  1.
       -1   -1    0    0    0  501  0.00000000000E+00  0.00000000000E+00 -0.17054950068E+04  0.17054950068E+04  0.50400001928E-02 0. -1.
    10030    2    1    2    0    0  0.00000000000E+00  0.00000000000E+00  0.31559995168E+03  0.37265899652E+04  0.37132020467E+04 0.  0.
        2    1    3    3  502    0  0.12744543202E+04  0.66083637385E+03  0.13393419686E+04  0.19633582038E+04  0.25500000920E-02 0.  1.
       -2    1    3    3    0  502 -0.12744543202E+04 -0.66083637385E+03 -0.10237420169E+04  0.17632317615E+04  0.25500000920E-02 0. -1.
</event>
<event>
 5   0  0.1496287E-07  0.3609619E+04  0.7818609E-02  0.8088292E-01
        1   -1    0    0  501    0  0.00000000000E+00  0.00000000000E+00  0.20613838088E+04  0.20613838088E+04  0.50400001928E-02 0.  1.
       -1   -1    0    0    0  501  0.00000000000E+00  0.00000000000E+00 -0.15801704680E+04  0.15801704680E+04  0.50400001928E-02 0. -1.
    10030    2    1    2    0    0  0.00000000000E+00  0.00000000000E+00  0.48121334077E+03  0.36415542768E+04  0.36096192696E+04 0.  0.
        1    1    3    3  502    0  0.33472644204E+03 -0.12045589230E+04  0.15537885517E+04  0.19943076125E+04  0.50400001928E-02 0.  1.
       -1    1    3    3    0  502 -0.33472644204E+03  0.12045589230E+04 -0.10725752109E+04  0.16472466643E+04  0.50400001928E-02 0. -1.
</event>
<event>
 5   0  0.4758908E-07  0.3678619E+04  0.7818609E-02  0.8072717E-01
        2   -1    0    0  501    0  0.00000000000E+00  0.00000000000E+00  0.14951234404E+04  0.14951234404E+04  0.25500000920E-02 0. -1.
       -2   -1    0    0    0  501  0.00000000000E+00  0.00000000000E+00 -0.22627295172E+04  0.22627295172E+04  0.25500000920E-02 0.  1.
    10030    2    1    2    0    0  0.00000000000E+00  0.00000000000E+00 -0.76760607676E+03  0.37578529576E+04  0.36786192739E+04 0.  0.
        2    1    3    3  502    0 -0.13159093354E+04  0.89426557662E+03  0.55896821295E+03  0.16863492413E+04  0.25500000920E-02 0. -1.
       -2    1    3    3    0  502  0.13159093354E+04 -0.89426557662E+03 -0.13265742897E+04  0.20715037163E+04  0.25500000920E-02 0.  1.
</event>
<event>
 5   0  0.1496287E-07  0.3696015E+04  0.7818609E-02  0.8068846E-01
        1   -1    0    0  501    0  0.00000000000E+00  0.00000000000E+00  0.29715670039E+04  0.29715670039E+04  0.50400001928E-02 0.  1.
       -1   -1    0    0    0  501  0.00000000000E+00  0.00000000000E+00 -0.11492696456E+04  0.11492696456E+04  0.50400001928E-02 0. -1.
    10030    2    1    2    0    0  0.00000000000E+00  0.00000000000E+00  0.18222973583E+04  0.41208366495E+04  0.36960150203E+04 0.  0.
        1    1    3    3  502    0 -0.84397077774E+03 -0.94999150118E+03 -0.58485099211E+03  0.13988642568E+04  0.50400001928E-02 0. -1.
       -1    1    3    3    0  502  0.84397077774E+03  0.94999150118E+03  0.24071483504E+04  0.27219723927E+04  0.50400001928E-02 0.  1.
</event>
<event>
 5   0  0.4857514E-07  0.3716201E+04  0.7818609E-02  0.8064381E-01
        2   -1    0    0  501    0  0.00000000000E+00  0.00000000000E+00  0.21541554861E+04  0.21541554861E+04  0.25500000920E-02 0. -1.
       -2   -1    0    0    0  501  0.00000000000E+00  0.00000000000E+00 -0.16027332557E+04  0.16027332557E+04  0.25500000920E-02 0.  1.
    10030    2    1    2    0    0  0.00000000000E+00  0.00000000000E+00  0.55142223033E+03  0.37568887418E+04  0.37162005519E+04 0.  0.
        5    1    3    3  502    0  0.46959562261E+02 -0.13012788210E+04  0.16157362431E+04  0.20751283015E+04  0.46999998093E+01 0. -1.
       -5    1    3    3    0  502 -0.46959562261E+02  0.13012788210E+04 -0.10643140128E+04  0.16817604402E+04  0.46999998093E+01 0.  1.
</event>
<event>
 5   0  0.1496000E-07  0.3718076E+04  0.7818609E-02  0.8063968E-01
        1   -1    0    0  501    0  0.00000000000E+00  0.00000000000E+00  0.30746966458E+04  0.30746966458E+04  0.50400001928E-02 0.  1.
       -1   -1    0    0    0  501  0.00000000000E+00  0.00000000000E+00 -0.11240204158E+04  0.11240204158E+04  0.50400001928E-02 0. -1.
    10030    2    1    2    0    0  0.00000000000E+00  0.00000000000E+00  0.19506762299E+04  0.41987170616E+04  0.37180757402E+04 0.  0.
        3    1    3    3  502    0 -0.59583052906E+03 -0.12707781804E+04  0.23519986549E+04  0.27389393724E+04  0.10100000352E+00 0.  1.
       -3    1    3    3    0  502  0.59583052906E+03  0.12707781804E+04 -0.40132242491E+03  0.14597776892E+04  0.10100000352E+00 0. -1.
</event>
<event>
 5   0  0.1496000E-07  0.3969583E+04  0.7818609E-02  0.8010711E-01
       -1   -1    0    0    0  501  0.00000000000E+00  0.00000000000E+00  0.18755785615E+04  0.18755785615E+04  0.50400001928E-02 0. -1.
        1   -1    0    0  501    0  0.00000000000E+00  0.00000000000E+00 -0.21003637188E+04  0.21003637188E+04  0.50400001928E-02 0.  1.
    10030    2    1    2    0    0  0.00000000000E+00  0.00000000000E+00 -0.22478515730E+03  0.39759422802E+04  0.39695829313E+04 0.  0.
        5    1    3    3  502    0  0.44685833194E+02 -0.92750745003E+03  0.16445864337E+04  0.18886380070E+04  0.46999998093E+01 0. -1.
       -5    1    3    3    0  502 -0.44685833194E+02  0.92750745003E+03 -0.18693715910E+04  0.20873042732E+04  0.46999998093E+01 0.  1.
</event>
<event>
 5   0  0.4758908E-07  0.3649346E+04  0.7818609E-02  0.8079281E-01
        2   -1    0    0  501    0  0.00000000000E+00  0.00000000000E+00  0.17302774059E+04  0.17302774059E+04  0.25500000920E-02 0. -1.
       -2   -1    0    0    0  501  0.00000000000E+00  0.00000000000E+00 -0.19242179621E+04  0.19242179621E+04  0.25500000920E-02 0.  1.
    10030    2    1    2    0    0  0.00000000000E+00  0.00000000000E+00 -0.19394055624E+03  0.36544953680E+04  0.36493456201E+04 0.  0.
        2    1    3    3  502    0 -0.48495180527E+03 -0.99383500820E+03 -0.15504124174E+04  0.19043804612E+04  0.25500000920E-02 0.  1.
       -2    1    3    3    0  502  0.48495180527E+03  0.99383500820E+03  0.13564718611E+04  0.17501149068E+04  0.25500000920E-02 0. -1.
</event>
<event>
 5   0  0.1496287E-07  0.3743727E+04  0.7818609E-02  0.8058340E-01
        1   -1    0    0  501    0  0.00000000000E+00  0.00000000000E+00  0.20636721492E+04  0.20636721492E+04  0.50400001928E-02 0.  1.
       -1   -1    0    0    0  501  0.00000000000E+00  0.00000000000E+00 -0.16978822682E+04  0.16978822682E+04  0.50400001928E-02 0. -1.
    10030    2    1    2    0    0  0.00000000000E+00  0.00000000000E+00  0.36578988106E+03  0.37615544174E+04  0.37437266725E+04 0.  0.
        1    1    3    3  502    0 -0.83863005687E+03  0.42299245275E+03  0.18097562031E+04  0.20389802604E+04  0.50400001928E-02 0.  1.
       -1    1    3    3    0  502  0.83863005687E+03 -0.42299245275E+03 -0.14439663220E+04  0.17225741571E+04  0.50400001928E-02 0. -1.
</event>
<event>
 5   0  0.4758908E-07  0.3719663E+04  0.7818609E-02  0.8063618E-01
       -2   -1    0    0    0  501  0.00000000000E+00  0.00000000000E+00  0.24403550862E+04  0.24403550862E+04  0.25500000920E-02 0.  1.
        2   -1    0    0  501    0  0.00000000000E+00  0.00000000000E+00 -0.14174057228E+04  0.14174057228E+04  0.25500000920E-02 0. -1.
    10030    2    1    2    0    0  0.00000000000E+00  0.00000000000E+00  0.10229493634E+04  0.38577608091E+04  0.37196630304E+04 0.  0.
        2    1    3    3  502    0 -0.12122581504E+04  0.23545922984E+03 -0.93082567463E+03  0.15464305056E+04  0.25500000920E-02 0. -1.
       -2    1    3    3    0  502  0.12122581504E+04 -0.23545922984E+03  0.19537750380E+04  0.23113303034E+04  0.25500000920E-02 0.  1.
</event>
<event>
 5   0  0.1496000E-07  0.3679837E+04  0.7818609E-02  0.8072445E-01
        1   -1    0    0  501    0  0.00000000000E+00  0.00000000000E+00  0.26903703913E+04  0.26903703913E+04  0.50400001928E-02 0.  1.
       -1   -1    0    0    0  501  0.00000000000E+00  0.00000000000E+00 -0.12583025206E+04  0.12583025206E+04  0.50400001928E-02 0. -1.
    10030    2    1    2    0    0  0.00000000000E+00  0.00000000000E+00  0.14320678707E+04  0.39486729118E+04  0.36798368685E+04 0.  0.
        2    1    3    3  502    0  0.15365493608E+03 -0.46090605688E+03 -0.11882274029E+04  0.12837167108E+04  0.25500000920E-02 0. -1.
       -2    1    3    3    0  502 -0.15365493608E+03  0.46090605688E+03  0.26202952736E+04  0.26649562010E+04  0.25500000920E-02 0.  1.
</event>
<event>
 5   0  0.1496000E-07  0.3757218E+04  0.7818609E-02  0.8055399E-01
        1   -1    0    0  501    0  0.00000000000E+00  0.00000000000E+00  0.22493532545E+04  0.22493532545E+04  0.50400001928E-02 0. -1.
       -1   -1    0    0    0  501  0.00000000000E+00  0.00000000000E+00 -0.15689714703E+04  0.15689714703E+04  0.50400001928E-02 0.  1.
    10030    2    1    2    0    0  0.00000000000E+00  0.00000000000E+00  0.68038178423E+03  0.38183247248E+04  0.37572176317E+04 0.  0.
        2    1    3    3  502    0 -0.18114429334E+04 -0.49719522939E+03  0.36595044384E+03  0.19137524198E+04  0.25500000920E-02 0. -1.
       -2    1    3    3    0  502  0.18114429334E+04  0.49719522939E+03  0.31443134039E+03  0.19045723050E+04  0.25500000920E-02 0.  1.
</event>
<event>
 5   0  0.1522273E-07  0.3704174E+04  0.7818609E-02  0.8067037E-01
        1   -1    0    0  501    0  0.00000000000E+00  0.00000000000E+00  0.19079575188E+04  0.19079575188E+04  0.50400001928E-02 0. -1.
       -1   -1    0    0    0  501  0.00000000000E+00  0.00000000000E+00 -0.17978527759E+04  0.17978527759E+04  0.50400001928E-02 0.  1.
    10030    2    1    2    0    0  0.00000000000E+00  0.00000000000E+00  0.11010474286E+03  0.37058102947E+04  0.37041742515E+04 0.  0.
        4    1    3    3  502    0 -0.76792904661E+03 -0.11501056177E+02  0.17411387923E+04  0.19030011040E+04  0.12699999809E+01 0. -1.
       -4    1    3    3    0  502  0.76792904661E+03  0.11501056177E+02 -0.16310340494E+04  0.18028091907E+04  0.12699999809E+01 0.  1.
</event>
<event>
 5   0  0.1522273E-07  0.3725784E+04  0.7818609E-02  0.8062272E-01
        1   -1    0    0  501    0  0.00000000000E+00  0.00000000000E+00  0.22047721912E+04  0.22047721912E+04  0.50400001928E-02 0. -1.
       -1   -1    0    0    0  501  0.00000000000E+00  0.00000000000E+00 -0.15740251158E+04  0.15740251158E+04  0.50400001928E-02 0.  1.
    10030    2    1    2    0    0  0.00000000000E+00  0.00000000000E+00  0.63074707539E+03  0.37787973070E+04  0.37257841073E+04 0.  0.
        4    1    3    3  502    0  0.15506168084E+04  0.10160151653E+04  0.50146692765E+03  0.19204608809E+04  0.12699999809E+01 0. -1.
       -4    1    3    3    0  502 -0.15506168084E+04 -0.10160151653E+04  0.12928014773E+03  0.18583364260E+04  0.12699999809E+01 0.  1.
</event>
<event>
 5   0  0.1496000E-07  0.3217459E+04  0.7818609E-02  0.8184221E-01
        1   -1    0    0  501    0  0.00000000000E+00  0.00000000000E+00  0.30967791814E+04  0.30967791814E+04  0.50400001928E-02 0.  1.
       -1   -1    0    0    0  501  0.00000000000E+00  0.00000000000E+00 -0.83571050770E+03  0.83571050772E+03  0.50400001928E-02 0. -1.
    10030    2    1    2    0    0  0.00000000000E+00  0.00000000000E+00  0.22610686737E+04  0.39324896891E+04  0.32174591851E+04 0.  0.
        5    1    3    3  502    0 -0.12119869020E+04  0.17799238878E+03  0.24050590655E+04  0.26990599733E+04  0.46999998093E+01 0.  1.
       -5    1    3    3    0  502  0.12119869020E+04 -0.17799238878E+03 -0.14399039178E+03  0.12334297158E+04  0.46999998093E+01 0. -1.
</event>
<event>
 5   0  0.1496000E-07  0.3782529E+04  0.7818609E-02  0.8049915E-01
        1   -1    0    0  501    0  0.00000000000E+00  0.00000000000E+00  0.13814806061E+04  0.13814806061E+04  0.50400001928E-02 0.  1.
       -1   -1    0    0    0  501  0.00000000000E+00  0.00000000000E+00 -0.25891652242E+04  0.25891652242E+04  0.50400001928E-02 0. -1.
    10030    2    1    2    0    0  0.00000000000E+00  0.00000000000E+00 -0.12076846180E+04  0.39706458303E+04  0.37825290710E+04 0.  0.
        3    1    3    3  502    0 -0.13267302889E+04 -0.10305374354E+04  0.30807359887E+03  0.17079607776E+04  0.10100000352E+00 0.  1.
       -3    1    3    3    0  502  0.13267302889E+04  0.10305374354E+04 -0.15157582169E+04  0.22626850527E+04  0.10100000352E+00 0. -1.
</event>
<event>
 5   0  0.4857514E-07  0.3702200E+04  0.7818609E-02  0.8067474E-01
        2   -1    0    0  501    0  0.00000000000E+00  0.00000000000E+00  0.33057986861E+04  0.33057986861E+04  0.25500000920E-02 0. -1.
       -2   -1    0    0    0  501  0.00000000000E+00  0.00000000000E+00 -0.10365335393E+04  0.10365335393E+04  0.25500000920E-02 0.  1.
    10030    2    1    2    0    0  0.00000000000E+00  0.00000000000E+00  0.22692651468E+04  0.43423322253E+04  0.37022000012E+04 0.  0.
        5    1    3    3  502    0  0.29363438087E+03 -0.90992458675E+03 -0.72447515906E+03  0.11996125413E+04  0.46999998093E+01 0.  1.
       -5    1    3    3    0  502 -0.29363438087E+03  0.90992458675E+03  0.29937403059E+04  0.31427196840E+04  0.46999998093E+01 0. -1.
</event>
<event>
 5   0  0.1496000E-07  0.3722372E+04  0.7818609E-02  0.8063022E-01
       -1   -1    0    0    0  501  0.00000000000E+00  0.00000000000E+00  0.16860271737E+04  0.16860271737E+04  0.50400001928E-02 0. -1.
        1   -1    0    0  501    0  0.00000000000E+00  0.00000000000E+00 -0.20545419193E+04  0.20545419193E+04  0.50400001928E-02 0.  1.
    10030    2    1    2    0    0  0.00000000000E+00  0.00000000000E+00 -0.36851474554E+03  0.37405690930E+04  0.37223720961E+04 0.  0.
        5    1    3    3  502    0 -0.32580840866E+03  0.48513246392E+03 -0.19599516782E+04  0.20452230435E+04  0.46999998093E+01 0.  1.
       -5    1    3    3    0  502  0.32580840866E+03 -0.48513246392E+03  0.15914369327E+04  0.16953460495E+04  0.46999998093E+01 0. -1.
</event>
<event>
 5   0  0.4824268E-07  0.3649653E+04  0.7818609E-02  0.8079212E-01
        2   -1    0    0  501    0  0.00000000000E+00  0.00000000000E+00  0.21985517843E+04  0.21985517843E+04  0.25500000920E-02 0.  1.
       -2   -1    0    0    0  501  0.00000000000E+00  0.00000000000E+00 -0.15146300187E+04  0.15146300187E+04  0.25500000920E-02 0. -1.
    10030    2    1    2    0    0  0.00000000000E+00  0.00000000000E+00  0.68392176558E+03  0.37131818031E+04  0.36496534248E+04 0.  0.
        1    1    3    3  502    0 -0.84556932472E+03  0.14241629435E+04 -0.43737858894E+03  0.17130462932E+04  0.50400001928E-02 0. -1.
       -1    1    3    3    0  502  0.84556932472E+03 -0.14241629435E+04  0.11213003545E+04  0.20001355098E+04  0.50400001928E-02 0.  1.
</event>
<event>
 5   0  0.1496000E-07  0.3673863E+04  0.7818609E-02  0.8073779E-01
        1   -1    0    0  501    0  0.00000000000E+00  0.00000000000E+00  0.23275527676E+04  0.23275527676E+04  0.50400001928E-02 0. -1.
       -1   -1    0    0    0  501  0.00000000000E+00  0.00000000000E+00 -0.14497271707E+04  0.14497271707E+04  0.50400001928E-02 0.  1.
    10030    2    1    2    0    0  0.00000000000E+00  0.00000000000E+00  0.87782559695E+03  0.37772799383E+04  0.36738625388E+04 0.  0.
        3    1    3    3  502    0  0.12549265014E+03 -0.10881540330E+04 -0.10772116959E+04  0.15362983606E+04  0.10100000352E+00 0.  1.
       -3    1    3    3    0  502 -0.12549265014E+03  0.10881540330E+04  0.19550372929E+04  0.22409815777E+04  0.10100000352E+00 0. -1.
</event>
<event>
 5   0  0.1522273E-07  0.3704052E+04  0.7818609E-02  0.8067064E-01
        1   -1    0    0  501    0  0.00000000000E+00  0.00000000000E+00  0.14138168303E+04  0.14138168303E+04  0.50400001928E-02 0. -1.
       -1   -1    0    0    0  501  0.00000000000E+00  0.00000000000E+00 -0.24260570390E+04  0.24260570390E+04  0.50400001928E-02 0.  1.
    10030    2    1    2    0    0  0.00000000000E+00  0.00000000000E+00 -0.10122402087E+04  0.38398738693E+04  0.37040519829E+04 0.  0.
        4    1    3    3  502    0 -0.15876125218E+04 -0.29452599667E+03 -0.14464301609E+04  0.21678147765E+04  0.12699999809E+01 0.  1.
       -4    1    3    3    0  502  0.15876125218E+04  0.29452599667E+03  0.43418995217E+03  0.16720590927E+04  0.12699999809E+01 0. -1.
</event>
<event>
 5   0  0.4824268E-07  0.3665198E+04  0.7818609E-02  0.8075718E-01
        2   -1    0    0  501    0  0.00000000000E+00  0.00000000000E+00  0.26403523846E+04  0.26403523846E+04  0.25500000920E-02 0.  1.
       -2   -1    0    0    0  501  0.00000000000E+00  0.00000000000E+00 -0.12719587840E+04  0.12719587840E+04  0.25500000920E-02 0. -1.
    10030    2    1    2    0    0  0.00000000000E+00  0.00000000000E+00  0.13683936005E+04  0.39123111686E+04  0.36651981712E+04 0.  0.
        1    1    3    3  502    0  0.13227551478E+04 -0.84494278980E+03 -0.32552404165E+03  0.16029895198E+04  0.50400001928E-02 0. -1.
       -1    1    3    3    0  502 -0.13227551478E+04  0.84494278980E+03  0.16939176422E+04  0.23093216488E+04  0.50400001928E-02 0.  1.
</event>
<event>
 5   0  0.4793557E-07  0.3733380E+04  0.7818609E-02  0.8060604E-01
       -2   -1    0    0    0  501  0.00000000000E+00  0.00000000000E+00  0.20763746445E+04  0.20763746445E+04  0.25500000920E-02 0.  1.
        2   -1    0    0  501    0  0.00000000000E+00  0.00000000000E+00 -0.16781807498E+04  0.16781807498E+04  0.25500000920E-02 0. -1.
    10030    2    1    2    0    0  0.00000000000E+00  0.00000000000E+00  0.39819389471E+03  0.37545553944E+04  0.37333802153E+04 0.  0.
        3    1    3    3  502    0  0.13922782640E+04 -0.11606537904E+04  0.64769419154E+03  0.19248542183E+04  0.10100000352E+00 0.  1.
       -3    1    3    3    0  502 -0.13922782640E+04  0.11606537904E+04 -0.24950029684E+03  0.18297011761E+04  0.10100000352E+00 0. -1.
</event>
<event>
 5   0  0.4824268E-07  0.3689212E+04  0.7818609E-02  0.8070357E-01
       -2   -1    0    0    0  501  0.00000000000E+00  0.00000000000E+00  0.23142389476E+04  0.23142389476E+04  0.25500000920E-02 0. -1.
        2   -1    0    0  501    0  0.00000000000E+00  0.00000000000E+00 -0.14702766852E+04  0.14702766852E+04  0.25500000920E-02 0.  1.
    10030    2    1    2    0    0  0.00000000000E+00  0.00000000000E+00  0.84396226242E+03  0.37845156329E+04  0.36892121483E+04 0.  0.
        1    1    3    3  502    0 -0.70720354755E+03  0.26808247287E+03  0.21478720937E+04  0.22771384677E+04  0.50400001928E-02 0. -1.
       -1    1    3    3    0  502  0.70720354755E+03 -0.26808247287E+03 -0.13039098313E+04  0.15073771652E+04  0.50400001928E-02 0.  1.
</event>
<event>
 5   0  0.4793557E-07  0.3735880E+04  0.7818609E-02  0.8060057E-01
        2   -1    0    0  501    0  0.00000000000E+00  0.00000000000E+00  0.20086064454E+04  0.20086064454E+04  0.25500000920E-02 0.  1.
       -2   -1    0    0    0  501  0.00000000000E+00  0.00000000000E+00 -0.17371245072E+04  0.17371245072E+04  0.25500000920E-02 0. -1.
    10030    2    1    2    0    0  0.00000000000E+00  0.00000000000E+00  0.27148193825E+03  0.37457309526E+04  0.37358798062E+04 0.  0.
        3    1    3    3  502    0 -0.65701252708E+03 -0.15354275544E+04 -0.70312299193E+03  0.18120665516E+04  0.10100000352E+00 0. -1.
       -3    1    3    3    0  502  0.65701252708E+03  0.15354275544E+04  0.97460493018E+03  0.19336644010E+04  0.10100000352E+00 0.  1.
</event>
<event>
 5   0  0.4758908E-07  0.3650835E+04  0.7818609E-02  0.8078945E-01
        2   -1    0    0  501    0  0.00000000000E+00  0.00000000000E+00  0.29407475855E+04  0.29407475855E+04  0.25500000920E-02 0. -1.
       -2   -1    0    0    0  501  0.00000000000E+00  0.00000000000E+00 -0.11330961387E+04  0.11330961387E+04  0.25500000920E-02 0.  1.
    10030    2    1    2    0    0  0.00000000000E+00  0.00000000000E+00  0.18076514469E+04  0.40738437242E+04  0.36508353751E+04 0.  0.
        2    1    3    3  502    0 -0.10941628275E+04 -0.13958661103E+04  0.13857394317E+04  0.22507572645E+04  0.25500000920E-02 0. -1.
       -2    1    3    3    0  502  0.10941628275E+04  0.13958661103E+04  0.42191201516E+03  0.18230864597E+04  0.25500000920E-02 0.  1.
</event>
<event>
 5   0  0.4824268E-07  0.3784385E+04  0.7818609E-02  0.8049514E-01
       -2   -1    0    0    0  501  0.00000000000E+00  0.00000000000E+00  0.16238285558E+04  0.16238285558E+04  0.25500000920E-02 0. -1.
        2   -1    0    0  501    0  0.00000000000E+00  0.00000000000E+00 -0.22049082641E+04  0.22049082641E+04  0.25500000920E-02 0.  1.
    10030    2    1    2    0    0  0.00000000000E+00  0.00000000000E+00 -0.58107970825E+03  0.38287368199E+04  0.37843852881E+04 0.  0.
        1    1    3    3  502    0 -0.55914878833E+03 -0.13408962510E+04  0.93599770472E+03  0.17282192646E+04  0.50400001928E-02 0. -1.
       -1    1    3    3    0  502  0.55914878833E+03  0.13408962510E+04 -0.15170774130E+04  0.21005175553E+04  0.50400001928E-02 0.  1.
</event>
<event>
 5   0  0.1496000E-07  0.3701930E+04  0.7818609E-02  0.8067534E-01
       -1   -1    0    0    0  501  0.00000000000E+00  0.00000000000E+00  0.22419827042E+04  0.22419827043E+04  0.50400001928E-02 0.  1.
        1   -1    0    0  501    0  0.00000000000E+00  0.00000000000E+00 -0.15281432542E+04  0.15281432542E+04  0.50400001928E-02 0. -1.
    10030    2    1    2    0    0  0.00000000000E+00  0.00000000000E+00  0.71383945008E+03  0.37701259584E+04  0.37019296295E+04 0.  0.
        5    1    3    3  502    0  0.14453284863E+04 -0.53975399278E+03 -0.68453292649E+03  0.16878732842E+04  0.46999998093E+01 0. -1.
       -5    1    3    3    0  502 -0.14453284863E+04  0.53975399278E+03  0.13983723766E+04  0.20822526743E+04  0.46999998093E+01 0.  1.
</event>
<event>
 5   0  0.1496000E-07  0.3835128E+04  0.7818609E-02  0.8038658E-01
       -1   -1    0    0    0  501  0.00000000000E+00  0.00000000000E+00  0.13804537673E+04  0.13804537673E+04  0.50400001928E-02 0.  1.
        1   -1    0    0  501    0  0.00000000000E+00  0.00000000000E+00 -0.26636539770E+04  0.26636539770E+04  0.50400001928E-02 0. -1.
    10030    2    1    2    0    0  0.00000000000E+00  0.00000000000E+00 -0.12832002097E+04  0.40441077442E+04  0.38351277252E+04 0.  0.
        5    1    3    3  502    0 -0.11288241148E+03 -0.55687424335E+03  0.12896384367E+04  0.14092695800E+04  0.46999998093E+01 0.  1.
       -5    1    3    3    0  502  0.11288241148E+03  0.55687424335E+03 -0.25728386464E+04  0.26348381643E+04  0.46999998093E+01 0. -1.
</event>
<event>
 5   0  0.4758908E-07  0.3640277E+04  0.7818609E-02  0.8081328E-01
        2   -1    0    0  501    0  0.00000000000E+00  0.00000000000E+00  0.23387088241E+04  0.23387088241E+04  0.25500000920E-02 0. -1.
       -2   -1    0    0    0  501  0.00000000000E+00  0.00000000000E+00 -0.14165525024E+04  0.14165525024E+04  0.25500000920E-02 0.  1.
    10030    2    1    2    0    0  0.00000000000E+00  0.00000000000E+00  0.92215632168E+03  0.37552613265E+04  0.36402768231E+04 0.  0.
        2    1    3    3  502    0 -0.10182879125E+03  0.94891726158E+03  0.20599014320E+04  0.22702438155E+04  0.25500000920E-02 0. -1.
       -2    1    3    3    0  502  0.10182879125E+03 -0.94891726158E+03 -0.11377451103E+04  0.14850175110E+04  0.25500000920E-02 0.  1.
</event>
<event>
 5   0  0.1496000E-07  0.3746687E+04  0.7818609E-02  0.8057693E-01
       -1   -1    0    0    0  501  0.00000000000E+00  0.00000000000E+00  0.16407792838E+04  0.16407792838E+04  0.50400001928E-02 0.  1.
        1   -1    0    0  501    0  0.00000000000E+00  0.00000000000E+00 -0.21388715294E+04  0.21388715294E+04  0.50400001928E-02 0. -1.
    10030    2    1    2    0    0  0.00000000000E+00  0.00000000000E+00 -0.49809224557E+03  0.37796508132E+04  0.37466871213E+04 0.  0.
        3    1    3    3  502    0 -0.44967462172E+03  0.18138259297E+04 -0.11657315887E+03  0.18723677738E+04  0.10100000352E+00 0. -1.
       -3    1    3    3    0  502  0.44967462172E+03 -0.18138259297E+04 -0.38151908670E+03  0.19072830394E+04  0.10100000352E+00 0.  1.
</event>
<event>
 5   0  0.1496000E-07  0.3628200E+04  0.7818609E-02  0.8084062E-01
       -1   -1    0    0    0  501  0.00000000000E+00  0.00000000000E+00  0.12014590836E+04  0.12014590836E+04  0.50400001928E-02 0. -1.
        1   -1    0    0  501    0  0.00000000000E+00  0.00000000000E+00 -0.27391357222E+04  0.27391357222E+04  0.50400001928E-02 0.  1.
    10030    2    1    2    0    0  0.00000000000E+00  0.00000000000E+00 -0.15376766386E+04  0.39405948058E+04  0.36282003775E+04 0.  0.
        5    1    3    3  502    0  0.18050378227E+04  0.15760874877E+03 -0.86558886823E+03  0.20080508554E+04  0.46999998093E+01 0. -1.
       -5    1    3    3    0  502 -0.18050378227E+04 -0.15760874877E+03 -0.67208777034E+03  0.19325439504E+04  0.46999998093E+01 0.  1.
</event>
<event>
 5   0  0.1496000E-07  0.3695967E+04  0.7818609E-02  0.8068856E-01
       -1   -1    0    0    0  501  0.00000000000E+00  0.00000000000E+00  0.21461559507E+04  0.21461559507E+04  0.50400001928E-02 0. -1.
        1   -1    0    0  501    0  0.00000000000E+00  0.00000000000E+00 -0.15912370708E+04  0.15912370708E+04  0.50400001928E-02 0.  1.
    10030    2    1    2    0    0  0.00000000000E+00  0.00000000000E+00  0.55491887987E+03  0.37373930216E+04  0.36959669417E+04 0.  0.
        2    1    3    3  502    0  0.19711951822E+03 -0.96119527121E+03 -0.13060718386E+04  0.16335776998E+04  0.25500000920E-02 0.  1.
       -2    1    3    3    0  502 -0.19711951822E+03  0.96119527121E+03  0.18609907184E+04  0.21038153217E+04  0.25500000920E-02 0. -1.
</event>
<event>
 5   0  0.4793557E-07  0.3689906E+04  0.7818609E-02  0.8070202E-01
       -2   -1    0    0    0  501  0.00000000000E+00  0.00000000000E+00  0.19037723946E+04  0.19037723946E+04  0.25500000920E-02 0. -1.
        2   -1    0    0  501    0  0.00000000000E+00  0.00000000000E+00 -0.17879507818E+04  0.17879507818E+04  0.25500000920E-02 0.  1.
    10030    2    1    2    0    0  0.00000000000E+00  0.00000000000E+00  0.11582161279E+03  0.36917231764E+04  0.36899058748E+04 0.  0.
        3    1    3    3  502    0  0.15512795396E+03  0.18361155907E+04 -0.34146393770E+02  0.18429734482E+04  0.10100000352E+00 0. -1.
       -3    1    3    3    0  502 -0.15512795396E+03 -0.18361155907E+04  0.14996800656E+03  0.18487497282E+04  0.10100000352E+00 0.  1.
</event>
<event>
 5   0  0.1496000E-07  0.3699896E+04  0.7818609E-02  0.8067985E-01
        3   -1    0    0  501    0  0.00000000000E+00  0.00000000000E+00  0.12277721819E+04  0.12277721861E+04  0.10100000352E+00 0. -1.
       -3   -1    0    0    0  501  0.00000000000E+00  0.00000000000E+00 -0.27874118926E+04  0.27874118944E+04  0.10100000352E+00 0.  1.
    10030    2    1    2    0    0  0.00000000000E+00  0.00000000000E+00 -0.15596397106E+04  0.40151840805E+04  0.36998955625E+04 0.  0.
        1    1    3    3  502    0 -0.43603550648E+03 -0.13865031021E+04 -0.20218057433E+04  0.24900233490E+04  0.50400001928E-02 0.  1.
       -1    1    3    3    0  502  0.43603550648E+03  0.13865031021E+04  0.46216603265E+03  0.15251607315E+04  0.50400001928E-02 0. -1.
</event>
<event>
 5   0  0.4758908E-07  0.3728711E+04  0.7818609E-02  0.8061629E-01
       -2   -1    0    0    0  501  0.00000000000E+00  0.00000000000E+00  0.15268073400E+04  0.15268073400E+04  0.25500000920E-02 0. -1.
        2   -1    0    0  501    0  0.00000000000E+00  0.00000000000E+00 -0.22765296448E+04  0.22765296448E+04  0.25500000920E-02 0.  1.
    10030    2    1    2    0    0  0.00000000000E+00  0.00000000000E+00 -0.74972230484E+03  0.38033369849E+04  0.37287113975E+04 0.  0.
        2    1    3    3  502    0 -0.15566196463E+04 -0.10229441990E+04 -0.29362671496E+03  0.18856553782E+04  0.25500000920E-02 0.  1.
       -2    1    3    3    0  502  0.15566196463E+04  0.10229441990E+04 -0.45609558988E+03  0.19176816067E+04  0.25500000920E-02 0. -1.
</event>
<event>
 5   0  0.1496000E-07  0.3730690E+04  0.7818609E-02  0.8061194E-01
       -1   -1    0    0    0  501  0.00000000000E+00  0.00000000000E+00  0.19244202269E+04  0.19244202269E+04  0.50400001928E-02 0. -1.
        1   -1    0    0  501    0  0.00000000000E+00  0.00000000000E+00 -0.18080831698E+04  0.18080831699E+04  0.50400001928E-02 0.  1.
    10030    2    1    2    0    0  0.00000000000E+00  0.00000000000E+00  0.11633705706E+03  0.37325033968E+04  0.37306899223E+04 0.  0.
        3    1    3    3  502    0 -0.13323277616E+04 -0.10458304288E+04 -0.72365439299E+03  0.18418833407E+04  0.10100000352E+00 0.  1.
       -3    1    3    3    0  502  0.13323277616E+04  0.10458304288E+04  0.83999145006E+03  0.18906200561E+04  0.10100000352E+00 0. -1.
</event>
<event>
 5   0  0.4793557E-07  0.3676073E+04  0.7818609E-02  0.8073285E-01
       -2   -1    0    0    0  501  0.00000000000E+00  0.00000000000E+00  0.11084341043E+04  0.11084341043E+04  0.25500000920E-02 0.  1.
        2   -1    0    0  501    0  0.00000000000E+00  0.00000000000E+00 -0.30478844000E+04  0.30478844000E+04  0.25500000920E-02 0. -1.
    10030    2    1    2    0    0  0.00000000000E+00  0.00000000000E+00 -0.19394502957E+04  0.41563185043E+04  0.36760734568E+04 0.  0.
        3    1    3    3  502    0  0.15451272741E+04  0.91672374562E+03 -0.53098657918E+03  0.18734320047E+04  0.10100000352E+00 0.  1.
       -3    1    3    3    0  502 -0.15451272741E+04 -0.91672374562E+03 -0.14084637165E+04  0.22828864995E+04  0.10100000352E+00 0. -1.
</event>
<event>
 5   0  0.1496000E-07  0.3651712E+04  0.7818609E-02  0.8078748E-01
        1   -1    0    0  501    0  0.00000000000E+00  0.00000000000E+00  0.26373663234E+04  0.26373663234E+04  0.50400001928E-02 0. -1.
       -1   -1    0    0    0  501  0.00000000000E+00  0.00000000000E+00 -0.12640448201E+04  0.12640448201E+04  0.50400001928E-02 0.  1.
    10030    2    1    2    0    0  0.00000000000E+00  0.00000000000E+00  0.13733215033E+04  0.39014111435E+04  0.36517115110E+04 0.  0.
        2    1    3    3  502    0 -0.26332460460E+03  0.15812206013E+04  0.16205917627E+04  0.22794552198E+04  0.25500000920E-02 0. -1.
       -2    1    3    3    0  502  0.26332460460E+03 -0.15812206013E+04 -0.24727025947E+03  0.16219559238E+04  0.25500000920E-02 0.  1.
</event>
<event>
 5   0  0.1496000E-07  0.3730698E+04  0.7818609E-02  0.8061193E-01
        1   -1    0    0  501    0  0.00000000000E+00  0.00000000000E+00  0.21244689400E+04  0.21244689400E+04  0.50400001928E-02 0. -1.
       -1   -1    0    0    0  501  0.00000000000E+00  0.00000000000E+00 -0.16378336136E+04  0.16378336136E+04  0.50400001928E-02 0.  1.
    10030    2    1    2    0    0  0.00000000000E+00  0.00000000000E+00  0.48663532642E+03  0.37623025535E+04  0.37306978655E+04 0.  0.
        3    1    3    3  502    0 -0.75941001229E+03  0.34342736249E+03  0.19262510924E+04  0.20988304366E+04  0.10100000352E+00 0. -1.
       -3    1    3    3    0  502  0.75941001229E+03 -0.34342736249E+03 -0.14396157660E+04  0.16634721170E+04  0.10100000352E+00 0.  1.
</event>
<event>
 5   0  0.1496000E-07  0.3744106E+04  0.7818609E-02  0.8058257E-01
       -1   -1    0    0    0  501  0.00000000000E+00  0.00000000000E+00  0.19990286598E+04  0.19990286598E+04  0.50400001928E-02 0.  1.
        1   -1    0    0  501    0  0.00000000000E+00  0.00000000000E+00 -0.17531423576E+04  0.17531423576E+04  0.50400001928E-02 0. -1.
    10030    2    1    2    0    0  0.00000000000E+00  0.00000000000E+00  0.24588630213E+03  0.37521710174E+04  0.37441056703E+04 0.  0.
        5    1    3    3  502    0 -0.61159655533E+03  0.17349547798E+04  0.47073726871E+03  0.18988770630E+04  0.46999998093E+01 0. -1.
       -5    1    3    3    0  502  0.61159655533E+03 -0.17349547798E+04 -0.22485096658E+03  0.18532939544E+04  0.46999998093E+01 0.  1.
</event>
<event>
 5   0  0.1496000E-07  0.3735429E+04  0.7818609E-02  0.8060155E-01
       -1   -1    0    0    0  501  0.00000000000E+00  0.00000000000E+00  0.28290928783E+04  0.28290928783E+04  0.50400001928E-02 0. -1.
        1   -1    0    0  501    0  0.00000000000E+00  0.00000000000E+00 -0.12330304048E+04  0.12330304048E+04  0.50400001928E-02 0.  1.
    10030    2    1    2    0    0  0.00000000000E+00  0.00000000000E+00  0.15960624734E+04  0.40621232831E+04  0.37354290447E+04 0.  0.
        2    1    3    3  502    0  0.22214518591E+03 -0.18510408285E+04  0.67568901445E+03  0.19829917490E+04  0.25500000920E-02 0.  1.
       -2    1    3    3    0  502 -0.22214518591E+03  0.18510408285E+04  0.92037345900E+03  0.20791315341E+04  0.25500000920E-02 0. -1.
</event>
<event>
 5   0  0.4687817E-07  0.3694848E+04  0.7818609E-02  0.8069104E-01
        2   -1    0    0  501    0  0.00000000000E+00  0.00000000000E+00  0.29543298933E+04  0.29543298933E+04  0.25500000920E-02 0. -1.
       -2   -1    0    0    0  501  0.00000000000E+00  0.00000000000E+00 -0.11552453586E+04  0.11552453586E+04  0.25500000920E-02 0.  1.
    10030    2    1    2    0    0  0.00000000000E+00  0.00000000000E+00  0.17990845347E+04  0.41095752520E+04  0.36948482497E+04 0.  0.
        4    1    3    3  502    0  0.10325949285E+04 -0.14948148917E+04  0.52689807967E+03  0.18916519358E+04  0.12699999809E+01 0.  1.
       -4    1    3    3    0  502 -0.10325949285E+04  0.14948148917E+04  0.12721864550E+04  0.22179233161E+04  0.12699999809E+01 0. -1.
</event>
<event>
 5   0  0.1522273E-07  0.3707467E+04  0.7818609E-02  0.8066309E-01
       -1   -1    0    0    0  501  0.00000000000E+00  0.00000000000E+00  0.24179042961E+04  0.24179042961E+04  0.50400001928E-02 0. -1.
        1   -1    0    0  501    0  0.00000000000E+00  0.00000000000E+00 -0.14212009634E+04  0.14212009635E+04  0.50400001928E-02 0.  1.
    10030    2    1    2    0    0  0.00000000000E+00  0.00000000000E+00  0.99670333261E+03  0.38391052595E+04  0.37074670141E+04 0.  0.
        4    1    3    3  502    0  0.66381091280E+02  0.18338108291E+04  0.77047060359E+03  0.19901997815E+04  0.12699999809E+01 0.  1.
       -4    1    3    3    0  502 -0.66381091280E+02 -0.18338108291E+04  0.22623272903E+03  0.18489054781E+04  0.12699999809E+01 0. -1.
</event>
<event>
 5   0  0.1496000E-07  0.3684679E+04  0.7818609E-02  0.8071366E-01
       -1   -1    0    0    0  501  0.00000000000E+00  0.00000000000E+00  0.14054500953E+04  0.14054500953E+04  0.50400001928E-02 0. -1.
        1   -1    0    0  501    0  0.00000000000E+00  0.00000000000E+00 -0.24150378388E+04  0.24150378388E+04  0.50400001928E-02 0.  1.
    10030    2    1    2    0    0  0.00000000000E+00  0.00000000000E+00 -0.10095877435E+04  0.38204879341E+04  0.36846791777E+04 0.  0.
        5    1    3    3  502    0  0.15591281497E+04  0.38718317588E+03 -0.14399232102E+04  0.21573577219E+04  0.46999998093E+01 0.  1.
       -5    1    3    3    0  502 -0.15591281497E+04 -0.38718317588E+03  0.43033546670E+03  0.16631302122E+04  0.46999998093E+01 0. -1.
</event>
<event>
 5   0  0.1496000E-07  0.3715061E+04  0.7818609E-02  0.8064632E-01
       -1   -1    0    0    0  501  0.00000000000E+00  0.00000000000E+00  0.17360478027E+04  0.17360478027E+04  0.50400001928E-02 0.  1.
        1   -1    0    0  501    0  0.00000000000E+00  0.00000000000E+00 -0.19875141602E+04  0.19875141602E+04  0.50400001928E-02 0. -1.
    10030    2    1    2    0    0  0.00000000000E+00  0.00000000000E+00 -0.25146635747E+03  0.37235619629E+04  0.37150610174E+04 0.  0.
        2    1    3    3  502    0 -0.45056985724E+03  0.56643350320E+03  0.15889003496E+04  0.17459852321E+04  0.25500000920E-02 0.  1.
       -2    1    3    3    0  502  0.45056985724E+03 -0.56643350320E+03 -0.18403667070E+04  0.19775767308E+04  0.25500000920E-02 0. -1.
</event>
<event>
 5   0  0.4824268E-07  0.3713198E+04  0.7818609E-02  0.8065043E-01
        2   -1    0    0  501    0  0.00000000000E+00  0.00000000000E+00  0.30960909580E+04  0.30960909580E+04  0.25500000920E-02 0. -1.
       -2   -1    0    0    0  501  0.00000000000E+00  0.00000000000E+00 -0.11133263941E+04  0.11133263941E+04  0.25500000920E-02 0.  1.
    10030    2    1    2    0    0  0.00000000000E+00  0.00000000000E+00  0.19827645639E+04  0.42094173522E+04  0.37131979652E+04 0.  0.
        1    1    3    3  502    0 -0.72391102087E+03  0.13572652338E+04 -0.18713305776E+03  0.15495918373E+04  0.50400001928E-02 0.  1.
       -1    1    3    3    0  502  0.72391102087E+03 -0.13572652338E+04  0.21698976216E+04  0.26598255148E+04  0.50400001928E-02 0. -1.
</event>
<event>
 5   0  0.4793557E-07  0.3719956E+04  0.7818609E-02  0.8063554E-01
       -2   -1    0    0    0  501  0.00000000000E+00  0.00000000000E+00  0.14028999178E+04  0.14028999178E+04  0.25500000920E-02 0.  1.
        2   -1    0    0  501    0  0.00000000000E+00  0.00000000000E+00 -0.24659758946E+04  0.24659758946E+04  0.25500000920E-02 0. -1.
    10030    2    1    2    0    0  0.00000000000E+00  0.00000000000E+00 -0.10630759769E+04  0.38688758124E+04  0.37199555803E+04 0.  0.
        3    1    3    3  502    0 -0.12865324883E+04 -0.13377214362E+04 -0.65828929610E+03  0.19692661811E+04  0.10100000352E+00 0.  1.
       -3    1    3    3    0  502  0.12865324883E+04  0.13377214362E+04 -0.40478668079E+03  0.18996096313E+04  0.10100000352E+00 0. -1.
</event>
<event>
 5   0  0.4793557E-07  0.3688070E+04  0.7818609E-02  0.8070611E-01
       -2   -1    0    0    0  501  0.00000000000E+00  0.00000000000E+00  0.12775053125E+04  0.12775053125E+04  0.25500000920E-02 0. -1.
        2   -1    0    0  501    0  0.00000000000E+00  0.00000000000E+00 -0.26618008056E+04  0.26618008056E+04  0.25500000920E-02 0.  1.
    10030    2    1    2    0    0  0.00000000000E+00  0.00000000000E+00 -0.13842954931E+04  0.39393061181E+04  0.36880697770E+04 0.  0.
        3    1    3    3  502    0  0.92123327301E+03 -0.16085215336E+03 -0.23897284906E+04  0.25661929833E+04  0.10100000352E+00 0.  1.
       -3    1    3    3    0  502 -0.92123327301E+03  0.16085215336E+03  0.10054329974E+04  0.13731131348E+04  0.10100000352E+00 0. -1.
</event>
<event>
 5   0  0.1522273E-07  0.3729386E+04  0.7818609E-02  0.8061481E-01
       -1   -1    0    0    0  501  0.00000000000E+00  0.00000000000E+00  0.11778292538E+04  0.11778292538E+04  0.50400001928E-02 0. -1.
        1   -1    0    0  501    0  0.00000000000E+00  0.00000000000E+00 -0.29521089396E+04  0.29521089396E+04  0.50400001928E-02 0.  1.
    10030    2    1    2    0    0  0.00000000000E+00  0.00000000000E+00 -0.17742796857E+04  0.41299381934E+04  0.37293861530E+04 0.  0.
        4    1    3    3  502    0 -0.10382120090E+04 -0.15387157743E+04 -0.10838350659E+04  0.21494721382E+04  0.12699999809E+01 0.  1.
       -4    1    3    3    0  502  0.10382120090E+04  0.15387157743E+04 -0.69044461980E+03  0.19804660552E+04  0.12699999809E+01 0. -1.
</event>
<event>
 5   0  0.4824268E-07  0.3643156E+04  0.7818609E-02  0.8080677E-01
        2   -1    0    0  501    0  0.00000000000E+00  0.00000000000E+00  0.24075320193E+04  0.24075320193E+04  0.25500000920E-02 0. -1.
       -2   -1    0    0    0  501  0.00000000000E+00  0.00000000000E+00 -0.13782355320E+04  0.13782355320E+04  0.25500000920E-02 0.  1.
    10030    2    1    2    0    0  0.00000000000E+00  0.00000000000E+00  0.10292964873E+04  0.37857675513E+04  0.36431558701E+04 0.  0.
        1    1    3    3  502    0  0.64731430993E+03  0.81425732700E+02  0.22819588800E+04  0.23733904643E+04  0.50400001928E-02 0. -1.
       -1    1    3    3    0  502 -0.64731430993E+03 -0.81425732700E+02 -0.12526623927E+04  0.14123770870E+04  0.50400001928E-02 0.  1.
</event>
<event>
 5   0  0.1496000E-07  0.3673883E+04  0.7818609E-02  0.8073774E-01
       -1   -1    0    0    0  501  0.00000000000E+00  0.00000000000E+00  0.19513703105E+04  0.19513703105E+04  0.50400001928E-02 0. -1.
        1   -1    0    0  501    0  0.00000000000E+00  0.00000000000E+00 -0.17292227861E+04  0.17292227861E+04  0.50400001928E-02 0.  1.
    10030    2    1    2    0    0  0.00000000000E+00  0.00000000000E+00  0.22214752441E+03  0.36805930966E+04  0.36738829622E+04 0.  0.
        2    1    3    3  502    0  0.96044006474E+03 -0.26693791045E+03  0.16568283450E+04  0.19335928038E+04  0.25500000920E-02 0. -1.
       -2    1    3    3    0  502 -0.96044006474E+03  0.26693791045E+03 -0.14346808206E+04  0.17470002928E+04  0.25500000920E-02 0.  1.
</event>
<event>
 5   0  0.1496000E-07  0.3699282E+04  0.7818609E-02  0.8068121E-01
       -1   -1    0    0    0  501  0.00000000000E+00  0.00000000000E+00  0.23190681057E+04  0.23190681057E+04  0.50400001928E-02 0.  1.
        1   -1    0    0  501    0  0.00000000000E+00  0.00000000000E+00 -0.14752357129E+04  0.14752357129E+04  0.50400001928E-02 0. -1.
    10030    2    1    2    0    0  0.00000000000E+00  0.00000000000E+00  0.84383239277E+03  0.37943038185E+04  0.36992821412E+04 0.  0.
        3    1    3    3  502    0  0.67079696392E+03  0.42672713810E+03  0.21348763904E+04  0.22781048768E+04  0.10100000352E+00 0.  1.
       -3    1    3    3    0  502 -0.67079696392E+03 -0.42672713810E+03 -0.12910439976E+04  0.15161989418E+04  0.10100000352E+00 0. -1.
</event>
<event>
 5   0  0.1496000E-07  0.3634353E+04  0.7818609E-02  0.8082668E-01
        1   -1    0    0  501    0  0.00000000000E+00  0.00000000000E+00  0.19107702993E+04  0.19107702993E+04  0.50400001928E-02 0. -1.
       -1   -1    0    0    0  501  0.00000000000E+00  0.00000000000E+00 -0.17281669486E+04  0.17281669486E+04  0.50400001928E-02 0.  1.
    10030    2    1    2    0    0  0.00000000000E+00  0.00000000000E+00  0.18260335073E+03  0.36389372479E+04  0.36343528049E+04 0.  0.
        5    1    3    3  502    0 -0.17898695793E+04  0.20454629882E+03 -0.14698105875E+03  0.18075114995E+04  0.46999998093E+01 0.  1.
       -5    1    3    3    0  502  0.17898695793E+04 -0.20454629882E+03  0.32958440949E+03  0.18314257485E+04  0.46999998093E+01 0. -1.
</event>
<event>
 5   0  0.4758908E-07  0.3693055E+04  0.7818609E-02  0.8069503E-01
        2   -1    0    0  501    0  0.00000000000E+00  0.00000000000E+00  0.24090775294E+04  0.24090775294E+04  0.25500000920E-02 0. -1.
       -2   -1    0    0    0  501  0.00000000000E+00  0.00000000000E+00 -0.14153401741E+04  0.14153401741E+04  0.25500000920E-02 0.  1.
    10030    2    1    2    0    0  0.00000000000E+00  0.00000000000E+00  0.99373735529E+03  0.38244177034E+04  0.36930552174E+04 0.  0.
        2    1    3    3  502    0 -0.35089061190E+02 -0.15695666912E+04 -0.50976375653E+03  0.16506453065E+04  0.25500000920E-02 0.  1.
       -2    1    3    3    0  502  0.35089061190E+02  0.15695666912E+04  0.15035011118E+04  0.21737723969E+04  0.25500000920E-02 0. -1.
</event>
<event>
 5   0  0.4824268E-07  0.3833599E+04  0.7818609E-02  0.8038983E-01
        2   -1    0    0  501    0  0.00000000000E+00  0.00000000000E+00  0.16943422117E+04  0.16943422117E+04  0.25500000920E-02 0. -1.
       -2   -1    0    0    0  501  0.00000000000E+00  0.00000000000E+00 -0.21684638904E+04  0.21684638904E+04  0.25500000920E-02 0.  1.
    10030    2    1    2    0    0  0.00000000000E+00  0.00000000000E+00 -0.47412167877E+03  0.38628061021E+04  0.38335987813E+04 0.  0.
        1    1    3    3  502    0  0.15744248278E+04 -0.57884239086E+03 -0.11716226903E+04  0.20461113802E+04  0.50400001928E-02 0.  1.
       -1    1    3    3    0  502 -0.15744248278E+04  0.57884239086E+03  0.69750101148E+03  0.18166947220E+04  0.50400001928E-02 0. -1.
</event>
<event>
 5   0  0.4857514E-07  0.3867966E+04  0.7818609E-02  0.8031725E-01
       -2   -1    0    0    0  501  0.00000000000E+00  0.00000000000E+00  0.16691081529E+04  0.16691081529E+04  0.25500000920E-02 0. -1.
        2   -1    0    0  501    0  0.00000000000E+00  0.00000000000E+00 -0.22408917127E+04  0.22408917127E+04  0.25500000920E-02 0.  1.
    10030    2    1    2    0    0  0.00000000000E+00  0.00000000000E+00 -0.57178355980E+03  0.39099998656E+04  0.38679661981E+04 0.  0.
        5    1    3    3  502    0 -0.13662145621E+04 -0.12041904032E+04  0.37206685425E+03  0.18587825561E+04  0.46999998093E+01 0. -1.
       -5    1    3    3    0  502  0.13662145621E+04  0.12041904032E+04 -0.94385041404E+03  0.20512173095E+04  0.46999998093E+01 0.  1.
</event>
<event>
 5   0  0.1496000E-07  0.3685434E+04  0.7818609E-02  0.8071198E-01
       -1   -1    0    0    0  501  0.00000000000E+00  0.00000000000E+00  0.19338083393E+04  0.19338083393E+04  0.50400001928E-02 0. -1.
        1   -1    0    0  501    0  0.00000000000E+00  0.00000000000E+00 -0.17559163430E+04  0.17559163430E+04  0.50400001928E-02 0.  1.
    10030    2    1    2    0    0  0.00000000000E+00  0.00000000000E+00  0.17789199629E+03  0.36897246823E+04  0.36854338508E+04 0.  0.
        2    1    3    3  502    0  0.47322188154E+03 -0.15382906804E+04 -0.80949978652E+03  0.18015457449E+04  0.25500000920E-02 0.  1.
       -2    1    3    3    0  502 -0.47322188154E+03  0.15382906804E+04  0.98739178282E+03  0.18881789373E+04  0.25500000920E-02 0. -1.
</event>
<event>
 5   0  0.4687817E-07  0.3681467E+04  0.7818609E-02  0.8072081E-01
        2   -1    0    0  501    0  0.00000000000E+00  0.00000000000E+00  0.21771012094E+04  0.21771012094E+04  0.25500000920E-02 0. -1.
       -2   -1    0    0    0  501  0.00000000000E+00  0.00000000000E+00 -0.15563352750E+04  0.15563352750E+04  0.25500000920E-02 0.  1.
    10030    2    1    2    0    0  0.00000000000E+00  0.00000000000E+00  0.62076593434E+03  0.37334364844E+04  0.36814667780E+04 0.  0.
        4    1    3    3  502    0  0.33817481820E+03 -0.12967769816E+04 -0.96929595778E+03  0.16539434737E+04  0.12699999809E+01 0.  1.
       -4    1    3    3    0  502 -0.33817481820E+03  0.12967769816E+04  0.15900618921E+04  0.20794930107E+04  0.12699999809E+01 0. -1.
</event>
<event>
 5   0  0.4824268E-07  0.3709365E+04  0.7818609E-02  0.8065890E-01
       -2   -1    0    0    0  501  0.00000000000E+00  0.00000000000E+00  0.10552854495E+04  0.10552854495E+04  0.25500000920E-02 0. -1.
        2   -1    0    0  501    0  0.00000000000E+00  0.00000000000E+00 -0.32596358288E+04  0.32596358288E+04  0.25500000920E-02 0.  1.
    10030    2    1    2    0    0  0.00000000000E+00  0.00000000000E+00 -0.22043503793E+04  0.43149212783E+04  0.37093645066E+04 0.  0.
        1    1    3    3  502    0  0.15707598352E+04  0.98443822026E+03 -0.10339369557E+04  0.21225999853E+04  0.50400001928E-02 0. -1.
       -1    1    3    3    0  502 -0.15707598352E+04 -0.98443822026E+03 -0.11704134236E+04  0.21923212929E+04  0.50400001928E-02 0.  1.
</event>
<event>
 5   0  0.1496287E-07  0.3318186E+04  0.7818609E-02  0.8158283E-01
       -1   -1    0    0    0  501  0.00000000000E+00  0.00000000000E+00  0.12198014694E+04  0.12198014694E+04  0.50400001928E-02 0.  1.
        1   -1    0    0  501    0  0.00000000000E+00  0.00000000000E+00 -0.22565888004E+04  0.22565888005E+04  0.50400001928E-02 0. -1.
    10030    2    1    2    0    0  0.00000000000E+00  0.00000000000E+00 -0.10367873311E+04  0.34763902698E+04  0.33181864532E+04 0.  0.
        1    1    3    3  502    0  0.14187613742E+02  0.71009294990E+03 -0.20892666212E+04  0.22066871777E+04  0.50400001928E-02 0. -1.
       -1    1    3    3    0  502 -0.14187613742E+02 -0.71009294990E+03  0.10524792901E+04  0.12697030921E+04  0.50400001928E-02 0.  1.
</event>
<event>
 5   0  0.1496000E-07  0.3720874E+04  0.7818609E-02  0.8063352E-01
        1   -1    0    0  501    0  0.00000000000E+00  0.00000000000E+00  0.13017515157E+04  0.13017515157E+04  0.50400001928E-02 0.  1.
       -1   -1    0    0    0  501  0.00000000000E+00  0.00000000000E+00 -0.26588985847E+04  0.26588985847E+04  0.50400001928E-02 0. -1.
    10030    2    1    2    0    0  0.00000000000E+00  0.00000000000E+00 -0.13571470690E+04  0.39606501004E+04  0.37208736945E+04 0.  0.
        5    1    3    3  502    0 -0.72284275042E+03  0.15710698466E+04 -0.14086597727E+04  0.22304946873E+04  0.46999998093E+01 0. -1.
       -5    1    3    3    0  502  0.72284275042E+03 -0.15710698466E+04  0.51512703660E+02  0.17301554131E+04  0.46999998093E+01 0.  1.
</event>
<event>
 5   0  0.4857514E-07  0.3656512E+04  0.7818609E-02  0.8077668E-01
        2   -1    0    0  501    0  0.00000000000E+00  0.00000000000E+00  0.16022493177E+04  0.16022493177E+04  0.25500000920E-02 0. -1.
       -2   -1    0    0    0  501  0.00000000000E+00  0.00000000000E+00 -0.20861420412E+04  0.20861420412E+04  0.25500000920E-02 0.  1.
    10030    2    1    2    0    0  0.00000000000E+00  0.00000000000E+00 -0.48389272347E+03  0.36883913589E+04  0.36565118144E+04 0.  0.
        5    1    3    3  502    0 -0.64873702005E+03  0.15520213297E+04 -0.96433792461E+03  0.19389687083E+04  0.46999998093E+01 0.  1.
       -5    1    3    3    0  502  0.64873702005E+03 -0.15520213297E+04  0.48044520114E+03  0.17494226506E+04  0.46999998093E+01 0. -1.
</event>
<event>
 5   0  0.4857514E-07  0.3874468E+04  0.7818609E-02  0.8030360E-01
        2   -1    0    0  501    0  0.00000000000E+00  0.00000000000E+00  0.14161551173E+04  0.14161551173E+04  0.25500000920E-02 0. -1.
       -2   -1    0    0    0  501  0.00000000000E+00  0.00000000000E+00 -0.26500450258E+04  0.26500450258E+04  0.25500000920E-02 0.  1.
    10030    2    1    2    0    0  0.00000000000E+00  0.00000000000E+00 -0.12338899084E+04  0.40662001431E+04  0.38744676147E+04 0.  0.
        5    1    3    3  502    0  0.69609847967E+03  0.22821462585E+03 -0.24990741724E+04  0.26042328656E+04  0.46999998093E+01 0.  1.
       -5    1    3    3    0  502 -0.69609847967E+03 -0.22821462585E+03  0.12651842640E+04  0.14619672776E+04  0.46999998093E+01 0. -1.
</event>
<event>
 5   0  0.4857514E-07  0.3465073E+04  0.7818609E-02  0.8122117E-01
       -2   -1    0    0    0  501  0.00000000000E+00  0.00000000000E+00  0.13230758913E+04  0.13230758913E+04  0.25500000920E-02 0. -1.
        2   -1    0    0  501    0  0.00000000000E+00  0.00000000000E+00 -0.22687159752E+04  0.22687159752E+04  0.25500000920E-02 0.  1.
    10030    2    1    2    0    0  0.00000000000E+00  0.00000000000E+00 -0.94564008385E+03  0.35917918665E+04  0.34650733966E+04 0.  0.
        5    1    3    3  502    0  0.41364475860E+03  0.16779995479E+04 -0.34638884636E+03  0.17626093702E+04  0.46999998093E+01 0. -1.
       -5    1    3    3    0  502 -0.41364475860E+03 -0.16779995479E+04 -0.59925123749E+03  0.18291824963E+04  0.46999998093E+01 0.  1.
</event>
<event>
 5   0  0.4687817E-07  0.3667110E+04  0.7818609E-02  0.8075290E-01
        2   -1    0    0  501    0  0.00000000000E+00  0.00000000000E+00  0.20923919105E+04  0.20923919105E+04  0.25500000920E-02 0.  1.
       -2   -1    0    0    0  501  0.00000000000E+00  0.00000000000E+00 -0.16067372378E+04  0.16067372378E+04  0.25500000920E-02 0. -1.
    10030    2    1    2    0    0  0.00000000000E+00  0.00000000000E+00  0.48565467269E+03  0.36991291484E+04  0.36671100332E+04 0.  0.
        4    1    3    3  502    0  0.88497643446E+03 -0.26215573593E+03 -0.13553080895E+04  0.16397470993E+04  0.12699999809E+01 0. -1.
       -4    1    3    3    0  502 -0.88497643446E+03  0.26215573593E+03  0.18409627622E+04  0.20593820491E+04  0.12699999809E+01 0.  1.
</event>
<event>
 5   0  0.4687817E-07  0.3687123E+04  0.7818609E-02  0.8070822E-01
        2   -1    0    0  501    0  0.00000000000E+00  0.00000000000E+00  0.15582948963E+04  0.15582948963E+04  0.25500000920E-02 0. -1.
       -2   -1    0    0    0  501  0.00000000000E+00  0.00000000000E+00 -0.21810494558E+04  0.21810494558E+04  0.25500000920E-02 0.  1.
    10030    2    1    2    0    0  0.00000000000E+00  0.00000000000E+00 -0.62275455954E+03  0.37393443521E+04  0.36871225831E+04 0.  0.
        4    1    3    3  502    0  0.84133943815E+02  0.17076667440E+04 -0.10107179809E+04  0.19861411528E+04  0.12699999809E+01 0.  1.
       -4    1    3    3    0  502 -0.84133943815E+02 -0.17076667440E+04  0.38796342134E+03  0.17532031994E+04  0.12699999809E+01 0. -1.
</event>
<event>
 5   0  0.1496000E-07  0.3693924E+04  0.7818609E-02  0.8069310E-01
       -1   -1    0    0    0  501  0.00000000000E+00  0.00000000000E+00  0.18776005764E+04  0.18776005764E+04  0.50400001928E-02 0. -1.
        1   -1    0    0  501    0  0.00000000000E+00  0.00000000000E+00 -0.18168234781E+04  0.18168234781E+04  0.50400001928E-02 0.  1.
    10030    2    1    2    0    0  0.00000000000E+00  0.00000000000E+00  0.60777098304E+02  0.36944240545E+04  0.36939240976E+04 0.  0.
        5    1    3    3  502    0  0.10306803299E+04 -0.10393665101E+04  0.11568899803E+04  0.18657441414E+04  0.46999998093E+01 0. -1.
       -5    1    3    3    0  502 -0.10306803299E+04  0.10393665101E+04 -0.10961128819E+04  0.18286799131E+04  0.46999998093E+01 0.  1.
</event>
<event>
 5   0  0.4793557E-07  0.3807870E+04  0.7818609E-02  0.8044468E-01
       -2   -1    0    0    0  501  0.00000000000E+00  0.00000000000E+00  0.17406384628E+04  0.17406384628E+04  0.25500000920E-02 0.  1.
        2   -1    0    0  501    0  0.00000000000E+00  0.00000000000E+00 -0.20825511828E+04  0.20825511828E+04  0.25500000920E-02 0. -1.
    10030    2    1    2    0    0  0.00000000000E+00  0.00000000000E+00 -0.34191272006E+03  0.38231896456E+04  0.38078701078E+04 0.  0.
        3    1    3    3  502    0  0.32998389758E+03  0.34964836179E+03  0.16786889650E+04  0.17461786853E+04  0.10100000352E+00 0.  1.
       -3    1    3    3    0  502 -0.32998389758E+03 -0.34964836179E+03 -0.20206016850E+04  0.20770109603E+04  0.10100000352E+00 0. -1.
</event>
<event>
 5   0  0.4758908E-07  0.3662203E+04  0.7818609E-02  0.8076390E-01
       -2   -1    0    0    0  501  0.00000000000E+00  0.00000000000E+00  0.13678192788E+04  0.13678192788E+04  0.25500000920E-02 0.  1.
        2   -1    0    0  501    0  0.00000000000E+00  0.00000000000E+00 -0.24512978793E+04  0.24512978793E+04  0.25500000920E-02 0. -1.
    10030    2    1    2    0    0  0.00000000000E+00  0.00000000000E+00 -0.10834786006E+04  0.38191171581E+04  0.36622028876E+04 0.  0.
        2    1    3    3  502    0 -0.81864079715E+03 -0.11891128767E+04 -0.17163990403E+04  0.22428080288E+04  0.25500000920E-02 0. -1.
       -2    1    3    3    0  502  0.81864079715E+03  0.11891128767E+04  0.63292043974E+03  0.15763091294E+04  0.25500000920E-02 0.  1.
</event>
<event>
 5   0  0.1496000E-07  0.3735838E+04  0.7818609E-02  0.8060066E-01
       -1   -1    0    0    0  501  0.00000000000E+00  0.00000000000E+00  0.17518561267E+04  0.17518561267E+04  0.50400001928E-02 0.  1.
        1   -1    0    0  501    0  0.00000000000E+00  0.00000000000E+00 -0.19916715370E+04  0.19916715371E+04  0.50400001928E-02 0. -1.
    10030    2    1    2    0    0  0.00000000000E+00  0.00000000000E+00 -0.23981541036E+03  0.37435276638E+04  0.37358383180E+04 0.  0.
        3    1    3    3  502    0  0.18061988211E+04  0.43551790362E+03 -0.31289681386E+03  0.18841269734E+04  0.10100000352E+00 0. -1.
       -3    1    3    3    0  502 -0.18061988211E+04 -0.43551790362E+03  0.73081403503E+02  0.18594006904E+04  0.10100000352E+00 0.  1.
</event>
<event>
 5   0  0.4857514E-07  0.3696890E+04  0.7818609E-02  0.8068651E-01
        2   -1    0    0  501    0  0.00000000000E+00  0.00000000000E+00  0.15012617819E+04  0.15012617819E+04  0.25500000920E-02 0.  1.
       -2   -1    0    0    0  501  0.00000000000E+00  0.00000000000E+00 -0.22759185122E+04  0.22759185122E+04  0.25500000920E-02 0. -1.
    10030    2    1    2    0    0  0.00000000000E+00  0.00000000000E+00 -0.77465673024E+03  0.37771802941E+04  0.36968903046E+04 0.  0.
        5    1    3    3  502    0 -0.45883122166E+01  0.17192315533E+04 -0.10810059897E+04  0.20308555405E+04  0.46999998093E+01 0. -1.
       -5    1    3    3    0  502  0.45883122166E+01 -0.17192315533E+04  0.30634925945E+03  0.17463247537E+04  0.46999998093E+01 0.  1.
</event>
<event>
 5   0  0.4758908E-07  0.3542790E+04  0.7818609E-02  0.8103723E-01
        2   -1    0    0  501    0  0.00000000000E+00  0.00000000000E+00  0.16151695102E+04  0.16151695103E+04  0.25500000920E-02 0. -1.
       -2   -1    0    0    0  501  0.00000000000E+00  0.00000000000E+00 -0.19427312564E+04  0.19427312564E+04  0.25500000920E-02 0.  1.
    10030    2    1    2    0    0  0.00000000000E+00  0.00000000000E+00 -0.32756174614E+03  0.35579007666E+04  0.35427900259E+04 0.  0.
        2    1    3    3  502    0  0.13330728936E+04 -0.11656974795E+04 -0.11993301079E+03  0.17749134854E+04  0.25500000920E-02 0. -1.
       -2    1    3    3    0  502 -0.13330728936E+04  0.11656974795E+04 -0.20762873535E+03  0.17829872813E+04  0.25500000920E-02 0.  1.
</event>
<event>
 5   0  0.1496287E-07  0.3703524E+04  0.7818609E-02  0.8067181E-01
       -1   -1    0    0    0  501  0.00000000000E+00  0.00000000000E+00  0.29297602934E+04  0.29297602934E+04  0.50400001928E-02 0.  1.
        1   -1    0    0  501    0  0.00000000000E+00  0.00000000000E+00 -0.11704106389E+04  0.11704106389E+04  0.50400001928E-02 0. -1.
    10030    2    1    2    0    0  0.00000000000E+00  0.00000000000E+00  0.17593496545E+04  0.41001709323E+04  0.37035240606E+04 0.  0.
        1    1    3    3  502    0 -0.16248985589E+04  0.49877973413E+03  0.66166537052E+02  0.17010157437E+04  0.50400001928E-02 0. -1.
       -1    1    3    3    0  502  0.16248985589E+04 -0.49877973413E+03  0.16931831174E+04  0.23991551886E+04  0.50400001928E-02 0.  1.
</event>
<event>
 5   0  0.4857514E-07  0.3759651E+04  0.7818609E-02  0.8054870E-01
       -2   -1    0    0    0  501  0.00000000000E+00  0.00000000000E+00  0.17565408678E+04  0.17565408678E+04  0.25500000920E-02 0. -1.
        2   -1    0    0  501    0  0.00000000000E+00  0.00000000000E+00 -0.20117628644E+04  0.20117628644E+04  0.25500000920E-02 0.  1.
    10030    2    1    2    0    0  0.00000000000E+00  0.00000000000E+00 -0.25522199656E+03  0.37683037322E+04  0.37596508815E+04 0.  0.
        5    1    3    3  502    0  0.14715222259E+04  0.35658792299E+03  0.98903969295E+03  0.18085226602E+04  0.46999998093E+01 0. -1.
       -5    1    3    3    0  502 -0.14715222259E+04 -0.35658792299E+03 -0.12442616895E+04  0.19597810720E+04  0.46999998093E+01 0.  1.
</event>
<event>
 5   0  0.1496000E-07  0.3683538E+04  0.7818609E-02  0.8071620E-01
        1   -1    0    0  501    0  0.00000000000E+00  0.00000000000E+00  0.25923652252E+04  0.25923652252E+04  0.50400001928E-02 0. -1.
       -1   -1    0    0    0  501  0.00000000000E+00  0.00000000000E+00 -0.13085013016E+04  0.13085013016E+04  0.50400001928E-02 0.  1.
    10030    2    1    2    0    0  0.00000000000E+00  0.00000000000E+00  0.12838639236E+04  0.39008665268E+04  0.36835381205E+04 0.  0.
        2    1    3    3  502    0 -0.68941756219E+03 -0.52050990749E+03  0.23645202772E+04  0.25173762691E+04  0.25500000920E-02 0. -1.
       -2    1    3    3    0  502  0.68941756219E+03  0.52050990749E+03 -0.10806563535E+04  0.13834902577E+04  0.25500000920E-02 0.  1.
</event>
<event>
 5   0  0.4793557E-07  0.3750943E+04  0.7818609E-02  0.8056765E-01
        2   -1    0    0  501    0  0.00000000000E+00  0.00000000000E+00  0.27067859474E+04  0.27067859474E+04  0.25500000920E-02 0. -1.
       -2   -1    0    0    0  501  0.00000000000E+00  0.00000000000E+00 -0.12994723029E+04  0.12994723029E+04  0.25500000920E-02 0.  1.
    10030    2    1    2    0    0  0.00000000000E+00  0.00000000000E+00  0.14073136445E+04  0.40062582502E+04  0.37509430112E+04 0.  0.
        3    1    3    3  502    0 -0.17307216471E+04  0.62877366505E+03  0.32356960099E+03  0.18696125370E+04  0.10100000352E+00 0.  1.
       -3    1    3    3    0  502  0.17307216471E+04 -0.62877366505E+03  0.10837440435E+04  0.21366457132E+04  0.10100000352E+00 0. -1.
</event>
<event>
 5   0  0.1496000E-07  0.3591920E+04  0.7818609E-02  0.8092345E-01
       -1   -1    0    0    0  501  0.00000000000E+00  0.00000000000E+00  0.26765437456E+04  0.26765437457E+04  0.50400001928E-02 0. -1.
        1   -1    0    0  501    0  0.00000000000E+00  0.00000000000E+00 -0.12050885892E+04  0.12050885892E+04  0.50400001928E-02 0.  1.
    10030    2    1    2    0    0  0.00000000000E+00  0.00000000000E+00  0.14714551565E+04  0.38816323349E+04  0.35919200027E+04 0.  0.
        2    1    3    3  502    0 -0.37360694298E+03 -0.80529927050E+03 -0.95140671680E+03  0.13012547036E+04  0.25500000920E-02 0.  1.
       -2    1    3    3    0  502  0.37360694298E+03  0.80529927050E+03  0.24228618733E+04  0.25803776312E+04  0.25500000920E-02 0. -1.
</event>
<event>
 5   0  0.1496000E-07  0.3704064E+04  0.7818609E-02  0.8067062E-01
       -1   -1    0    0    0  501  0.00000000000E+00  0.00000000000E+00  0.20259262775E+04  0.20259262775E+04  0.50400001928E-02 0. -1.
        1   -1    0    0  501    0  0.00000000000E+00  0.00000000000E+00 -0.16930642758E+04  0.16930642758E+04  0.50400001928E-02 0.  1.
    10030    2    1    2    0    0  0.00000000000E+00  0.00000000000E+00  0.33286200168E+03  0.37189905533E+04  0.37040644734E+04 0.  0.
        5    1    3    3  502    0 -0.11012835836E+04 -0.15638126351E+02  0.16613671672E+04  0.19932970268E+04  0.46999998093E+01 0. -1.
       -5    1    3    3    0  502  0.11012835836E+04  0.15638126351E+02 -0.13285051656E+04  0.17256935265E+04  0.46999998093E+01 0.  1.
</event>
<event>
 5   0  0.4758908E-07  0.3698796E+04  0.7818609E-02  0.8068229E-01
        2   -1    0    0  501    0  0.00000000000E+00  0.00000000000E+00  0.23841601176E+04  0.23841601176E+04  0.25500000920E-02 0.  1.
       -2   -1    0    0    0  501  0.00000000000E+00  0.00000000000E+00 -0.14345819524E+04  0.14345819524E+04  0.25500000920E-02 0. -1.
    10030    2    1    2    0    0  0.00000000000E+00  0.00000000000E+00  0.94957816525E+03  0.38187420700E+04  0.36987960616E+04 0.  0.
        2    1    3    3  502    0  0.37084914201E+03  0.55732284286E+03  0.22546834253E+04  0.23519641123E+04  0.25500000920E-02 0.  1.
       -2    1    3    3    0  502 -0.37084914201E+03 -0.55732284286E+03 -0.13051052601E+04  0.14667779577E+04  0.25500000920E-02 0. -1.
</event>
<event>
 5   0  0.4824268E-07  0.3522083E+04  0.7818609E-02  0.8108577E-01
        2   -1    0    0  501    0  0.00000000000E+00  0.00000000000E+00  0.19727355940E+04  0.19727355940E+04  0.25500000920E-02 0. -1.
       -2   -1    0    0    0  501  0.00000000000E+00  0.00000000000E+00 -0.15720639552E+04  0.15720639552E+04  0.25500000920E-02 0.  1.
    10030    2    1    2    0    0  0.00000000000E+00  0.00000000000E+00  0.40067163884E+03  0.35447995492E+04  0.35220826342E+04 0.  0.
        1    1    3    3  502    0 -0.13945981569E+04  0.52760809657E+02 -0.88063948781E+03  0.16502162373E+04  0.50400001928E-02 0.  1.
       -1    1    3    3    0  502  0.13945981569E+04 -0.52760809657E+02  0.12813111266E+04  0.18945833119E+04  0.50400001928E-02 0. -1.
</event>
<event>
 5   0  0.1522273E-07  0.3361136E+04  0.7818609E-02  0.8147511E-01
        1   -1    0    0  501    0  0.00000000000E+00  0.00000000000E+00  0.18942279590E+04  0.18942279590E+04  0.50400001928E-02 0.  1.
       -1   -1    0    0    0  501  0.00000000000E+00  0.00000000000E+00 -0.14910075811E+04  0.14910075811E+04  0.50400001928E-02 0. -1.
    10030    2    1    2    0    0  0.00000000000E+00  0.00000000000E+00  0.40322037782E+03  0.33852355401E+04  0.33611356695E+04 0.  0.
        4    1    3    3  502    0 -0.14348818032E+04  0.78543459787E+03 -0.18652728794E+03  0.16463861450E+04  0.12699999809E+01 0.  1.
       -4    1    3    3    0  502  0.14348818032E+04 -0.78543459787E+03  0.58974766576E+03  0.17388493951E+04  0.12699999809E+01 0. -1.
</event>
<event>
 5   0  0.1496000E-07  0.3615234E+04  0.7818609E-02  0.8087011E-01
       -1   -1    0    0    0  501  0.00000000000E+00  0.00000000000E+00  0.14277306935E+04  0.14277306935E+04  0.50400001928E-02 0.  1.
        1   -1    0    0  501    0  0.00000000000E+00  0.00000000000E+00 -0.22885828265E+04  0.22885828265E+04  0.50400001928E-02 0. -1.
    10030    2    1    2    0    0  0.00000000000E+00  0.00000000000E+00 -0.86085213297E+03  0.37163135200E+04  0.36152344024E+04 0.  0.
        3    1    3    3  502    0  0.18761408220E+03  0.10608127645E+04  0.10616938870E+04  0.15125199784E+04  0.10100000352E+00 0.  1.
       -3    1    3    3    0  502 -0.18761408220E+03 -0.10608127645E+04 -0.19225460200E+04  0.22037935416E+04  0.10100000352E+00 0. -1.
</event>
<event>
 5   0  0.4758908E-07  0.3677860E+04  0.7818609E-02  0.8072886E-01
        2   -1    0    0  501    0  0.00000000000E+00  0.00000000000E+00  0.19850704375E+04  0.19850704375E+04  0.25500000920E-02 0.  1.
       -2   -1    0    0    0  501  0.00000000000E+00  0.00000000000E+00 -0.17035483523E+04  0.17035483523E+04  0.25500000920E-02 0. -1.
    10030    2    1    2    0    0  0.00000000000E+00  0.00000000000E+00  0.28152208515E+03  0.36886187898E+04  0.36778599609E+04 0.  0.
        2    1    3    3  502    0  0.10625146717E+03 -0.14938812539E+04 -0.92945607082E+03  0.17626284811E+04  0.25500000920E-02 0. -1.
       -2    1    3    3    0  502 -0.10625146717E+03  0.14938812539E+04  0.12109781560E+04  0.19259903087E+04  0.25500000920E-02 0.  1.
</event>
<event>
 5   0  0.1496000E-07  0.3732236E+04  0.7818609E-02  0.8060855E-01
        1   -1    0    0  501    0  0.00000000000E+00  0.00000000000E+00  0.21952045429E+04  0.21952045429E+04  0.50400001928E-02 0. -1.
       -1   -1    0    0    0  501  0.00000000000E+00  0.00000000000E+00 -0.15863653062E+04  0.15863653062E+04  0.50400001928E-02 0.  1.
    10030    2    1    2    0    0  0.00000000000E+00  0.00000000000E+00  0.60883923671E+03  0.37815698491E+04  0.37322359662E+04 0.  0.
        3    1    3    3  502    0 -0.55439034429E+03  0.14276837633E+04 -0.77586629019E+03  0.17168570390E+04  0.10100000352E+00 0.  1.
       -3    1    3    3    0  502  0.55439034429E+03 -0.14276837633E+04  0.13847055269E+04  0.20647128101E+04  0.10100000352E+00 0. -1.
</event>
<event>
 5   0  0.1496287E-07  0.3395129E+04  0.7818609E-02  0.8139103E-01
       -1   -1    0    0    0  501  0.00000000000E+00  0.00000000000E+00  0.12065337922E+04  0.12065337922E+04  0.50400001928E-02 0. -1.
        1   -1    0    0  501    0  0.00000000000E+00  0.00000000000E+00 -0.23884328138E+04  0.23884328138E+04  0.50400001928E-02 0.  1.
    10030    2    1    2    0    0  0.00000000000E+00  0.00000000000E+00 -0.11818990216E+04  0.35949666060E+04  0.33951288048E+04 0.  0.
        1    1    3    3  502    0 -0.13747508888E+04 -0.18475292064E+03  0.44524740610E+03  0.14568180739E+04  0.50400001928E-02 0. -1.
       -1    1    3    3    0  502  0.13747508888E+04  0.18475292064E+03 -0.16271464277E+04  0.21381485321E+04  0.50400001928E-02 0.  1.
</event>
<event>
 5   0  0.1496000E-07  0.3617553E+04  0.7818609E-02  0.8086483E-01
       -1   -1    0    0    0  501  0.00000000000E+00  0.00000000000E+00  0.15747075486E+04  0.15747075486E+04  0.50400001928E-02 0. -1.
        1   -1    0    0  501    0  0.00000000000E+00  0.00000000000E+00 -0.20776386772E+04  0.20776386772E+04  0.50400001928E-02 0.  1.
    10030    2    1    2    0    0  0.00000000000E+00  0.00000000000E+00 -0.50293112865E+03  0.36523462258E+04  0.36175534873E+04 0.  0.
        2    1    3    3  502    0 -0.52569719707E+03  0.75154141996E+03 -0.18254662024E+04  0.20429143166E+04  0.25500000920E-02 0.  1.
       -2    1    3    3    0  502  0.52569719707E+03 -0.75154141996E+03  0.13225350738E+04  0.16094319092E+04  0.25500000920E-02 0. -1.
</event>
<event>
 5   0  0.4687817E-07  0.3681717E+04  0.7818609E-02  0.8072026E-01
       -2   -1    0    0    0  501  0.00000000000E+00  0.00000000000E+00  0.15834422880E+04  0.15834422880E+04  0.25500000920E-02 0.  1.
        2   -1    0    0  501    0  0.00000000000E+00  0.00000000000E+00 -0.21401227652E+04  0.21401227652E+04  0.25500000920E-02 0. -1.
    10030    2    1    2    0    0  0.00000000000E+00  0.00000000000E+00 -0.55668047720E+03  0.37235650532E+04  0.36817174730E+04 0.  0.
        4    1    3    3  502    0  0.14910036465E+04  0.10060383262E+04  0.11797380332E+03  0.18025327789E+04  0.12699999809E+01 0. -1.
       -4    1    3    3    0  502 -0.14910036465E+04 -0.10060383262E+04 -0.67465428052E+03  0.19210322743E+04  0.12699999809E+01 0.  1.
</event>
<event>
 5   0  0.1496000E-07  0.3558483E+04  0.7818609E-02  0.8100068E-01
        1   -1    0    0  501    0  0.00000000000E+00  0.00000000000E+00  0.14177266979E+04  0.14177266979E+04  0.50400001928E-02 0. -1.
       -1   -1    0    0    0  501  0.00000000000E+00  0.00000000000E+00 -0.22329407153E+04  0.22329407153E+04  0.50400001928E-02 0.  1.
    10030    2    1    2    0    0  0.00000000000E+00  0.00000000000E+00 -0.81521401743E+03  0.36506674133E+04  0.35584826356E+04 0.  0.
        2    1    3    3  502    0  0.17000859912E+04  0.22488523430E+03 -0.89405715176E+03  0.19339606864E+04  0.25500000920E-02 0. -1.
       -2    1    3    3    0  502 -0.17000859912E+04 -0.22488523430E+03  0.78843134335E+02  0.17167067268E+04  0.25500000920E-02 0.  1.
</event>
<event>
 5   0  0.4687817E-07  0.3745786E+04  0.7818609E-02  0.8057890E-01
       -2   -1    0    0    0  501  0.00000000000E+00  0.00000000000E+00  0.11828304562E+04  0.11828304562E+04  0.25500000920E-02 0. -1.
        2   -1    0    0  501    0  0.00000000000E+00  0.00000000000E+00 -0.29655371985E+04  0.29655371985E+04  0.25500000920E-02 0.  1.
    10030    2    1    2    0    0  0.00000000000E+00  0.00000000000E+00 -0.17827067422E+04  0.41483676547E+04  0.37457857479E+04 0.  0.
        4    1    3    3  502    0 -0.16629830956E+04  0.55722209370E+02 -0.18434660857E+04  0.24833418135E+04  0.12699999809E+01 0.  1.
       -4    1    3    3    0  502  0.16629830956E+04 -0.55722209370E+02  0.60759343429E+02  0.16650258411E+04  0.12699999809E+01 0. -1.
</event>
<event>
 5   0  0.4824268E-07  0.3687906E+04  0.7818609E-02  0.8070647E-01
        2   -1    0    0  501    0  0.00000000000E+00  0.00000000000E+00  0.27576284110E+04  0.27576284110E+04  0.25500000920E-02 0. -1.
       -2   -1    0    0    0  501  0.00000000000E+00  0.00000000000E+00 -0.12330022134E+04  0.12330022134E+04  0.25500000920E-02 0.  1.
    10030    2    1    2    0    0  0.00000000000E+00  0.00000000000E+00  0.15246261976E+04  0.39906306243E+04  0.36879056031E+04 0.  0.
        1    1    3    3  502    0  0.49543096297E+03 -0.29904786922E+03  0.26568228447E+04  0.27191154987E+04  0.50400001928E-02 0. -1.
       -1    1    3    3    0  502 -0.49543096297E+03  0.29904786922E+03 -0.11321966470E+04  0.12715151257E+04  0.50400001928E-02 0.  1.
</event>
<event>
 5   0  0.1496000E-07  0.3740505E+04  0.7818609E-02  0.8059044E-01
       -4   -1    0    0    0  501  0.00000000000E+00  0.00000000000E+00  0.13410026838E+04  0.13410032852E+04  0.12699999809E+01 0.  1.
        4   -1    0    0  501    0  0.00000000000E+00  0.00000000000E+00 -0.26083780523E+04  0.26083783615E+04  0.12699999809E+01 0. -1.
    10030    2    1    2    0    0  0.00000000000E+00  0.00000000000E+00 -0.12673753685E+04  0.39493816467E+04  0.37405046540E+04 0.  0.
        4    1    3    3  502    0 -0.50574907653E+03  0.12636028733E+04  0.72066072394E+03  0.15400739728E+04  0.12699999809E+01 0.  1.
       -4    1    3    3    0  502  0.50574907653E+03 -0.12636028733E+04 -0.19880360924E+04  0.24093076739E+04  0.12699999809E+01 0. -1.
</event>
<event>
 5   0  0.4793557E-07  0.3727990E+04  0.7818609E-02  0.8061787E-01
        2   -1    0    0  501    0  0.00000000000E+00  0.00000000000E+00  0.35080744566E+04  0.35080744566E+04  0.25500000920E-02 0. -1.
       -2   -1    0    0    0  501  0.00000000000E+00  0.00000000000E+00 -0.99042280226E+03  0.99042280227E+03  0.25500000920E-02 0.  1.
    10030    2    1    2    0    0  0.00000000000E+00  0.00000000000E+00  0.25176516543E+04  0.44984972588E+04  0.37279897714E+04 0.  0.
        3    1    3    3  502    0 -0.10833595587E+04 -0.12183667881E+03  0.30832571455E+04  0.32703190586E+04  0.10100000352E+00 0. -1.
       -3    1    3    3    0  502  0.10833595587E+04  0.12183667881E+03 -0.56560549120E+03  0.12281782002E+04  0.10100000352E+00 0.  1.
</event>
<event>
 5   0  0.4687817E-07  0.3715815E+04  0.7818609E-02  0.8064466E-01
       -2   -1    0    0    0  501  0.00000000000E+00  0.00000000000E+00  0.18236459198E+04  0.18236459198E+04  0.25500000920E-02 0. -1.
        2   -1    0    0  501    0  0.00000000000E+00  0.00000000000E+00 -0.18928125130E+04  0.18928125130E+04  0.25500000920E-02 0.  1.
    10030    2    1    2    0    0  0.00000000000E+00  0.00000000000E+00 -0.69166593182E+02  0.37164584328E+04  0.37158147512E+04 0.  0.
        4    1    3    3  502    0 -0.13234373775E+04  0.12653110397E+04  0.28062155248E+03  0.18523629741E+04  0.12699999809E+01 0. -1.
       -4    1    3    3    0  502  0.13234373775E+04 -0.12653110397E+04 -0.34978814566E+03  0.18640954587E+04  0.12699999809E+01 0.  1.
</event>
<event>
 5   0  0.1496000E-07  0.3717090E+04  0.7818609E-02  0.8064185E-01
        1   -1    0    0  501    0  0.00000000000E+00  0.00000000000E+00  0.18730351657E+04  0.18730351658E+04  0.50400001928E-02 0. -1.
       -1   -1    0    0    0  501  0.00000000000E+00  0.00000000000E+00 -0.18441665921E+04  0.18441665921E+04  0.50400001928E-02 0.  1.
    10030    2    1    2    0    0  0.00000000000E+00  0.00000000000E+00  0.28868573621E+02  0.37172017579E+04  0.37170896565E+04 0.  0.
        3    1    3    3  502    0 -0.15180365734E+04  0.77282409301E+03 -0.72888938202E+03  0.18528280704E+04  0.10100000352E+00 0. -1.
       -3    1    3    3    0  502  0.15180365734E+04 -0.77282409301E+03  0.75775795564E+03  0.18643736875E+04  0.10100000352E+00 0.  1.
</event>
<event>
 5   0  0.1496000E-07  0.3692956E+04  0.7818609E-02  0.8069525E-01
       -1   -1    0    0    0  501  0.00000000000E+00  0.00000000000E+00  0.24565872164E+04  0.24565872164E+04  0.50400001928E-02 0. -1.
        1   -1    0    0  501    0  0.00000000000E+00  0.00000000000E+00 -0.13878930735E+04  0.13878930735E+04  0.50400001928E-02 0.  1.
    10030    2    1    2    0    0  0.00000000000E+00  0.00000000000E+00  0.10686941429E+04  0.38444802899E+04  0.36929556629E+04 0.  0.
        2    1    3    3  502    0 -0.87301223274E+03 -0.12999001842E+04 -0.48436919443E+03  0.16390559368E+04  0.25500000920E-02 0. -1.
       -2    1    3    3    0  502  0.87301223274E+03  0.12999001842E+04  0.15530633373E+04  0.22054243531E+04  0.25500000920E-02 0.  1.
</event>
<event>
 5   0  0.1496000E-07  0.3629036E+04  0.7818609E-02  0.8083873E-01
       -1   -1    0    0    0  501  0.00000000000E+00  0.00000000000E+00  0.21851769245E+04  0.21851769245E+04  0.50400001928E-02 0. -1.
        1   -1    0    0  501    0  0.00000000000E+00  0.00000000000E+00 -0.15067315164E+04  0.15067315164E+04  0.50400001928E-02 0.  1.
    10030    2    1    2    0    0  0.00000000000E+00  0.00000000000E+00  0.67844540811E+03  0.36919084410E+04  0.36290356522E+04 0.  0.
        5    1    3    3  502    0  0.93819333974E+03 -0.76324935879E+03  0.17153202451E+04  0.20988334760E+04  0.46999998093E+01 0. -1.
       -5    1    3    3    0  502 -0.93819333974E+03  0.76324935879E+03 -0.10368748370E+04  0.15930749650E+04  0.46999998093E+01 0.  1.
</event>
<event>
 5   0  0.4687817E-07  0.3710120E+04  0.7818609E-02  0.8065723E-01
       -2   -1    0    0    0  501  0.00000000000E+00  0.00000000000E+00  0.22304311884E+04  0.22304311884E+04  0.25500000920E-02 0. -1.
        2   -1    0    0  501    0  0.00000000000E+00  0.00000000000E+00 -0.15428616374E+04  0.15428616375E+04  0.25500000920E-02 0.  1.
    10030    2    1    2    0    0  0.00000000000E+00  0.00000000000E+00  0.68756955099E+03  0.37732928259E+04  0.37101195213E+04 0.  0.
        4    1    3    3  502    0 -0.14905964929E+04  0.10801945005E+04  0.57691937669E+03  0.19291282081E+04  0.12699999809E+01 0.  1.
       -4    1    3    3    0  502  0.14905964929E+04 -0.10801945005E+04  0.11065017430E+03  0.18441646177E+04  0.12699999809E+01 0. -1.
</event>
<event>
 5   0  0.1496287E-07  0.3693409E+04  0.7818609E-02  0.8069424E-01
       -1   -1    0    0    0  501  0.00000000000E+00  0.00000000000E+00  0.25117026194E+04  0.25117026194E+04  0.50400001928E-02 0. -1.
        1   -1    0    0  501    0  0.00000000000E+00  0.00000000000E+00 -0.13577709633E+04  0.13577709633E+04  0.50400001928E-02 0.  1.
    10030    2    1    2    0    0  0.00000000000E+00  0.00000000000E+00  0.11539316561E+04  0.38694735827E+04  0.36934086615E+04 0.  0.
        1    1    3    3  502    0  0.11422190710E+04  0.92170507837E+03  0.17511568201E+04  0.22848971238E+04  0.50400001928E-02 0. -1.
       -1    1    3    3    0  502 -0.11422190710E+04 -0.92170507837E+03 -0.59722516402E+03  0.15845764589E+04  0.50400001928E-02 0.  1.
</event>
<event>
 5   0  0.1496000E-07  0.3714132E+04  0.7818609E-02  0.8064837E-01
       -1   -1    0    0    0  501  0.00000000000E+00  0.00000000000E+00  0.28440889311E+04  0.28440889311E+04  0.50400001928E-02 0.  1.
        1   -1    0    0  501    0  0.00000000000E+00  0.00000000000E+00 -0.12125829473E+04  0.12125829473E+04  0.50400001928E-02 0. -1.
    10030    2    1    2    0    0  0.00000000000E+00  0.00000000000E+00  0.16315059838E+04  0.40566718783E+04  0.37141317900E+04 0.  0.
        5    1    3    3  502    0 -0.16072712685E+04  0.56558818493E+03  0.16224200341E+04  0.23527600350E+04  0.46999998093E+01 0.  1.
       -5    1    3    3    0  502  0.16072712685E+04 -0.56558818493E+03  0.90859497195E+01  0.17039118433E+04  0.46999998093E+01 0. -1.
</event>
<event>
 5   0  0.1496287E-07  0.3717568E+04  0.7818609E-02  0.8064080E-01
        1   -1    0    0  501    0  0.00000000000E+00  0.00000000000E+00  0.16006411603E+04  0.16006411603E+04  0.50400001928E-02 0. -1.
       -1   -1    0    0    0  501  0.00000000000E+00  0.00000000000E+00 -0.21585584383E+04  0.21585584383E+04  0.50400001928E-02 0.  1.
    10030    2    1    2    0    0  0.00000000000E+00  0.00000000000E+00 -0.55791727800E+03  0.37591995986E+04  0.37175677443E+04 0.  0.
        1    1    3    3  502    0 -0.12146854110E+04  0.41591172332E+03  0.10802045910E+04  0.16778811542E+04  0.50400001928E-02 0. -1.
       -1    1    3    3    0  502  0.12146854110E+04 -0.41591172332E+03 -0.16381218690E+04  0.20813184444E+04  0.50400001928E-02 0.  1.
</event>
<event>
 5   0  0.1496000E-07  0.3472317E+04  0.7818609E-02  0.8120382E-01
        1   -1    0    0  501    0  0.00000000000E+00  0.00000000000E+00  0.19906448083E+04  0.19906448083E+04  0.50400001928E-02 0. -1.
       -1   -1    0    0    0  501  0.00000000000E+00  0.00000000000E+00 -0.15142058973E+04  0.15142058973E+04  0.50400001928E-02 0.  1.
    10030    2    1    2    0    0  0.00000000000E+00  0.00000000000E+00  0.47643891102E+03  0.35048507056E+04  0.34723168681E+04 0.  0.
        2    1    3    3  502    0  0.92621601079E+03 -0.57108168593E+03 -0.11273182184E+04  0.15667982500E+04  0.25500000920E-02 0.  1.
       -2    1    3    3    0  502 -0.92621601079E+03  0.57108168593E+03  0.16037571294E+04  0.19380524556E+04  0.25500000920E-02 0. -1.
</event>
<event>
 5   0  0.4857514E-07  0.3701589E+04  0.7818609E-02  0.8067610E-01
       -2   -1    0    0    0  501  0.00000000000E+00  0.00000000000E+00  0.16760290273E+04  0.16760290273E+04  0.25500000920E-02 0.  1.
        2   -1    0    0  501    0  0.00000000000E+00  0.00000000000E+00 -0.20437834329E+04  0.20437834329E+04  0.25500000920E-02 0. -1.
    10030    2    1    2    0    0  0.00000000000E+00  0.00000000000E+00 -0.36775440562E+03  0.37198124602E+04  0.37015890421E+04 0.  0.
        5    1    3    3  502    0 -0.12305263669E+04 -0.80473074930E+03  0.94577063259E+03  0.17482250707E+04  0.46999998093E+01 0.  1.
       -5    1    3    3    0  502  0.12305263669E+04  0.80473074930E+03 -0.13135250382E+04  0.19715873895E+04  0.46999998093E+01 0. -1.
</event>
<event>
 5   0  0.4687817E-07  0.3704081E+04  0.7818609E-02  0.8067058E-01
        2   -1    0    0  501    0  0.00000000000E+00  0.00000000000E+00  0.19362319988E+04  0.19362319988E+04  0.25500000920E-02 0.  1.
       -2   -1    0    0    0  501  0.00000000000E+00  0.00000000000E+00 -0.17715101433E+04  0.17715101433E+04  0.25500000920E-02 0. -1.
    10030    2    1    2    0    0  0.00000000000E+00  0.00000000000E+00  0.16472185547E+03  0.37077421421E+04  0.37040813305E+04 0.  0.
        4    1    3    3  502    0 -0.26593513250E+03  0.10811504337E+04  0.15638389437E+04  0.19196878939E+04  0.12699999809E+01 0.  1.
       -4    1    3    3    0  502  0.26593513250E+03 -0.10811504337E+04 -0.13991170883E+04  0.17880542482E+04  0.12699999809E+01 0. -1.
</event>
<event>
 5   0  0.1496000E-07  0.3719364E+04  0.7818609E-02  0.8063684E-01
        1   -1    0    0  501    0  0.00000000000E+00  0.00000000000E+00  0.23546076194E+04  0.23546076194E+04  0.50400001928E-02 0.  1.
       -1   -1    0    0    0  501  0.00000000000E+00  0.00000000000E+00 -0.14687867586E+04  0.14687867586E+04  0.50400001928E-02 0. -1.
    10030    2    1    2    0    0  0.00000000000E+00  0.00000000000E+00  0.88582086077E+03  0.38233943780E+04  0.37193636515E+04 0.  0.
        3    1    3    3  502    0 -0.10290999280E+03  0.98657473747E+02  0.23489821907E+04  0.23533042953E+04  0.10100000352E+00 0.  1.
       -3    1    3    3    0  502  0.10290999280E+03 -0.98657473747E+02 -0.14631613299E+04  0.14700900827E+04  0.10100000352E+00 0. -1.
</event>
<event>
 5   0  0.1496000E-07  0.3708100E+04  0.7818609E-02  0.8066169E-01
       -1   -1    0    0    0  501  0.00000000000E+00  0.00000000000E+00  0.13608505038E+04  0.13608505038E+04  0.50400001928E-02 0. -1.
        1   -1    0    0  501    0  0.00000000000E+00  0.00000000000E+00 -0.25259942583E+04  0.25259942583E+04  0.50400001928E-02 0.  1.
    10030    2    1    2    0    0  0.00000000000E+00  0.00000000000E+00 -0.11651437546E+04  0.38868447621E+04  0.37080995450E+04 0.  0.
        2    1    3    3  502    0  0.13557818236E+04  0.10700419665E+04  0.12398790449E+03  0.17316198092E+04  0.25500000920E-02 0. -1.
       -2    1    3    3    0  502 -0.13557818236E+04 -0.10700419665E+04 -0.12891316591E+04  0.21552249529E+04  0.25500000920E-02 0.  1.
</event>
<event>
 5   0  0.4687817E-07  0.3679920E+04  0.7818609E-02  0.8072426E-01
       -2   -1    0    0    0  501  0.00000000000E+00  0.00000000000E+00  0.29534293773E+04  0.29534293773E+04  0.25500000920E-02 0.  1.
        2   -1    0    0  501    0  0.00000000000E+00  0.00000000000E+00 -0.11462784328E+04  0.11462784328E+04  0.25500000920E-02 0. -1.
    10030    2    1    2    0    0  0.00000000000E+00  0.00000000000E+00  0.18071509445E+04  0.40997078101E+04  0.36799197806E+04 0.  0.
        4    1    3    3  502    0 -0.10696156164E+04 -0.12742520834E+04  0.17791386330E+04  0.24358020912E+04  0.12699999809E+01 0. -1.
       -4    1    3    3    0  502  0.10696156164E+04  0.12742520834E+04  0.28012311494E+02  0.16639057189E+04  0.12699999809E+01 0.  1.
</event>
<event>
 5   0  0.1496287E-07  0.3612078E+04  0.7818609E-02  0.8087731E-01
        1   -1    0    0  501    0  0.00000000000E+00  0.00000000000E+00  0.21556403953E+04  0.21556403953E+04  0.50400001928E-02 0. -1.
       -1   -1    0    0    0  501  0.00000000000E+00  0.00000000000E+00 -0.15131361194E+04  0.15131361194E+04  0.50400001928E-02 0.  1.
    10030    2    1    2    0    0  0.00000000000E+00  0.00000000000E+00  0.64250427590E+03  0.36687765147E+04  0.36120782619E+04 0.  0.
        1    1    3    3  502    0  0.98526899238E+03  0.10812725252E+04  0.13970626313E+04  0.20227924404E+04  0.50400001928E-02 0. -1.
       -1    1    3    3    0  502 -0.98526899238E+03 -0.10812725252E+04 -0.75455835543E+03  0.16459840743E+04  0.50400001928E-02 0.  1.
</event>
<event>
 5   0  0.4824268E-07  0.3691828E+04  0.7818609E-02  0.8069775E-01
        2   -1    0    0  501    0  0.00000000000E+00  0.00000000000E+00  0.19652094496E+04  0.19652094496E+04  0.25500000920E-02 0.  1.
       -2   -1    0    0    0  501  0.00000000000E+00  0.00000000000E+00 -0.17338600091E+04  0.17338600091E+04  0.25500000920E-02 0. -1.
    10030    2    1    2    0    0  0.00000000000E+00  0.00000000000E+00  0.23134944057E+03  0.36990694587E+04  0.36918277718E+04 0.  0.
        1    1    3    3  502    0  0.89056174024E+03  0.15445311348E+04  0.59486112403E+03  0.18795042954E+04  0.50400001928E-02 0. -1.
       -1    1    3    3    0  502 -0.89056174024E+03 -0.15445311348E+04 -0.36351168346E+03  0.18195651633E+04  0.50400001928E-02 0.  1.
</event>
<event>
 5   0  0.1496287E-07  0.3682031E+04  0.7818609E-02  0.8071956E-01
        1   -1    0    0  501    0  0.00000000000E+00  0.00000000000E+00  0.12520316155E+04  0.12520316155E+04  0.50400001928E-02 0. -1.
       -1   -1    0    0    0  501  0.00000000000E+00  0.00000000000E+00 -0.27070701549E+04  0.27070701549E+04  0.50400001928E-02 0.  1.
    10030    2    1    2    0    0  0.00000000000E+00  0.00000000000E+00 -0.14550385394E+04  0.39591017704E+04  0.36820306459E+04 0.  0.
        1    1    3    3  502    0 -0.33551627914E+03 -0.69285912358E+01  0.12188660311E+04  0.12642205428E+04  0.50400001928E-02 0. -1.
       -1    1    3    3    0  502  0.33551627914E+03  0.69285912358E+01 -0.26739045705E+04  0.26948812276E+04  0.50400001928E-02 0.  1.
</event>
<event>
 5   0  0.1496287E-07  0.3730259E+04  0.7818609E-02  0.8061289E-01
       -1   -1    0    0    0  501  0.00000000000E+00  0.00000000000E+00  0.22389412707E+04  0.22389412707E+04  0.50400001928E-02 0. -1.
        1   -1    0    0  501    0  0.00000000000E+00  0.00000000000E+00 -0.15537289272E+04  0.15537289272E+04  0.50400001928E-02 0.  1.
    10030    2    1    2    0    0  0.00000000000E+00  0.00000000000E+00  0.68521234357E+03  0.37926701979E+04  0.37302588750E+04 0.  0.
        1    1    3    3  502    0 -0.12923735840E+04  0.68861259628E+03 -0.83183533078E+03  0.16841516576E+04  0.50400001928E-02 0.  1.
       -1    1    3    3    0  502  0.12923735840E+04 -0.68861259628E+03  0.15170476744E+04  0.21085185403E+04  0.50400001928E-02 0. -1.
</event>
<event>
 5   0  0.4793557E-07  0.3661690E+04  0.7818609E-02  0.8076505E-01
       -2   -1    0    0    0  501  0.00000000000E+00  0.00000000000E+00  0.19847503171E+04  0.19847503171E+04  0.25500000920E-02 0.  1.
        2   -1    0    0  501    0  0.00000000000E+00  0.00000000000E+00 -0.16888736847E+04  0.16888736847E+04  0.25500000920E-02 0. -1.
    10030    2    1    2    0    0  0.00000000000E+00  0.00000000000E+00  0.29587663245E+03  0.36736240018E+04  0.36616895451E+04 0.  0.
        3    1    3    3  502    0  0.98668046691E+02 -0.93582172962E+03  0.17235648754E+04  0.19637142315E+04  0.10100000352E+00 0.  1.
       -3    1    3    3    0  502 -0.98668046691E+02  0.93582172962E+03 -0.14276882430E+04  0.17099097703E+04  0.10100000352E+00 0. -1.
</event>
<event>
 5   0  0.1496000E-07  0.3684792E+04  0.7818609E-02  0.8071340E-01
        3   -1    0    0  501    0  0.00000000000E+00  0.00000000000E+00  0.23090955478E+04  0.23090955500E+04  0.10100000352E+00 0. -1.
       -3   -1    0    0    0  501  0.00000000000E+00  0.00000000000E+00 -0.14700229338E+04  0.14700229372E+04  0.10100000352E+00 0.  1.
    10030    2    1    2    0    0  0.00000000000E+00  0.00000000000E+00  0.83907261400E+03  0.37791184872E+04  0.36847922178E+04 0.  0.
        1    1    3    3  502    0  0.31331068842E+03 -0.65558972275E+03  0.21559395802E+04  0.22750905357E+04  0.50400001928E-02 0. -1.
       -1    1    3    3    0  502 -0.31331068842E+03  0.65558972275E+03 -0.13168669662E+04  0.15040279515E+04  0.50400001928E-02 0.  1.
</event>
<event>
 5   0  0.4793557E-07  0.3601213E+04  0.7818609E-02  0.8090214E-01
        2   -1    0    0  501    0  0.00000000000E+00  0.00000000000E+00  0.28716104787E+04  0.28716104787E+04  0.25500000920E-02 0.  1.
       -2   -1    0    0    0  501  0.00000000000E+00  0.00000000000E+00 -0.11290470496E+04  0.11290470496E+04  0.25500000920E-02 0. -1.
    10030    2    1    2    0    0  0.00000000000E+00  0.00000000000E+00  0.17425634292E+04  0.40006575283E+04  0.36012127615E+04 0.  0.
        3    1    3    3  502    0  0.59312074347E+03  0.10231506612E+03 -0.10139859280E+04  0.11791641368E+04  0.10100000352E+00 0. -1.
       -3    1    3    3    0  502 -0.59312074347E+03 -0.10231506612E+03  0.27565493572E+04  0.28214933915E+04  0.10100000352E+00 0.  1.
</event>
<event>
 5   0  0.4687817E-07  0.3703108E+04  0.7818609E-02  0.8067273E-01
       -2   -1    0    0    0  501  0.00000000000E+00  0.00000000000E+00  0.22541638266E+04  0.22541638266E+04  0.25500000920E-02 0. -1.
        2   -1    0    0  501    0  0.00000000000E+00  0.00000000000E+00 -0.15208532372E+04  0.15208532372E+04  0.25500000920E-02 0.  1.
    10030    2    1    2    0    0  0.00000000000E+00  0.00000000000E+00  0.73331058940E+03  0.37750170639E+04  0.37031080746E+04 0.  0.
        4    1    3    3  502    0  0.22158459721E+03  0.11262743893E+04 -0.11143662076E+04  0.15998147991E+04  0.12699999809E+01 0.  1.
       -4    1    3    3    0  502 -0.22158459721E+03 -0.11262743893E+04  0.18476767970E+04  0.21752022648E+04  0.12699999809E+01 0. -1.
</event>
<event>
 5   0  0.4793557E-07  0.3709789E+04  0.7818609E-02  0.8065796E-01
       -2   -1    0    0    0  501  0.00000000000E+00  0.00000000000E+00  0.18189223597E+04  0.18189223598E+04  0.25500000920E-02 0.  1.
        2   -1    0    0  501    0  0.00000000000E+00  0.00000000000E+00 -0.18915785404E+04  0.18915785404E+04  0.25500000920E-02 0. -1.
    10030    2    1    2    0    0  0.00000000000E+00  0.00000000000E+00 -0.72656180662E+02  0.37105009002E+04  0.37097894832E+04 0.  0.
        3    1    3    3  502    0  0.14594828011E+04  0.98747643635E+03 -0.61560643145E+03  0.18665934339E+04  0.10100000352E+00 0. -1.
       -3    1    3    3    0  502 -0.14594828011E+04 -0.98747643635E+03  0.54295025078E+03  0.18439074662E+04  0.10100000352E+00 0.  1.
</event>
<event>
 5   0  0.4824268E-07  0.3720086E+04  0.7818609E-02  0.8063525E-01
       -2   -1    0    0    0  501  0.00000000000E+00  0.00000000000E+00  0.11300293664E+04  0.11300293664E+04  0.25500000920E-02 0.  1.
        2   -1    0    0  501    0  0.00000000000E+00  0.00000000000E+00 -0.30616546178E+04  0.30616546178E+04  0.25500000920E-02 0. -1.
    10030    2    1    2    0    0  0.00000000000E+00  0.00000000000E+00 -0.19316252514E+04  0.41916839842E+04  0.37200858204E+04 0.  0.
        1    1    3    3  502    0  0.16652084143E+04  0.82102973976E+03 -0.10930466071E+04  0.21544743633E+04  0.50400001928E-02 0. -1.
       -1    1    3    3    0  502 -0.16652084143E+04 -0.82102973976E+03 -0.83857864425E+03  0.20372096209E+04  0.50400001928E-02 0.  1.
</event>
<event>
 5   0  0.1496000E-07  0.3709142E+04  0.7818609E-02  0.8065939E-01
       -1   -1    0    0    0  501  0.00000000000E+00  0.00000000000E+00  0.16425144654E+04  0.16425144654E+04  0.50400001928E-02 0. -1.
        1   -1    0    0  501    0  0.00000000000E+00  0.00000000000E+00 -0.20940054662E+04  0.20940054662E+04  0.50400001928E-02 0.  1.
    10030    2    1    2    0    0  0.00000000000E+00  0.00000000000E+00 -0.45149100085E+03  0.37365199316E+04  0.37091423639E+04 0.  0.
        2    1    3    3  502    0 -0.19920413641E+03 -0.17450747020E+04  0.37401968854E+03  0.17957891667E+04  0.25500000920E-02 0. -1.
       -2    1    3    3    0  502  0.19920413641E+03  0.17450747020E+04 -0.82551068939E+03  0.19407307649E+04  0.25500000920E-02 0.  1.
</event>
<event>
 5   0  0.1522273E-07  0.3698790E+04  0.7818609E-02  0.8068230E-01
        1   -1    0    0  501    0  0.00000000000E+00  0.00000000000E+00  0.11331736270E+04  0.11331736270E+04  0.50400001928E-02 0. -1.
       -1   -1    0    0    0  501  0.00000000000E+00  0.00000000000E+00 -0.30183027229E+04  0.30183027229E+04  0.50400001928E-02 0.  1.
    10030    2    1    2    0    0  0.00000000000E+00  0.00000000000E+00 -0.18851290959E+04  0.41514763500E+04  0.36987895555E+04 0.  0.
        4    1    3    3  502    0  0.12929988575E+04  0.12748804366E+04 -0.54877872303E+03  0.18969253736E+04  0.12699999809E+01 0. -1.
       -4    1    3    3    0  502 -0.12929988575E+04 -0.12748804366E+04 -0.13363503729E+04  0.22545509764E+04  0.12699999809E+01 0.  1.
</event>
<event>
 5   0  0.4857514E-07  0.3689047E+04  0.7818609E-02  0.8070394E-01
        2   -1    0    0  501    0  0.00000000000E+00  0.00000000000E+00  0.22136997609E+04  0.22136997609E+04  0.25500000920E-02 0.  1.
       -2   -1    0    0    0  501  0.00000000000E+00  0.00000000000E+00 -0.15369141720E+04  0.15369141720E+04  0.25500000920E-02 0. -1.
    10030    2    1    2    0    0  0.00000000000E+00  0.00000000000E+00  0.67678558887E+03  0.37506139329E+04  0.36890467794E+04 0.  0.
        5    1    3    3  502    0 -0.17878524986E+04  0.45100676416E+03  0.28837016630E+03  0.18662805525E+04  0.46999998093E+01 0.  1.
       -5    1    3    3    0  502  0.17878524986E+04 -0.45100676416E+03  0.38841542257E+03  0.18843333804E+04  0.46999998093E+01 0. -1.
</event>
<event>
 5   0  0.1496287E-07  0.3657938E+04  0.7818609E-02  0.8077348E-01
        1   -1    0    0  501    0  0.00000000000E+00  0.00000000000E+00  0.16875480337E+04  0.16875480337E+04  0.50400001928E-02 0.  1.
       -1   -1    0    0    0  501  0.00000000000E+00  0.00000000000E+00 -0.19822415781E+04  0.19822415781E+04  0.50400001928E-02 0. -1.
    10030    2    1    2    0    0  0.00000000000E+00  0.00000000000E+00 -0.29469354442E+03  0.36697896117E+04  0.36579381500E+04 0.  0.
        1    1    3    3  502    0 -0.14151586263E+04 -0.10188158150E+04  0.40622741656E+03  0.17904413747E+04  0.50400001928E-02 0.  1.
       -1    1    3    3    0  502  0.14151586263E+04  0.10188158150E+04 -0.70092096099E+03  0.18793482370E+04  0.50400001928E-02 0. -1.
</event>
<event>
 5   0  0.1522273E-07  0.3380486E+04  0.7818609E-02  0.8142712E-01
       -1   -1    0    0    0  501  0.00000000000E+00  0.00000000000E+00  0.14139798650E+04  0.14139798650E+04  0.50400001928E-02 0.  1.
        1   -1    0    0  501    0  0.00000000000E+00  0.00000000000E+00 -0.20204826540E+04  0.20204826540E+04  0.50400001928E-02 0. -1.
    10030    2    1    2    0    0  0.00000000000E+00  0.00000000000E+00 -0.60650278896E+03  0.34344625190E+04  0.33804862315E+04 0.  0.
        4    1    3    3  502    0 -0.16887551865E+04  0.68274516659E+02 -0.28384967427E+03  0.17138050473E+04  0.12699999809E+01 0.  1.
       -4    1    3    3    0  502  0.16887551865E+04 -0.68274516659E+02 -0.32265311470E+03  0.17206574717E+04  0.12699999809E+01 0. -1.
</event>
<event>
 5   0  0.1496000E-07  0.3744673E+04  0.7818609E-02  0.8058133E-01
        1   -1    0    0  501    0  0.00000000000E+00  0.00000000000E+00  0.13694229847E+04  0.13694229847E+04  0.50400001928E-02 0. -1.
       -1   -1    0    0    0  501  0.00000000000E+00  0.00000000000E+00 -0.25599420255E+04  0.25599420255E+04  0.50400001928E-02 0.  1.
    10030    2    1    2    0    0  0.00000000000E+00  0.00000000000E+00 -0.11905190407E+04  0.39293650102E+04  0.37446727223E+04 0.  0.
        5    1    3    3  502    0 -0.14896714520E+04 -0.89207190682E+03  0.13979591295E+03  0.17419754043E+04  0.46999998093E+01 0. -1.
       -5    1    3    3    0  502  0.14896714520E+04  0.89207190682E+03 -0.13303149537E+04  0.21873896059E+04  0.46999998093E+01 0.  1.
</event>
<event>
 5   0  0.4687817E-07  0.3525180E+04  0.7818609E-02  0.8107848E-01
        2   -1    0    0  501    0  0.00000000000E+00  0.00000000000E+00  0.24621311710E+04  0.24621311710E+04  0.25500000920E-02 0. -1.
       -2   -1    0    0    0  501  0.00000000000E+00  0.00000000000E+00 -0.12618027908E+04  0.12618027909E+04  0.25500000920E-02 0.  1.
    10030    2    1    2    0    0  0.00000000000E+00  0.00000000000E+00  0.12003283801E+04  0.37239339618E+04  0.35251802694E+04 0.  0.
        4    1    3    3  502    0  0.15321477757E+04 -0.67541990143E+03  0.18623233111E+02  0.16745200170E+04  0.12699999809E+01 0.  1.
       -4    1    3    3    0  502 -0.15321477757E+04  0.67541990143E+03  0.11817051470E+04  0.20494139448E+04  0.12699999809E+01 0. -1.
</event>
<event>
 5   0  0.1496287E-07  0.3697636E+04  0.7818609E-02  0.8068486E-01
       -1   -1    0    0    0  501  0.00000000000E+00  0.00000000000E+00  0.14899744665E+04  0.14899744665E+04  0.50400001928E-02 0.  1.
        1   -1    0    0  501    0  0.00000000000E+00  0.00000000000E+00 -0.22940843930E+04  0.22940843930E+04  0.50400001928E-02 0. -1.
    10030    2    1    2    0    0  0.00000000000E+00  0.00000000000E+00 -0.80410992643E+03  0.37840588595E+04  0.36976355524E+04 0.  0.
        1    1    3    3  502    0 -0.56019193459E+03  0.52299498176E+03  0.13197639897E+04  0.15261440768E+04  0.50400001928E-02 0.  1.
       -1    1    3    3    0  502  0.56019193459E+03 -0.52299498176E+03 -0.21238739161E+04  0.22579147827E+04  0.50400001928E-02 0. -1.
</event>
<event>
 5   0  0.4758908E-07  0.3653831E+04  0.7818609E-02  0.8078271E-01
        2   -1    0    0  501    0  0.00000000000E+00  0.00000000000E+00  0.17407871614E+04  0.17407871614E+04  0.25500000920E-02 0. -1.
       -2   -1    0    0    0  501  0.00000000000E+00  0.00000000000E+00 -0.19173046671E+04  0.19173046671E+04  0.25500000920E-02 0.  1.
    10030    2    1    2    0    0  0.00000000000E+00  0.00000000000E+00 -0.17651750572E+03  0.36580918285E+04  0.36538305100E+04 0.  0.
        2    1    3    3  502    0 -0.16442821647E+04 -0.63784997005E+03 -0.56536771195E+03  0.18520683225E+04  0.25500000920E-02 0. -1.
       -2    1    3    3    0  502  0.16442821647E+04  0.63784997005E+03  0.38885020623E+03  0.18060235060E+04  0.25500000920E-02 0.  1.
</event>
<event>
 5   0  0.4857514E-07  0.3648706E+04  0.7818609E-02  0.8079425E-01
       -2   -1    0    0    0  501  0.00000000000E+00  0.00000000000E+00  0.16937933254E+04  0.16937933254E+04  0.25500000920E-02 0. -1.
        2   -1    0    0  501    0  0.00000000000E+00  0.00000000000E+00 -0.19649759797E+04  0.19649759797E+04  0.25500000920E-02 0.  1.
    10030    2    1    2    0    0  0.00000000000E+00  0.00000000000E+00 -0.27118265429E+03  0.36587693051E+04  0.36487056330E+04 0.  0.
        5    1    3    3  502    0 -0.13464124098E+04  0.38518640311E+03 -0.13080236702E+04  0.19162836310E+04  0.46999998093E+01 0.  1.
       -5    1    3    3    0  502  0.13464124098E+04 -0.38518640311E+03  0.10368410159E+04  0.17424856742E+04  0.46999998093E+01 0. -1.
</event>
<event>
 5   0  0.1496000E-07  0.3733686E+04  0.7818609E-02  0.8060537E-01
        1   -1    0    0  501    0  0.00000000000E+00  0.00000000000E+00  0.17703854522E+04  0.17703854522E+04  0.50400001928E-02 0.  1.
       -1   -1    0    0    0  501  0.00000000000E+00  0.00000000000E+00 -0.19685559983E+04  0.19685559983E+04  0.50400001928E-02 0. -1.
    10030    2    1    2    0    0  0.00000000000E+00  0.00000000000E+00 -0.19817054614E+03  0.37389414505E+04  0.37336860614E+04 0.  0.
        3    1    3    3  502    0  0.26877666577E+02  0.11104863854E+04  0.14034267341E+04  0.17898349168E+04  0.10100000352E+00 0.  1.
       -3    1    3    3    0  502 -0.26877666577E+02 -0.11104863854E+04 -0.16015972803E+04  0.19491065337E+04  0.10100000352E+00 0. -1.
</event>
<event>
 5   0  0.1496000E-07  0.3681851E+04  0.7818609E-02  0.8071996E-01
       -1   -1    0    0    0  501  0.00000000000E+00  0.00000000000E+00  0.23799593298E+04  0.23799593298E+04  0.50400001928E-02 0.  1.
        1   -1    0    0  501    0  0.00000000000E+00  0.00000000000E+00 -0.14239769818E+04  0.14239769818E+04  0.50400001928E-02 0. -1.
    10030    2    1    2    0    0  0.00000000000E+00  0.00000000000E+00  0.95598234801E+03  0.38039363116E+04  0.36818513296E+04 0.  0.
        5    1    3    3  502    0 -0.12231859912E+04  0.13712491965E+04  0.59339496617E+03  0.19309707413E+04  0.46999998093E+01 0.  1.
       -5    1    3    3    0  502  0.12231859912E+04 -0.13712491965E+04  0.36258738185E+03  0.18729655703E+04  0.46999998093E+01 0. -1.
</event>
<event>
 5   0  0.4758908E-07  0.3497293E+04  0.7818609E-02  0.8114432E-01
        2   -1    0    0  501    0  0.00000000000E+00  0.00000000000E+00  0.14348325792E+04  0.14348325792E+04  0.25500000920E-02 0.  1.
       -2   -1    0    0    0  501  0.00000000000E+00  0.00000000000E+00 -0.21310956347E+04  0.21310956347E+04  0.25500000920E-02 0. -1.
    10030    2    1    2    0    0  0.00000000000E+00  0.00000000000E+00 -0.69626305555E+03  0.35659282139E+04  0.34972934942E+04 0.  0.
        2    1    3    3  502    0  0.11325221417E+04 -0.98547807122E+03 -0.12623845067E+04  0.19614759935E+04  0.25500000920E-02 0. -1.
       -2    1    3    3    0  502 -0.11325221417E+04  0.98547807122E+03  0.56612145111E+03  0.16044522205E+04  0.25500000920E-02 0.  1.
</event>
<event>
 5   0  0.1522273E-07  0.3706091E+04  0.7818609E-02  0.8066613E-01
       -1   -1    0    0    0  501  0.00000000000E+00  0.00000000000E+00  0.26904432763E+04  0.26904432763E+04  0.50400001928E-02 0. -1.
        1   -1    0    0  501    0  0.00000000000E+00  0.00000000000E+00 -0.12762869705E+04  0.12762869705E+04  0.50400001928E-02 0.  1.
    10030    2    1    2    0    0  0.00000000000E+00  0.00000000000E+00  0.14141563058E+04  0.39667302468E+04  0.37060910396E+04 0.  0.
        4    1    3    3  502    0 -0.15095689619E+04 -0.10572569429E+04  0.50068144576E+03  0.19097838142E+04  0.12699999809E+01 0.  1.
       -4    1    3    3    0  502  0.15095689619E+04  0.10572569429E+04  0.91347486000E+03  0.20569464326E+04  0.12699999809E+01 0. -1.
</event>
<event>
 5   0  0.4793557E-07  0.3698040E+04  0.7818609E-02  0.8068396E-01
       -2   -1    0    0    0  501  0.00000000000E+00  0.00000000000E+00  0.18179728223E+04  0.18179728223E+04  0.25500000920E-02 0. -1.
        2   -1    0    0  501    0  0.00000000000E+00  0.00000000000E+00 -0.18805974372E+04  0.18805974372E+04  0.25500000920E-02 0.  1.
    10030    2    1    2    0    0  0.00000000000E+00  0.00000000000E+00 -0.62624614956E+02  0.36985702595E+04  0.36980400379E+04 0.  0.
        3    1    3    3  502    0  0.15205521644E+04  0.10340946571E+04  0.16222093063E+03  0.18460082028E+04  0.10100000352E+00 0.  1.
       -3    1    3    3    0  502 -0.15205521644E+04 -0.10340946571E+04 -0.22484554559E+03  0.18525620567E+04  0.10100000352E+00 0. -1.
</event>
<event>
 5   0  0.4857514E-07  0.3718937E+04  0.7818609E-02  0.8063778E-01
       -2   -1    0    0    0  501  0.00000000000E+00  0.00000000000E+00  0.16083767399E+04  0.16083767399E+04  0.25500000920E-02 0.  1.
        2   -1    0    0  501    0  0.00000000000E+00  0.00000000000E+00 -0.21497590626E+04  0.21497590626E+04  0.25500000920E-02 0. -1.
    10030    2    1    2    0    0  0.00000000000E+00  0.00000000000E+00 -0.54138232271E+03  0.37581358026E+04  0.37189366614E+04 0.  0.
        5    1    3    3  502    0 -0.28630132893E+03 -0.11229603481E+04  0.11988000026E+04  0.16673787604E+04  0.46999998093E+01 0.  1.
       -5    1    3    3    0  502  0.28630132893E+03  0.11229603481E+04 -0.17401823253E+04  0.20907570422E+04  0.46999998093E+01 0. -1.
</event>
<event>
 5   0  0.4824268E-07  0.3756372E+04  0.7818609E-02  0.8055583E-01
        2   -1    0    0  501    0  0.00000000000E+00  0.00000000000E+00  0.17856693810E+04  0.17856693810E+04  0.25500000920E-02 0.  1.
       -2   -1    0    0    0  501  0.00000000000E+00  0.00000000000E+00 -0.19754961939E+04  0.19754961939E+04  0.25500000920E-02 0. -1.
    10030    2    1    2    0    0  0.00000000000E+00  0.00000000000E+00 -0.18982681300E+03  0.37611655749E+04  0.37563722210E+04 0.  0.
        1    1    3    3  502    0  0.80968561998E+02 -0.18483981194E+04  0.22868865292E+03  0.18642505239E+04  0.50400001928E-02 0.  1.
       -1    1    3    3    0  502 -0.80968561998E+02  0.18483981194E+04 -0.41851546591E+03  0.18969150511E+04  0.50400001928E-02 0. -1.
</event>
<event>
 5   0  0.1496287E-07  0.3642352E+04  0.7818609E-02  0.8080859E-01
       -1   -1    0    0    0  501  0.00000000000E+00  0.00000000000E+00  0.21219597975E+04  0.21219597975E+04  0.50400001928E-02 0. -1.
        1   -1    0    0  501    0  0.00000000000E+00  0.00000000000E+00 -0.15630273889E+04  0.15630273889E+04  0.50400001928E-02 0.  1.
    10030    2    1    2    0    0  0.00000000000E+00  0.00000000000E+00  0.55893240853E+03  0.36849871864E+04  0.36423515929E+04 0.  0.
        1    1    3    3  502    0  0.46854063697E+03 -0.24795417759E+03 -0.14832458438E+04  0.15751285141E+04  0.50400001928E-02 0.  1.
       -1    1    3    3    0  502 -0.46854063697E+03  0.24795417759E+03  0.20421782523E+04  0.21098586723E+04  0.50400001928E-02 0. -1.
</event>
<event>
 5   0  0.4824268E-07  0.3639621E+04  0.7818609E-02  0.8081476E-01
        2   -1    0    0  501    0  0.00000000000E+00  0.00000000000E+00  0.13252202495E+04  0.13252202495E+04  0.25500000920E-02 0.  1.
       -2   -1    0    0    0  501  0.00000000000E+00  0.00000000000E+00 -0.24989892380E+04  0.24989892380E+04  0.25500000920E-02 0. -1.
    10030    2    1    2    0    0  0.00000000000E+00  0.00000000000E+00 -0.11737689885E+04  0.38242094875E+04  0.36396214867E+04 0.  0.
        1    1    3    3  502    0 -0.57384554162E+03 -0.10838995906E+04 -0.19995310369E+04  0.23456899615E+04  0.50400001928E-02 0. -1.
       -1    1    3    3    0  502  0.57384554162E+03  0.10838995906E+04  0.82576204840E+03  0.14785195260E+04  0.50400001928E-02 0.  1.
</event>
<event>
 5   0  0.1496287E-07  0.3738866E+04  0.7818609E-02  0.8059403E-01
       -1   -1    0    0    0  501  0.00000000000E+00  0.00000000000E+00  0.26901465022E+04  0.26901465022E+04  0.50400001928E-02 0.  1.
        1   -1    0    0  501    0  0.00000000000E+00  0.00000000000E+00 -0.12991040968E+04  0.12991040968E+04  0.50400001928E-02 0. -1.
    10030    2    1    2    0    0  0.00000000000E+00  0.00000000000E+00  0.13910424054E+04  0.39892505990E+04  0.37388663212E+04 0.  0.
        1    1    3    3  502    0 -0.17000850933E+04 -0.44621609178E+03  0.13748557920E+04  0.22315076907E+04  0.50400001928E-02 0.  1.
       -1    1    3    3    0  502  0.17000850933E+04  0.44621609178E+03  0.16186613440E+02  0.17577429082E+04  0.50400001928E-02 0. -1.
</event>
<event>
 5   0  0.4687817E-07  0.3705560E+04  0.7818609E-02  0.8066731E-01
        2   -1    0    0  501    0  0.00000000000E+00  0.00000000000E+00  0.22143543986E+04  0.22143543986E+04  0.25500000920E-02 0.  1.
       -2   -1    0    0    0  501  0.00000000000E+00  0.00000000000E+00 -0.15502458832E+04  0.15502458832E+04  0.25500000920E-02 0. -1.
    10030    2    1    2    0    0  0.00000000000E+00  0.00000000000E+00  0.66410851540E+03  0.37646002818E+04  0.37055600334E+04 0.  0.
        4    1    3    3  502    0 -0.11710156120E+04  0.13266515531E+04 -0.22579398842E+03  0.17838908164E+04  0.12699999809E+01 0. -1.
       -4    1    3    3    0  502  0.11710156120E+04 -0.13266515531E+04  0.88990250383E+03  0.19807094653E+04  0.12699999809E+01 0.  1.
</event>
<event>
 5   0  0.1496287E-07  0.3554191E+04  0.7818609E-02  0.8101066E-01
       -1   -1    0    0    0  501  0.00000000000E+00  0.00000000000E+00  0.14098585958E+04  0.14098585958E+04  0.50400001928E-02 0.  1.
        1   -1    0    0  501    0  0.00000000000E+00  0.00000000000E+00 -0.22399890427E+04  0.22399890427E+04  0.50400001928E-02 0. -1.
    10030    2    1    2    0    0  0.00000000000E+00  0.00000000000E+00 -0.83013044697E+03  0.36498476385E+04  0.35541906569E+04 0.  0.
        1    1    3    3  502    0 -0.34786317256E+03 -0.78160870053E+03 -0.20145958405E+04  0.21887250509E+04  0.50400001928E-02 0. -1.
       -1    1    3    3    0  502  0.34786317256E+03  0.78160870053E+03  0.11844653936E+04  0.14611225876E+04  0.50400001928E-02 0.  1.
</event>
<event>
 5   0  0.4857514E-07  0.3716359E+04  0.7818609E-02  0.8064346E-01
        2   -1    0    0  501    0  0.00000000000E+00  0.00000000000E+00  0.22708710554E+04  0.22708710554E+04  0.25500000920E-02 0. -1.
       -2   -1    0    0    0  501  0.00000000000E+00  0.00000000000E+00 -0.15204872814E+04  0.15204872814E+04  0.25500000920E-02 0.  1.
    10030    2    1    2    0    0  0.00000000000E+00  0.00000000000E+00  0.75038377399E+03  0.37913583369E+04  0.37163587327E+04 0.  0.
        5    1    3    3  502    0 -0.38497453546E+03  0.32760232885E+03  0.21993711968E+04  0.22567198386E+04  0.46999998093E+01 0. -1.
       -5    1    3    3    0  502  0.38497453546E+03 -0.32760232885E+03 -0.14489874228E+04  0.15346384982E+04  0.46999998093E+01 0.  1.
</event>
<event>
 5   0  0.4857514E-07  0.3657063E+04  0.7818609E-02  0.8077544E-01
       -2   -1    0    0    0  501  0.00000000000E+00  0.00000000000E+00  0.14149245976E+04  0.14149245976E+04  0.25500000920E-02 0.  1.
        2   -1    0    0  501    0  0.00000000000E+00  0.00000000000E+00 -0.23630424737E+04  0.23630424737E+04  0.25500000920E-02 0. -1.
    10030    2    1    2    0    0  0.00000000000E+00  0.00000000000E+00 -0.94811787613E+03  0.37779670713E+04  0.36570627127E+04 0.  0.
        5    1    3    3  502    0 -0.72834877779E+01  0.18281703224E+04 -0.43760706258E+03  0.18798355801E+04  0.46999998093E+01 0. -1.
       -5    1    3    3    0  502  0.72834877779E+01 -0.18281703224E+04 -0.51051081354E+03  0.18981314912E+04  0.46999998093E+01 0.  1.
</event>
<event>
 5   0  0.4758908E-07  0.3679326E+04  0.7818609E-02  0.8072559E-01
       -2   -1    0    0    0  501  0.00000000000E+00  0.00000000000E+00  0.24916692158E+04  0.24916692158E+04  0.25500000920E-02 0. -1.
        2   -1    0    0  501    0  0.00000000000E+00  0.00000000000E+00 -0.13582703792E+04  0.13582703792E+04  0.25500000920E-02 0.  1.
    10030    2    1    2    0    0  0.00000000000E+00  0.00000000000E+00  0.11333988366E+04  0.38499395949E+04  0.36793262918E+04 0.  0.
        2    1    3    3  502    0  0.95197053429E+03  0.67290373781E+03  0.20558262985E+04  0.23633597077E+04  0.25500000920E-02 0. -1.
       -2    1    3    3    0  502 -0.95197053429E+03 -0.67290373781E+03 -0.92242746192E+03  0.14865798872E+04  0.25500000920E-02 0.  1.
</event>
<event>
 5   0  0.4758908E-07  0.3657878E+04  0.7818609E-02  0.8077361E-01
        2   -1    0    0  501    0  0.00000000000E+00  0.00000000000E+00  0.25318034464E+04  0.25318034464E+04  0.25500000920E-02 0. -1.
       -2   -1    0    0    0  501  0.00000000000E+00  0.00000000000E+00 -0.13211994291E+04  0.13211994291E+04  0.25500000920E-02 0.  1.
    10030    2    1    2    0    0  0.00000000000E+00  0.00000000000E+00  0.12106040174E+04  0.38530028755E+04  0.36578776732E+04 0.  0.
        2    1    3    3  502    0  0.11538728701E+04 -0.26664151863E+02 -0.88914147582E+03  0.14569509743E+04  0.25500000920E-02 0.  1.
       -2    1    3    3    0  502 -0.11538728701E+04  0.26664151863E+02  0.20997454932E+04  0.23960519013E+04  0.25500000920E-02 0. -1.
</event>
<event>
 5   0  0.4824268E-07  0.3773969E+04  0.7818609E-02  0.8051764E-01
       -2   -1    0    0    0  501  0.00000000000E+00  0.00000000000E+00  0.13300675275E+04  0.13300675275E+04  0.25500000920E-02 0.  1.
        2   -1    0    0  501    0  0.00000000000E+00  0.00000000000E+00 -0.26770896828E+04  0.26770896828E+04  0.25500000920E-02 0. -1.
    10030    2    1    2    0    0  0.00000000000E+00  0.00000000000E+00 -0.13470221553E+04  0.40071572103E+04  0.37739687626E+04 0.  0.
        1    1    3    3  502    0  0.57062458100E+03  0.11573354656E+04  0.78839579505E+03  0.15121526782E+04  0.50400001928E-02 0.  1.
       -1    1    3    3    0  502 -0.57062458100E+03 -0.11573354656E+04 -0.21354179504E+04  0.24950045321E+04  0.50400001928E-02 0. -1.
</event>
<event>
 5   0  0.1496000E-07  0.3709114E+04  0.7818609E-02  0.8065945E-01
        1   -1    0    0  501    0  0.00000000000E+00  0.00000000000E+00  0.25784636087E+04  0.25784636087E+04  0.50400001928E-02 0.  1.
       -1   -1    0    0    0  501  0.00000000000E+00  0.00000000000E+00 -0.13338881690E+04  0.13338881690E+04  0.50400001928E-02 0. -1.
    10030    2    1    2    0    0  0.00000000000E+00  0.00000000000E+00  0.12445754397E+04  0.39123517777E+04  0.37091142349E+04 0.  0.
        5    1    3    3  502    0  0.14891582862E+04  0.31118451849E+03 -0.49645645289E+03  0.16002872572E+04  0.46999998093E+01 0. -1.
       -5    1    3    3    0  502 -0.14891582862E+04 -0.31118451849E+03  0.17410318926E+04  0.23120645205E+04  0.46999998093E+01 0.  1.
</event>
<event>
 5   0  0.1496000E-07  0.3682866E+04  0.7818609E-02  0.8071769E-01
        1   -1    0    0  501    0  0.00000000000E+00  0.00000000000E+00  0.11541163844E+04  0.11541163844E+04  0.50400001928E-02 0.  1.
       -1   -1    0    0    0  501  0.00000000000E+00  0.00000000000E+00 -0.29380712044E+04  0.29380712044E+04  0.50400001928E-02 0. -1.
    10030    2    1    2    0    0  0.00000000000E+00  0.00000000000E+00 -0.17839548200E+04  0.40921875889E+04  0.36828663379E+04 0.  0.
        3    1    3    3  502    0  0.17902952401E+04  0.19387113022E+03 -0.46432044464E+03  0.18596603311E+04  0.10100000352E+00 0.  1.
       -3    1    3    3    0  502 -0.17902952401E+04 -0.19387113022E+03 -0.13196343754E+04  0.22325272577E+04  0.10100000352E+00 0. -1.
</event>
<event>
 5   0  0.4793557E-07  0.3874009E+04  0.7818609E-02  0.8030457E-01
       -2   -1    0    0    0  501  0.00000000000E+00  0.00000000000E+00  0.14777035979E+04  0.14777035979E+04  0.25500000920E-02 0. -1.
        2   -1    0    0  501    0  0.00000000000E+00  0.00000000000E+00 -0.25390654912E+04  0.25390654912E+04  0.25500000920E-02 0.  1.
    10030    2    1    2    0    0  0.00000000000E+00  0.00000000000E+00 -0.10613618933E+04  0.40167690891E+04  0.38740088857E+04 0.  0.
        3    1    3    3  502    0 -0.12272311087E+04 -0.33264951842E+03 -0.20457730090E+04  0.24087214681E+04  0.10100000352E+00 0.  1.
       -3    1    3    3    0  502  0.12272311087E+04  0.33264951842E+03  0.98441111576E+03  0.16080476210E+04  0.10100000352E+00 0. -1.
</event>
<event>
 5   0  0.1496287E-07  0.3073788E+04  0.7818609E-02  0.8222969E-01
        1   -1    0    0  501    0  0.00000000000E+00  0.00000000000E+00  0.15720506828E+04  0.15720506828E+04  0.50400001928E-02 0. -1.
       -1   -1    0    0    0  501  0.00000000000E+00  0.00000000000E+00 -0.15025237812E+04  0.15025237812E+04  0.50400001928E-02 0.  1.
    10030    2    1    2    0    0  0.00000000000E+00  0.00000000000E+00  0.69526901569E+02  0.30745744640E+04  0.30737882401E+04 0.  0.
        1    1    3    3  502    0  0.62197834791E+03 -0.56011139940E+02  0.14394193471E+04  0.15690514236E+04  0.50400001928E-02 0. -1.
       -1    1    3    3    0  502 -0.62197834791E+03  0.56011139940E+02 -0.13698924455E+04  0.15055230405E+04  0.50400001928E-02 0.  1.
</event>
<event>
 5   0  0.4758908E-07  0.3688301E+04  0.7818609E-02  0.8070559E-01
       -2   -1    0    0    0  501  0.00000000000E+00  0.00000000000E+00  0.17691910766E+04  0.17691910766E+04  0.25500000920E-02 0.  1.
        2   -1    0    0  501    0  0.00000000000E+00  0.00000000000E+00 -0.19222859364E+04  0.19222859364E+04  0.25500000920E-02 0. -1.
    10030    2    1    2    0    0  0.00000000000E+00  0.00000000000E+00 -0.15309485974E+03  0.36914770130E+04  0.36883010318E+04 0.  0.
        2    1    3    3  502    0 -0.96028793820E+03  0.13242042874E+04  0.77578508404E+03  0.18103901280E+04  0.25500000920E-02 0.  1.
       -2    1    3    3    0  502  0.96028793820E+03 -0.13242042874E+04 -0.92887994377E+03  0.18810868850E+04  0.25500000920E-02 0. -1.
</event>
<event>
 5   0  0.1522273E-07  0.3685702E+04  0.7818609E-02  0.8071138E-01
       -1   -1    0    0    0  501  0.00000000000E+00  0.00000000000E+00  0.22572096988E+04  0.22572096988E+04  0.50400001928E-02 0. -1.
        1   -1    0    0  501    0  0.00000000000E+00  0.00000000000E+00 -0.15045566765E+04  0.15045566765E+04  0.50400001928E-02 0.  1.
    10030    2    1    2    0    0  0.00000000000E+00  0.00000000000E+00  0.75265302230E+03  0.37617663753E+04  0.36857020620E+04 0.  0.
        4    1    3    3  502    0 -0.80512238534E+03 -0.15865044880E+04  0.86674239665E+03  0.19790054423E+04  0.12699999809E+01 0. -1.
       -4    1    3    3    0  502  0.80512238534E+03  0.15865044880E+04 -0.11408937436E+03  0.17827609329E+04  0.12699999809E+01 0.  1.
</event>
<event>
 5   0  0.1496287E-07  0.3661702E+04  0.7818609E-02  0.8076502E-01
       -1   -1    0    0    0  501  0.00000000000E+00  0.00000000000E+00  0.26818410305E+04  0.26818410305E+04  0.50400001928E-02 0. -1.
        1   -1    0    0  501    0  0.00000000000E+00  0.00000000000E+00 -0.12498935168E+04  0.12498935168E+04  0.50400001928E-02 0.  1.
    10030    2    1    2    0    0  0.00000000000E+00  0.00000000000E+00  0.14319475137E+04  0.39317345473E+04  0.36617021818E+04 0.  0.
        1    1    3    3  502    0  0.58358495001E+03  0.11124345425E+04  0.21460851395E+04  0.24867174008E+04  0.50400001928E-02 0. -1.
       -1    1    3    3    0  502 -0.58358495001E+03 -0.11124345425E+04 -0.71413762575E+03  0.14450171465E+04  0.50400001928E-02 0.  1.
</event>
<event>
 5   0  0.1496000E-07  0.3690057E+04  0.7818609E-02  0.8070169E-01
       -1   -1    0    0    0  501  0.00000000000E+00  0.00000000000E+00  0.13979204494E+04  0.13979204494E+04  0.50400001928E-02 0. -1.
        1   -1    0    0  501    0  0.00000000000E+00  0.00000000000E+00 -0.24351383335E+04  0.24351383335E+04  0.50400001928E-02 0.  1.
    10030    2    1    2    0    0  0.00000000000E+00  0.00000000000E+00 -0.10372178841E+04  0.38330587829E+04  0.36900567332E+04 0.  0.
        2    1    3    3  502    0  0.16842963904E+04 -0.58598191404E+03 -0.10101275977E+04  0.20495333366E+04  0.25500000920E-02 0.  1.
       -2    1    3    3    0  502 -0.16842963904E+04  0.58598191404E+03 -0.27090286443E+02  0.17835254463E+04  0.25500000920E-02 0. -1.
</event>
<event>
 5   0  0.1496000E-07  0.3688014E+04  0.7818609E-02  0.8070623E-01
        1   -1    0    0  501    0  0.00000000000E+00  0.00000000000E+00  0.16284988847E+04  0.16284988847E+04  0.50400001928E-02 0. -1.
       -1   -1    0    0    0  501  0.00000000000E+00  0.00000000000E+00 -0.20880347299E+04  0.20880347299E+04  0.50400001928E-02 0.  1.
    10030    2    1    2    0    0  0.00000000000E+00  0.00000000000E+00 -0.45953584521E+03  0.37165336147E+04  0.36880142239E+04 0.  0.
        5    1    3    3  502    0 -0.84813371803E+03 -0.42046259273E+03 -0.18244780960E+04  0.20554469121E+04  0.46999998093E+01 0.  1.
       -5    1    3    3    0  502  0.84813371803E+03  0.42046259273E+03  0.13649422508E+04  0.16610867026E+04  0.46999998093E+01 0. -1.
</event>
<event>
 5   0  0.4687817E-07  0.3657520E+04  0.7818609E-02  0.8077442E-01
        2   -1    0    0  501    0  0.00000000000E+00  0.00000000000E+00  0.19025219839E+04  0.19025219839E+04  0.25500000920E-02 0. -1.
       -2   -1    0    0    0  501  0.00000000000E+00  0.00000000000E+00 -0.17578579152E+04  0.17578579152E+04  0.25500000920E-02 0.  1.
    10030    2    1    2    0    0  0.00000000000E+00  0.00000000000E+00  0.14466406863E+03  0.36603798991E+04  0.36575201042E+04 0.  0.
        4    1    3    3  502    0  0.58996691203E+03  0.78631786463E+03 -0.14709518429E+04  0.17691969021E+04  0.12699999809E+01 0.  1.
       -4    1    3    3    0  502 -0.58996691203E+03 -0.78631786463E+03  0.16156159115E+04  0.18911829970E+04  0.12699999809E+01 0. -1.
</event>
<event>
 5   0  0.4687817E-07  0.3683911E+04  0.7818609E-02  0.8071537E-01
        2   -1    0    0  501    0  0.00000000000E+00  0.00000000000E+00  0.28301411696E+04  0.28301411696E+04  0.25500000920E-02 0. -1.
       -2   -1    0    0    0  501  0.00000000000E+00  0.00000000000E+00 -0.11988093225E+04  0.11988093225E+04  0.25500000920E-02 0.  1.
    10030    2    1    2    0    0  0.00000000000E+00  0.00000000000E+00  0.16313318471E+04  0.40289504921E+04  0.36839107580E+04 0.  0.
        4    1    3    3  502    0  0.80372027162E+03  0.48960432492E+03  0.25473566570E+04  0.27156410331E+04  0.12699999809E+01 0. -1.
       -4    1    3    3    0  502 -0.80372027162E+03 -0.48960432492E+03 -0.91602480988E+03  0.13133094590E+04  0.12699999809E+01 0.  1.
</event>
<event>
 5   0  0.1496000E-07  0.3693176E+04  0.7818609E-02  0.8069476E-01
       -1   -1    0    0    0  501  0.00000000000E+00  0.00000000000E+00  0.20788837932E+04  0.20788837932E+04  0.50400001928E-02 0. -1.
        1   -1    0    0  501    0  0.00000000000E+00  0.00000000000E+00 -0.16402489618E+04  0.16402489619E+04  0.50400001928E-02 0.  1.
    10030    2    1    2    0    0  0.00000000000E+00  0.00000000000E+00  0.43863483132E+03  0.37191327550E+04  0.36931758602E+04 0.  0.
        2    1    3    3  502    0 -0.16180948470E+04  0.38314467264E+03 -0.58935594295E+03  0.17641913733E+04  0.25500000920E-02 0.  1.
       -2    1    3    3    0  502  0.16180948470E+04 -0.38314467264E+03  0.10279907743E+04  0.19549413817E+04  0.25500000920E-02 0. -1.
</event>
<event>
 5   0  0.4687817E-07  0.3939373E+04  0.7818609E-02  0.8016890E-01
        2   -1    0    0  501    0  0.00000000000E+00  0.00000000000E+00  0.28770887607E+04  0.28770887607E+04  0.25500000920E-02 0. -1.
       -2   -1    0    0    0  501  0.00000000000E+00  0.00000000000E+00 -0.13484689683E+04  0.13484689683E+04  0.25500000920E-02 0.  1.
    10030    2    1    2    0    0  0.00000000000E+00  0.00000000000E+00  0.15286197924E+04  0.42255577290E+04  0.39393730023E+04 0.  0.
        4    1    3    3  502    0 -0.17612718646E+04  0.83855070684E+03  0.10569233378E+04  0.22186334586E+04  0.12699999809E+01 0. -1.
       -4    1    3    3    0  502  0.17612718646E+04 -0.83855070684E+03  0.47169645461E+03  0.20069242704E+04  0.12699999809E+01 0.  1.
</event>
<event>
 5   0  0.4824268E-07  0.3627017E+04  0.7818609E-02  0.8084331E-01
        2   -1    0    0  501    0  0.00000000000E+00  0.00000000000E+00  0.19185928222E+04  0.19185928222E+04  0.25500000920E-02 0. -1.
       -2   -1    0    0    0  501  0.00000000000E+00  0.00000000000E+00 -0.17141800981E+04  0.17141800981E+04  0.25500000920E-02 0.  1.
    10030    2    1    2    0    0  0.00000000000E+00  0.00000000000E+00  0.20441272412E+03  0.36327729203E+04  0.36270173047E+04 0.  0.
        1    1    3    3  502    0 -0.35123338227E+03  0.17080206696E+04 -0.39669464158E+03  0.17883137687E+04  0.50400001928E-02 0. -1.
       -1    1    3    3    0  502  0.35123338227E+03 -0.17080206696E+04  0.60110736570E+03  0.18444591516E+04  0.50400001928E-02 0.  1.
</event>
<event>
 5   0  0.4687817E-07  0.3730627E+04  0.7818609E-02  0.8061208E-01
        2   -1    0    0  501    0  0.00000000000E+00  0.00000000000E+00  0.18359948559E+04  0.18359948559E+04  0.25500000920E-02 0.  1.
       -2   -1    0    0    0  501  0.00000000000E+00  0.00000000000E+00 -0.18951008017E+04  0.18951008017E+04  0.25500000920E-02 0. -1.
    10030    2    1    2    0    0  0.00000000000E+00  0.00000000000E+00 -0.59105945790E+02  0.37310956576E+04  0.37306274664E+04 0.  0.
        4    1    3    3  502    0 -0.17682851625E+04  0.49035427541E+03 -0.36442925054E+03  0.18708527528E+04  0.12699999809E+01 0.  1.
       -4    1    3    3    0  502  0.17682851625E+04 -0.49035427541E+03  0.30532330475E+03  0.18602429047E+04  0.12699999809E+01 0. -1.
</event>
<event>
 5   0  0.1496000E-07  0.3723861E+04  0.7818609E-02  0.8062695E-01
        1   -1    0    0  501    0  0.00000000000E+00  0.00000000000E+00  0.21713016754E+04  0.21713016754E+04  0.50400001928E-02 0. -1.
       -1   -1    0    0    0  501  0.00000000000E+00  0.00000000000E+00 -0.15966387195E+04  0.15966387195E+04  0.50400001928E-02 0.  1.
    10030    2    1    2    0    0  0.00000000000E+00  0.00000000000E+00  0.57466295591E+03  0.37679403949E+04  0.37238605380E+04 0.  0.
        5    1    3    3  502    0  0.27424327081E+03  0.18358662696E+04  0.43447606566E+03  0.19064117795E+04  0.46999998093E+01 0. -1.
       -5    1    3    3    0  502 -0.27424327081E+03 -0.18358662696E+04  0.14018689025E+03  0.18615286153E+04  0.46999998093E+01 0.  1.
</event>
<event>
 5   0  0.4857514E-07  0.3689883E+04  0.7818609E-02  0.8070208E-01
        2   -1    0    0  501    0  0.00000000000E+00  0.00000000000E+00  0.25701608316E+04  0.25701608316E+04  0.25500000920E-02 0.  1.
       -2   -1    0    0    0  501  0.00000000000E+00  0.00000000000E+00 -0.13243565312E+04  0.13243565312E+04  0.25500000920E-02 0. -1.
    10030    2    1    2    0    0  0.00000000000E+00  0.00000000000E+00  0.12458043004E+04  0.38945173628E+04  0.36898830787E+04 0.  0.
        5    1    3    3  502    0  0.36848669519E+02 -0.15825451862E+04 -0.37726916852E+03  0.16273171806E+04  0.46999998093E+01 0. -1.
       -5    1    3    3    0  502 -0.36848669519E+02  0.15825451862E+04  0.16230734690E+04  0.22672001822E+04  0.46999998093E+01 0.  1.
</event>
<event>
 5   0  0.1496000E-07  0.3702767E+04  0.7818609E-02  0.8067349E-01
       -1   -1    0    0    0  501  0.00000000000E+00  0.00000000000E+00  0.13629287764E+04  0.13629287764E+04  0.50400001928E-02 0.  1.
        1   -1    0    0  501    0  0.00000000000E+00  0.00000000000E+00 -0.25148934277E+04  0.25148934277E+04  0.50400001928E-02 0. -1.
    10030    2    1    2    0    0  0.00000000000E+00  0.00000000000E+00 -0.11519646513E+04  0.38778222041E+04  0.37027668693E+04 0.  0.
        5    1    3    3  502    0  0.14042783075E+04 -0.85396477253E+03 -0.14685333232E+04  0.22040566256E+04  0.46999998093E+01 0. -1.
       -5    1    3    3    0  502 -0.14042783075E+04  0.85396477253E+03  0.31656867188E+03  0.16737655785E+04  0.46999998093E+01 0.  1.
</event>
<event>
 5   0  0.1496000E-07  0.3770499E+04  0.7818609E-02  0.8052516E-01
        1   -1    0    0  501    0  0.00000000000E+00  0.00000000000E+00  0.23810988017E+04  0.23810988017E+04  0.50400001928E-02 0. -1.
       -1   -1    0    0    0  501  0.00000000000E+00  0.00000000000E+00 -0.14926576784E+04  0.14926576784E+04  0.50400001928E-02 0.  1.
    10030    2    1    2    0    0  0.00000000000E+00  0.00000000000E+00  0.88844112335E+03  0.38737564801E+04  0.37704988579E+04 0.  0.
        3    1    3    3  502    0 -0.37422199632E+03  0.12486856191E+04 -0.95502724002E+03  0.16159625359E+04  0.10100000352E+00 0.  1.
       -3    1    3    3    0  502  0.37422199632E+03 -0.12486856191E+04  0.18434683634E+04  0.22577939443E+04  0.10100000352E+00 0. -1.
</event>
<event>
 5   0  0.4793557E-07  0.3605214E+04  0.7818609E-02  0.8089298E-01
        2   -1    0    0  501    0  0.00000000000E+00  0.00000000000E+00  0.23864053354E+04  0.23864053354E+04  0.25500000920E-02 0.  1.
       -2   -1    0    0    0  501  0.00000000000E+00  0.00000000000E+00 -0.13616260154E+04  0.13616260154E+04  0.25500000920E-02 0. -1.
    10030    2    1    2    0    0  0.00000000000E+00  0.00000000000E+00  0.10247793200E+04  0.37480313508E+04  0.36052137734E+04 0.  0.
        3    1    3    3  502    0  0.14680400419E+04 -0.10363535247E+04  0.36455453164E+03  0.18335948870E+04  0.10100000352E+00 0. -1.
       -3    1    3    3    0  502 -0.14680400419E+04  0.10363535247E+04  0.66022478831E+03  0.19144364639E+04  0.10100000352E+00 0.  1.
</event>
<event>
 5   0  0.1496287E-07  0.3688751E+04  0.7818609E-02  0.8070459E-01
       -1   -1    0    0    0  501  0.00000000000E+00  0.00000000000E+00  0.13069487036E+04  0.13069487036E+04  0.50400001928E-02 0.  1.
        1   -1    0    0  501    0  0.00000000000E+00  0.00000000000E+00 -0.26027954507E+04  0.26027954507E+04  0.50400001928E-02 0. -1.
    10030    2    1    2    0    0  0.00000000000E+00  0.00000000000E+00 -0.12958467471E+04  0.39097441543E+04  0.36887505418E+04 0.  0.
        1    1    3    3  502    0 -0.13730574341E+04  0.39330942198E+03 -0.18847713669E+04  0.23648133381E+04  0.50400001928E-02 0. -1.
       -1    1    3    3    0  502  0.13730574341E+04 -0.39330942198E+03  0.58892461978E+03  0.15449308161E+04  0.50400001928E-02 0.  1.
</event>
<event>
 5   0  0.1522273E-07  0.3698205E+04  0.7818609E-02  0.8068360E-01
       -1   -1    0    0    0  501  0.00000000000E+00  0.00000000000E+00  0.30574388615E+04  0.30574388615E+04  0.50400001928E-02 0.  1.
        1   -1    0    0  501    0  0.00000000000E+00  0.00000000000E+00 -0.11183148860E+04  0.11183148861E+04  0.50400001928E-02 0. -1.
    10030    2    1    2    0    0  0.00000000000E+00  0.00000000000E+00  0.19391239754E+04  0.41757537475E+04  0.36982046412E+04 0.  0.
        4    1    3    3  502    0 -0.70689054077E+03  0.12039964195E+03 -0.95492984303E+03  0.11941871413E+04  0.12699999809E+01 0. -1.
       -4    1    3    3    0  502  0.70689054077E+03 -0.12039964195E+03  0.28940538184E+04  0.29815666062E+04  0.12699999809E+01 0.  1.
</event>
<event>
 5   0  0.1496000E-07  0.3584589E+04  0.7818609E-02  0.8094031E-01
       -1   -1    0    0    0  501  0.00000000000E+00  0.00000000000E+00  0.30514371971E+04  0.30514371971E+04  0.50400001928E-02 0. -1.
        1   -1    0    0  501    0  0.00000000000E+00  0.00000000000E+00 -0.10527232883E+04  0.10527232883E+04  0.50400001928E-02 0.  1.
    10030    2    1    2    0    0  0.00000000000E+00  0.00000000000E+00  0.19987139087E+04  0.41041604854E+04  0.35845886794E+04 0.  0.
        5    1    3    3  502    0  0.60427658176E+03 -0.16837389339E+04  0.11256644028E+04  0.21135915931E+04  0.46999998093E+01 0. -1.
       -5    1    3    3    0  502 -0.60427658176E+03  0.16837389339E+04  0.87304950598E+03  0.19905688922E+04  0.46999998093E+01 0.  1.
</event>
<event>
 5   0  0.1496287E-07  0.3687988E+04  0.7818609E-02  0.8070629E-01
        1   -1    0    0  501    0  0.00000000000E+00  0.00000000000E+00  0.17574633016E+04  0.17574633016E+04  0.50400001928E-02 0. -1.
       -1   -1    0    0    0  501  0.00000000000E+00  0.00000000000E+00 -0.19347847042E+04  0.19347847042E+04  0.50400001928E-02 0.  1.
    10030    2    1    2    0    0  0.00000000000E+00  0.00000000000E+00 -0.17732140253E+03  0.36922480058E+04  0.36879875890E+04 0.  0.
        1    1    3    3  502    0 -0.80338010945E+03 -0.16587265720E+04 -0.14805607107E+03  0.18489764847E+04  0.50400001928E-02 0. -1.
       -1    1    3    3    0  502  0.80338010945E+03  0.16587265720E+04 -0.29265331466E+02  0.18432715211E+04  0.50400001928E-02 0.  1.
</event>
<event>
 5   0  0.1496287E-07  0.3712611E+04  0.7818609E-02  0.8065173E-01
        1   -1    0    0  501    0  0.00000000000E+00  0.00000000000E+00  0.19338968250E+04  0.19338968250E+04  0.50400001928E-02 0. -1.
       -1   -1    0    0    0  501  0.00000000000E+00  0.00000000000E+00 -0.17818274541E+04  0.17818274541E+04  0.50400001928E-02 0.  1.
    10030    2    1    2    0    0  0.00000000000E+00  0.00000000000E+00  0.15206937091E+03  0.37157242790E+04  0.37126111868E+04 0.  0.
        1    1    3    3  502    0  0.61102031761E+03  0.11929796822E+04  0.13613717003E+04  0.19104657173E+04  0.50400001928E-02 0.  1.
       -1    1    3    3    0  502 -0.61102031761E+03 -0.11929796822E+04 -0.12093023294E+04  0.18052585617E+04  0.50400001928E-02 0. -1.
</event>
<event>
 5   0  0.4687817E-07  0.3715853E+04  0.7818609E-02  0.8064458E-01
       -2   -1    0    0    0  501  0.00000000000E+00  0.00000000000E+00  0.12793754684E+04  0.12793754684E+04  0.25500000920E-02 0. -1.
        2   -1    0    0  501    0  0.00000000000E+00  0.00000000000E+00 -0.26981067822E+04  0.26981067822E+04  0.25500000920E-02 0.  1.
    10030    2    1    2    0    0  0.00000000000E+00  0.00000000000E+00 -0.14187313139E+04  0.39774822506E+04  0.37158534030E+04 0.  0.
        4    1    3    3  502    0  0.11025564368E+04  0.14688177504E+04 -0.40882327075E+03  0.18815404220E+04  0.12699999809E+01 0. -1.
       -4    1    3    3    0  502 -0.11025564368E+04 -0.14688177504E+04 -0.10099080431E+04  0.20959418285E+04  0.12699999809E+01 0.  1.
</event>
<event>
 5   0  0.1522273E-07  0.3675407E+04  0.7818609E-02  0.8073434E-01
       -1   -1    0    0    0  501  0.00000000000E+00  0.00000000000E+00  0.12080008919E+04  0.12080008919E+04  0.50400001928E-02 0.  1.
        1   -1    0    0  501    0  0.00000000000E+00  0.00000000000E+00 -0.27956547589E+04  0.27956547589E+04  0.50400001928E-02 0. -1.
    10030    2    1    2    0    0  0.00000000000E+00  0.00000000000E+00 -0.15876538670E+04  0.40036556508E+04  0.36754066127E+04 0.  0.
        4    1    3    3  502    0 -0.18769451981E+03 -0.17129213252E+04 -0.14894712670E+04  0.22776863189E+04  0.12699999809E+01 0. -1.
       -4    1    3    3    0  502  0.18769451981E+03  0.17129213252E+04 -0.98182600038E+02  0.17259693320E+04  0.12699999809E+01 0.  1.
</event>
<event>
 5   0  0.1496287E-07  0.3749243E+04  0.7818609E-02  0.8057136E-01
        1   -1    0    0  501    0  0.00000000000E+00  0.00000000000E+00  0.26728263436E+04  0.26728263436E+04  0.50400001928E-02 0. -1.
       -1   -1    0    0    0  501  0.00000000000E+00  0.00000000000E+00 -0.13147900299E+04  0.13147900299E+04  0.50400001928E-02 0.  1.
    10030    2    1    2    0    0  0.00000000000E+00  0.00000000000E+00  0.13580363137E+04  0.39876163735E+04  0.37492428186E+04 0.  0.
        1    1    3    3  502    0 -0.15160885301E+04 -0.82815258921E+03 -0.95165376735E+02  0.17301495863E+04  0.50400001928E-02 0.  1.
       -1    1    3    3    0  502  0.15160885301E+04  0.82815258921E+03  0.14532016904E+04  0.22574667872E+04  0.50400001928E-02 0. -1.
</event>
<event>
 5   0  0.1496000E-07  0.3619647E+04  0.7818609E-02  0.8086006E-01
        1   -1    0    0  501    0  0.00000000000E+00  0.00000000000E+00  0.25393265675E+04  0.25393265675E+04  0.50400001928E-02 0.  1.
       -1   -1    0    0    0  501  0.00000000000E+00  0.00000000000E+00 -0.12898935864E+04  0.12898935865E+04  0.50400001928E-02 0. -1.
    10030    2    1    2    0    0  0.00000000000E+00  0.00000000000E+00  0.12494329811E+04  0.38292201540E+04  0.36196469736E+04 0.  0.
        3    1    3    3  502    0  0.58735518039E+03 -0.15517840186E+04  0.13893668008E+04  0.21641071751E+04  0.10100000352E+00 0.  1.
       -3    1    3    3    0  502 -0.58735518039E+03  0.15517840186E+04 -0.13993381969E+03  0.16651129788E+04  0.10100000352E+00 0. -1.
</event>
<event>
 5   0  0.1496000E-07  0.3762416E+04  0.7818609E-02  0.8054269E-01
       -1   -1    0    0    0  501  0.00000000000E+00  0.00000000000E+00  0.12152788422E+04  0.12152788422E+04  0.50400001928E-02 0. -1.
        1   -1    0    0  501    0  0.00000000000E+00  0.00000000000E+00 -0.29120423974E+04  0.29120423974E+04  0.50400001928E-02 0.  1.
    10030    2    1    2    0    0  0.00000000000E+00  0.00000000000E+00 -0.16967635552E+04  0.41273212396E+04  0.37624159861E+04 0.  0.
        5    1    3    3  502    0 -0.17075032047E+04  0.10851891931E+03 -0.17062633587E+04  0.24163402677E+04  0.46999998093E+01 0. -1.
       -5    1    3    3    0  502  0.17075032047E+04 -0.10851891931E+03  0.94998034964E+01  0.17109809719E+04  0.46999998093E+01 0.  1.
</event>
<event>
 5   0  0.4687817E-07  0.3881232E+04  0.7818609E-02  0.8028944E-01
       -2   -1    0    0    0  501  0.00000000000E+00  0.00000000000E+00  0.24938380177E+04  0.24938380177E+04  0.25500000920E-02 0.  1.
        2   -1    0    0  501    0  0.00000000000E+00  0.00000000000E+00 -0.15101183004E+04  0.15101183004E+04  0.25500000920E-02 0. -1.
    10030    2    1    2    0    0  0.00000000000E+00  0.00000000000E+00  0.98371971727E+03  0.40039563181E+04  0.38812319842E+04 0.  0.
        4    1    3    3  502    0 -0.13871555182E+04 -0.68090335013E+03 -0.71921055327E+03  0.17044339931E+04  0.12699999809E+01 0. -1.
       -4    1    3    3    0  502  0.13871555182E+04  0.68090335013E+03  0.17029302705E+04  0.22995223250E+04  0.12699999809E+01 0.  1.
</event>
<event>
 5   0  0.1496000E-07  0.3595396E+04  0.7818609E-02  0.8091547E-01
        1   -1    0    0  501    0  0.00000000000E+00  0.00000000000E+00  0.22485183622E+04  0.22485183622E+04  0.50400001928E-02 0. -1.
       -1   -1    0    0    0  501  0.00000000000E+00  0.00000000000E+00 -0.14372656707E+04  0.14372656708E+04  0.50400001928E-02 0.  1.
    10030    2    1    2    0    0  0.00000000000E+00  0.00000000000E+00  0.81125269149E+03  0.36857840330E+04  0.35953960851E+04 0.  0.
        2    1    3    3  502    0  0.13500627967E+03 -0.91744441463E+03 -0.11731514618E+04  0.14953980412E+04  0.25500000920E-02 0.  1.
       -2    1    3    3    0  502 -0.13500627967E+03  0.91744441463E+03  0.19844041533E+04  0.21903859918E+04  0.25500000920E-02 0. -1.
</event>
<event>
 5   0  0.1522273E-07  0.3749358E+04  0.7818609E-02  0.8057111E-01
        1   -1    0    0  501    0  0.00000000000E+00  0.00000000000E+00  0.20553815221E+04  0.20553815221E+04  0.50400001928E-02 0.  1.
       -1   -1    0    0    0  501  0.00000000000E+00  0.00000000000E+00 -0.17098633897E+04  0.17098633897E+04  0.50400001928E-02 0. -1.
    10030    2    1    2    0    0  0.00000000000E+00  0.00000000000E+00  0.34551813245E+03  0.37652449118E+04  0.37493581406E+04 0.  0.
        4    1    3    3  502    0 -0.16965900633E+04 -0.57037826248E+03  0.73249929455E+03  0.19339870824E+04  0.12699999809E+01 0.  1.
       -4    1    3    3    0  502  0.16965900633E+04  0.57037826248E+03 -0.38698116211E+03  0.18312578295E+04  0.12699999809E+01 0. -1.
</event>
<event>
 5   0  0.4687817E-07  0.3700926E+04  0.7818609E-02  0.8067757E-01
        2   -1    0    0  501    0  0.00000000000E+00  0.00000000000E+00  0.23561694060E+04  0.23561694060E+04  0.25500000920E-02 0. -1.
       -2   -1    0    0    0  501  0.00000000000E+00  0.00000000000E+00 -0.14532966698E+04  0.14532966698E+04  0.25500000920E-02 0.  1.
    10030    2    1    2    0    0  0.00000000000E+00  0.00000000000E+00  0.90287273629E+03  0.38094660758E+04  0.37009259118E+04 0.  0.
        4    1    3    3  502    0  0.96678450324E+03  0.15292321442E+04  0.51468241624E+02  0.18099375181E+04  0.12699999809E+01 0. -1.
       -4    1    3    3    0  502 -0.96678450324E+03 -0.15292321442E+04  0.85140449466E+03  0.19995285577E+04  0.12699999809E+01 0.  1.
</event>
<event>
 5   0  0.4857514E-07  0.3667058E+04  0.7818609E-02  0.8075302E-01
        2   -1    0    0  501    0  0.00000000000E+00  0.00000000000E+00  0.13547069689E+04  0.13547069690E+04  0.25500000920E-02 0.  1.
       -2   -1    0    0    0  501  0.00000000000E+00  0.00000000000E+00 -0.24815916510E+04  0.24815916510E+04  0.25500000920E-02 0. -1.
    10030    2    1    2    0    0  0.00000000000E+00  0.00000000000E+00 -0.11268846820E+04  0.38362986199E+04  0.36670584962E+04 0.  0.
        5    1    3    3  502    0 -0.45353232062E+03 -0.17470855723E+04 -0.90050424364E+03  0.20171587804E+04  0.46999998093E+01 0. -1.
       -5    1    3    3    0  502  0.45353232062E+03  0.17470855723E+04 -0.22638043836E+03  0.18191398395E+04  0.46999998093E+01 0.  1.
</event>
<event>
 5   0  0.1522273E-07  0.3715231E+04  0.7818609E-02  0.8064595E-01
       -1   -1    0    0    0  501  0.00000000000E+00  0.00000000000E+00  0.26329009027E+04  0.26329009028E+04  0.50400001928E-02 0.  1.
        1   -1    0    0  501    0  0.00000000000E+00  0.00000000000E+00 -0.13106208976E+04  0.13106208976E+04  0.50400001928E-02 0. -1.
    10030    2    1    2    0    0  0.00000000000E+00  0.00000000000E+00  0.13222800052E+04  0.39435218003E+04  0.37152307839E+04 0.  0.
        4    1    3    3  502    0  0.15794255127E+04 -0.91141344421E+03  0.10371290325E+04  0.20978316566E+04  0.12699999809E+01 0. -1.
       -4    1    3    3    0  502 -0.15794255127E+04  0.91141344421E+03  0.28515097270E+03  0.18456901437E+04  0.12699999809E+01 0.  1.
</event>
<event>
 5   0  0.4687817E-07  0.3728877E+04  0.7818609E-02  0.8061592E-01
        2   -1    0    0  501    0  0.00000000000E+00  0.00000000000E+00  0.20880519630E+04  0.20880519630E+04  0.25500000920E-02 0. -1.
       -2   -1    0    0    0  501  0.00000000000E+00  0.00000000000E+00 -0.16647722756E+04  0.16647722756E+04  0.25500000920E-02 0.  1.
    10030    2    1    2    0    0  0.00000000000E+00  0.00000000000E+00  0.42327968738E+03  0.37528242386E+04  0.37288770524E+04 0.  0.
        4    1    3    3  502    0  0.16006304082E+04  0.38721065764E+03  0.10914275377E+04  0.19756430548E+04  0.12699999809E+01 0. -1.
       -4    1    3    3    0  502 -0.16006304082E+04 -0.38721065764E+03 -0.66814785032E+03  0.17771811838E+04  0.12699999809E+01 0.  1.
</event>
<event>
 5   0  0.4793557E-07  0.3706029E+04  0.7818609E-02  0.8066627E-01
       -2   -1    0    0    0  501  0.00000000000E+00  0.00000000000E+00  0.13567423510E+04  0.13567423510E+04  0.25500000920E-02 0.  1.
        2   -1    0    0  501    0  0.00000000000E+00  0.00000000000E+00 -0.25308136002E+04  0.25308136002E+04  0.25500000920E-02 0. -1.
    10030    2    1    2    0    0  0.00000000000E+00  0.00000000000E+00 -0.11740712492E+04  0.38875559511E+04  0.37060285988E+04 0.  0.
        3    1    3    3  502    0  0.30545166583E+03  0.18237688876E+04 -0.71216074762E+03  0.19815667074E+04  0.10100000352E+00 0. -1.
       -3    1    3    3    0  502 -0.30545166583E+03 -0.18237688876E+04 -0.46191050158E+03  0.19059892437E+04  0.10100000352E+00 0.  1.
</event>
<event>
 5   0  0.1496000E-07  0.3705283E+04  0.7818609E-02  0.8066792E-01
       -1   -1    0    0    0  501  0.00000000000E+00  0.00000000000E+00  0.28880393393E+04  0.28880393393E+04  0.50400001928E-02 0.  1.
        1   -1    0    0  501    0  0.00000000000E+00  0.00000000000E+00 -0.11884465543E+04  0.11884465543E+04  0.50400001928E-02 0. -1.
    10030    2    1    2    0    0  0.00000000000E+00  0.00000000000E+00  0.16995927849E+04  0.40764858936E+04  0.37052829320E+04 0.  0.
        5    1    3    3  502    0 -0.73401064328E+03 -0.49486419688E+03 -0.94069582086E+03  0.12917402661E+04  0.46999998093E+01 0. -1.
       -5    1    3    3    0  502  0.73401064328E+03  0.49486419688E+03  0.26402886058E+04  0.27847456275E+04  0.46999998093E+01 0.  1.
</event>
<event>
 5   0  0.4758908E-07  0.3667148E+04  0.7818609E-02  0.8075281E-01
        2   -1    0    0  501    0  0.00000000000E+00  0.00000000000E+00  0.24083599222E+04  0.24083599222E+04  0.25500000920E-02 0. -1.
       -2   -1    0    0    0  501  0.00000000000E+00  0.00000000000E+00 -0.13959682331E+04  0.13959682331E+04  0.25500000920E-02 0.  1.
    10030    2    1    2    0    0  0.00000000000E+00  0.00000000000E+00  0.10123916891E+04  0.38043281553E+04  0.36671481809E+04 0.  0.
        2    1    3    3  502    0 -0.62013100732E+03 -0.89617627053E+03 -0.10235144958E+04  0.14950840435E+04  0.25500000920E-02 0.  1.
       -2    1    3    3    0  502  0.62013100732E+03  0.89617627053E+03  0.20359061849E+04  0.23092441118E+04  0.25500000920E-02 0. -1.
</event>
<event>
 5   0  0.1496000E-07  0.3625188E+04  0.7818609E-02  0.8084746E-01
        3   -1    0    0  501    0  0.00000000000E+00  0.00000000000E+00  0.17147503101E+04  0.17147503131E+04  0.10100000352E+00 0.  1.
       -3   -1    0    0    0  501  0.00000000000E+00  0.00000000000E+00 -0.19160204858E+04  0.19160204884E+04  0.10100000352E+00 0. -1.
    10030    2    1    2    0    0  0.00000000000E+00  0.00000000000E+00 -0.20127017569E+03  0.36307708015E+04  0.36251878475E+04 0.  0.
        5    1    3    3  502    0  0.12984881203E+04  0.12624045584E+04 -0.24769009530E+02  0.18111797982E+04  0.46999998093E+01 0. -1.
       -5    1    3    3    0  502 -0.12984881203E+04 -0.12624045584E+04 -0.17650116616E+03  0.18195910033E+04  0.46999998093E+01 0.  1.
</event>
<event>
 5   0  0.4758908E-07  0.3679395E+04  0.7818609E-02  0.8072544E-01
        2   -1    0    0  501    0  0.00000000000E+00  0.00000000000E+00  0.23187051864E+04  0.23187051864E+04  0.25500000920E-02 0.  1.
       -2   -1    0    0    0  501  0.00000000000E+00  0.00000000000E+00 -0.14596448170E+04  0.14596448170E+04  0.25500000920E-02 0. -1.
    10030    2    1    2    0    0  0.00000000000E+00  0.00000000000E+00  0.85906036944E+03  0.37783500034E+04  0.36793945195E+04 0.  0.
        2    1    3    3  502    0 -0.60076224801E+03  0.17106689690E+04  0.10940513759E+03  0.18163901244E+04  0.25500000920E-02 0. -1.
       -2    1    3    3    0  502  0.60076224801E+03 -0.17106689690E+04  0.74965523185E+03  0.19619598790E+04  0.25500000920E-02 0.  1.
</event>
<event>
 5   0  0.1496000E-07  0.3740977E+04  0.7818609E-02  0.8058941E-01
        1   -1    0    0  501    0  0.00000000000E+00  0.00000000000E+00  0.22886039591E+04  0.22886039591E+04  0.50400001928E-02 0.  1.
       -1   -1    0    0    0  501  0.00000000000E+00  0.00000000000E+00 -0.15287603425E+04  0.15287603426E+04  0.50400001928E-02 0. -1.
    10030    2    1    2    0    0  0.00000000000E+00  0.00000000000E+00  0.75984361658E+03  0.38173643017E+04  0.37409768631E+04 0.  0.
        3    1    3    3  502    0 -0.45479896326E+03  0.15749520867E+04  0.12990984404E+04  0.20916435979E+04  0.10100000352E+00 0.  1.
       -3    1    3    3    0  502  0.45479896326E+03 -0.15749520867E+04 -0.53925482383E+03  0.17257207038E+04  0.10100000352E+00 0. -1.
</event>
<event>
 5   0  0.4793557E-07  0.3700011E+04  0.7818609E-02  0.8067959E-01
       -2   -1    0    0    0  501  0.00000000000E+00  0.00000000000E+00  0.16641211774E+04  0.16641211774E+04  0.25500000920E-02 0.  1.
        2   -1    0    0  501    0  0.00000000000E+00  0.00000000000E+00 -0.20566534818E+04  0.20566534818E+04  0.25500000920E-02 0. -1.
    10030    2    1    2    0    0  0.00000000000E+00  0.00000000000E+00 -0.39253230444E+03  0.37207746593E+04  0.37000111425E+04 0.  0.
        3    1    3    3  502    0 -0.57930137774E+03 -0.14824384929E+04 -0.11445887559E+04  0.19604329629E+04  0.10100000352E+00 0. -1.
       -3    1    3    3    0  502  0.57930137774E+03  0.14824384929E+04  0.75205645149E+03  0.17603416964E+04  0.10100000352E+00 0.  1.
</event>
<event>
 5   0  0.1522273E-07  0.3303099E+04  0.7818609E-02  0.8162107E-01
       -1   -1    0    0    0  501  0.00000000000E+00  0.00000000000E+00  0.17824267492E+04  0.17824267492E+04  0.50400001928E-02 0. -1.
        1   -1    0    0  501    0  0.00000000000E+00  0.00000000000E+00 -0.15302821175E+04  0.15302821175E+04  0.50400001928E-02 0.  1.
    10030    2    1    2    0    0  0.00000000000E+00  0.00000000000E+00  0.25214463172E+03  0.33127088667E+04  0.33030990176E+04 0.  0.
        4    1    3    3  502    0 -0.11135118178E+04 -0.12189141394E+04  0.81740552491E+02  0.16529801506E+04  0.12699999809E+01 0.  1.
       -4    1    3    3    0  502  0.11135118178E+04  0.12189141394E+04  0.17040407923E+03  0.16597287160E+04  0.12699999809E+01 0. -1.
</event>
<event>
 5   0  0.1496000E-07  0.3762091E+04  0.7818609E-02  0.8054339E-01
       -1   -1    0    0    0  501  0.00000000000E+00  0.00000000000E+00  0.33548791845E+04  0.33548791845E+04  0.50400001928E-02 0. -1.
        1   -1    0    0  501    0  0.00000000000E+00  0.00000000000E+00 -0.10546824614E+04  0.10546824614E+04  0.50400001928E-02 0.  1.
    10030    2    1    2    0    0  0.00000000000E+00  0.00000000000E+00  0.23001967231E+04  0.44095616460E+04  0.37620910336E+04 0.  0.
        3    1    3    3  502    0  0.10110097769E+04 -0.67597527488E+03 -0.53188051745E+03  0.13273960359E+04  0.10100000352E+00 0.  1.
       -3    1    3    3    0  502 -0.10110097769E+04  0.67597527488E+03  0.28320772405E+04  0.30821656100E+04  0.10100000352E+00 0. -1.
</event>
<event>
 5   0  0.4758908E-07  0.3705192E+04  0.7818609E-02  0.8066812E-01
       -2   -1    0    0    0  501  0.00000000000E+00  0.00000000000E+00  0.20699645786E+04  0.20699645786E+04  0.25500000920E-02 0. -1.
        2   -1    0    0  501    0  0.00000000000E+00  0.00000000000E+00 -0.16580535432E+04  0.16580535432E+04  0.25500000920E-02 0.  1.
    10030    2    1    2    0    0  0.00000000000E+00  0.00000000000E+00  0.41191103546E+03  0.37280181218E+04  0.37051920889E+04 0.  0.
        2    1    3    3  502    0  0.47267305944E+02 -0.18028872025E+04 -0.22030002832E+03  0.18169118211E+04  0.25500000920E-02 0.  1.
       -2    1    3    3    0  502 -0.47267305944E+02  0.18028872025E+04  0.63221106377E+03  0.19111063007E+04  0.25500000920E-02 0. -1.
</event>
<event>
 5   0  0.1496000E-07  0.3712804E+04  0.7818609E-02  0.8065130E-01
       -1   -1    0    0    0  501  0.00000000000E+00  0.00000000000E+00  0.14200963050E+04  0.14200963050E+04  0.50400001928E-02 0. -1.
        1   -1    0    0  501    0  0.00000000000E+00  0.00000000000E+00 -0.24267563279E+04  0.24267563279E+04  0.50400001928E-02 0.  1.
    10030    2    1    2    0    0  0.00000000000E+00  0.00000000000E+00 -0.10066600229E+04  0.38468526329E+04  0.37128036276E+04 0.  0.
        5    1    3    3  502    0  0.26026847868E+03  0.64945383089E+03  0.12782503290E+04  0.14572151362E+04  0.46999998093E+01 0. -1.
       -5    1    3    3    0  502 -0.26026847868E+03 -0.64945383089E+03 -0.22849103519E+04  0.23896374967E+04  0.46999998093E+01 0.  1.
</event>
<event>
 5   0  0.4687817E-07  0.3661899E+04  0.7818609E-02  0.8076458E-01
        2   -1    0    0  501    0  0.00000000000E+00  0.00000000000E+00  0.25877117250E+04  0.25877117250E+04  0.25500000920E-02 0.  1.
       -2   -1    0    0    0  501  0.00000000000E+00  0.00000000000E+00 -0.12954986022E+04  0.12954986022E+04  0.25500000920E-02 0. -1.
    10030    2    1    2    0    0  0.00000000000E+00  0.00000000000E+00  0.12922131227E+04  0.38832103272E+04  0.36618994648E+04 0.  0.
        4    1    3    3  502    0 -0.93084579745E+03 -0.11031368632E+04  0.18406822660E+04  0.23391232663E+04  0.12699999809E+01 0. -1.
       -4    1    3    3    0  502  0.93084579745E+03  0.11031368632E+04 -0.54846914324E+03  0.15440870609E+04  0.12699999809E+01 0.  1.
</event>
<event>
 5   0  0.4793557E-07  0.3686251E+04  0.7818609E-02  0.8071016E-01
       -2   -1    0    0    0  501  0.00000000000E+00  0.00000000000E+00  0.15214697510E+04  0.15214697510E+04  0.25500000920E-02 0.  1.
        2   -1    0    0  501    0  0.00000000000E+00  0.00000000000E+00 -0.22327832890E+04  0.22327832890E+04  0.25500000920E-02 0. -1.
    10030    2    1    2    0    0  0.00000000000E+00  0.00000000000E+00 -0.71131353798E+03  0.37542530399E+04  0.36862513396E+04 0.  0.
        3    1    3    3  502    0 -0.38328181222E+03 -0.82878999899E+03 -0.19862271064E+04  0.21860686033E+04  0.10100000352E+00 0. -1.
       -3    1    3    3    0  502  0.38328181222E+03  0.82878999899E+03  0.12749135684E+04  0.15681844366E+04  0.10100000352E+00 0.  1.
</event>
<event>
 5   0  0.4857514E-07  0.3714973E+04  0.7818609E-02  0.8064652E-01
       -2   -1    0    0    0  501  0.00000000000E+00  0.00000000000E+00  0.16403229313E+04  0.16403229313E+04  0.25500000920E-02 0. -1.
        2   -1    0    0  501    0  0.00000000000E+00  0.00000000000E+00 -0.21034010571E+04  0.21034010571E+04  0.25500000920E-02 0.  1.
    10030    2    1    2    0    0  0.00000000000E+00  0.00000000000E+00 -0.46307812582E+03  0.37437239884E+04  0.37149734791E+04 0.  0.
        5    1    3    3  502    0 -0.13632289164E+04 -0.91237708567E+03 -0.11097244859E+04  0.19804887148E+04  0.46999998093E+01 0.  1.
       -5    1    3    3    0  502  0.13632289164E+04  0.91237708567E+03  0.64664636003E+03  0.17632352736E+04  0.46999998093E+01 0. -1.
</event>
<event>
 5   0  0.1522273E-07  0.3724077E+04  0.7818609E-02  0.8062647E-01
        1   -1    0    0  501    0  0.00000000000E+00  0.00000000000E+00  0.18627984681E+04  0.18627984681E+04  0.50400001928E-02 0. -1.
       -1   -1    0    0    0  501  0.00000000000E+00  0.00000000000E+00 -0.18612793385E+04  0.18612793385E+04  0.50400001928E-02 0.  1.
    10030    2    1    2    0    0  0.00000000000E+00  0.00000000000E+00  0.15191296183E+01  0.37240778066E+04  0.37240774967E+04 0.  0.
        4    1    3    3  502    0  0.12840331294E+04  0.53670526007E+03  0.12378502359E+04  0.18625435386E+04  0.12699999809E+01 0. -1.
       -4    1    3    3    0  502 -0.12840331294E+04 -0.53670526007E+03 -0.12363311063E+04  0.18615342680E+04  0.12699999809E+01 0.  1.
</event>
<event>
 5   0  0.1496000E-07  0.3707831E+04  0.7818609E-02  0.8066229E-01
        1   -1    0    0  501    0  0.00000000000E+00  0.00000000000E+00  0.14399011328E+04  0.14399011328E+04  0.50400001928E-02 0. -1.
       -1   -1    0    0    0  501  0.00000000000E+00  0.00000000000E+00 -0.23869715736E+04  0.23869715737E+04  0.50400001928E-02 0.  1.
    10030    2    1    2    0    0  0.00000000000E+00  0.00000000000E+00 -0.94707044090E+03  0.38268727064E+04  0.37078312112E+04 0.  0.
        3    1    3    3  502    0  0.12929177657E+04 -0.12500633996E+04 -0.88490682572E+01  0.17984363120E+04  0.10100000352E+00 0. -1.
       -3    1    3    3    0  502 -0.12929177657E+04  0.12500633996E+04 -0.93822137264E+03  0.20284363944E+04  0.10100000352E+00 0.  1.
</event>
<event>
 5   0  0.1496000E-07  0.3598562E+04  0.7818609E-02  0.8090821E-01
        1   -1    0    0  501    0  0.00000000000E+00  0.00000000000E+00  0.24356866806E+04  0.24356866806E+04  0.50400001928E-02 0. -1.
       -1   -1    0    0    0  501  0.00000000000E+00  0.00000000000E+00 -0.13291582091E+04  0.13291582091E+04  0.50400001928E-02 0.  1.
    10030    2    1    2    0    0  0.00000000000E+00  0.00000000000E+00  0.11065284715E+04  0.37648448896E+04  0.35985624609E+04 0.  0.
        5    1    3    3  502    0  0.47121356883E+03  0.78693901414E+03  0.21727170656E+04  0.23583970778E+04  0.46999998093E+01 0. -1.
       -5    1    3    3    0  502 -0.47121356883E+03 -0.78693901414E+03 -0.10661885940E+04  0.14064478119E+04  0.46999998093E+01 0.  1.
</event>
<event>
 5   0  0.4687817E-07  0.3438758E+04  0.7818609E-02  0.8128459E-01
       -2   -1    0    0    0  501  0.00000000000E+00  0.00000000000E+00  0.33057953505E+04  0.33057953505E+04  0.25500000920E-02 0. -1.
        2   -1    0    0  501    0  0.00000000000E+00  0.00000000000E+00 -0.89426692512E+03  0.89426692512E+03  0.25500000920E-02 0.  1.
    10030    2    1    2    0    0  0.00000000000E+00  0.00000000000E+00  0.24115284254E+04  0.42000622756E+04  0.34387575914E+04 0.  0.
        4    1    3    3  502    0 -0.32062986286E+03 -0.16324839252E+04  0.17359859002E+04  0.24044658312E+04  0.12699999809E+01 0. -1.
       -4    1    3    3    0  502  0.32062986286E+03  0.16324839252E+04  0.67554252517E+03  0.17955964444E+04  0.12699999809E+01 0.  1.
</event>
<event>
 5   0  0.4824268E-07  0.3200211E+04  0.7818609E-02  0.8188761E-01
       -2   -1    0    0    0  501  0.00000000000E+00  0.00000000000E+00  0.13721194754E+04  0.13721194754E+04  0.25500000920E-02 0.  1.
        2   -1    0    0  501    0  0.00000000000E+00  0.00000000000E+00 -0.18659729902E+04  0.18659729902E+04  0.25500000920E-02 0. -1.
    10030    2    1    2    0    0  0.00000000000E+00  0.00000000000E+00 -0.49385351483E+03  0.32380924657E+04  0.32002111684E+04 0.  0.
        1    1    3    3  502    0  0.47086670218E+03 -0.13973193218E+04 -0.87566865383E+03  0.17149379959E+04  0.50400001928E-02 0.  1.
       -1    1    3    3    0  502 -0.47086670218E+03  0.13973193218E+04  0.38181513900E+03  0.15231544698E+04  0.50400001928E-02 0. -1.
</event>
<event>
 5   0  0.4857514E-07  0.3285179E+04  0.7818609E-02  0.8166677E-01
        2   -1    0    0  501    0  0.00000000000E+00  0.00000000000E+00  0.21344236103E+04  0.21344236103E+04  0.25500000920E-02 0. -1.
       -2   -1    0    0    0  501  0.00000000000E+00  0.00000000000E+00 -0.12640885158E+04  0.12640885158E+04  0.25500000920E-02 0.  1.
    10030    2    1    2    0    0  0.00000000000E+00  0.00000000000E+00  0.87033509456E+03  0.33985121261E+04  0.32851790658E+04 0.  0.
        5    1    3    3  502    0  0.13138300531E+04  0.38590936453E+03 -0.50332416859E+03  0.14589149238E+04  0.46999998093E+01 0.  1.
       -5    1    3    3    0  502 -0.13138300531E+04 -0.38590936453E+03  0.13736592632E+04  0.19395972023E+04  0.46999998093E+01 0. -1.
</event>
<event>
 5   0  0.4687817E-07  0.3698317E+04  0.7818609E-02  0.8068335E-01
       -2   -1    0    0    0  501  0.00000000000E+00  0.00000000000E+00  0.30535758559E+04  0.30535758559E+04  0.25500000920E-02 0. -1.
        2   -1    0    0  501    0  0.00000000000E+00  0.00000000000E+00 -0.11197979070E+04  0.11197979070E+04  0.25500000920E-02 0.  1.
    10030    2    1    2    0    0  0.00000000000E+00  0.00000000000E+00  0.19337779489E+04  0.41733737629E+04  0.36983173755E+04 0.  0.
        4    1    3    3  502    0  0.11989305768E+04 -0.13518006246E+04  0.14105683931E+04  0.22922705471E+04  0.12699999809E+01 0. -1.
       -4    1    3    3    0  502 -0.11989305768E+04  0.13518006246E+04  0.52320955576E+03  0.18811032158E+04  0.12699999809E+01 0.  1.
</event>
<event>
 5   0  0.4758908E-07  0.3730808E+04  0.7818609E-02  0.8061169E-01
        2   -1    0    0  501    0  0.00000000000E+00  0.00000000000E+00  0.23212124446E+04  0.23212124446E+04  0.25500000920E-02 0.  1.
       -2   -1    0    0    0  501  0.00000000000E+00  0.00000000000E+00 -0.14991007548E+04  0.14991007548E+04  0.25500000920E-02 0. -1.
    10030    2    1    2    0    0  0.00000000000E+00  0.00000000000E+00  0.82211168981E+03  0.38203131994E+04  0.37308075950E+04 0.  0.
        2    1    3    3  502    0 -0.13622162850E+04 -0.12398634461E+04  0.71280628445E+03  0.19750917374E+04  0.25500000920E-02 0.  1.
       -2    1    3    3    0  502  0.13622162850E+04  0.12398634461E+04  0.10930540536E+03  0.18452214620E+04  0.25500000920E-02 0. -1.
</event>
<event>
 5   0  0.4857514E-07  0.3670651E+04  0.7818609E-02  0.8074497E-01
       -2   -1    0    0    0  501  0.00000000000E+00  0.00000000000E+00  0.15952600071E+04  0.15952600071E+04  0.25500000920E-02 0.  1.
        2   -1    0    0  501    0  0.00000000000E+00  0.00000000000E+00 -0.21115177778E+04  0.21115177778E+04  0.25500000920E-02 0. -1.
    10030    2    1    2    0    0  0.00000000000E+00  0.00000000000E+00 -0.51625777067E+03  0.37067777849E+04  0.36706510950E+04 0.  0.
        5    1    3    3  502    0 -0.14083940915E+04  0.11718631239E+04 -0.14955007385E+03  0.18382666870E+04  0.46999998093E+01 0. -1.
       -5    1    3    3    0  502  0.14083940915E+04 -0.11718631239E+04 -0.36670769682E+03  0.18685110979E+04  0.46999998093E+01 0.  1.
</event>
<event>
 5   0  0.4857514E-07  0.3676713E+04  0.7818609E-02  0.8073142E-01
        2   -1    0    0  501    0  0.00000000000E+00  0.00000000000E+00  0.21035741368E+04  0.21035741368E+04  0.25500000920E-02 0.  1.
       -2   -1    0    0    0  501  0.00000000000E+00  0.00000000000E+00 -0.16065776274E+04  0.16065776274E+04  0.25500000920E-02 0. -1.
    10030    2    1    2    0    0  0.00000000000E+00  0.00000000000E+00  0.49699650940E+03  0.37101517641E+04  0.36767132853E+04 0.  0.
        5    1    3    3  502    0 -0.46469386416E+03 -0.15112700131E+04  0.11949277145E+04  0.19818556387E+04  0.46999998093E+01 0.  1.
       -5    1    3    3    0  502  0.46469386416E+03  0.15112700131E+04 -0.69793120508E+03  0.17282961254E+04  0.46999998093E+01 0. -1.
</event>
<event>
 5   0  0.1496000E-07  0.3693941E+04  0.7818609E-02  0.8069306E-01
       -1   -1    0    0    0  501  0.00000000000E+00  0.00000000000E+00  0.18124746233E+04  0.18124746233E+04  0.50400001928E-02 0.  1.
        1   -1    0    0  501    0  0.00000000000E+00  0.00000000000E+00 -0.18821229319E+04  0.18821229319E+04  0.50400001928E-02 0. -1.
    10030    2    1    2    0    0  0.00000000000E+00  0.00000000000E+00 -0.69648308591E+02  0.36945975552E+04  0.36939410130E+04 0.  0.
        2    1    3    3  502    0  0.15357718391E+04  0.97967431469E+03  0.27009581688E+03  0.18415506115E+04  0.25500000920E-02 0.  1.
       -2    1    3    3    0  502 -0.15357718391E+04 -0.97967431469E+03 -0.33974412547E+03  0.18530469436E+04  0.25500000920E-02 0. -1.
</event>
<event>
 5   0  0.1496000E-07  0.3712545E+04  0.7818609E-02  0.8065187E-01
       -1   -1    0    0    0  501  0.00000000000E+00  0.00000000000E+00  0.15649212884E+04  0.15649212884E+04  0.50400001928E-02 0. -1.
        1   -1    0    0  501    0  0.00000000000E+00  0.00000000000E+00 -0.22018664721E+04  0.22018664721E+04  0.50400001928E-02 0.  1.
    10030    2    1    2    0    0  0.00000000000E+00  0.00000000000E+00 -0.63694518375E+03  0.37667877605E+04  0.37125450658E+04 0.  0.
        2    1    3    3  502    0  0.87184184165E+03  0.39111729167E+03  0.12962147612E+04  0.16103582334E+04  0.25500000920E-02 0. -1.
       -2    1    3    3    0  502 -0.87184184165E+03 -0.39111729167E+03 -0.19331599449E+04  0.21564295271E+04  0.25500000920E-02 0.  1.
</event>
<event>
 5   0  0.1496000E-07  0.3694407E+04  0.7818609E-02  0.8069202E-01
        1   -1    0    0  501    0  0.00000000000E+00  0.00000000000E+00  0.17608018138E+04  0.17608018138E+04  0.50400001928E-02 0. -1.
       -1   -1    0    0    0  501  0.00000000000E+00  0.00000000000E+00 -0.19378452730E+04  0.19378452730E+04  0.50400001928E-02 0.  1.
    10030    2    1    2    0    0  0.00000000000E+00  0.00000000000E+00 -0.17704345924E+03  0.36986470868E+04  0.36944073795E+04 0.  0.
        2    1    3    3  502    0  0.10933804613E+04  0.11552290457E+04 -0.10288154664E+04  0.18943326648E+04  0.25500000920E-02 0.  1.
       -2    1    3    3    0  502 -0.10933804613E+04 -0.11552290457E+04  0.85177200715E+03  0.18043144219E+04  0.25500000920E-02 0. -1.
</event>
<event>
 5   0  0.1496000E-07  0.3700633E+04  0.7818609E-02  0.8067822E-01
        1   -1    0    0  501    0  0.00000000000E+00  0.00000000000E+00  0.15754024786E+04  0.15754024786E+04  0.50400001928E-02 0. -1.
       -1   -1    0    0    0  501  0.00000000000E+00  0.00000000000E+00 -0.21732038778E+04  0.21732038778E+04  0.50400001928E-02 0.  1.
    10030    2    1    2    0    0  0.00000000000E+00  0.00000000000E+00 -0.59780139928E+03  0.37486063564E+04  0.37006327976E+04 0.  0.
        5    1    3    3  502    0  0.13432413513E+04 -0.13841064865E+03  0.98248579465E+03  0.16699566647E+04  0.46999998093E+01 0. -1.
       -5    1    3    3    0  502 -0.13432413513E+04  0.13841064865E+03 -0.15802871939E+04  0.20786496917E+04  0.46999998093E+01 0.  1.
</event>
<event>
 5   0  0.4793557E-07  0.3624983E+04  0.7818609E-02  0.8084793E-01
        2   -1    0    0  501    0  0.00000000000E+00  0.00000000000E+00  0.21878933810E+04  0.21878933810E+04  0.25500000920E-02 0.  1.
       -2   -1    0    0    0  501  0.00000000000E+00  0.00000000000E+00 -0.15015018501E+04  0.15015018501E+04  0.25500000920E-02 0. -1.
    10030    2    1    2    0    0  0.00000000000E+00  0.00000000000E+00  0.68639153091E+03  0.36893952312E+04  0.36249832880E+04 0.  0.
        3    1    3    3  502    0 -0.74977350139E+03  0.61180858167E+03  0.19029596866E+04  0.21348830467E+04  0.10100000352E+00 0.  1.
       -3    1    3    3    0  502  0.74977350139E+03 -0.61180858167E+03 -0.12165681557E+04  0.15545121845E+04  0.10100000352E+00 0. -1.
</event>
<event>
 5   0  0.1496000E-07  0.3645193E+04  0.7818609E-02  0.8080217E-01
       -1   -1    0    0    0  501  0.00000000000E+00  0.00000000000E+00  0.27985035097E+04  0.27985035097E+04  0.50400001928E-02 0. -1.
        1   -1    0    0  501    0  0.00000000000E+00  0.00000000000E+00 -0.11870124829E+04  0.11870124829E+04  0.50400001928E-02 0.  1.
    10030    2    1    2    0    0  0.00000000000E+00  0.00000000000E+00  0.16114910268E+04  0.39855159926E+04  0.36451933279E+04 0.  0.
        3    1    3    3  502    0  0.76284975547E+03 -0.66692025881E+03 -0.85066592819E+03  0.13230097931E+04  0.10100000352E+00 0.  1.
       -3    1    3    3    0  502 -0.76284975547E+03  0.66692025881E+03  0.24621569550E+04  0.26625061995E+04  0.10100000352E+00 0. -1.
</event>
<event>
 5   0  0.1496000E-07  0.3697831E+04  0.7818609E-02  0.8068443E-01
       -1   -1    0    0    0  501  0.00000000000E+00  0.00000000000E+00  0.26875531539E+04  0.26875531539E+04  0.50400001928E-02 0.  1.
        1   -1    0    0  501    0  0.00000000000E+00  0.00000000000E+00 -0.12719707464E+04  0.12719707464E+04  0.50400001928E-02 0. -1.
    10030    2    1    2    0    0  0.00000000000E+00  0.00000000000E+00  0.14155824075E+04  0.39595239004E+04  0.36978312516E+04 0.  0.
        2    1    3    3  502    0 -0.15596823546E+03  0.89548840492E+03  0.24317839962E+04  0.25961122815E+04  0.25500000920E-02 0.  1.
       -2    1    3    3    0  502  0.15596823546E+03 -0.89548840492E+03 -0.10162015886E+04  0.13634116189E+04  0.25500000920E-02 0. -1.
</event>
<event>
 5   0  0.1496000E-07  0.3660937E+04  0.7818609E-02  0.8076674E-01
        1   -1    0    0  501    0  0.00000000000E+00  0.00000000000E+00  0.21631762215E+04  0.21631762215E+04  0.50400001928E-02 0. -1.
       -1   -1    0    0    0  501  0.00000000000E+00  0.00000000000E+00 -0.15489333275E+04  0.15489333275E+04  0.50400001928E-02 0.  1.
    10030    2    1    2    0    0  0.00000000000E+00  0.00000000000E+00  0.61424289398E+03  0.37121095490E+04  0.36609374443E+04 0.  0.
        5    1    3    3  502    0 -0.94545000722E+03 -0.15638561257E+04  0.41381560222E+03  0.18737094600E+04  0.46999998093E+01 0.  1.
       -5    1    3    3    0  502  0.94545000722E+03  0.15638561257E+04  0.20042729176E+03  0.18384000890E+04  0.46999998093E+01 0. -1.
</event>
<event>
 5   0  0.4758908E-07  0.3666380E+04  0.7818609E-02  0.8075453E-01
       -2   -1    0    0    0  501  0.00000000000E+00  0.00000000000E+00  0.16254927165E+04  0.16254927165E+04  0.25500000920E-02 0.  1.
        2   -1    0    0  501    0  0.00000000000E+00  0.00000000000E+00 -0.20674261646E+04  0.20674261646E+04  0.25500000920E-02 0. -1.
    10030    2    1    2    0    0  0.00000000000E+00  0.00000000000E+00 -0.44193344809E+03  0.36929188812E+04  0.36663803254E+04 0.  0.
        2    1    3    3  502    0  0.10472586053E+04  0.35897456790E+03 -0.16926977049E+04  0.20225822226E+04  0.25500000920E-02 0. -1.
       -2    1    3    3    0  502 -0.10472586053E+04 -0.35897456790E+03  0.12507642568E+04  0.16703366586E+04  0.25500000920E-02 0.  1.
</event>
<event>
 5   0  0.4687817E-07  0.3639336E+04  0.7818609E-02  0.8081540E-01
       -2   -1    0    0    0  501  0.00000000000E+00  0.00000000000E+00  0.16166873968E+04  0.16166873968E+04  0.25500000920E-02 0.  1.
        2   -1    0    0  501    0  0.00000000000E+00  0.00000000000E+00 -0.20481336197E+04  0.20481336197E+04  0.25500000920E-02 0. -1.
    10030    2    1    2    0    0  0.00000000000E+00  0.00000000000E+00 -0.43144622288E+03  0.36648210164E+04  0.36393360987E+04 0.  0.
        4    1    3    3  502    0 -0.13344697884E+04 -0.20492193281E+03  0.10128149701E+04  0.16877791299E+04  0.12699999809E+01 0.  1.
       -4    1    3    3    0  502  0.13344697884E+04  0.20492193281E+03 -0.14442611930E+04  0.19770418866E+04  0.12699999809E+01 0. -1.
</event>
<event>
 5   0  0.1496000E-07  0.3693290E+04  0.7818609E-02  0.8069451E-01
        1   -1    0    0  501    0  0.00000000000E+00  0.00000000000E+00  0.27621535492E+04  0.27621535492E+04  0.50400001928E-02 0. -1.
       -1   -1    0    0    0  501  0.00000000000E+00  0.00000000000E+00 -0.12345790353E+04  0.12345790353E+04  0.50400001928E-02 0.  1.
    10030    2    1    2    0    0  0.00000000000E+00  0.00000000000E+00  0.15275745140E+04  0.39967325845E+04  0.36932895170E+04 0.  0.
        3    1    3    3  502    0  0.16207814827E+04  0.63429891422E+03  0.14316032515E+04  0.22536094619E+04  0.10100000352E+00 0. -1.
       -3    1    3    3    0  502 -0.16207814827E+04 -0.63429891422E+03  0.95971262481E+02  0.17431231226E+04  0.10100000352E+00 0.  1.
</event>
<event>
 5   0  0.4758908E-07  0.3723371E+04  0.7818609E-02  0.8062802E-01
        2   -1    0    0  501    0  0.00000000000E+00  0.00000000000E+00  0.20807915737E+04  0.20807915737E+04  0.25500000920E-02 0.  1.
       -2   -1    0    0    0  501  0.00000000000E+00  0.00000000000E+00 -0.16656509871E+04  0.16656509871E+04  0.25500000920E-02 0. -1.
    10030    2    1    2    0    0  0.00000000000E+00  0.00000000000E+00  0.41514058659E+03  0.37464425608E+04  0.37233708055E+04 0.  0.
        2    1    3    3  502    0 -0.79589883794E+03 -0.38268555734E+03  0.18566183613E+04  0.20559511024E+04  0.25500000920E-02 0.  1.
       -2    1    3    3    0  502  0.79589883794E+03  0.38268555734E+03 -0.14414777747E+04  0.16904914584E+04  0.25500000920E-02 0. -1.
</event>
<event>
 5   0  0.1496000E-07  0.3292133E+04  0.7818609E-02  0.8164900E-01
        1   -1    0    0  501    0  0.00000000000E+00  0.00000000000E+00  0.16879984839E+04  0.16879984839E+04  0.50400001928E-02 0.  1.
       -1   -1    0    0    0  501  0.00000000000E+00  0.00000000000E+00 -0.16051760305E+04  0.16051760305E+04  0.50400001928E-02 0. -1.
    10030    2    1    2    0    0  0.00000000000E+00  0.00000000000E+00  0.82822453383E+02  0.32931745144E+04  0.32921328685E+04 0.  0.
        5    1    3    3  502    0  0.46315044604E+03 -0.12617803226E+04  0.99193011699E+03  0.16704925517E+04  0.46999998093E+01 0. -1.
       -5    1    3    3    0  502 -0.46315044604E+03  0.12617803226E+04 -0.90910766361E+03  0.16226819628E+04  0.46999998093E+01 0.  1.
</event>
<event>
 5   0  0.1496287E-07  0.3624836E+04  0.7818609E-02  0.8084826E-01
        1   -1    0    0  501    0  0.00000000000E+00  0.00000000000E+00  0.16865370405E+04  0.16865370405E+04  0.50400001928E-02 0. -1.
       -1   -1    0    0    0  501  0.00000000000E+00  0.00000000000E+00 -0.19476942305E+04  0.19476942305E+04  0.50400001928E-02 0.  1.
    10030    2    1    2    0    0  0.00000000000E+00  0.00000000000E+00 -0.26115719000E+03  0.36342312710E+04  0.36248357002E+04 0.  0.
        1    1    3    3  502    0 -0.17544071636E+04  0.98972920531E+02 -0.57570949038E+03  0.18491029047E+04  0.50400001928E-02 0. -1.
       -1    1    3    3    0  502  0.17544071636E+04 -0.98972920531E+02  0.31455230038E+03  0.17851283664E+04  0.50400001928E-02 0.  1.
</event>
<event>
 5   0  0.1522273E-07  0.3728235E+04  0.7818609E-02  0.8061733E-01
        1   -1    0    0  501    0  0.00000000000E+00  0.00000000000E+00  0.13372145930E+04  0.13372145930E+04  0.50400001928E-02 0.  1.
       -1   -1    0    0    0  501  0.00000000000E+00  0.00000000000E+00 -0.25986361475E+04  0.25986361475E+04  0.50400001928E-02 0. -1.
    10030    2    1    2    0    0  0.00000000000E+00  0.00000000000E+00 -0.12614215545E+04  0.39358507405E+04  0.37282350668E+04 0.  0.
        4    1    3    3  502    0  0.17773351364E+04 -0.10328989057E+03 -0.12140614829E+04  0.21548865134E+04  0.12699999809E+01 0. -1.
       -4    1    3    3    0  502 -0.17773351364E+04  0.10328989057E+03 -0.47360071589E+02  0.17809642270E+04  0.12699999809E+01 0.  1.
</event>
<event>
 5   0  0.1496000E-07  0.3773026E+04  0.7818609E-02  0.8051968E-01
        1   -1    0    0  501    0  0.00000000000E+00  0.00000000000E+00  0.27919433345E+04  0.27919433345E+04  0.50400001928E-02 0. -1.
       -1   -1    0    0    0  501  0.00000000000E+00  0.00000000000E+00 -0.12747146610E+04  0.12747146610E+04  0.50400001928E-02 0.  1.
    10030    2    1    2    0    0  0.00000000000E+00  0.00000000000E+00  0.15172286735E+04  0.40666579955E+04  0.37730258950E+04 0.  0.
        5    1    3    3  502    0  0.15001831902E+04  0.78536999965E+02 -0.47132946035E+03  0.15744494957E+04  0.46999998093E+01 0.  1.
       -5    1    3    3    0  502 -0.15001831902E+04 -0.78536999965E+02  0.19885581339E+04  0.24922084997E+04  0.46999998093E+01 0. -1.
</event>
<event>
 5   0  0.1496287E-07  0.3686468E+04  0.7818609E-02  0.8070967E-01
       -1   -1    0    0    0  501  0.00000000000E+00  0.00000000000E+00  0.15317767356E+04  0.15317767356E+04  0.50400001928E-02 0. -1.
        1   -1    0    0  501    0  0.00000000000E+00  0.00000000000E+00 -0.22180205590E+04  0.22180205590E+04  0.50400001928E-02 0.  1.
    10030    2    1    2    0    0  0.00000000000E+00  0.00000000000E+00 -0.68624382338E+03  0.37497972945E+04  0.36864683866E+04 0.  0.
        1    1    3    3  502    0  0.17153784635E+04  0.52173954679E+03  0.91746525537E+02  0.17953141376E+04  0.50400001928E-02 0. -1.
       -1    1    3    3    0  502 -0.17153784635E+04 -0.52173954679E+03 -0.77799034892E+03  0.19544831569E+04  0.50400001928E-02 0.  1.
</event>
<event>
 5   0  0.4793557E-07  0.3873453E+04  0.7818609E-02  0.8030573E-01
       -2   -1    0    0    0  501  0.00000000000E+00  0.00000000000E+00  0.22513645477E+04  0.22513645477E+04  0.25500000920E-02 0.  1.
        2   -1    0    0  501    0  0.00000000000E+00  0.00000000000E+00 -0.16660603231E+04  0.16660603231E+04  0.25500000920E-02 0. -1.
    10030    2    1    2    0    0  0.00000000000E+00  0.00000000000E+00  0.58530422462E+03  0.39174248708E+04  0.38734527986E+04 0.  0.
        3    1    3    3  502    0  0.35811651659E+03 -0.22679730439E+03 -0.16185692684E+04  0.16731559831E+04  0.10100000352E+00 0. -1.
       -3    1    3    3    0  502 -0.35811651659E+03  0.22679730439E+03  0.22038734930E+04  0.22442688877E+04  0.10100000352E+00 0.  1.
</event>
<event>
 5   0  0.4793557E-07  0.3708606E+04  0.7818609E-02  0.8066057E-01
        2   -1    0    0  501    0  0.00000000000E+00  0.00000000000E+00  0.21362744279E+04  0.21362744279E+04  0.25500000920E-02 0.  1.
       -2   -1    0    0    0  501  0.00000000000E+00  0.00000000000E+00 -0.16095491996E+04  0.16095491996E+04  0.25500000920E-02 0. -1.
    10030    2    1    2    0    0  0.00000000000E+00  0.00000000000E+00  0.52672522835E+03  0.37458236275E+04  0.37086055576E+04 0.  0.
        3    1    3    3  502    0 -0.13872422840E+03  0.13732139618E+04 -0.98740153618E+03  0.16970335295E+04  0.10100000352E+00 0. -1.
       -3    1    3    3    0  502  0.13872422840E+03 -0.13732139618E+04  0.15141267645E+04  0.20487900980E+04  0.10100000352E+00 0.  1.
</event>
<event>
 5   0  0.1496000E-07  0.3667985E+04  0.7818609E-02  0.8075094E-01
       -1   -1    0    0    0  501  0.00000000000E+00  0.00000000000E+00  0.12826777972E+04  0.12826777973E+04  0.50400001928E-02 0. -1.
        1   -1    0    0  501    0  0.00000000000E+00  0.00000000000E+00 -0.26222705397E+04  0.26222705397E+04  0.50400001928E-02 0.  1.
    10030    2    1    2    0    0  0.00000000000E+00  0.00000000000E+00 -0.13395927425E+04  0.39049483370E+04  0.36679848417E+04 0.  0.
        5    1    3    3  502    0  0.73685525435E+03 -0.70120581399E+03  0.95485256421E+03  0.13951382615E+04  0.46999998093E+01 0. -1.
       -5    1    3    3    0  502 -0.73685525435E+03  0.70120581399E+03 -0.22944453067E+04  0.25098100754E+04  0.46999998093E+01 0.  1.
</event>
<event>
 5   0  0.1496000E-07  0.3441124E+04  0.7818609E-02  0.8127886E-01
       -1   -1    0    0    0  501  0.00000000000E+00  0.00000000000E+00  0.18579201363E+04  0.18579201363E+04  0.50400001928E-02 0. -1.
        1   -1    0    0  501    0  0.00000000000E+00  0.00000000000E+00 -0.15933592792E+04  0.15933592792E+04  0.50400001928E-02 0.  1.
    10030    2    1    2    0    0  0.00000000000E+00  0.00000000000E+00  0.26456085709E+03  0.34512794156E+04  0.34411244031E+04 0.  0.
        3    1    3    3  502    0  0.49649968865E+03  0.55565693166E+03  0.16876851100E+04  0.18448706208E+04  0.10100000352E+00 0. -1.
       -3    1    3    3    0  502 -0.49649968865E+03 -0.55565693166E+03 -0.14231242529E+04  0.16064087948E+04  0.10100000352E+00 0.  1.
</event>
<event>
 5   0  0.1496000E-07  0.3650224E+04  0.7818609E-02  0.8079083E-01
       -1   -1    0    0    0  501  0.00000000000E+00  0.00000000000E+00  0.13698598133E+04  0.13698598133E+04  0.50400001928E-02 0. -1.
        1   -1    0    0  501    0  0.00000000000E+00  0.00000000000E+00 -0.24316608373E+04  0.24316608373E+04  0.50400001928E-02 0.  1.
    10030    2    1    2    0    0  0.00000000000E+00  0.00000000000E+00 -0.10618010240E+04  0.38015206506E+04  0.36502243550E+04 0.  0.
        3    1    3    3  502    0  0.15855412163E+04  0.43958382774E+03  0.29168529698E+03  0.16710042528E+04  0.10100000352E+00 0. -1.
       -3    1    3    3    0  502 -0.15855412163E+04 -0.43958382774E+03 -0.13534863210E+04  0.21305163978E+04  0.10100000352E+00 0.  1.
</event>
<event>
 5   0  0.4758908E-07  0.3777338E+04  0.7818609E-02  0.8051036E-01
        2   -1    0    0  501    0  0.00000000000E+00  0.00000000000E+00  0.26194163852E+04  0.26194163852E+04  0.25500000920E-02 0.  1.
       -2   -1    0    0    0  501  0.00000000000E+00  0.00000000000E+00 -0.13617804157E+04  0.13617804157E+04  0.25500000920E-02 0. -1.
    10030    2    1    2    0    0  0.00000000000E+00  0.00000000000E+00  0.12576359695E+04  0.39811968009E+04  0.37773376519E+04 0.  0.
        2    1    3    3  502    0  0.11394954126E+04 -0.14558778922E+04  0.22192629031E+03  0.18620637773E+04  0.25500000920E-02 0.  1.
       -2    1    3    3    0  502 -0.11394954126E+04  0.14558778922E+04  0.10357096792E+04  0.21191330236E+04  0.25500000920E-02 0. -1.
</event>
<event>
 5   0  0.4758908E-07  0.3715964E+04  0.7818609E-02  0.8064433E-01
       -2   -1    0    0    0  501  0.00000000000E+00  0.00000000000E+00  0.14199244678E+04  0.14199244678E+04  0.25500000920E-02 0.  1.
        2   -1    0    0  501    0  0.00000000000E+00  0.00000000000E+00 -0.24311840486E+04  0.24311840486E+04  0.25500000920E-02 0. -1.
    10030    2    1    2    0    0  0.00000000000E+00  0.00000000000E+00 -0.10112595808E+04  0.38511085165E+04  0.37159643252E+04 0.  0.
        2    1    3    3  502    0 -0.52680145486E+02  0.72526686602E+03 -0.22775807289E+04  0.23908494727E+04  0.25500000920E-02 0. -1.
       -2    1    3    3    0  502  0.52680145486E+02 -0.72526686602E+03  0.12663211481E+04  0.14602590437E+04  0.25500000920E-02 0.  1.
</event>
<event>
 5   0  0.1522273E-07  0.3655715E+04  0.7818609E-02  0.8077847E-01
       -1   -1    0    0    0  501  0.00000000000E+00  0.00000000000E+00  0.12310142203E+04  0.12310142204E+04  0.50400001928E-02 0. -1.
        1   -1    0    0  501    0  0.00000000000E+00  0.00000000000E+00 -0.27140735586E+04  0.27140735586E+04  0.50400001928E-02 0.  1.
    10030    2    1    2    0    0  0.00000000000E+00  0.00000000000E+00 -0.14830593383E+04  0.39450877790E+04  0.36557150577E+04 0.  0.
        4    1    3    3  502    0 -0.12740255631E+04 -0.10775219270E+04 -0.15468339971E+04  0.22752783711E+04  0.12699999809E+01 0.  1.
       -4    1    3    3    0  502  0.12740255631E+04  0.10775219270E+04  0.63774658834E+02  0.16698094079E+04  0.12699999809E+01 0. -1.
</event>
<event>
 5   0  0.4824268E-07  0.3687311E+04  0.7818609E-02  0.8070780E-01
       -2   -1    0    0    0  501  0.00000000000E+00  0.00000000000E+00  0.13687902994E+04  0.13687902994E+04  0.25500000920E-02 0. -1.
        2   -1    0    0  501    0  0.00000000000E+00  0.00000000000E+00 -0.24832620245E+04  0.24832620245E+04  0.25500000920E-02 0.  1.
    10030    2    1    2    0    0  0.00000000000E+00  0.00000000000E+00 -0.11144717251E+04  0.38520523240E+04  0.36873106569E+04 0.  0.
        1    1    3    3  502    0 -0.27020240837E+03  0.86879303732E+02 -0.24603018983E+04  0.24766192250E+04  0.50400001928E-02 0.  1.
       -1    1    3    3    0  502  0.27020240837E+03 -0.86879303732E+02  0.13458301731E+04  0.13754330990E+04  0.50400001928E-02 0. -1.
</event>
<event>
 5   0  0.4857514E-07  0.3692876E+04  0.7818609E-02  0.8069542E-01
       -2   -1    0    0    0  501  0.00000000000E+00  0.00000000000E+00  0.16389761688E+04  0.16389761688E+04  0.25500000920E-02 0. -1.
        2   -1    0    0  501    0  0.00000000000E+00  0.00000000000E+00 -0.20801603844E+04  0.20801603844E+04  0.25500000920E-02 0.  1.
    10030    2    1    2    0    0  0.00000000000E+00  0.00000000000E+00 -0.44118421556E+03  0.37191365533E+04  0.36928760052E+04 0.  0.
        5    1    3    3  502    0  0.12382584034E+04  0.12834458223E+04 -0.70231785764E+03  0.19167132064E+04  0.46999998093E+01 0.  1.
       -5    1    3    3    0  502 -0.12382584034E+04 -0.12834458223E+04  0.26113364208E+03  0.18024233469E+04  0.46999998093E+01 0. -1.
</event>
<event>
 5   0  0.4857514E-07  0.3699349E+04  0.7818609E-02  0.8068106E-01
       -2   -1    0    0    0  501  0.00000000000E+00  0.00000000000E+00  0.19591520977E+04  0.19591520977E+04  0.25500000920E-02 0. -1.
        2   -1    0    0  501    0  0.00000000000E+00  0.00000000000E+00 -0.17463147078E+04  0.17463147078E+04  0.25500000920E-02 0.  1.
    10030    2    1    2    0    0  0.00000000000E+00  0.00000000000E+00  0.21283738994E+03  0.37054668055E+04  0.36993491984E+04 0.  0.
        5    1    3    3  502    0  0.13792379181E+04  0.66921693791E+03  0.11430821187E+04  0.19122780563E+04  0.46999998093E+01 0. -1.
       -5    1    3    3    0  502 -0.13792379181E+04 -0.66921693791E+03 -0.93024472879E+03  0.17931887491E+04  0.46999998093E+01 0.  1.
</event>
<event>
 5   0  0.4758908E-07  0.3705045E+04  0.7818609E-02  0.8066845E-01
       -2   -1    0    0    0  501  0.00000000000E+00  0.00000000000E+00  0.31164566665E+04  0.31164566665E+04  0.25500000920E-02 0.  1.
        2   -1    0    0  501    0  0.00000000000E+00  0.00000000000E+00 -0.11011991144E+04  0.11011991144E+04  0.25500000920E-02 0. -1.
    10030    2    1    2    0    0  0.00000000000E+00  0.00000000000E+00  0.20152575521E+04  0.42176557809E+04  0.37050448425E+04 0.  0.
        2    1    3    3  502    0 -0.16915261271E+04  0.65876563874E+03  0.14283683582E+04  0.23098634098E+04  0.25500000920E-02 0. -1.
       -2    1    3    3    0  502  0.16915261271E+04 -0.65876563874E+03  0.58688919390E+03  0.19077923711E+04  0.25500000920E-02 0.  1.
</event>
<event>
 5   0  0.1496000E-07  0.3692705E+04  0.7818609E-02  0.8069581E-01
        3   -1    0    0  501    0  0.00000000000E+00  0.00000000000E+00  0.15213191470E+04  0.15213191504E+04  0.10100000352E+00 0. -1.
       -3   -1    0    0    0  501  0.00000000000E+00  0.00000000000E+00 -0.22408293689E+04  0.22408293712E+04  0.10100000352E+00 0.  1.
    10030    2    1    2    0    0  0.00000000000E+00  0.00000000000E+00 -0.71951022192E+03  0.37621485216E+04  0.36927045020E+04 0.  0.
        1    1    3    3  502    0  0.26373620385E+03 -0.15059699553E+04  0.69485122231E+03  0.16793809909E+04  0.50400001928E-02 0. -1.
       -1    1    3    3    0  502 -0.26373620385E+03  0.15059699553E+04 -0.14143614442E+04  0.20827675306E+04  0.50400001928E-02 0.  1.
</event>
<event>
 5   0  0.4793557E-07  0.3712250E+04  0.7818609E-02  0.8065253E-01
        2   -1    0    0  501    0  0.00000000000E+00  0.00000000000E+00  0.16452964495E+04  0.16452964495E+04  0.25500000920E-02 0.  1.
       -2   -1    0    0    0  501  0.00000000000E+00  0.00000000000E+00 -0.20939688436E+04  0.20939688436E+04  0.25500000920E-02 0. -1.
    10030    2    1    2    0    0  0.00000000000E+00  0.00000000000E+00 -0.44867239407E+03  0.37392652931E+04  0.37122497242E+04 0.  0.
        3    1    3    3  502    0  0.29651862103E+03 -0.10394704841E+04  0.12955440562E+04  0.16872630476E+04  0.10100000352E+00 0.  1.
       -3    1    3    3    0  502 -0.29651862103E+03  0.10394704841E+04 -0.17442164503E+04  0.20520022455E+04  0.10100000352E+00 0. -1.
</event>
<event>
 5   0  0.1496000E-07  0.3685024E+04  0.7818609E-02  0.8071289E-01
        1   -1    0    0  501    0  0.00000000000E+00  0.00000000000E+00  0.98996796263E+03  0.98996796264E+03  0.50400001928E-02 0. -1.
       -1   -1    0    0    0  501  0.00000000000E+00  0.00000000000E+00 -0.34292527255E+04  0.34292527255E+04  0.50400001928E-02 0.  1.
    10030    2    1    2    0    0  0.00000000000E+00  0.00000000000E+00 -0.24392847629E+04  0.44192206881E+04  0.36850239261E+04 0.  0.
        3    1    3    3  502    0  0.12550072433E+04 -0.12576156802E+04 -0.63433322030E+03  0.18865362505E+04  0.10100000352E+00 0. -1.
       -3    1    3    3    0  502 -0.12550072433E+04  0.12576156802E+04 -0.18049515426E+04  0.25326844377E+04  0.10100000352E+00 0.  1.
</event>
<event>
 5   0  0.4687817E-07  0.3703364E+04  0.7818609E-02  0.8067217E-01
        2   -1    0    0  501    0  0.00000000000E+00  0.00000000000E+00  0.29744679396E+04  0.29744679396E+04  0.25500000920E-02 0.  1.
       -2   -1    0    0    0  501  0.00000000000E+00  0.00000000000E+00 -0.11527193135E+04  0.11527193135E+04  0.25500000920E-02 0. -1.
    10030    2    1    2    0    0  0.00000000000E+00  0.00000000000E+00  0.18217486260E+04  0.41271872531E+04  0.37033642227E+04 0.  0.
        4    1    3    3  502    0  0.50934723494E+03 -0.11657666217E+04  0.24103190232E+04  0.27254514908E+04  0.12699999809E+01 0.  1.
       -4    1    3    3    0  502 -0.50934723494E+03  0.11657666217E+04 -0.58857039717E+03  0.14017357623E+04  0.12699999809E+01 0. -1.
</event>
<event>
 5   0  0.1522273E-07  0.3344710E+04  0.7818609E-02  0.8151611E-01
       -1   -1    0    0    0  501  0.00000000000E+00  0.00000000000E+00  0.14459144016E+04  0.14459144016E+04  0.50400001928E-02 0.  1.
        1   -1    0    0  501    0  0.00000000000E+00  0.00000000000E+00 -0.19342577218E+04  0.19342577218E+04  0.50400001928E-02 0. -1.
    10030    2    1    2    0    0  0.00000000000E+00  0.00000000000E+00 -0.48834332024E+03  0.33801721235E+04  0.33447099106E+04 0.  0.
        4    1    3    3  502    0 -0.11569742829E+03 -0.16440604179E+04 -0.53081410338E+03  0.17314981311E+04  0.12699999809E+01 0. -1.
       -4    1    3    3    0  502  0.11569742829E+03  0.16440604179E+04  0.42470783143E+02  0.16486739924E+04  0.12699999809E+01 0.  1.
</event>
<event>
 5   0  0.1496287E-07  0.3632432E+04  0.7818609E-02  0.8083103E-01
       -1   -1    0    0    0  501  0.00000000000E+00  0.00000000000E+00  0.22963778011E+04  0.22963778011E+04  0.50400001928E-02 0. -1.
        1   -1    0    0  501    0  0.00000000000E+00  0.00000000000E+00 -0.14364538094E+04  0.14364538094E+04  0.50400001928E-02 0.  1.
    10030    2    1    2    0    0  0.00000000000E+00  0.00000000000E+00  0.85992399168E+03  0.37328316105E+04  0.36324320450E+04 0.  0.
        1    1    3    3  502    0 -0.62925234199E+03 -0.16602430697E+04  0.36931659784E+02  0.17758742940E+04  0.50400001928E-02 0. -1.
       -1    1    3    3    0  502  0.62925234199E+03  0.16602430697E+04  0.82299233190E+03  0.19569573166E+04  0.50400001928E-02 0.  1.
</event>
<event>
 5   0  0.4857514E-07  0.3682794E+04  0.7818609E-02  0.8071786E-01
       -2   -1    0    0    0  501  0.00000000000E+00  0.00000000000E+00  0.13446276802E+04  0.13446276802E+04  0.25500000920E-02 0. -1.
        2   -1    0    0  501    0  0.00000000000E+00  0.00000000000E+00 -0.25216964061E+04  0.25216964061E+04  0.25500000920E-02 0.  1.
    10030    2    1    2    0    0  0.00000000000E+00  0.00000000000E+00 -0.11770687259E+04  0.38663240863E+04  0.36827939332E+04 0.  0.
        5    1    3    3  502    0 -0.11239242892E+04  0.11754931647E+04 -0.14951262958E+04  0.22091660685E+04  0.46999998093E+01 0.  1.
       -5    1    3    3    0  502  0.11239242892E+04 -0.11754931647E+04  0.31805756984E+03  0.16571580178E+04  0.46999998093E+01 0. -1.
</event>
<event>
 5   0  0.1496000E-07  0.3661289E+04  0.7818609E-02  0.8076595E-01
       -1   -1    0    0    0  501  0.00000000000E+00  0.00000000000E+00  0.15236578933E+04  0.15236578933E+04  0.50400001928E-02 0. -1.
        1   -1    0    0  501    0  0.00000000000E+00  0.00000000000E+00 -0.21994825251E+04  0.21994825251E+04  0.50400001928E-02 0.  1.
    10030    2    1    2    0    0  0.00000000000E+00  0.00000000000E+00 -0.67582463180E+03  0.37231404183E+04  0.36612887952E+04 0.  0.
        5    1    3    3  502    0  0.52061532317E+03  0.17549836231E+04 -0.32252431289E+03  0.18587769781E+04  0.46999998093E+01 0. -1.
       -5    1    3    3    0  502 -0.52061532317E+03 -0.17549836231E+04 -0.35330031891E+03  0.18643634402E+04  0.46999998093E+01 0.  1.
</event>
<event>
 5   0  0.4793557E-07  0.3691513E+04  0.7818609E-02  0.8069845E-01
       -2   -1    0    0    0  501  0.00000000000E+00  0.00000000000E+00  0.16769056941E+04  0.16769056941E+04  0.25500000920E-02 0. -1.
        2   -1    0    0  501    0  0.00000000000E+00  0.00000000000E+00 -0.20316088839E+04  0.20316088839E+04  0.25500000920E-02 0.  1.
    10030    2    1    2    0    0  0.00000000000E+00  0.00000000000E+00 -0.35470318979E+03  0.37085145781E+04  0.36915127012E+04 0.  0.
        3    1    3    3  502    0  0.18177497913E+04 -0.25006365247E+03  0.23746174756E+02  0.18350231674E+04  0.10100000352E+00 0. -1.
       -3    1    3    3    0  502 -0.18177497913E+04  0.25006365247E+03 -0.37844936454E+03  0.18734914106E+04  0.10100000352E+00 0.  1.
</event>
<event>
 5   0  0.4824268E-07  0.3677568E+04  0.7818609E-02  0.8072951E-01
       -2   -1    0    0    0  501  0.00000000000E+00  0.00000000000E+00  0.18215458507E+04  0.18215458507E+04  0.25500000920E-02 0.  1.
        2   -1    0    0  501    0  0.00000000000E+00  0.00000000000E+00 -0.18561857161E+04  0.18561857161E+04  0.25500000920E-02 0. -1.
    10030    2    1    2    0    0  0.00000000000E+00  0.00000000000E+00 -0.34639865362E+02  0.36777315668E+04  0.36775684299E+04 0.  0.
        1    1    3    3  502    0  0.13801513261E+04 -0.35121607188E+03  0.11458984536E+04  0.18279096471E+04  0.50400001928E-02 0.  1.
       -1    1    3    3    0  502 -0.13801513261E+04  0.35121607188E+03 -0.11805383189E+04  0.18498219197E+04  0.50400001928E-02 0. -1.
</event>
<event>
 5   0  0.1496000E-07  0.3750990E+04  0.7818609E-02  0.8056755E-01
       -1   -1    0    0    0  501  0.00000000000E+00  0.00000000000E+00  0.14032305926E+04  0.14032305926E+04  0.50400001928E-02 0.  1.
        1   -1    0    0  501    0  0.00000000000E+00  0.00000000000E+00 -0.25067020573E+04  0.25067020573E+04  0.50400001928E-02 0. -1.
    10030    2    1    2    0    0  0.00000000000E+00  0.00000000000E+00 -0.11034714648E+04  0.39099326499E+04  0.37509897432E+04 0.  0.
        2    1    3    3  502    0  0.13886447549E+04 -0.38695544012E+03  0.69885727629E+03  0.16020206805E+04  0.25500000920E-02 0.  1.
       -2    1    3    3    0  502 -0.13886447549E+04  0.38695544012E+03 -0.18023287410E+04  0.23079119695E+04  0.25500000920E-02 0. -1.
</event>
<event>
 5   0  0.1496000E-07  0.3725438E+04  0.7818609E-02  0.8062348E-01
        1   -1    0    0  501    0  0.00000000000E+00  0.00000000000E+00  0.23531421792E+04  0.23531421792E+04  0.50400001928E-02 0. -1.
       -1   -1    0    0    0  501  0.00000000000E+00  0.00000000000E+00 -0.14745061973E+04  0.14745061973E+04  0.50400001928E-02 0.  1.
    10030    2    1    2    0    0  0.00000000000E+00  0.00000000000E+00  0.87863598183E+03  0.38276483765E+04  0.37254383508E+04 0.  0.
        2    1    3    3  502    0  0.17526039047E+04 -0.30001186701E+03 -0.13097376215E+03  0.17829138211E+04  0.25500000920E-02 0.  1.
       -2    1    3    3    0  502 -0.17526039047E+04  0.30001186701E+03  0.10096097440E+04  0.20447345554E+04  0.25500000920E-02 0. -1.
</event>
<event>
 5   0  0.4793557E-07  0.3668065E+04  0.7818609E-02  0.8075076E-01
       -2   -1    0    0    0  501  0.00000000000E+00  0.00000000000E+00  0.14610451387E+04  0.14610451387E+04  0.25500000920E-02 0. -1.
        2   -1    0    0  501    0  0.00000000000E+00  0.00000000000E+00 -0.23022393254E+04  0.23022393254E+04  0.25500000920E-02 0.  1.
    10030    2    1    2    0    0  0.00000000000E+00  0.00000000000E+00 -0.84119418664E+03  0.37632844641E+04  0.36680651982E+04 0.  0.
        3    1    3    3  502    0 -0.75019542462E+03 -0.13858153363E+04  0.54205549907E+03  0.16664637697E+04  0.10100000352E+00 0. -1.
       -3    1    3    3    0  502  0.75019542462E+03  0.13858153363E+04 -0.13832496857E+04  0.20968206944E+04  0.10100000352E+00 0.  1.
</event>
<event>
 5   0  0.4857514E-07  0.3830412E+04  0.7818609E-02  0.8039660E-01
        2   -1    0    0  501    0  0.00000000000E+00  0.00000000000E+00  0.25050217124E+04  0.25050217124E+04  0.25500000920E-02 0.  1.
       -2   -1    0    0    0  501  0.00000000000E+00  0.00000000000E+00 -0.14642640244E+04  0.14642640244E+04  0.25500000920E-02 0. -1.
    10030    2    1    2    0    0  0.00000000000E+00  0.00000000000E+00  0.10407576880E+04  0.39692857368E+04  0.38304115569E+04 0.  0.
        5    1    3    3  502    0  0.67801162099E+03  0.12499933549E+04  0.18497813739E+04  0.23332158851E+04  0.46999998093E+01 0.  1.
       -5    1    3    3    0  502 -0.67801162099E+03 -0.12499933549E+04 -0.80902368585E+03  0.16360698517E+04  0.46999998093E+01 0. -1.
</event>
<event>
 5   0  0.1522273E-07  0.3711733E+04  0.7818609E-02  0.8065367E-01
       -1   -1    0    0    0  501  0.00000000000E+00  0.00000000000E+00  0.18404406545E+04  0.18404406545E+04  0.50400001928E-02 0. -1.
        1   -1    0    0  501    0  0.00000000000E+00  0.00000000000E+00 -0.18714211359E+04  0.18714211359E+04  0.50400001928E-02 0.  1.
    10030    2    1    2    0    0  0.00000000000E+00  0.00000000000E+00 -0.30980481448E+02  0.37118617904E+04  0.37117325012E+04 0.  0.
        4    1    3    3  502    0  0.25116898264E+03 -0.17288637162E+04  0.61077618997E+03  0.18507038591E+04  0.12699999809E+01 0. -1.
       -4    1    3    3    0  502 -0.25116898264E+03  0.17288637162E+04 -0.64175667141E+03  0.18611579313E+04  0.12699999809E+01 0.  1.
</event>
<event>
 5   0  0.1522273E-07  0.3660367E+04  0.7818609E-02  0.8076802E-01
        1   -1    0    0  501    0  0.00000000000E+00  0.00000000000E+00  0.25926148274E+04  0.25926148274E+04  0.50400001928E-02 0.  1.
       -1   -1    0    0    0  501  0.00000000000E+00  0.00000000000E+00 -0.12919668911E+04  0.12919668911E+04  0.50400001928E-02 0. -1.
    10030    2    1    2    0    0  0.00000000000E+00  0.00000000000E+00  0.13006479362E+04  0.38845817185E+04  0.36603674780E+04 0.  0.
        4    1    3    3  502    0 -0.12186950731E+04 -0.80058597698E+03  0.18241575523E+04  0.23353175322E+04  0.12699999809E+01 0.  1.
       -4    1    3    3    0  502  0.12186950731E+04  0.80058597698E+03 -0.52350961609E+03  0.15492641863E+04  0.12699999809E+01 0. -1.
</event>
<event>
 5   0  0.1496287E-07  0.3726979E+04  0.7818609E-02  0.8062009E-01
        1   -1    0    0  501    0  0.00000000000E+00  0.00000000000E+00  0.28272142942E+04  0.28272142942E+04  0.50400001928E-02 0.  1.
       -1   -1    0    0    0  501  0.00000000000E+00  0.00000000000E+00 -0.12282740532E+04  0.12282740533E+04  0.50400001928E-02 0. -1.
    10030    2    1    2    0    0  0.00000000000E+00  0.00000000000E+00  0.15989402410E+04  0.40554883475E+04  0.37269794529E+04 0.  0.
        1    1    3    3  502    0 -0.12306185529E+04 -0.44519556497E+03  0.22430444253E+04  0.25968961103E+04  0.50400001928E-02 0.  1.
       -1    1    3    3    0  502  0.12306185529E+04  0.44519556497E+03 -0.64410418437E+03  0.14585922371E+04  0.50400001928E-02 0. -1.
</event>
<event>
 5   0  0.1496287E-07  0.3605267E+04  0.7818609E-02  0.8089286E-01
       -1   -1    0    0    0  501  0.00000000000E+00  0.00000000000E+00  0.14442190199E+04  0.14442190199E+04  0.50400001928E-02 0.  1.
        1   -1    0    0  501    0  0.00000000000E+00  0.00000000000E+00 -0.22499965066E+04  0.22499965066E+04  0.50400001928E-02 0. -1.
    10030    2    1    2    0    0  0.00000000000E+00  0.00000000000E+00 -0.80577748663E+03  0.36942155265E+04  0.36052671189E+04 0.  0.
        1    1    3    3  502    0 -0.13844591325E+04  0.67376540299E+03 -0.13634609437E+04  0.20566265225E+04  0.50400001928E-02 0. -1.
       -1    1    3    3    0  502  0.13844591325E+04 -0.67376540299E+03  0.55768345711E+03  0.16375890040E+04  0.50400001928E-02 0.  1.
</event>
<event>
 5   0  0.1496000E-07  0.3722429E+04  0.7818609E-02  0.8063009E-01
        1   -1    0    0  501    0  0.00000000000E+00  0.00000000000E+00  0.19694410174E+04  0.19694410174E+04  0.50400001928E-02 0. -1.
       -1   -1    0    0    0  501  0.00000000000E+00  0.00000000000E+00 -0.17589353213E+04  0.17589353213E+04  0.50400001928E-02 0.  1.
    10030    2    1    2    0    0  0.00000000000E+00  0.00000000000E+00  0.21050569602E+03  0.37283763387E+04  0.37224289751E+04 0.  0.
        2    1    3    3  502    0  0.89249125546E+03  0.43079935051E+03  0.16832034137E+04  0.19532799219E+04  0.25500000920E-02 0. -1.
       -2    1    3    3    0  502 -0.89249125546E+03 -0.43079935051E+03 -0.14726977176E+04  0.17750964168E+04  0.25500000920E-02 0.  1.
</event>
<event>
 5   0  0.1496000E-07  0.3701167E+04  0.7818609E-02  0.8067703E-01
        1   -1    0    0  501    0  0.00000000000E+00  0.00000000000E+00  0.16642620557E+04  0.16642620557E+04  0.50400001928E-02 0.  1.
       -1   -1    0    0    0  501  0.00000000000E+00  0.00000000000E+00 -0.20577648041E+04  0.20577648041E+04  0.50400001928E-02 0. -1.
    10030    2    1    2    0    0  0.00000000000E+00  0.00000000000E+00 -0.39350274841E+03  0.37220268598E+04  0.37011673202E+04 0.  0.
        5    1    3    3  502    0 -0.58102764815E+03 -0.15077692582E+04  0.71037266980E+03  0.17651098220E+04  0.46999998093E+01 0.  1.
       -5    1    3    3    0  502  0.58102764815E+03  0.15077692582E+04 -0.11038754182E+04  0.19569170378E+04  0.46999998093E+01 0. -1.
</event>
<event>
 5   0  0.1496000E-07  0.3696326E+04  0.7818609E-02  0.8068776E-01
        1   -1    0    0  501    0  0.00000000000E+00  0.00000000000E+00  0.14118508777E+04  0.14118508777E+04  0.50400001928E-02 0.  1.
       -1   -1    0    0    0  501  0.00000000000E+00  0.00000000000E+00 -0.24193111744E+04  0.24193111744E+04  0.50400001928E-02 0. -1.
    10030    2    1    2    0    0  0.00000000000E+00  0.00000000000E+00 -0.10074602967E+04  0.38311620521E+04  0.36963260706E+04 0.  0.
        2    1    3    3  502    0  0.16367093355E+03 -0.18391674704E+04 -0.42093215675E+03  0.18938080788E+04  0.25500000920E-02 0. -1.
       -2    1    3    3    0  502 -0.16367093355E+03  0.18391674704E+04 -0.58652813994E+03  0.19373539733E+04  0.25500000920E-02 0.  1.
</event>
<event>
 5   0  0.4824268E-07  0.3043173E+04  0.7818609E-02  0.8231509E-01
       -2   -1    0    0    0  501  0.00000000000E+00  0.00000000000E+00  0.10794617549E+04  0.10794617549E+04  0.25500000920E-02 0. -1.
        2   -1    0    0  501    0  0.00000000000E+00  0.00000000000E+00 -0.21447959970E+04  0.21447959970E+04  0.25500000920E-02 0.  1.
    10030    2    1    2    0    0  0.00000000000E+00  0.00000000000E+00 -0.10653342421E+04  0.32242577519E+04  0.30431728513E+04 0.  0.
        1    1    3    3  502    0 -0.14863552407E+04 -0.18751391170E+03 -0.25072744197E+03  0.15189725536E+04  0.50400001928E-02 0. -1.
       -1    1    3    3    0  502  0.14863552407E+04  0.18751391170E+03 -0.81460680014E+03  0.17052851982E+04  0.50400001928E-02 0.  1.
</event>
<event>
 5   0  0.4824268E-07  0.3619789E+04  0.7818609E-02  0.8085974E-01
        2   -1    0    0  501    0  0.00000000000E+00  0.00000000000E+00  0.22466957307E+04  0.22466957307E+04  0.25500000920E-02 0. -1.
       -2   -1    0    0    0  501  0.00000000000E+00  0.00000000000E+00 -0.14580156422E+04  0.14580156422E+04  0.25500000920E-02 0.  1.
    10030    2    1    2    0    0  0.00000000000E+00  0.00000000000E+00  0.78868008845E+03  0.37047113729E+04  0.36197886781E+04 0.  0.
        1    1    3    3  502    0  0.86358945280E+03  0.15086559934E+04 -0.12135402471E+03  0.17425717916E+04  0.50400001928E-02 0. -1.
       -1    1    3    3    0  502 -0.86358945280E+03 -0.15086559934E+04  0.91003411317E+03  0.19621395813E+04  0.50400001928E-02 0.  1.
</event>
<event>
 5   0  0.4758908E-07  0.3634310E+04  0.7818609E-02  0.8082677E-01
        2   -1    0    0  501    0  0.00000000000E+00  0.00000000000E+00  0.24207083898E+04  0.24207083898E+04  0.25500000920E-02 0. -1.
       -2   -1    0    0    0  501  0.00000000000E+00  0.00000000000E+00 -0.13640851892E+04  0.13640851892E+04  0.25500000920E-02 0.  1.
    10030    2    1    2    0    0  0.00000000000E+00  0.00000000000E+00  0.10566232007E+04  0.37847935790E+04  0.36343100924E+04 0.  0.
        2    1    3    3  502    0  0.65702650529E+03 -0.18315944045E+02 -0.12359528180E+04  0.13998566608E+04  0.25500000920E-02 0.  1.
       -2    1    3    3    0  502 -0.65702650529E+03  0.18315944045E+02  0.22925760187E+04  0.23849369182E+04  0.25500000920E-02 0. -1.
</event>
<event>
 5   0  0.1522273E-07  0.3646656E+04  0.7818609E-02  0.8079887E-01
        1   -1    0    0  501    0  0.00000000000E+00  0.00000000000E+00  0.15465065389E+04  0.15465065389E+04  0.50400001928E-02 0. -1.
       -1   -1    0    0    0  501  0.00000000000E+00  0.00000000000E+00 -0.21496997919E+04  0.21496997919E+04  0.50400001928E-02 0.  1.
    10030    2    1    2    0    0  0.00000000000E+00  0.00000000000E+00 -0.60319325301E+03  0.36962063308E+04  0.36466558844E+04 0.  0.
        4    1    3    3  502    0  0.16737677314E+04 -0.22073602252E+03  0.39645597695E+03  0.17341861967E+04  0.12699999809E+01 0.  1.
       -4    1    3    3    0  502 -0.16737677314E+04  0.22073602252E+03 -0.99964922997E+03  0.19620201340E+04  0.12699999809E+01 0. -1.
</event>
<event>
 5   0  0.1522273E-07  0.3714617E+04  0.7818609E-02  0.8064730E-01
        1   -1    0    0  501    0  0.00000000000E+00  0.00000000000E+00  0.12848373833E+04  0.12848373833E+04  0.50400001928E-02 0. -1.
       -1   -1    0    0    0  501  0.00000000000E+00  0.00000000000E+00 -0.26848496209E+04  0.26848496209E+04  0.50400001928E-02 0.  1.
    10030    2    1    2    0    0  0.00000000000E+00  0.00000000000E+00 -0.14000122375E+04  0.39696870042E+04  0.37146171601E+04 0.  0.
        4    1    3    3  502    0  0.14917388062E+04 -0.93356021195E+03 -0.13347384506E+04  0.22086981866E+04  0.12699999809E+01 0.  1.
       -4    1    3    3    0  502 -0.14917388062E+04  0.93356021195E+03 -0.65273786984E+02  0.17609888176E+04  0.12699999809E+01 0. -1.
</event>
<event>
 5   0  0.1496287E-07  0.3680025E+04  0.7818609E-02  0.8072403E-01
       -1   -1    0    0    0  501  0.00000000000E+00  0.00000000000E+00  0.29385812211E+04  0.29385812211E+04  0.50400001928E-02 0. -1.
        1   -1    0    0  501    0  0.00000000000E+00  0.00000000000E+00 -0.11521360839E+04  0.11521360839E+04  0.50400001928E-02 0.  1.
    10030    2    1    2    0    0  0.00000000000E+00  0.00000000000E+00  0.17864451372E+04  0.40907173049E+04  0.36800247065E+04 0.  0.
        1    1    3    3  502    0 -0.12835123987E+04 -0.10726662813E+04  0.17453413422E+04  0.24174849389E+04  0.50400001928E-02 0. -1.
       -1    1    3    3    0  502  0.12835123987E+04  0.10726662813E+04  0.41103794973E+02  0.16732323660E+04  0.50400001928E-02 0.  1.
</event>
<event>
 5   0  0.1496000E-07  0.3670460E+04  0.7818609E-02  0.8074540E-01
        1   -1    0    0  501    0  0.00000000000E+00  0.00000000000E+00  0.12613196872E+04  0.12613196873E+04  0.50400001928E-02 0.  1.
       -1   -1    0    0    0  501  0.00000000000E+00  0.00000000000E+00 -0.26702743699E+04  0.26702743699E+04  0.50400001928E-02 0. -1.
    10030    2    1    2    0    0  0.00000000000E+00  0.00000000000E+00 -0.14089546827E+04  0.39315940572E+04  0.36704602617E+04 0.  0.
        2    1    3    3  502    0  0.10329563190E+04 -0.71530288764E+03 -0.21373361425E+04  0.24792867450E+04  0.25500000920E-02 0. -1.
       -2    1    3    3    0  502 -0.10329563190E+04  0.71530288764E+03  0.72838145984E+03  0.14523073122E+04  0.25500000920E-02 0.  1.
</event>
<event>
 5   0  0.1496000E-07  0.3640602E+04  0.7818609E-02  0.8081254E-01
       -1   -1    0    0    0  501  0.00000000000E+00  0.00000000000E+00  0.17048953105E+04  0.17048953105E+04  0.50400001928E-02 0.  1.
        1   -1    0    0  501    0  0.00000000000E+00  0.00000000000E+00 -0.19435184727E+04  0.19435184727E+04  0.50400001928E-02 0. -1.
    10030    2    1    2    0    0  0.00000000000E+00  0.00000000000E+00 -0.23862316225E+03  0.36484137832E+04  0.36406018898E+04 0.  0.
        2    1    3    3  502    0  0.45527960512E+03 -0.14514149240E+04 -0.11212622790E+04  0.18897391087E+04  0.25500000920E-02 0. -1.
       -2    1    3    3    0  502 -0.45527960512E+03  0.14514149240E+04  0.88263911675E+03  0.17586746746E+04  0.25500000920E-02 0.  1.
</event>
<event>
 5   0  0.4793557E-07  0.3681686E+04  0.7818609E-02  0.8072033E-01
       -2   -1    0    0    0  501  0.00000000000E+00  0.00000000000E+00  0.11697304131E+04  0.11697304131E+04  0.25500000920E-02 0. -1.
        2   -1    0    0  501    0  0.00000000000E+00  0.00000000000E+00 -0.28969946494E+04  0.28969946494E+04  0.25500000920E-02 0.  1.
    10030    2    1    2    0    0  0.00000000000E+00  0.00000000000E+00 -0.17272642362E+04  0.40667250625E+04  0.36816858900E+04 0.  0.
        3    1    3    3  502    0  0.10630734515E+02 -0.13035549321E+04  0.57204201130E+03  0.14235872107E+04  0.10100000352E+00 0. -1.
       -3    1    3    3    0  502 -0.10630734515E+02  0.13035549321E+04 -0.22993062475E+04  0.26431378518E+04  0.10100000352E+00 0.  1.
</event>
<event>
 5   0  0.4824268E-07  0.3296948E+04  0.7818609E-02  0.8163672E-01
        2   -1    0    0  501    0  0.00000000000E+00  0.00000000000E+00  0.21739606098E+04  0.21739606098E+04  0.25500000920E-02 0. -1.
       -2   -1    0    0    0  501  0.00000000000E+00  0.00000000000E+00 -0.12500075330E+04  0.12500075330E+04  0.25500000920E-02 0.  1.
    10030    2    1    2    0    0  0.00000000000E+00  0.00000000000E+00  0.92395307676E+03  0.34239681427E+04  0.32969483700E+04 0.  0.
        1    1    3    3  502    0  0.31416485598E+03  0.15654307259E+04  0.36061368829E+02  0.15970514508E+04  0.50400001928E-02 0.  1.
       -1    1    3    3    0  502 -0.31416485598E+03 -0.15654307259E+04  0.88789170793E+03  0.18269166919E+04  0.50400001928E-02 0. -1.
</event>
<event>
 5   0  0.4793557E-07  0.3657432E+04  0.7818609E-02  0.8077461E-01
        2   -1    0    0  501    0  0.00000000000E+00  0.00000000000E+00  0.25769301175E+04  0.25769301175E+04  0.25500000920E-02 0. -1.
       -2   -1    0    0    0  501  0.00000000000E+00  0.00000000000E+00 -0.12977468876E+04  0.12977468876E+04  0.25500000920E-02 0.  1.
    10030    2    1    2    0    0  0.00000000000E+00  0.00000000000E+00  0.12791832299E+04  0.38746770050E+04  0.36574324543E+04 0.  0.
        3    1    3    3  502    0  0.51511959803E+03  0.16793554560E+04  0.11783453736E+04  0.21152023018E+04  0.10100000352E+00 0. -1.
       -3    1    3    3    0  502 -0.51511959803E+03 -0.16793554560E+04  0.10083785633E+03  0.17594747032E+04  0.10100000352E+00 0.  1.
</event>
<event>
 5   0  0.1496287E-07  0.3637702E+04  0.7818609E-02  0.8081910E-01
       -1   -1    0    0    0  501  0.00000000000E+00  0.00000000000E+00  0.19143668989E+04  0.19143668989E+04  0.50400001928E-02 0. -1.
        1   -1    0    0  501    0  0.00000000000E+00  0.00000000000E+00 -0.17281007798E+04  0.17281007798E+04  0.50400001928E-02 0.  1.
    10030    2    1    2    0    0  0.00000000000E+00  0.00000000000E+00  0.18626611912E+03  0.36424676787E+04  0.36377019839E+04 0.  0.
        1    1    3    3  502    0  0.10892409379E+03 -0.11176296077E+04 -0.13395658646E+04  0.17479694230E+04  0.50400001928E-02 0.  1.
       -1    1    3    3    0  502 -0.10892409379E+03  0.11176296077E+04  0.15258319838E+04  0.18944982557E+04  0.50400001928E-02 0. -1.
</event>
<event>
 5   0  0.4758908E-07  0.3696676E+04  0.7818609E-02  0.8068699E-01
        2   -1    0    0  501    0  0.00000000000E+00  0.00000000000E+00  0.18337613615E+04  0.18337613615E+04  0.25500000920E-02 0. -1.
       -2   -1    0    0    0  501  0.00000000000E+00  0.00000000000E+00 -0.18630308545E+04  0.18630308545E+04  0.25500000920E-02 0.  1.
    10030    2    1    2    0    0  0.00000000000E+00  0.00000000000E+00 -0.29269492982E+02  0.36967922160E+04  0.36966763430E+04 0.  0.
        2    1    3    3  502    0 -0.26335485312E+03 -0.83400095857E+03 -0.16430102686E+04  0.18612888331E+04  0.25500000920E-02 0.  1.
       -2    1    3    3    0  502  0.26335485312E+03  0.83400095857E+03  0.16137407756E+04  0.18355033829E+04  0.25500000920E-02 0. -1.
</event>
<event>
 5   0  0.4758908E-07  0.3742814E+04  0.7818609E-02  0.8058539E-01
       -2   -1    0    0    0  501  0.00000000000E+00  0.00000000000E+00  0.14878110503E+04  0.14878110503E+04  0.25500000920E-02 0.  1.
        2   -1    0    0  501    0  0.00000000000E+00  0.00000000000E+00 -0.23539039340E+04  0.23539039340E+04  0.25500000920E-02 0. -1.
    10030    2    1    2    0    0  0.00000000000E+00  0.00000000000E+00 -0.86609288374E+03  0.38417149843E+04  0.37428140667E+04 0.  0.
        2    1    3    3  502    0 -0.34266587960E+01 -0.12020497490E+03 -0.23499340729E+04  0.23530089513E+04  0.25500000920E-02 0. -1.
       -2    1    3    3    0  502  0.34266587960E+01  0.12020497490E+03  0.14838411892E+04  0.14887060330E+04  0.25500000920E-02 0.  1.
</event>
<event>
 5   0  0.1496287E-07  0.3692886E+04  0.7818609E-02  0.8069540E-01
        1   -1    0    0  501    0  0.00000000000E+00  0.00000000000E+00  0.19533517024E+04  0.19533517024E+04  0.50400001928E-02 0. -1.
       -1   -1    0    0    0  501  0.00000000000E+00  0.00000000000E+00 -0.17453855548E+04  0.17453855548E+04  0.50400001928E-02 0.  1.
    10030    2    1    2    0    0  0.00000000000E+00  0.00000000000E+00  0.20796614762E+03  0.36987372573E+04  0.36928860502E+04 0.  0.
        1    1    3    3  502    0 -0.11754471329E+03  0.12221191436E+04 -0.12773176878E+04  0.17717032585E+04  0.50400001928E-02 0.  1.
       -1    1    3    3    0  502  0.11754471329E+03 -0.12221191436E+04  0.14852838354E+04  0.19270339988E+04  0.50400001928E-02 0. -1.
</event>
<event>
 5   0  0.1522273E-07  0.3662540E+04  0.7818609E-02  0.8076314E-01
        1   -1    0    0  501    0  0.00000000000E+00  0.00000000000E+00  0.14350257951E+04  0.14350257951E+04  0.50400001928E-02 0. -1.
       -1   -1    0    0    0  501  0.00000000000E+00  0.00000000000E+00 -0.23369264086E+04  0.23369264086E+04  0.50400001928E-02 0.  1.
    10030    2    1    2    0    0  0.00000000000E+00  0.00000000000E+00 -0.90190061350E+03  0.37719522037E+04  0.36625399261E+04 0.  0.
        4    1    3    3  502    0 -0.41021197791E+03  0.17411577169E+04 -0.85463438411E+03  0.19824998374E+04  0.12699999809E+01 0.  1.
       -4    1    3    3    0  502  0.41021197791E+03 -0.17411577169E+04 -0.47266229391E+02  0.17894523663E+04  0.12699999809E+01 0. -1.
</event>
<event>
 5   0  0.1496000E-07  0.3720217E+04  0.7818609E-02  0.8063496E-01
       -1   -1    0    0    0  501  0.00000000000E+00  0.00000000000E+00  0.11281209319E+04  0.11281209320E+04  0.50400001928E-02 0. -1.
        1   -1    0    0  501    0  0.00000000000E+00  0.00000000000E+00 -0.30670503153E+04  0.30670503153E+04  0.50400001928E-02 0.  1.
    10030    2    1    2    0    0  0.00000000000E+00  0.00000000000E+00 -0.19389293834E+04  0.41951712473E+04  0.37202170152E+04 0.  0.
        5    1    3    3  502    0  0.93450751550E+03 -0.13069102127E+04  0.87578128340E+02  0.16090402789E+04  0.46999998093E+01 0. -1.
       -5    1    3    3    0  502 -0.93450751550E+03  0.13069102127E+04 -0.20265075117E+04  0.25861309684E+04  0.46999998093E+01 0.  1.
</event>
<event>
 5   0  0.4687817E-07  0.3828147E+04  0.7818609E-02  0.8040141E-01
       -2   -1    0    0    0  501  0.00000000000E+00  0.00000000000E+00  0.26768621127E+04  0.26768621127E+04  0.25500000920E-02 0.  1.
        2   -1    0    0  501    0  0.00000000000E+00  0.00000000000E+00 -0.13686463833E+04  0.13686463833E+04  0.25500000920E-02 0. -1.
    10030    2    1    2    0    0  0.00000000000E+00  0.00000000000E+00  0.13082157294E+04  0.40455084960E+04  0.38281471492E+04 0.  0.
        4    1    3    3  502    0 -0.11181420948E+04  0.37136391786E+03  0.22482429557E+04  0.25382574543E+04  0.12699999809E+01 0.  1.
       -4    1    3    3    0  502  0.11181420948E+04 -0.37136391786E+03 -0.94002722627E+03  0.15072510417E+04  0.12699999809E+01 0. -1.
</event>
<event>
 5   0  0.1496000E-07  0.3704138E+04  0.7818609E-02  0.8067046E-01
       -1   -1    0    0    0  501  0.00000000000E+00  0.00000000000E+00  0.17059517517E+04  0.17059517517E+04  0.50400001928E-02 0.  1.
        1   -1    0    0  501    0  0.00000000000E+00  0.00000000000E+00 -0.20107009310E+04  0.20107009310E+04  0.50400001928E-02 0. -1.
    10030    2    1    2    0    0  0.00000000000E+00  0.00000000000E+00 -0.30474917931E+03  0.37166526827E+04  0.37041375651E+04 0.  0.
        5    1    3    3  502    0  0.81355110882E+03 -0.10139729625E+04 -0.14759714621E+04  0.19668554655E+04  0.46999998093E+01 0. -1.
       -5    1    3    3    0  502 -0.81355110882E+03  0.10139729625E+04  0.11712222828E+04  0.17497972171E+04  0.46999998093E+01 0.  1.
</event>
<event>
 5   0  0.4824268E-07  0.3690688E+04  0.7818609E-02  0.8070029E-01
       -2   -1    0    0    0  501  0.00000000000E+00  0.00000000000E+00  0.17114752513E+04  0.17114752513E+04  0.25500000920E-02 0.  1.
        2   -1    0    0  501    0  0.00000000000E+00  0.00000000000E+00 -0.19896840484E+04  0.19896840484E+04  0.25500000920E-02 0. -1.
    10030    2    1    2    0    0  0.00000000000E+00  0.00000000000E+00 -0.27820879711E+03  0.37011592997E+04  0.36906882863E+04 0.  0.
        1    1    3    3  502    0  0.10387710474E+04 -0.22550929200E+03  0.13736166067E+04  0.17368714149E+04  0.50400001928E-02 0.  1.
       -1    1    3    3    0  502 -0.10387710474E+04  0.22550929200E+03 -0.16518254038E+04  0.19642878848E+04  0.50400001928E-02 0. -1.
</event>
<event>
 5   0  0.1496000E-07  0.3700923E+04  0.7818609E-02  0.8067757E-01
        1   -1    0    0  501    0  0.00000000000E+00  0.00000000000E+00  0.22353946923E+04  0.22353946923E+04  0.50400001928E-02 0.  1.
       -1   -1    0    0    0  501  0.00000000000E+00  0.00000000000E+00 -0.15318133096E+04  0.15318133096E+04  0.50400001928E-02 0. -1.
    10030    2    1    2    0    0  0.00000000000E+00  0.00000000000E+00  0.70358138271E+03  0.37672080020E+04  0.37009227725E+04 0.  0.
        5    1    3    3  502    0 -0.53842431665E+03  0.59426339118E+03 -0.13457517995E+04  0.15665630273E+04  0.46999998093E+01 0. -1.
       -5    1    3    3    0  502  0.53842431665E+03 -0.59426339118E+03  0.20493331822E+04  0.22006449746E+04  0.46999998093E+01 0.  1.
</event>
<event>
 5   0  0.1496000E-07  0.3677546E+04  0.7818609E-02  0.8072956E-01
        1   -1    0    0  501    0  0.00000000000E+00  0.00000000000E+00  0.20059835986E+04  0.20059835986E+04  0.50400001928E-02 0. -1.
       -1   -1    0    0    0  501  0.00000000000E+00  0.00000000000E+00 -0.16855003704E+04  0.16855003704E+04  0.50400001928E-02 0.  1.
    10030    2    1    2    0    0  0.00000000000E+00  0.00000000000E+00  0.32048322826E+03  0.36914839690E+04  0.36775459744E+04 0.  0.
        3    1    3    3  502    0  0.68666985665E+03 -0.76213064107E+02 -0.15502596409E+04  0.16972415525E+04  0.10100000352E+00 0.  1.
       -3    1    3    3    0  502 -0.68666985665E+03  0.76213064107E+02  0.18707428691E+04  0.19942424165E+04  0.10100000352E+00 0. -1.
</event>
<event>
 5   0  0.1496000E-07  0.3642598E+04  0.7818609E-02  0.8080803E-01
        1   -1    0    0  501    0  0.00000000000E+00  0.00000000000E+00  0.16606289435E+04  0.16606289435E+04  0.50400001928E-02 0. -1.
       -1   -1    0    0    0  501  0.00000000000E+00  0.00000000000E+00 -0.19975138912E+04  0.19975138912E+04  0.50400001928E-02 0.  1.
    10030    2    1    2    0    0  0.00000000000E+00  0.00000000000E+00 -0.33688494766E+03  0.36581428347E+04  0.36425976350E+04 0.  0.
        3    1    3    3  502    0 -0.20317751115E+03 -0.89603573134E+01  0.16491897960E+04  0.16616823952E+04  0.10100000352E+00 0. -1.
       -3    1    3    3    0  502  0.20317751115E+03  0.89603573134E+01 -0.19860747436E+04  0.19964604395E+04  0.10100000352E+00 0.  1.
</event>
<event>
 5   0  0.1496000E-07  0.3692078E+04  0.7818609E-02  0.8069720E-01
       -3   -1    0    0    0  501  0.00000000000E+00  0.00000000000E+00  0.17236857105E+04  0.17236857135E+04  0.10100000352E+00 0.  1.
        3   -1    0    0  501    0  0.00000000000E+00  0.00000000000E+00 -0.19770777116E+04  0.19770777142E+04  0.10100000352E+00 0. -1.
    10030    2    1    2    0    0  0.00000000000E+00  0.00000000000E+00 -0.25339200109E+03  0.37007634276E+04  0.36920783362E+04 0.  0.
        4    1    3    3  502    0  0.10602324194E+04 -0.19838411582E+03  0.13749636445E+04  0.17475627820E+04  0.12699999809E+01 0.  1.
       -4    1    3    3    0  502 -0.10602324194E+04  0.19838411582E+03 -0.16283556456E+04  0.19532006456E+04  0.12699999809E+01 0. -1.
</event>
<event>
 5   0  0.4687817E-07  0.3714366E+04  0.7818609E-02  0.8064786E-01
       -2   -1    0    0    0  501  0.00000000000E+00  0.00000000000E+00  0.18642702632E+04  0.18642702632E+04  0.25500000920E-02 0.  1.
        2   -1    0    0  501    0  0.00000000000E+00  0.00000000000E+00 -0.18501229505E+04  0.18501229505E+04  0.25500000920E-02 0. -1.
    10030    2    1    2    0    0  0.00000000000E+00  0.00000000000E+00  0.14147312687E+02  0.37143932137E+04  0.37143662716E+04 0.  0.
        4    1    3    3  502    0  0.75777722258E+03  0.15695742725E+03  0.16953588760E+04  0.18636269166E+04  0.12699999809E+01 0.  1.
       -4    1    3    3    0  502 -0.75777722258E+03 -0.15695742725E+03 -0.16812115633E+04  0.18507662971E+04  0.12699999809E+01 0. -1.
</event>
<event>
 5   0  0.4793557E-07  0.3685495E+04  0.7818609E-02  0.8071184E-01
       -2   -1    0    0    0  501  0.00000000000E+00  0.00000000000E+00  0.12199927458E+04  0.12199927458E+04  0.25500000920E-02 0.  1.
        2   -1    0    0  501    0  0.00000000000E+00  0.00000000000E+00 -0.27833921460E+04  0.27833921460E+04  0.25500000920E-02 0. -1.
    10030    2    1    2    0    0  0.00000000000E+00  0.00000000000E+00 -0.15633994002E+04  0.40033848919E+04  0.36854949339E+04 0.  0.
        3    1    3    3  502    0  0.14521395672E+04 -0.10838911539E+04 -0.41786309018E+03  0.18596071973E+04  0.10100000352E+00 0.  1.
       -3    1    3    3    0  502 -0.14521395672E+04  0.10838911539E+04 -0.11455363100E+04  0.21437776946E+04  0.10100000352E+00 0. -1.
</event>
<event>
 5   0  0.4758908E-07  0.3606237E+04  0.7818609E-02  0.8089065E-01
        2   -1    0    0  501    0  0.00000000000E+00  0.00000000000E+00  0.16488006557E+04  0.16488006557E+04  0.25500000920E-02 0. -1.
       -2   -1    0    0    0  501  0.00000000000E+00  0.00000000000E+00 -0.19718792711E+04  0.19718792711E+04  0.25500000920E-02 0.  1.
    10030    2    1    2    0    0  0.00000000000E+00  0.00000000000E+00 -0.32307861539E+03  0.36206799268E+04  0.36062367283E+04 0.  0.
        2    1    3    3  502    0  0.82586912363E+03 -0.76760982596E+03 -0.15742822394E+04  0.19364011009E+04  0.25500000920E-02 0.  1.
       -2    1    3    3    0  502 -0.82586912363E+03  0.76760982596E+03  0.12512036240E+04  0.16842788258E+04  0.25500000920E-02 0. -1.
</event>
<event>
 5   0  0.4824268E-07  0.3075209E+04  0.7818609E-02  0.8222575E-01
        2   -1    0    0  501    0  0.00000000000E+00  0.00000000000E+00  0.18502694548E+04  0.18502694548E+04  0.25500000920E-02 0.  1.
       -2   -1    0    0    0  501  0.00000000000E+00  0.00000000000E+00 -0.12777744371E+04  0.12777744371E+04  0.25500000920E-02 0. -1.
    10030    2    1    2    0    0  0.00000000000E+00  0.00000000000E+00  0.57249501765E+03  0.31280438919E+04  0.30752086181E+04 0.  0.
        1    1    3    3  502    0  0.92279855329E+03 -0.10870667396E+04 -0.29892406011E+03  0.14569237660E+04  0.50400001928E-02 0. -1.
       -1    1    3    3    0  502 -0.92279855329E+03  0.10870667396E+04  0.87141907775E+03  0.16711201259E+04  0.50400001928E-02 0.  1.
</event>
<event>
 5   0  0.4857514E-07  0.3658473E+04  0.7818609E-02  0.8077228E-01
        2   -1    0    0  501    0  0.00000000000E+00  0.00000000000E+00  0.29309465666E+04  0.29309465666E+04  0.25500000920E-02 0.  1.
       -2   -1    0    0    0  501  0.00000000000E+00  0.00000000000E+00 -0.11416466882E+04  0.11416466882E+04  0.25500000920E-02 0. -1.
    10030    2    1    2    0    0  0.00000000000E+00  0.00000000000E+00  0.17892998784E+04  0.40725932549E+04  0.36584726000E+04 0.  0.
        5    1    3    3  502    0  0.13698269897E+04 -0.76407785207E+03  0.19423801432E+04  0.24966184443E+04  0.46999998093E+01 0.  1.
       -5    1    3    3    0  502 -0.13698269897E+04  0.76407785207E+03 -0.15308026482E+03  0.15759748105E+04  0.46999998093E+01 0. -1.
</event>
<event>
 5   0  0.4793557E-07  0.3685054E+04  0.7818609E-02  0.8071282E-01
       -2   -1    0    0    0  501  0.00000000000E+00  0.00000000000E+00  0.18148979650E+04  0.18148979650E+04  0.25500000920E-02 0.  1.
        2   -1    0    0  501    0  0.00000000000E+00  0.00000000000E+00 -0.18705764849E+04  0.18705764849E+04  0.25500000920E-02 0. -1.
    10030    2    1    2    0    0  0.00000000000E+00  0.00000000000E+00 -0.55678519890E+02  0.36854744500E+04  0.36850538427E+04 0.  0.
        3    1    3    3  502    0 -0.94212201018E+03  0.19164689023E+03 -0.15998275053E+04  0.18664861289E+04  0.10100000352E+00 0. -1.
       -3    1    3    3    0  502  0.94212201018E+03 -0.19164689023E+03  0.15441489854E+04  0.18189883210E+04  0.10100000352E+00 0.  1.
</event>
<event>
 5   0  0.1496000E-07  0.3753183E+04  0.7818609E-02  0.8056277E-01
       -1   -1    0    0    0  501  0.00000000000E+00  0.00000000000E+00  0.31875993830E+04  0.31875993830E+04  0.50400001928E-02 0. -1.
        1   -1    0    0  501    0  0.00000000000E+00  0.00000000000E+00 -0.11047799931E+04  0.11047799931E+04  0.50400001928E-02 0.  1.
    10030    2    1    2    0    0  0.00000000000E+00  0.00000000000E+00  0.20828193899E+04  0.42923793761E+04  0.37531831953E+04 0.  0.
        3    1    3    3  502    0 -0.89297336366E+03  0.14443037725E+04  0.12777972133E+03  0.17028630253E+04  0.10100000352E+00 0.  1.
       -3    1    3    3    0  502  0.89297336366E+03 -0.14443037725E+04  0.19550396686E+04  0.25895163509E+04  0.10100000352E+00 0. -1.
</event>
<event>
 5   0  0.1496000E-07  0.3696339E+04  0.7818609E-02  0.8068774E-01
        1   -1    0    0  501    0  0.00000000000E+00  0.00000000000E+00  0.20411749670E+04  0.20411749670E+04  0.50400001928E-02 0. -1.
       -1   -1    0    0    0  501  0.00000000000E+00  0.00000000000E+00 -0.16734134890E+04  0.16734134890E+04  0.50400001928E-02 0.  1.
    10030    2    1    2    0    0  0.00000000000E+00  0.00000000000E+00  0.36776147801E+03  0.37145884560E+04  0.36963385793E+04 0.  0.
        3    1    3    3  502    0  0.17100355081E+04 -0.31014621331E+03 -0.44796641673E+03  0.17947384303E+04  0.10100000352E+00 0.  1.
       -3    1    3    3    0  502 -0.17100355081E+04  0.31014621331E+03  0.81572789475E+03  0.19198500257E+04  0.10100000352E+00 0. -1.
</event>
<event>
 5   0  0.1496000E-07  0.3705367E+04  0.7818609E-02  0.8066773E-01
       -1   -1    0    0    0  501  0.00000000000E+00  0.00000000000E+00  0.27479346267E+04  0.27479346267E+04  0.50400001928E-02 0. -1.
        1   -1    0    0  501    0  0.00000000000E+00  0.00000000000E+00 -0.12490969979E+04  0.12490969980E+04  0.50400001928E-02 0.  1.
    10030    2    1    2    0    0  0.00000000000E+00  0.00000000000E+00  0.14988376288E+04  0.39970316247E+04  0.37053674003E+04 0.  0.
        5    1    3    3  502    0  0.21857080548E+02  0.41310976060E+03 -0.11986315390E+04  0.12680209235E+04  0.46999998093E+01 0.  1.
       -5    1    3    3    0  502 -0.21857080548E+02 -0.41310976060E+03  0.26974691677E+04  0.27290107012E+04  0.46999998093E+01 0. -1.
</event>
<event>
 5   0  0.1496000E-07  0.3515829E+04  0.7818609E-02  0.8110049E-01
       -1   -1    0    0    0  501  0.00000000000E+00  0.00000000000E+00  0.13277340978E+04  0.13277340978E+04  0.50400001928E-02 0.  1.
        1   -1    0    0  501    0  0.00000000000E+00  0.00000000000E+00 -0.23274719835E+04  0.23274719835E+04  0.50400001928E-02 0. -1.
    10030    2    1    2    0    0  0.00000000000E+00  0.00000000000E+00 -0.99973788572E+03  0.36552060812E+04  0.35158292985E+04 0.  0.
        3    1    3    3  502    0  0.13699141915E+04 -0.48537277625E+03 -0.15280183764E+04  0.21088128871E+04  0.10100000352E+00 0. -1.
       -3    1    3    3    0  502 -0.13699141915E+04  0.48537277625E+03  0.52828049065E+03  0.15463931942E+04  0.10100000352E+00 0.  1.
</event>
<event>
 5   0  0.4758908E-07  0.3696441E+04  0.7818609E-02  0.8068751E-01
        2   -1    0    0  501    0  0.00000000000E+00  0.00000000000E+00  0.17725177851E+04  0.17725177851E+04  0.25500000920E-02 0.  1.
       -2   -1    0    0    0  501  0.00000000000E+00  0.00000000000E+00 -0.19271565512E+04  0.19271565512E+04  0.25500000920E-02 0. -1.
    10030    2    1    2    0    0  0.00000000000E+00  0.00000000000E+00 -0.15463876612E+03  0.36996743362E+04  0.36964411325E+04 0.  0.
        2    1    3    3  502    0  0.14653095667E+04  0.10427010849E+04 -0.50379252232E+03  0.18676628668E+04  0.25500000920E-02 0.  1.
       -2    1    3    3    0  502 -0.14653095667E+04 -0.10427010849E+04  0.34915375621E+03  0.18320114694E+04  0.25500000920E-02 0. -1.
</event>
<event>
 5   0  0.4793557E-07  0.3239708E+04  0.7818609E-02  0.8178408E-01
       -2   -1    0    0    0  501  0.00000000000E+00  0.00000000000E+00  0.29882537657E+04  0.29882537657E+04  0.25500000920E-02 0. -1.
        2   -1    0    0  501    0  0.00000000000E+00  0.00000000000E+00 -0.87808034908E+03  0.87808034908E+03  0.25500000920E-02 0.  1.
    10030    2    1    2    0    0  0.00000000000E+00  0.00000000000E+00  0.21101734166E+04  0.38663341148E+04  0.32397079558E+04 0.  0.
        3    1    3    3  502    0 -0.33592071444E+03  0.15806392544E+03  0.29367972293E+04  0.29601697429E+04  0.10100000352E+00 0. -1.
       -3    1    3    3    0  502  0.33592071444E+03 -0.15806392544E+03 -0.82662381267E+03  0.90616437184E+03  0.10100000352E+00 0.  1.
</event>
<event>
 5   0  0.1496000E-07  0.3726411E+04  0.7818609E-02  0.8062134E-01
       -1   -1    0    0    0  501  0.00000000000E+00  0.00000000000E+00  0.30263031417E+04  0.30263031417E+04  0.50400001928E-02 0. -1.
        1   -1    0    0  501    0  0.00000000000E+00  0.00000000000E+00 -0.11471204557E+04  0.11471204557E+04  0.50400001928E-02 0.  1.
    10030    2    1    2    0    0  0.00000000000E+00  0.00000000000E+00  0.18791826860E+04  0.41734235974E+04  0.37264107337E+04 0.  0.
        3    1    3    3  502    0 -0.15975494560E+04  0.85888869837E+03  0.14169617654E+04  0.23016591223E+04  0.10100000352E+00 0. -1.
       -3    1    3    3    0  502  0.15975494560E+04 -0.85888869837E+03  0.46222092067E+03  0.18717644751E+04  0.10100000352E+00 0.  1.
</event>
<event>
 5   0  0.1496000E-07  0.3693640E+04  0.7818609E-02  0.8069373E-01
        1   -1    0    0  501    0  0.00000000000E+00  0.00000000000E+00  0.29757963434E+04  0.29757963434E+04  0.50400001928E-02 0.  1.
       -1   -1    0    0    0  501  0.00000000000E+00  0.00000000000E+00 -0.11461617101E+04  0.11461617101E+04  0.50400001928E-02 0. -1.
    10030    2    1    2    0    0  0.00000000000E+00  0.00000000000E+00  0.18296346333E+04  0.41219580535E+04  0.36936398449E+04 0.  0.
        2    1    3    3  502    0  0.17459717015E+03  0.75437758296E+03 -0.95626499930E+03  0.12304521358E+04  0.25500000920E-02 0. -1.
       -2    1    3    3    0  502 -0.17459717015E+03 -0.75437758296E+03  0.27858996326E+04  0.28915059178E+04  0.25500000920E-02 0.  1.
</event>
<event>
 5   0  0.4758908E-07  0.3689353E+04  0.7818609E-02  0.8070325E-01
        2   -1    0    0  501    0  0.00000000000E+00  0.00000000000E+00  0.21883672123E+04  0.21883672123E+04  0.25500000920E-02 0.  1.
       -2   -1    0    0    0  501  0.00000000000E+00  0.00000000000E+00 -0.15549638037E+04  0.15549638037E+04  0.25500000920E-02 0. -1.
    10030    2    1    2    0    0  0.00000000000E+00  0.00000000000E+00  0.63340340868E+03  0.37433310160E+04  0.36893532248E+04 0.  0.
        2    1    3    3  502    0 -0.29481105291E+03 -0.48600750940E+03  0.20972889406E+04  0.21729559950E+04  0.25500000920E-02 0.  1.
       -2    1    3    3    0  502  0.29481105291E+03  0.48600750940E+03 -0.14638855319E+04  0.15703750210E+04  0.25500000920E-02 0. -1.
</event>
<event>
 5   0  0.1522273E-07  0.3722772E+04  0.7818609E-02  0.8062934E-01
        1   -1    0    0  501    0  0.00000000000E+00  0.00000000000E+00  0.22136136210E+04  0.22136136210E+04  0.50400001928E-02 0.  1.
       -1   -1    0    0    0  501  0.00000000000E+00  0.00000000000E+00 -0.15652046893E+04  0.15652046893E+04  0.50400001928E-02 0. -1.
    10030    2    1    2    0    0  0.00000000000E+00  0.00000000000E+00  0.64840893172E+03  0.37788183104E+04  0.37227723111E+04 0.  0.
        4    1    3    3  502    0 -0.16544700600E+04  0.62601155646E+03  0.91223161725E+03  0.19903089672E+04  0.12699999809E+01 0. -1.
       -4    1    3    3    0  502  0.16544700600E+04 -0.62601155646E+03 -0.26382268553E+03  0.17885093432E+04  0.12699999809E+01 0.  1.
</event>
<event>
 5   0  0.4824268E-07  0.3668602E+04  0.7818609E-02  0.8074956E-01
       -2   -1    0    0    0  501  0.00000000000E+00  0.00000000000E+00  0.13812212813E+04  0.13812212813E+04  0.25500000920E-02 0.  1.
        2   -1    0    0  501    0  0.00000000000E+00  0.00000000000E+00 -0.24360039581E+04  0.24360039581E+04  0.25500000920E-02 0. -1.
    10030    2    1    2    0    0  0.00000000000E+00  0.00000000000E+00 -0.10547826769E+04  0.38172252394E+04  0.36686021906E+04 0.  0.
        1    1    3    3  502    0  0.16236405457E+04 -0.80650341284E+03 -0.23678440714E+03  0.18283115796E+04  0.50400001928E-02 0.  1.
       -1    1    3    3    0  502 -0.16236405457E+04  0.80650341284E+03 -0.81799826974E+03  0.19889136598E+04  0.50400001928E-02 0. -1.
</event>
<event>
 5   0  0.1522273E-07  0.3650646E+04  0.7818609E-02  0.8078988E-01
       -1   -1    0    0    0  501  0.00000000000E+00  0.00000000000E+00  0.14333454248E+04  0.14333454248E+04  0.50400001928E-02 0. -1.
        1   -1    0    0  501    0  0.00000000000E+00  0.00000000000E+00 -0.23244953848E+04  0.23244953848E+04  0.50400001928E-02 0.  1.
    10030    2    1    2    0    0  0.00000000000E+00  0.00000000000E+00 -0.89114995999E+03  0.37578408096E+04  0.36506464221E+04 0.  0.
        4    1    3    3  502    0  0.16887625578E+04  0.20091479615E+03 -0.11280027362E+04  0.20407541541E+04  0.12699999809E+01 0.  1.
       -4    1    3    3    0  502 -0.16887625578E+04 -0.20091479615E+03  0.23685277618E+03  0.17170866555E+04  0.12699999809E+01 0. -1.
</event>
<event>
 5   0  0.1496000E-07  0.3648168E+04  0.7818609E-02  0.8079546E-01
        1   -1    0    0  501    0  0.00000000000E+00  0.00000000000E+00  0.20189436889E+04  0.20189436889E+04  0.50400001928E-02 0.  1.
       -1   -1    0    0    0  501  0.00000000000E+00  0.00000000000E+00 -0.16480314756E+04  0.16480314756E+04  0.50400001928E-02 0. -1.
    10030    2    1    2    0    0  0.00000000000E+00  0.00000000000E+00  0.37091221326E+03  0.36669751645E+04  0.36481681687E+04 0.  0.
        3    1    3    3  502    0  0.15151503644E+04 -0.25277956503E+03 -0.80333493245E+03  0.17334719955E+04  0.10100000352E+00 0. -1.
       -3    1    3    3    0  502 -0.15151503644E+04  0.25277956503E+03  0.11742471457E+04  0.19335031690E+04  0.10100000352E+00 0.  1.
</event>
<event>
 5   0  0.1496000E-07  0.3544956E+04  0.7818609E-02  0.8103218E-01
       -1   -1    0    0    0  501  0.00000000000E+00  0.00000000000E+00  0.20567234901E+04  0.20567234901E+04  0.50400001928E-02 0. -1.
        1   -1    0    0  501    0  0.00000000000E+00  0.00000000000E+00 -0.15275161735E+04  0.15275161735E+04  0.50400001928E-02 0.  1.
    10030    2    1    2    0    0  0.00000000000E+00  0.00000000000E+00  0.52920731657E+03  0.35842396637E+04  0.35449560763E+04 0.  0.
        2    1    3    3  502    0 -0.36068327332E+03  0.91121874632E+03  0.17578812040E+04  0.20125998993E+04  0.25500000920E-02 0. -1.
       -2    1    3    3    0  502  0.36068327332E+03 -0.91121874632E+03 -0.12286738874E+04  0.15716397644E+04  0.25500000920E-02 0.  1.
</event>
<event>
 5   0  0.4824268E-07  0.3706524E+04  0.7818609E-02  0.8066518E-01
        2   -1    0    0  501    0  0.00000000000E+00  0.00000000000E+00  0.20394432573E+04  0.20394432573E+04  0.25500000920E-02 0. -1.
       -2   -1    0    0    0  501  0.00000000000E+00  0.00000000000E+00 -0.16840772483E+04  0.16840772483E+04  0.25500000920E-02 0.  1.
    10030    2    1    2    0    0  0.00000000000E+00  0.00000000000E+00  0.35536600902E+03  0.37235205056E+04  0.37065239720E+04 0.  0.
        1    1    3    3  502    0  0.18515926771E+04 -0.32434456121E+02  0.24965336238E+03  0.18686289726E+04  0.50400001928E-02 0. -1.
       -1    1    3    3    0  502 -0.18515926771E+04  0.32434456121E+02  0.10571264664E+03  0.18548915330E+04  0.50400001928E-02 0.  1.
</event>
<event>
 5   0  0.4857514E-07  0.3701700E+04  0.7818609E-02  0.8067585E-01
        2   -1    0    0  501    0  0.00000000000E+00  0.00000000000E+00  0.27683534261E+04  0.27683534261E+04  0.25500000920E-02 0.  1.
       -2   -1    0    0    0  501  0.00000000000E+00  0.00000000000E+00 -0.12374307290E+04  0.12374307290E+04  0.25500000920E-02 0. -1.
    10030    2    1    2    0    0  0.00000000000E+00  0.00000000000E+00  0.15309226970E+04  0.40057841551E+04  0.37016999329E+04 0.  0.
        5    1    3    3  502    0  0.59099447527E+03  0.13318217525E+04 -0.46960943003E+03  0.15308751605E+04  0.46999998093E+01 0. -1.
       -5    1    3    3    0  502 -0.59099447527E+03 -0.13318217525E+04  0.20005321271E+04  0.24749089946E+04  0.46999998093E+01 0.  1.
</event>
<event>
 5   0  0.1496000E-07  0.3709809E+04  0.7818609E-02  0.8065791E-01
        1   -1    0    0  501    0  0.00000000000E+00  0.00000000000E+00  0.20173111693E+04  0.20173111693E+04  0.50400001928E-02 0.  1.
       -1   -1    0    0    0  501  0.00000000000E+00  0.00000000000E+00 -0.17055729211E+04  0.17055729211E+04  0.50400001928E-02 0. -1.
    10030    2    1    2    0    0  0.00000000000E+00  0.00000000000E+00  0.31173824826E+03  0.37228840904E+04  0.37098093233E+04 0.  0.
        5    1    3    3  502    0 -0.75945900802E+03 -0.16494776036E+04  0.53548113921E+03  0.18932291172E+04  0.46999998093E+01 0.  1.
       -5    1    3    3    0  502  0.75945900802E+03  0.16494776036E+04 -0.22374289095E+03  0.18296549732E+04  0.46999998093E+01 0. -1.
</event>
<event>
 5   0  0.4687817E-07  0.3691063E+04  0.7818609E-02  0.8069945E-01
       -2   -1    0    0    0  501  0.00000000000E+00  0.00000000000E+00  0.25944689394E+04  0.25944689394E+04  0.25500000920E-02 0.  1.
        2   -1    0    0  501    0  0.00000000000E+00  0.00000000000E+00 -0.13127875861E+04  0.13127875861E+04  0.25500000920E-02 0. -1.
    10030    2    1    2    0    0  0.00000000000E+00  0.00000000000E+00  0.12816813533E+04  0.39072565256E+04  0.36910630535E+04 0.  0.
        4    1    3    3  502    0  0.69582782350E+03  0.13795400518E+04  0.17092530298E+04  0.23040951906E+04  0.12699999809E+01 0.  1.
       -4    1    3    3    0  502 -0.69582782350E+03 -0.13795400518E+04 -0.42757167651E+03  0.16031613350E+04  0.12699999809E+01 0. -1.
</event>
<event>
 5   0  0.1496287E-07  0.3577131E+04  0.7818609E-02  0.8095750E-01
       -1   -1    0    0    0  501  0.00000000000E+00  0.00000000000E+00  0.17753047470E+04  0.17753047470E+04  0.50400001928E-02 0.  1.
        1   -1    0    0  501    0  0.00000000000E+00  0.00000000000E+00 -0.18019252380E+04  0.18019252380E+04  0.50400001928E-02 0. -1.
    10030    2    1    2    0    0  0.00000000000E+00  0.00000000000E+00 -0.26620490983E+02  0.35772299850E+04  0.35771309334E+04 0.  0.
        1    1    3    3  502    0  0.32821858147E+02 -0.79288634645E+03 -0.16162334135E+04  0.18005433845E+04  0.50400001928E-02 0. -1.
       -1    1    3    3    0  502 -0.32821858147E+02  0.79288634645E+03  0.15896129225E+04  0.17766866004E+04  0.50400001928E-02 0.  1.
</event>
<event>
 5   0  0.1496000E-07  0.3665021E+04  0.7818609E-02  0.8075758E-01
        1   -1    0    0  501    0  0.00000000000E+00  0.00000000000E+00  0.27745904471E+04  0.27745904471E+04  0.50400001928E-02 0.  1.
       -1   -1    0    0    0  501  0.00000000000E+00  0.00000000000E+00 -0.12103030360E+04  0.12103030360E+04  0.50400001928E-02 0. -1.
    10030    2    1    2    0    0  0.00000000000E+00  0.00000000000E+00  0.15642874112E+04  0.39848934831E+04  0.36650212778E+04 0.  0.
        5    1    3    3  502    0  0.48134109797E+03 -0.17078772867E+04  0.28443787815E+03  0.17970701365E+04  0.46999998093E+01 0.  1.
       -5    1    3    3    0  502 -0.48134109797E+03  0.17078772867E+04  0.12798495330E+04  0.21878233466E+04  0.46999998093E+01 0. -1.
</event>
<event>
 5   0  0.1496000E-07  0.3684921E+04  0.7818609E-02  0.8071312E-01
        1   -1    0    0  501    0  0.00000000000E+00  0.00000000000E+00  0.13879383661E+04  0.13879383661E+04  0.50400001928E-02 0.  1.
       -1   -1    0    0    0  501  0.00000000000E+00  0.00000000000E+00 -0.24458290223E+04  0.24458290223E+04  0.50400001928E-02 0. -1.
    10030    2    1    2    0    0  0.00000000000E+00  0.00000000000E+00 -0.10578906561E+04  0.38337673884E+04  0.36849205891E+04 0.  0.
        2    1    3    3  502    0  0.74720729279E+03 -0.16105463856E+04 -0.10412602023E+04  0.20582519786E+04  0.25500000920E-02 0. -1.
       -2    1    3    3    0  502 -0.74720729279E+03  0.16105463856E+04 -0.16630453838E+02  0.17755154098E+04  0.25500000920E-02 0.  1.
</event>
<event>
 5   0  0.1496000E-07  0.3746449E+04  0.7818609E-02  0.8057745E-01
        1   -1    0    0  501    0  0.00000000000E+00  0.00000000000E+00  0.13845631557E+04  0.13845631557E+04  0.50400001928E-02 0.  1.
       -1   -1    0    0    0  501  0.00000000000E+00  0.00000000000E+00 -0.25343518459E+04  0.25343518459E+04  0.50400001928E-02 0. -1.
    10030    2    1    2    0    0  0.00000000000E+00  0.00000000000E+00 -0.11497886902E+04  0.39189150015E+04  0.37464490864E+04 0.  0.
        2    1    3    3  502    0  0.46863787185E+03  0.82207889318E+03 -0.22659588411E+04  0.24556067745E+04  0.25500000920E-02 0. -1.
       -2    1    3    3    0  502 -0.46863787185E+03 -0.82207889318E+03  0.11161701509E+04  0.14633082270E+04  0.25500000920E-02 0.  1.
</event>
<event>
 5   0  0.1496000E-07  0.3766659E+04  0.7818609E-02  0.8053348E-01
       -3   -1    0    0    0  501  0.00000000000E+00  0.00000000000E+00  0.16417678478E+04  0.16417678509E+04  0.10100000352E+00 0.  1.
        3   -1    0    0  501    0  0.00000000000E+00  0.00000000000E+00 -0.21604337011E+04  0.21604337035E+04  0.10100000352E+00 0. -1.
    10030    2    1    2    0    0  0.00000000000E+00  0.00000000000E+00 -0.51866585331E+03  0.38022015544E+04  0.37666593147E+04 0.  0.
        4    1    3    3  502    0  0.13042309039E+04  0.10918635859E+04 -0.10755071338E+04  0.20124367192E+04  0.12699999809E+01 0. -1.
       -4    1    3    3    0  502 -0.13042309039E+04 -0.10918635859E+04  0.55684128050E+03  0.17897648352E+04  0.12699999809E+01 0.  1.
</event>
<event>
 5   0  0.1496000E-07  0.3663798E+04  0.7818609E-02  0.8076032E-01
        3   -1    0    0  501    0  0.00000000000E+00  0.00000000000E+00  0.13832004496E+04  0.13832004533E+04  0.10100000352E+00 0. -1.
       -3   -1    0    0    0  501  0.00000000000E+00  0.00000000000E+00 -0.24261516741E+04  0.24261516762E+04  0.10100000352E+00 0.  1.
    10030    2    1    2    0    0  0.00000000000E+00  0.00000000000E+00 -0.10429512245E+04  0.38093521295E+04  0.36637980825E+04 0.  0.
        2    1    3    3  502    0  0.14245993706E+04  0.10179347202E+04  0.38608243708E+02  0.17513323665E+04  0.25500000920E-02 0. -1.
       -2    1    3    3    0  502 -0.14245993706E+04 -0.10179347202E+04 -0.10815594683E+04  0.20580197630E+04  0.25500000920E-02 0.  1.
</event>
<event>
 5   0  0.1496000E-07  0.3761447E+04  0.7818609E-02  0.8054479E-01
       -1   -1    0    0    0  501  0.00000000000E+00  0.00000000000E+00  0.14098484840E+04  0.14098484840E+04  0.50400001928E-02 0.  1.
        1   -1    0    0  501    0  0.00000000000E+00  0.00000000000E+00 -0.25088666104E+04  0.25088666104E+04  0.50400001928E-02 0. -1.
    10030    2    1    2    0    0  0.00000000000E+00  0.00000000000E+00 -0.10990181264E+04  0.39187150944E+04  0.37614474805E+04 0.  0.
        2    1    3    3  502    0 -0.38067766258E+03 -0.16818095348E+04  0.23269769145E+03  0.17399847729E+04  0.25500000920E-02 0.  1.
       -2    1    3    3    0  502  0.38067766258E+03  0.16818095348E+04 -0.13317158179E+04  0.21787303215E+04  0.25500000920E-02 0. -1.
</event>
<event>
 5   0  0.1496000E-07  0.3712814E+04  0.7818609E-02  0.8065128E-01
        1   -1    0    0  501    0  0.00000000000E+00  0.00000000000E+00  0.20276444996E+04  0.20276444996E+04  0.50400001928E-02 0.  1.
       -1   -1    0    0    0  501  0.00000000000E+00  0.00000000000E+00 -0.16996309931E+04  0.16996309931E+04  0.50400001928E-02 0. -1.
    10030    2    1    2    0    0  0.00000000000E+00  0.00000000000E+00  0.32801350647E+03  0.37272754927E+04  0.37128142612E+04 0.  0.
        2    1    3    3  502    0  0.15823754110E+03 -0.18115610126E+04 -0.21088452333E+03  0.18306459800E+04  0.25500000920E-02 0. -1.
       -2    1    3    3    0  502 -0.15823754110E+03  0.18115610126E+04  0.53889802981E+03  0.18966295127E+04  0.25500000920E-02 0.  1.
</event>
<event>
 5   0  0.1496000E-07  0.3605455E+04  0.7818609E-02  0.8089243E-01
        1   -1    0    0  501    0  0.00000000000E+00  0.00000000000E+00  0.22987032604E+04  0.22987032604E+04  0.50400001928E-02 0. -1.
       -1   -1    0    0    0  501  0.00000000000E+00  0.00000000000E+00 -0.14137651999E+04  0.14137651999E+04  0.50400001928E-02 0.  1.
    10030    2    1    2    0    0  0.00000000000E+00  0.00000000000E+00  0.88493806055E+03  0.37124684603E+04  0.36054551305E+04 0.  0.
        2    1    3    3  502    0 -0.17452714913E+04  0.11541002413E+03 -0.69895019858E+01  0.17490971686E+04  0.25500000920E-02 0. -1.
       -2    1    3    3    0  502  0.17452714913E+04 -0.11541002413E+03  0.89192756253E+03  0.19633712917E+04  0.25500000920E-02 0.  1.
</event>
<event>
 5   0  0.4824268E-07  0.3701156E+04  0.7818609E-02  0.8067706E-01
       -2   -1    0    0    0  501  0.00000000000E+00  0.00000000000E+00  0.21442218253E+04  0.21442218253E+04  0.25500000920E-02 0. -1.
        2   -1    0    0  501    0  0.00000000000E+00  0.00000000000E+00 -0.15971473622E+04  0.15971473622E+04  0.25500000920E-02 0.  1.
    10030    2    1    2    0    0  0.00000000000E+00  0.00000000000E+00  0.54707446308E+03  0.37413691876E+04  0.37011556208E+04 0.  0.
        1    1    3    3  502    0  0.17162626526E+03  0.16718810725E+04 -0.50947314721E+03  0.17561904177E+04  0.50400001928E-02 0.  1.
       -1    1    3    3    0  502 -0.17162626526E+03 -0.16718810725E+04  0.10565476103E+04  0.19851787699E+04  0.50400001928E-02 0. -1.
</event>
<event>
 5   0  0.1496000E-07  0.3817686E+04  0.7818609E-02  0.8042370E-01
        1   -1    0    0  501    0  0.00000000000E+00  0.00000000000E+00  0.20567664879E+04  0.20567664879E+04  0.50400001928E-02 0. -1.
       -1   -1    0    0    0  501  0.00000000000E+00  0.00000000000E+00 -0.17715582648E+04  0.17715582648E+04  0.50400001928E-02 0.  1.
    10030    2    1    2    0    0  0.00000000000E+00  0.00000000000E+00  0.28520822315E+03  0.38283247527E+04  0.38176860376E+04 0.  0.
        5    1    3    3  502    0  0.82334306173E+03 -0.16442786633E+04  0.65600099014E+03  0.19524101795E+04  0.46999998093E+01 0.  1.
       -5    1    3    3    0  502 -0.82334306173E+03  0.16442786633E+04 -0.37079276699E+03  0.18759145732E+04  0.46999998093E+01 0. -1.
</event>
<event>
 5   0  0.1496000E-07  0.3702320E+04  0.7818609E-02  0.8067448E-01
       -1   -1    0    0    0  501  0.00000000000E+00  0.00000000000E+00  0.17101275354E+04  0.17101275354E+04  0.50400001928E-02 0.  1.
        1   -1    0    0  501    0  0.00000000000E+00  0.00000000000E+00 -0.20038231884E+04  0.20038231884E+04  0.50400001928E-02 0. -1.
    10030    2    1    2    0    0  0.00000000000E+00  0.00000000000E+00 -0.29369565300E+03  0.37139507238E+04  0.37023199270E+04 0.  0.
        2    1    3    3  502    0  0.89001833946E+02  0.84085478385E+03  0.15050905134E+04  0.17263416660E+04  0.25500000920E-02 0.  1.
       -2    1    3    3    0  502 -0.89001833946E+02 -0.84085478385E+03 -0.17987861665E+04  0.19876090578E+04  0.25500000920E-02 0. -1.
</event>
<event>
 5   0  0.1496287E-07  0.3828749E+04  0.7818609E-02  0.8040013E-01
       -1   -1    0    0    0  501  0.00000000000E+00  0.00000000000E+00  0.33675947405E+04  0.33675947405E+04  0.50400001928E-02 0. -1.
        1   -1    0    0  501    0  0.00000000000E+00  0.00000000000E+00 -0.10882631302E+04  0.10882631302E+04  0.50400001928E-02 0.  1.
    10030    2    1    2    0    0  0.00000000000E+00  0.00000000000E+00  0.22793316103E+04  0.44558578707E+04  0.38287487217E+04 0.  0.
        1    1    3    3  502    0 -0.18903839989E+04  0.20861058616E+03  0.88533276992E+03  0.20978284376E+04  0.50400001928E-02 0.  1.
       -1    1    3    3    0  502  0.18903839989E+04 -0.20861058616E+03  0.13939988404E+04  0.23580294330E+04  0.50400001928E-02 0. -1.
</event>
<event>
 5   0  0.4857514E-07  0.3608793E+04  0.7818609E-02  0.8088481E-01
       -2   -1    0    0    0  501  0.00000000000E+00  0.00000000000E+00  0.12162355055E+04  0.12162355055E+04  0.25500000920E-02 0. -1.
        2   -1    0    0  501    0  0.00000000000E+00  0.00000000000E+00 -0.26769867014E+04  0.26769867014E+04  0.25500000920E-02 0.  1.
    10030    2    1    2    0    0  0.00000000000E+00  0.00000000000E+00 -0.14607511959E+04  0.38932222069E+04  0.36087927477E+04 0.  0.
        5    1    3    3  502    0 -0.15116315775E+04  0.95455987690E+03 -0.46698191700E+03  0.18477848320E+04  0.46999998093E+01 0. -1.
       -5    1    3    3    0  502  0.15116315775E+04 -0.95455987690E+03 -0.99376927889E+03  0.20454373748E+04  0.46999998093E+01 0.  1.
</event>
<event>
 5   0  0.4857514E-07  0.3743433E+04  0.7818609E-02  0.8058404E-01
       -2   -1    0    0    0  501  0.00000000000E+00  0.00000000000E+00  0.18080753279E+04  0.18080753279E+04  0.25500000920E-02 0.  1.
        2   -1    0    0  501    0  0.00000000000E+00  0.00000000000E+00 -0.19375974117E+04  0.19375974117E+04  0.25500000920E-02 0. -1.
    10030    2    1    2    0    0  0.00000000000E+00  0.00000000000E+00 -0.12952208386E+03  0.37456727396E+04  0.37434326897E+04 0.  0.
        5    1    3    3  502    0 -0.18100278668E+04 -0.20886887002E+03  0.36383264250E+03  0.18580159755E+04  0.46999998093E+01 0.  1.
       -5    1    3    3    0  502  0.18100278668E+04  0.20886887002E+03 -0.49335472636E+03  0.18876567642E+04  0.46999998093E+01 0. -1.
</event>
<event>
 5   0  0.4687817E-07  0.3728632E+04  0.7818609E-02  0.8061646E-01
       -2   -1    0    0    0  501  0.00000000000E+00  0.00000000000E+00  0.16355600539E+04  0.16355600539E+04  0.25500000920E-02 0. -1.
        2   -1    0    0  501    0  0.00000000000E+00  0.00000000000E+00 -0.21250663804E+04  0.21250663804E+04  0.25500000920E-02 0.  1.
    10030    2    1    2    0    0  0.00000000000E+00  0.00000000000E+00 -0.48950632646E+03  0.37606264343E+04  0.37286317510E+04 0.  0.
        4    1    3    3  502    0  0.70585285193E+03 -0.14300422856E+03 -0.19790997671E+04  0.21060664659E+04  0.12699999809E+01 0.  1.
       -4    1    3    3    0  502 -0.70585285193E+03  0.14300422856E+03  0.14895934406E+04  0.16545599684E+04  0.12699999809E+01 0. -1.
</event>
<event>
 5   0  0.1496000E-07  0.3724003E+04  0.7818609E-02  0.8062663E-01
        1   -1    0    0  501    0  0.00000000000E+00  0.00000000000E+00  0.18958709608E+04  0.18958709608E+04  0.50400001928E-02 0. -1.
       -1   -1    0    0    0  501  0.00000000000E+00  0.00000000000E+00 -0.18287374021E+04  0.18287374021E+04  0.50400001928E-02 0.  1.
    10030    2    1    2    0    0  0.00000000000E+00  0.00000000000E+00  0.67133558665E+02  0.37246083629E+04  0.37240032951E+04 0.  0.
        5    1    3    3  502    0 -0.17565553452E+04  0.28408765365E+03  0.58214069038E+03  0.18721918569E+04  0.46999998093E+01 0. -1.
       -5    1    3    3    0  502  0.17565553452E+04 -0.28408765365E+03 -0.51500713171E+03  0.18524165059E+04  0.46999998093E+01 0.  1.
</event>
<event>
 5   0  0.4758908E-07  0.3429748E+04  0.7818609E-02  0.8130644E-01
       -2   -1    0    0    0  501  0.00000000000E+00  0.00000000000E+00  0.15634576789E+04  0.15634576789E+04  0.25500000920E-02 0. -1.
        2   -1    0    0  501    0  0.00000000000E+00  0.00000000000E+00 -0.18809540099E+04  0.18809540099E+04  0.25500000920E-02 0.  1.
    10030    2    1    2    0    0  0.00000000000E+00  0.00000000000E+00 -0.31749633098E+03  0.34444116889E+04  0.34297475071E+04 0.  0.
        2    1    3    3  502    0 -0.70852680403E+03  0.10745248407E+04  0.97931283016E+03  0.16173025334E+04  0.25500000920E-02 0. -1.
       -2    1    3    3    0  502  0.70852680403E+03 -0.10745248407E+04 -0.12968091611E+04  0.18271091554E+04  0.25500000920E-02 0.  1.
</event>
<event>
 5   0  0.1496000E-07  0.3656812E+04  0.7818609E-02  0.8077601E-01
        1   -1    0    0  501    0  0.00000000000E+00  0.00000000000E+00  0.21629098091E+04  0.21629098091E+04  0.50400001928E-02 0.  1.
       -1   -1    0    0    0  501  0.00000000000E+00  0.00000000000E+00 -0.15456347969E+04  0.15456347970E+04  0.50400001928E-02 0. -1.
    10030    2    1    2    0    0  0.00000000000E+00  0.00000000000E+00  0.61727501218E+03  0.37085446061E+04  0.36568120891E+04 0.  0.
        2    1    3    3  502    0  0.72467487895E+03  0.11076903037E+01  0.20110496618E+04  0.21376331887E+04  0.25500000920E-02 0.  1.
       -2    1    3    3    0  502 -0.72467487895E+03 -0.11076903037E+01 -0.13937746497E+04  0.15709114174E+04  0.25500000920E-02 0. -1.
</event>
<event>
 5   0  0.4758908E-07  0.3999388E+04  0.7818609E-02  0.8004670E-01
        2   -1    0    0  501    0  0.00000000000E+00  0.00000000000E+00  0.17088324740E+04  0.17088324740E+04  0.25500000920E-02 0.  1.
       -2   -1    0    0    0  501  0.00000000000E+00  0.00000000000E+00 -0.23400636966E+04  0.23400636966E+04  0.25500000920E-02 0. -1.
    10030    2    1    2    0    0  0.00000000000E+00  0.00000000000E+00 -0.63123122265E+03  0.40488961706E+04  0.39993883712E+04 0.  0.
        2    1    3    3  502    0 -0.36846756074E+02  0.37119970032E+03  0.16732978789E+04  0.17143723903E+04  0.25500000920E-02 0.  1.
       -2    1    3    3    0  502  0.36846756074E+02 -0.37119970032E+03 -0.23045291016E+04  0.23345237803E+04  0.25500000920E-02 0. -1.
</event>
<event>
 5   0  0.1496000E-07  0.3897264E+04  0.7818609E-02  0.8025598E-01
        1   -1    0    0  501    0  0.00000000000E+00  0.00000000000E+00  0.14304844391E+04  0.14304844391E+04  0.50400001928E-02 0.  1.
       -1   -1    0    0    0  501  0.00000000000E+00  0.00000000000E+00 -0.26544626441E+04  0.26544626441E+04  0.50400001928E-02 0. -1.
    10030    2    1    2    0    0  0.00000000000E+00  0.00000000000E+00 -0.12239782050E+04  0.40849470831E+04  0.38972644285E+04 0.  0.
        5    1    3    3  502    0  0.82803079870E+03 -0.10514154149E+04 -0.20965428541E+04  0.24872923848E+04  0.46999998093E+01 0. -1.
       -5    1    3    3    0  502 -0.82803079870E+03  0.10514154149E+04  0.87256464907E+03  0.15976546984E+04  0.46999998093E+01 0.  1.
</event>
<event>
 5   0  0.4687817E-07  0.3679956E+04  0.7818609E-02  0.8072418E-01
        2   -1    0    0  501    0  0.00000000000E+00  0.00000000000E+00  0.23709379716E+04  0.23709379716E+04  0.25500000920E-02 0. -1.
       -2   -1    0    0    0  501  0.00000000000E+00  0.00000000000E+00 -0.14279241690E+04  0.14279241690E+04  0.25500000920E-02 0.  1.
    10030    2    1    2    0    0  0.00000000000E+00  0.00000000000E+00  0.94301380264E+03  0.37988621407E+04  0.36799563220E+04 0.  0.
        4    1    3    3  502    0 -0.82105409909E+03 -0.65073543406E+02  0.21700138188E+04  0.23210613922E+04  0.12699999809E+01 0. -1.
       -4    1    3    3    0  502  0.82105409909E+03  0.65073543406E+02 -0.12270000161E+04  0.14778007485E+04  0.12699999809E+01 0.  1.
</event>
<event>
 5   0  0.1496287E-07  0.3670509E+04  0.7818609E-02  0.8074529E-01
        1   -1    0    0  501    0  0.00000000000E+00  0.00000000000E+00  0.27488356775E+04  0.27488356775E+04  0.50400001928E-02 0. -1.
       -1   -1    0    0    0  501  0.00000000000E+00  0.00000000000E+00 -0.12253038348E+04  0.12253038349E+04  0.50400001928E-02 0.  1.
    10030    2    1    2    0    0  0.00000000000E+00  0.00000000000E+00  0.15235318427E+04  0.39741395124E+04  0.36705089005E+04 0.  0.
        1    1    3    3  502    0  0.32372297456E+03 -0.39096207831E+03  0.26713232323E+04  0.27191203950E+04  0.50400001928E-02 0. -1.
       -1    1    3    3    0  502 -0.32372297456E+03  0.39096207831E+03 -0.11477913896E+04  0.12550191174E+04  0.50400001928E-02 0.  1.
</event>
<event>
 5   0  0.1496000E-07  0.3687109E+04  0.7818609E-02  0.8070825E-01
       -1   -1    0    0    0  501  0.00000000000E+00  0.00000000000E+00  0.16402757380E+04  0.16402757380E+04  0.50400001928E-02 0. -1.
        1   -1    0    0  501    0  0.00000000000E+00  0.00000000000E+00 -0.20720255880E+04  0.20720255880E+04  0.50400001928E-02 0.  1.
    10030    2    1    2    0    0  0.00000000000E+00  0.00000000000E+00 -0.43174985000E+03  0.37123013259E+04  0.36871090574E+04 0.  0.
        5    1    3    3  502    0 -0.48335334558E+03 -0.13931917470E+04  0.89805571133E+03  0.17265977676E+04  0.46999998093E+01 0. -1.
       -5    1    3    3    0  502  0.48335334558E+03  0.13931917470E+04 -0.13298055613E+04  0.19857035583E+04  0.46999998093E+01 0.  1.
</event>
<event>
 5   0  0.1496287E-07  0.3690908E+04  0.7818609E-02  0.8069980E-01
       -1   -1    0    0    0  501  0.00000000000E+00  0.00000000000E+00  0.11497539449E+04  0.11497539449E+04  0.50400001928E-02 0.  1.
        1   -1    0    0  501    0  0.00000000000E+00  0.00000000000E+00 -0.29621120528E+04  0.29621120529E+04  0.50400001928E-02 0. -1.
    10030    2    1    2    0    0  0.00000000000E+00  0.00000000000E+00 -0.18123581080E+04  0.41118659977E+04  0.36909077572E+04 0.  0.
        1    1    3    3  502    0 -0.53959268391E+03  0.71730822516E+03  0.89018004860E+03  0.12641644962E+04  0.50400001928E-02 0.  1.
       -1    1    3    3    0  502  0.53959268391E+03 -0.71730822516E+03 -0.27025381566E+04  0.28477015016E+04  0.50400001928E-02 0. -1.
</event>
<event>
 5   0  0.4758908E-07  0.3650981E+04  0.7818609E-02  0.8078913E-01
        2   -1    0    0  501    0  0.00000000000E+00  0.00000000000E+00  0.28325835715E+04  0.28325835715E+04  0.25500000920E-02 0.  1.
       -2   -1    0    0    0  501  0.00000000000E+00  0.00000000000E+00 -0.11764579377E+04  0.11764579377E+04  0.25500000920E-02 0. -1.
    10030    2    1    2    0    0  0.00000000000E+00  0.00000000000E+00  0.16561256338E+04  0.40090415092E+04  0.36509809240E+04 0.  0.
        2    1    3    3  502    0  0.12638519324E+04  0.43208706552E+03  0.21944437634E+04  0.25689695152E+04  0.25500000920E-02 0.  1.
       -2    1    3    3    0  502 -0.12638519324E+04 -0.43208706552E+03 -0.53831812953E+03  0.14400719940E+04  0.25500000920E-02 0. -1.
</event>
<event>
 5   0  0.4793557E-07  0.3674190E+04  0.7818609E-02  0.8073706E-01
       -2   -1    0    0    0  501  0.00000000000E+00  0.00000000000E+00  0.16504723380E+04  0.16504723380E+04  0.25500000920E-02 0.  1.
        2   -1    0    0  501    0  0.00000000000E+00  0.00000000000E+00 -0.20448197905E+04  0.20448197905E+04  0.25500000920E-02 0. -1.
    10030    2    1    2    0    0  0.00000000000E+00  0.00000000000E+00 -0.39434745246E+03  0.36952921285E+04  0.36741902512E+04 0.  0.
        3    1    3    3  502    0 -0.28926989475E+03 -0.85297999808E+03 -0.18075149253E+04  0.20194955223E+04  0.10100000352E+00 0. -1.
       -3    1    3    3    0  502  0.28926989475E+03  0.85297999808E+03  0.14131674728E+04  0.16757966063E+04  0.10100000352E+00 0.  1.
</event>
<event>
 5   0  0.1496000E-07  0.3646115E+04  0.7818609E-02  0.8080009E-01
       -1   -1    0    0    0  501  0.00000000000E+00  0.00000000000E+00  0.35481812112E+04  0.35481812112E+04  0.50400001928E-02 0.  1.
        1   -1    0    0  501    0  0.00000000000E+00  0.00000000000E+00 -0.93668787850E+03  0.93668787852E+03  0.50400001928E-02 0. -1.
    10030    2    1    2    0    0  0.00000000000E+00  0.00000000000E+00  0.26114933327E+04  0.44848690897E+04  0.36461148261E+04 0.  0.
        5    1    3    3  502    0 -0.18222796809E+04 -0.51153190406E+02  0.13229829087E+04  0.22524710323E+04  0.46999998093E+01 0. -1.
       -5    1    3    3    0  502  0.18222796809E+04  0.51153190406E+02  0.12885104240E+04  0.22323980575E+04  0.46999998093E+01 0.  1.
</event>
<event>
 5   0  0.4857514E-07  0.3668935E+04  0.7818609E-02  0.8074881E-01
        2   -1    0    0  501    0  0.00000000000E+00  0.00000000000E+00  0.24359607824E+04  0.24359607824E+04  0.25500000920E-02 0.  1.
       -2   -1    0    0    0  501  0.00000000000E+00  0.00000000000E+00 -0.13814963704E+04  0.13814963704E+04  0.25500000920E-02 0. -1.
    10030    2    1    2    0    0  0.00000000000E+00  0.00000000000E+00  0.10544644120E+04  0.38174571528E+04  0.36689349840E+04 0.  0.
        5    1    3    3  502    0  0.13906191436E+04  0.26588380968E+03 -0.68649371707E+03  0.15734711680E+04  0.46999998093E+01 0. -1.
       -5    1    3    3    0  502 -0.13906191436E+04 -0.26588380968E+03  0.17409581291E+04  0.22439859848E+04  0.46999998093E+01 0.  1.
</event>
<event>
 5   0  0.4857514E-07  0.3711194E+04  0.7818609E-02  0.8065486E-01
        2   -1    0    0  501    0  0.00000000000E+00  0.00000000000E+00  0.10436219198E+04  0.10436219198E+04  0.25500000920E-02 0.  1.
       -2   -1    0    0    0  501  0.00000000000E+00  0.00000000000E+00 -0.32993170126E+04  0.32993170126E+04  0.25500000920E-02 0. -1.
    10030    2    1    2    0    0  0.00000000000E+00  0.00000000000E+00 -0.22556950928E+04  0.43429389324E+04  0.37111936380E+04 0.  0.
        5    1    3    3  502    0 -0.40100681875E+03  0.24040971113E+03 -0.32292487973E+04  0.32629240235E+04  0.46999998093E+01 0. -1.
       -5    1    3    3    0  502  0.40100681875E+03 -0.24040971113E+03  0.97355370452E+03  0.10800149089E+04  0.46999998093E+01 0.  1.
</event>
<event>
 5   0  0.4857514E-07  0.3643194E+04  0.7818609E-02  0.8080669E-01
       -2   -1    0    0    0  501  0.00000000000E+00  0.00000000000E+00  0.19667616347E+04  0.19667616347E+04  0.25500000920E-02 0.  1.
        2   -1    0    0  501    0  0.00000000000E+00  0.00000000000E+00 -0.16871465678E+04  0.16871465678E+04  0.25500000920E-02 0. -1.
    10030    2    1    2    0    0  0.00000000000E+00  0.00000000000E+00  0.27961506695E+03  0.36539082025E+04  0.36431937317E+04 0.  0.
        5    1    3    3  502    0 -0.12496718369E+04 -0.32264906962E+03  0.14290493866E+04  0.19256132429E+04  0.46999998093E+01 0.  1.
       -5    1    3    3    0  502  0.12496718369E+04  0.32264906962E+03 -0.11494343196E+04  0.17282949596E+04  0.46999998093E+01 0. -1.
</event>
<event>
 5   0  0.1496287E-07  0.3695435E+04  0.7818609E-02  0.8068974E-01
       -1   -1    0    0    0  501  0.00000000000E+00  0.00000000000E+00  0.14668021121E+04  0.14668021121E+04  0.50400001928E-02 0. -1.
        1   -1    0    0  501    0  0.00000000000E+00  0.00000000000E+00 -0.23275528060E+04  0.23275528060E+04  0.50400001928E-02 0.  1.
    10030    2    1    2    0    0  0.00000000000E+00  0.00000000000E+00 -0.86075069390E+03  0.37943549182E+04  0.36954346819E+04 0.  0.
        1    1    3    3  502    0 -0.12814076003E+04  0.44560177231E+03 -0.17183426210E+04  0.21893532699E+04  0.50400001928E-02 0.  1.
       -1    1    3    3    0  502  0.12814076003E+04 -0.44560177231E+03  0.85759192708E+03  0.16050016483E+04  0.50400001928E-02 0. -1.
</event>
<event>
 5   0  0.4687817E-07  0.3550191E+04  0.7818609E-02  0.8101997E-01
        2   -1    0    0  501    0  0.00000000000E+00  0.00000000000E+00  0.21875288912E+04  0.21875288912E+04  0.25500000920E-02 0.  1.
       -2   -1    0    0    0  501  0.00000000000E+00  0.00000000000E+00 -0.14404218604E+04  0.14404218604E+04  0.25500000920E-02 0. -1.
    10030    2    1    2    0    0  0.00000000000E+00  0.00000000000E+00  0.74710703077E+03  0.36279507517E+04  0.35501912260E+04 0.  0.
        4    1    3    3  502    0 -0.82778250691E+03 -0.15233174897E+04 -0.15901137516E+02  0.17337746429E+04  0.12699999809E+01 0.  1.
       -4    1    3    3    0  502  0.82778250691E+03  0.15233174897E+04  0.76300816828E+03  0.18941761088E+04  0.12699999809E+01 0. -1.
</event>
<event>
 5   0  0.1496287E-07  0.3741794E+04  0.7818609E-02  0.8058762E-01
        1   -1    0    0  501    0  0.00000000000E+00  0.00000000000E+00  0.24410568908E+04  0.24410568908E+04  0.50400001928E-02 0.  1.
       -1   -1    0    0    0  501  0.00000000000E+00  0.00000000000E+00 -0.14339097226E+04  0.14339097226E+04  0.50400001928E-02 0. -1.
    10030    2    1    2    0    0  0.00000000000E+00  0.00000000000E+00  0.10071471682E+04  0.38749666134E+04  0.37417937993E+04 0.  0.
        1    1    3    3  502    0 -0.16364680728E+04  0.80062634233E+03  0.62717267803E+02  0.18228998187E+04  0.50400001928E-02 0. -1.
       -1    1    3    3    0  502  0.16364680728E+04 -0.80062634233E+03  0.94442990042E+03  0.20520667947E+04  0.50400001928E-02 0.  1.
</event>
<event>
 5   0  0.1496000E-07  0.3690177E+04  0.7818609E-02  0.8070142E-01
        1   -1    0    0  501    0  0.00000000000E+00  0.00000000000E+00  0.22581632512E+04  0.22581632512E+04  0.50400001928E-02 0. -1.
       -1   -1    0    0    0  501  0.00000000000E+00  0.00000000000E+00 -0.15075754397E+04  0.15075754397E+04  0.50400001928E-02 0.  1.
    10030    2    1    2    0    0  0.00000000000E+00  0.00000000000E+00  0.75058781146E+03  0.37657386909E+04  0.36901769369E+04 0.  0.
        3    1    3    3  502    0 -0.80232893789E+02  0.15543937510E+04  0.13864280985E+04  0.20844088210E+04  0.10100000352E+00 0. -1.
       -3    1    3    3    0  502  0.80232893789E+02 -0.15543937510E+04 -0.63584028708E+03  0.16813298699E+04  0.10100000352E+00 0.  1.
</event>
<event>
 5   0  0.1522273E-07  0.3704953E+04  0.7818609E-02  0.8066865E-01
        1   -1    0    0  501    0  0.00000000000E+00  0.00000000000E+00  0.20969094358E+04  0.20969094358E+04  0.50400001928E-02 0. -1.
       -1   -1    0    0    0  501  0.00000000000E+00  0.00000000000E+00 -0.16365368024E+04  0.16365368024E+04  0.50400001928E-02 0.  1.
    10030    2    1    2    0    0  0.00000000000E+00  0.00000000000E+00  0.46037263346E+03  0.37334462382E+04  0.37049531511E+04 0.  0.
        4    1    3    3  502    0 -0.70448810938E+03 -0.13388857282E+04 -0.84702938371E+03  0.17338912535E+04  0.12699999809E+01 0.  1.
       -4    1    3    3    0  502  0.70448810938E+03  0.13388857282E+04  0.13074020172E+04  0.19995549847E+04  0.12699999809E+01 0. -1.
</event>
<event>
 5   0  0.4687817E-07  0.3686962E+04  0.7818609E-02  0.8070857E-01
        2   -1    0    0  501    0  0.00000000000E+00  0.00000000000E+00  0.24513005053E+04  0.24513005053E+04  0.25500000920E-02 0.  1.
       -2   -1    0    0    0  501  0.00000000000E+00  0.00000000000E+00 -0.13863752315E+04  0.13863752315E+04  0.25500000920E-02 0. -1.
    10030    2    1    2    0    0  0.00000000000E+00  0.00000000000E+00  0.10649252737E+04  0.38376757368E+04  0.36869620587E+04 0.  0.
        4    1    3    3  502    0 -0.53287313803E+03  0.86336724456E+03 -0.10696313727E+04  0.14742691975E+04  0.12699999809E+01 0. -1.
       -4    1    3    3    0  502  0.53287313803E+03 -0.86336724456E+03  0.21345566465E+04  0.23634065393E+04  0.12699999809E+01 0.  1.
</event>
<event>
 5   0  0.1522273E-07  0.3719366E+04  0.7818609E-02  0.8063684E-01
        1   -1    0    0  501    0  0.00000000000E+00  0.00000000000E+00  0.15065486034E+04  0.15065486034E+04  0.50400001928E-02 0. -1.
       -1   -1    0    0    0  501  0.00000000000E+00  0.00000000000E+00 -0.22955913440E+04  0.22955913440E+04  0.50400001928E-02 0.  1.
    10030    2    1    2    0    0  0.00000000000E+00  0.00000000000E+00 -0.78904274063E+03  0.38021399474E+04  0.37193655014E+04 0.  0.
        4    1    3    3  502    0 -0.82131311805E+02  0.11676521051E+04 -0.18717634248E+04  0.22076360484E+04  0.12699999809E+01 0.  1.
       -4    1    3    3    0  502  0.82131311805E+02 -0.11676521051E+04  0.10827206842E+04  0.15945038990E+04  0.12699999809E+01 0. -1.
</event>
<event>
 5   0  0.1496000E-07  0.3707066E+04  0.7818609E-02  0.8066398E-01
        1   -1    0    0  501    0  0.00000000000E+00  0.00000000000E+00  0.16692852784E+04  0.16692852784E+04  0.50400001928E-02 0.  1.
       -1   -1    0    0    0  501  0.00000000000E+00  0.00000000000E+00 -0.20581167028E+04  0.20581167028E+04  0.50400001928E-02 0. -1.
    10030    2    1    2    0    0  0.00000000000E+00  0.00000000000E+00 -0.38883142442E+03  0.37274019812E+04  0.37070656392E+04 0.  0.
        3    1    3    3  502    0  0.64603285845E+03 -0.17095094018E+04  0.11680295097E+03  0.18312355907E+04  0.10100000352E+00 0.  1.
       -3    1    3    3    0  502 -0.64603285845E+03  0.17095094018E+04 -0.50563437539E+03  0.18961663906E+04  0.10100000352E+00 0. -1.
</event>
<event>
 5   0  0.4824268E-07  0.3721447E+04  0.7818609E-02  0.8063225E-01
        2   -1    0    0  501    0  0.00000000000E+00  0.00000000000E+00  0.22726319373E+04  0.22726319373E+04  0.25500000920E-02 0.  1.
       -2   -1    0    0    0  501  0.00000000000E+00  0.00000000000E+00 -0.15234723562E+04  0.15234723562E+04  0.25500000920E-02 0. -1.
    10030    2    1    2    0    0  0.00000000000E+00  0.00000000000E+00  0.74915958103E+03  0.37961042935E+04  0.37214469940E+04 0.  0.
        1    1    3    3  502    0 -0.13686681569E+04 -0.17443497893E+03  0.16480690443E+04  0.21493747138E+04  0.50400001928E-02 0.  1.
       -1    1    3    3    0  502  0.13686681569E+04  0.17443497893E+03 -0.89890946323E+03  0.16467295797E+04  0.50400001928E-02 0. -1.
</event>
<event>
 5   0  0.4857514E-07  0.3508621E+04  0.7818609E-02  0.8111750E-01
        2   -1    0    0  501    0  0.00000000000E+00  0.00000000000E+00  0.16744559665E+04  0.16744559665E+04  0.25500000920E-02 0.  1.
       -2   -1    0    0    0  501  0.00000000000E+00  0.00000000000E+00 -0.18379737173E+04  0.18379737173E+04  0.25500000920E-02 0. -1.
    10030    2    1    2    0    0  0.00000000000E+00  0.00000000000E+00 -0.16351775074E+03  0.35124296838E+04  0.35086214143E+04 0.  0.
        5    1    3    3  502    0 -0.79681658502E+03  0.57618974687E+03 -0.15361511958E+04  0.18239226631E+04  0.46999998093E+01 0. -1.
       -5    1    3    3    0  502  0.79681658502E+03 -0.57618974687E+03  0.13726334451E+04  0.16885070207E+04  0.46999998093E+01 0.  1.
</event>
<event>
 5   0  0.1522273E-07  0.3388153E+04  0.7818609E-02  0.8140820E-01
       -1   -1    0    0    0  501  0.00000000000E+00  0.00000000000E+00  0.11866830890E+04  0.11866830891E+04  0.50400001928E-02 0. -1.
        1   -1    0    0  501    0  0.00000000000E+00  0.00000000000E+00 -0.24184181966E+04  0.24184181966E+04  0.50400001928E-02 0.  1.
    10030    2    1    2    0    0  0.00000000000E+00  0.00000000000E+00 -0.12317351076E+04  0.36051012857E+04  0.33881534653E+04 0.  0.
        4    1    3    3  502    0  0.76259082434E+03  0.99072487250E+03 -0.18322251105E+04  0.22181368323E+04  0.12699999809E+01 0.  1.
       -4    1    3    3    0  502 -0.76259082434E+03 -0.99072487250E+03  0.60049000294E+03  0.13869644534E+04  0.12699999809E+01 0. -1.
</event>
<event>
 5   0  0.4687817E-07  0.3720327E+04  0.7818609E-02  0.8063472E-01
       -2   -1    0    0    0  501  0.00000000000E+00  0.00000000000E+00  0.13189043150E+04  0.13189043150E+04  0.25500000920E-02 0.  1.
        2   -1    0    0  501    0  0.00000000000E+00  0.00000000000E+00 -0.26235479040E+04  0.26235479040E+04  0.25500000920E-02 0. -1.
    10030    2    1    2    0    0  0.00000000000E+00  0.00000000000E+00 -0.13046435890E+04  0.39424522191E+04  0.37203272175E+04 0.  0.
        4    1    3    3  502    0  0.55415807710E+03 -0.73241929773E+03  0.10618740068E+04  0.14039612606E+04  0.12699999809E+01 0.  1.
       -4    1    3    3    0  502 -0.55415807710E+03  0.73241929773E+03 -0.23665175958E+04  0.25384909585E+04  0.12699999809E+01 0. -1.
</event>
<event>
 5   0  0.4758908E-07  0.3668796E+04  0.7818609E-02  0.8074912E-01
       -2   -1    0    0    0  501  0.00000000000E+00  0.00000000000E+00  0.13426410725E+04  0.13426410725E+04  0.25500000920E-02 0. -1.
        2   -1    0    0  501    0  0.00000000000E+00  0.00000000000E+00 -0.25062657599E+04  0.25062657599E+04  0.25500000920E-02 0.  1.
    10030    2    1    2    0    0  0.00000000000E+00  0.00000000000E+00 -0.11636246873E+04  0.38489068324E+04  0.36687956323E+04 0.  0.
        2    1    3    3  502    0 -0.59249585246E+03 -0.17360771901E+04 -0.58186625399E+03  0.19244697147E+04  0.25500000920E-02 0. -1.
       -2    1    3    3    0  502  0.59249585246E+03  0.17360771901E+04 -0.58175843335E+03  0.19244371177E+04  0.25500000920E-02 0.  1.
</event>
<event>
 5   0  0.1496287E-07  0.3727089E+04  0.7818609E-02  0.8061985E-01
       -1   -1    0    0    0  501  0.00000000000E+00  0.00000000000E+00  0.22739075720E+04  0.22739075720E+04  0.50400001928E-02 0.  1.
        1   -1    0    0  501    0  0.00000000000E+00  0.00000000000E+00 -0.15272384319E+04  0.15272384319E+04  0.50400001928E-02 0. -1.
    10030    2    1    2    0    0  0.00000000000E+00  0.00000000000E+00  0.74666914010E+03  0.38011460040E+04  0.37270894997E+04 0.  0.
        1    1    3    3  502    0 -0.42925986101E+03 -0.13403708688E+04 -0.87238574090E+03  0.16558728741E+04  0.50400001928E-02 0. -1.
       -1    1    3    3    0  502  0.42925986101E+03  0.13403708688E+04  0.16190548810E+04  0.21452731299E+04  0.50400001928E-02 0.  1.
</event>
<event>
 5   0  0.4758908E-07  0.3713585E+04  0.7818609E-02  0.8064958E-01
       -2   -1    0    0    0  501  0.00000000000E+00  0.00000000000E+00  0.16966691987E+04  0.16966691987E+04  0.25500000920E-02 0. -1.
        2   -1    0    0  501    0  0.00000000000E+00  0.00000000000E+00 -0.20320274621E+04  0.20320274621E+04  0.25500000920E-02 0.  1.
    10030    2    1    2    0    0  0.00000000000E+00  0.00000000000E+00 -0.33535826340E+03  0.37286966608E+04  0.37135850096E+04 0.  0.
        2    1    3    3  502    0 -0.74562252181E+03  0.58557783238E+03 -0.17706794665E+04  0.20085218734E+04  0.25500000920E-02 0. -1.
       -2    1    3    3    0  502  0.74562252181E+03 -0.58557783238E+03  0.14353212031E+04  0.17201747873E+04  0.25500000920E-02 0.  1.
</event>
<event>
 5   0  0.1496000E-07  0.3767833E+04  0.7818609E-02  0.8053093E-01
        1   -1    0    0  501    0  0.00000000000E+00  0.00000000000E+00  0.30939484656E+04  0.30939484656E+04  0.50400001928E-02 0. -1.
       -1   -1    0    0    0  501  0.00000000000E+00  0.00000000000E+00 -0.11471233910E+04  0.11471233910E+04  0.50400001928E-02 0.  1.
    10030    2    1    2    0    0  0.00000000000E+00  0.00000000000E+00  0.19468250746E+04  0.42410718566E+04  0.37678326160E+04 0.  0.
        2    1    3    3  502    0  0.10233502061E+04  0.20781801781E+03  0.27383827912E+04  0.29307293092E+04  0.25500000920E-02 0. -1.
       -2    1    3    3    0  502 -0.10233502061E+04 -0.20781801781E+03 -0.79155771660E+03  0.13103425474E+04  0.25500000920E-02 0.  1.
</event>
<event>
 5   0  0.1496287E-07  0.3434843E+04  0.7818609E-02  0.8129407E-01
        1   -1    0    0  501    0  0.00000000000E+00  0.00000000000E+00  0.25706675476E+04  0.25706675476E+04  0.50400001928E-02 0. -1.
       -1   -1    0    0    0  501  0.00000000000E+00  0.00000000000E+00 -0.11473812945E+04  0.11473812945E+04  0.50400001928E-02 0.  1.
    10030    2    1    2    0    0  0.00000000000E+00  0.00000000000E+00  0.14232862531E+04  0.37180488422E+04  0.34348425633E+04 0.  0.
        1    1    3    3  502    0  0.86984954433E+03 -0.76840440143E+03 -0.65861002856E+03  0.13344851905E+04  0.50400001928E-02 0.  1.
       -1    1    3    3    0  502 -0.86984954433E+03  0.76840440143E+03  0.20818962817E+04  0.23835636517E+04  0.50400001928E-02 0. -1.
</event>
<event>
 5   0  0.4824268E-07  0.3685334E+04  0.7818609E-02  0.8071220E-01
       -2   -1    0    0    0  501  0.00000000000E+00  0.00000000000E+00  0.12885555332E+04  0.12885555332E+04  0.25500000920E-02 0.  1.
        2   -1    0    0  501    0  0.00000000000E+00  0.00000000000E+00 -0.26350601252E+04  0.26350601252E+04  0.25500000920E-02 0. -1.
    10030    2    1    2    0    0  0.00000000000E+00  0.00000000000E+00 -0.13465045920E+04  0.39236156584E+04  0.36853338001E+04 0.  0.
        1    1    3    3  502    0 -0.59076287902E+03  0.15139887899E+04 -0.15978860139E+04  0.22791231973E+04  0.50400001928E-02 0. -1.
       -1    1    3    3    0  502  0.59076287902E+03 -0.15139887899E+04  0.25138142197E+03  0.16444924610E+04  0.50400001928E-02 0.  1.
</event>
<event>
 5   0  0.4758908E-07  0.3684908E+04  0.7818609E-02  0.8071315E-01
       -2   -1    0    0    0  501  0.00000000000E+00  0.00000000000E+00  0.15929405378E+04  0.15929405378E+04  0.25500000920E-02 0.  1.
        2   -1    0    0  501    0  0.00000000000E+00  0.00000000000E+00 -0.21310506268E+04  0.21310506268E+04  0.25500000920E-02 0. -1.
    10030    2    1    2    0    0  0.00000000000E+00  0.00000000000E+00 -0.53811008904E+03  0.37239911647E+04  0.36849081029E+04 0.  0.
        2    1    3    3  502    0 -0.75709089779E+03 -0.24117980185E+03  0.14108882867E+04  0.16192467638E+04  0.25500000920E-02 0.  1.
       -2    1    3    3    0  502  0.75709089779E+03  0.24117980185E+03 -0.19489983758E+04  0.21047444009E+04  0.25500000920E-02 0. -1.
</event>
<event>
 5   0  0.1496287E-07  0.3663321E+04  0.7818609E-02  0.8076139E-01
        1   -1    0    0  501    0  0.00000000000E+00  0.00000000000E+00  0.31769251968E+04  0.31769251968E+04  0.50400001928E-02 0.  1.
       -1   -1    0    0    0  501  0.00000000000E+00  0.00000000000E+00 -0.10560461837E+04  0.10560461837E+04  0.50400001928E-02 0. -1.
    10030    2    1    2    0    0  0.00000000000E+00  0.00000000000E+00  0.21208790131E+04  0.42329713805E+04  0.36633207503E+04 0.  0.
        1    1    3    3  502    0  0.94504036468E+03  0.70808199422E+03  0.26783467687E+04  0.29271185174E+04  0.50400001928E-02 0.  1.
       -1    1    3    3    0  502 -0.94504036468E+03 -0.70808199422E+03 -0.55746775560E+03  0.13058528631E+04  0.50400001928E-02 0. -1.
</event>
<event>
 5   0  0.1496000E-07  0.3687860E+04  0.7818609E-02  0.8070657E-01
       -1   -1    0    0    0  501  0.00000000000E+00  0.00000000000E+00  0.17686211793E+04  0.17686211793E+04  0.50400001928E-02 0.  1.
        1   -1    0    0  501    0  0.00000000000E+00  0.00000000000E+00 -0.19224459346E+04  0.19224459347E+04  0.50400001928E-02 0. -1.
    10030    2    1    2    0    0  0.00000000000E+00  0.00000000000E+00 -0.15382475538E+03  0.36910671139E+04  0.36878604074E+04 0.  0.
        2    1    3    3  502    0  0.61106019705E+02 -0.82819642567E+03 -0.17246839006E+04  0.19142042269E+04  0.25500000920E-02 0. -1.
       -2    1    3    3    0  502 -0.61106019705E+02  0.82819642567E+03  0.15708591452E+04  0.17768628870E+04  0.25500000920E-02 0.  1.
</event>
<event>
 5   0  0.4824268E-07  0.3646097E+04  0.7818609E-02  0.8080013E-01
        2   -1    0    0  501    0  0.00000000000E+00  0.00000000000E+00  0.26017267000E+04  0.26017267000E+04  0.25500000920E-02 0. -1.
       -2   -1    0    0    0  501  0.00000000000E+00  0.00000000000E+00 -0.12774232868E+04  0.12774232868E+04  0.25500000920E-02 0.  1.
    10030    2    1    2    0    0  0.00000000000E+00  0.00000000000E+00  0.13243034132E+04  0.38791499868E+04  0.36460972409E+04 0.  0.
        1    1    3    3  502    0 -0.12554074901E+04 -0.13215606405E+04  0.69469752087E+03  0.19506858123E+04  0.50400001928E-02 0. -1.
       -1    1    3    3    0  502  0.12554074901E+04  0.13215606405E+04  0.62960589235E+03  0.19284641745E+04  0.50400001928E-02 0.  1.
</event>
<event>
 5   0  0.1496000E-07  0.3674679E+04  0.7818609E-02  0.8073597E-01
        1   -1    0    0  501    0  0.00000000000E+00  0.00000000000E+00  0.14263157574E+04  0.14263157574E+04  0.50400001928E-02 0. -1.
       -1   -1    0    0    0  501  0.00000000000E+00  0.00000000000E+00 -0.23668080903E+04  0.23668080903E+04  0.50400001928E-02 0.  1.
    10030    2    1    2    0    0  0.00000000000E+00  0.00000000000E+00 -0.94049233288E+03  0.37931238477E+04  0.36746785840E+04 0.  0.
        2    1    3    3  502    0 -0.56526887114E+03  0.16115036814E+04 -0.11698401341E+04  0.20700239011E+04  0.25500000920E-02 0. -1.
       -2    1    3    3    0  502  0.56526887114E+03 -0.16115036814E+04  0.22934780121E+03  0.17230999466E+04  0.25500000920E-02 0.  1.
</event>
<event>
 5   0  0.1496000E-07  0.3719240E+04  0.7818609E-02  0.8063711E-01
        1   -1    0    0  501    0  0.00000000000E+00  0.00000000000E+00  0.12728882793E+04  0.12728882794E+04  0.50400001928E-02 0. -1.
       -1   -1    0    0    0  501  0.00000000000E+00  0.00000000000E+00 -0.27168034653E+04  0.27168034654E+04  0.50400001928E-02 0.  1.
    10030    2    1    2    0    0  0.00000000000E+00  0.00000000000E+00 -0.14439151860E+04  0.39896917447E+04  0.37192404001E+04 0.  0.
        3    1    3    3  502    0  0.76246956823E+03  0.96478634933E+03  0.77447842820E+03  0.14532685190E+04  0.10100000352E+00 0. -1.
       -3    1    3    3    0  502 -0.76246956823E+03 -0.96478634933E+03 -0.22183936142E+04  0.25364232257E+04  0.10100000352E+00 0.  1.
</event>
<event>
 5   0  0.4687817E-07  0.3707613E+04  0.7818609E-02  0.8066277E-01
       -2   -1    0    0    0  501  0.00000000000E+00  0.00000000000E+00  0.18061076326E+04  0.18061076326E+04  0.25500000920E-02 0. -1.
        2   -1    0    0  501    0  0.00000000000E+00  0.00000000000E+00 -0.19027648982E+04  0.19027648982E+04  0.25500000920E-02 0.  1.
    10030    2    1    2    0    0  0.00000000000E+00  0.00000000000E+00 -0.96657265582E+02  0.37088725309E+04  0.37076128200E+04 0.  0.
        4    1    3    3  502    0 -0.15171831207E+04  0.50330564645E+03  0.89083826300E+03  0.18299605512E+04  0.12699999809E+01 0. -1.
       -4    1    3    3    0  502  0.15171831207E+04 -0.50330564645E+03 -0.98749552858E+03  0.18789119796E+04  0.12699999809E+01 0.  1.
</event>
<event>
 5   0  0.4687817E-07  0.3600516E+04  0.7818609E-02  0.8090374E-01
        2   -1    0    0  501    0  0.00000000000E+00  0.00000000000E+00  0.17430562007E+04  0.17430562007E+04  0.25500000920E-02 0. -1.
       -2   -1    0    0    0  501  0.00000000000E+00  0.00000000000E+00 -0.18593366030E+04  0.18593366030E+04  0.25500000920E-02 0.  1.
    10030    2    1    2    0    0  0.00000000000E+00  0.00000000000E+00 -0.11628040235E+03  0.36023928037E+04  0.36005156270E+04 0.  0.
        4    1    3    3  502    0  0.43455833689E+03  0.14213166361E+04 -0.10745165933E+04  0.18340036670E+04  0.12699999809E+01 0.  1.
       -4    1    3    3    0  502 -0.43455833689E+03 -0.14213166361E+04  0.95823619097E+03  0.17683891367E+04  0.12699999809E+01 0. -1.
</event>
<event>
 5   0  0.4687817E-07  0.3622373E+04  0.7818609E-02  0.8085386E-01
        2   -1    0    0  501    0  0.00000000000E+00  0.00000000000E+00  0.11559955059E+04  0.11559955059E+04  0.25500000920E-02 0. -1.
       -2   -1    0    0    0  501  0.00000000000E+00  0.00000000000E+00 -0.28377250667E+04  0.28377250667E+04  0.25500000920E-02 0.  1.
    10030    2    1    2    0    0  0.00000000000E+00  0.00000000000E+00 -0.16817295608E+04  0.39937205726E+04  0.36223734893E+04 0.  0.
        4    1    3    3  502    0 -0.12106544435E+03  0.17784072437E+04 -0.11947130444E+04  0.21458634714E+04  0.12699999809E+01 0.  1.
       -4    1    3    3    0  502  0.12106544435E+03 -0.17784072437E+04 -0.48701651646E+03  0.18478571012E+04  0.12699999809E+01 0. -1.
</event>
<event>
 5   0  0.4793557E-07  0.3708123E+04  0.7818609E-02  0.8066164E-01
       -2   -1    0    0    0  501  0.00000000000E+00  0.00000000000E+00  0.11208171041E+04  0.11208171041E+04  0.25500000920E-02 0. -1.
        2   -1    0    0  501    0  0.00000000000E+00  0.00000000000E+00 -0.30669975384E+04  0.30669975384E+04  0.25500000920E-02 0.  1.
    10030    2    1    2    0    0  0.00000000000E+00  0.00000000000E+00 -0.19461804342E+04  0.41878146425E+04  0.37081225974E+04 0.  0.
        3    1    3    3  502    0 -0.15629710137E+03 -0.68955488206E+02  0.11119098541E+04  0.11249565223E+04  0.10100000352E+00 0. -1.
       -3    1    3    3    0  502  0.15629710137E+03  0.68955488206E+02 -0.30580902883E+04  0.30628581203E+04  0.10100000352E+00 0.  1.
</event>
<event>
 5   0  0.1496287E-07  0.3681274E+04  0.7818609E-02  0.8072125E-01
        1   -1    0    0  501    0  0.00000000000E+00  0.00000000000E+00  0.19772604953E+04  0.19772604953E+04  0.50400001928E-02 0.  1.
       -1   -1    0    0    0  501  0.00000000000E+00  0.00000000000E+00 -0.17134534414E+04  0.17134534414E+04  0.50400001928E-02 0. -1.
    10030    2    1    2    0    0  0.00000000000E+00  0.00000000000E+00  0.26380705390E+03  0.36907139367E+04  0.36812735840E+04 0.  0.
        1    1    3    3  502    0  0.14851953749E+04  0.38859794824E+03  0.11499533427E+04  0.19181257408E+04  0.50400001928E-02 0.  1.
       -1    1    3    3    0  502 -0.14851953749E+04 -0.38859794824E+03 -0.88614628879E+03  0.17725881959E+04  0.50400001928E-02 0. -1.
</event>
<event>
 5   0  0.4758908E-07  0.3678810E+04  0.7818609E-02  0.8072674E-01
       -2   -1    0    0    0  501  0.00000000000E+00  0.00000000000E+00  0.15795320874E+04  0.15795320874E+04  0.25500000920E-02 0. -1.
        2   -1    0    0  501    0  0.00000000000E+00  0.00000000000E+00 -0.21420332195E+04  0.21420332195E+04  0.25500000920E-02 0.  1.
    10030    2    1    2    0    0  0.00000000000E+00  0.00000000000E+00 -0.56250113203E+03  0.37215653069E+04  0.36788097002E+04 0.  0.
        2    1    3    3  502    0 -0.14603576298E+04 -0.83380282795E+03  0.47275657162E+03  0.17468172025E+04  0.25500000920E-02 0. -1.
       -2    1    3    3    0  502  0.14603576298E+04  0.83380282795E+03 -0.10352577037E+04  0.19747481044E+04  0.25500000920E-02 0.  1.
</event>
<event>
 5   0  0.4824268E-07  0.3679396E+04  0.7818609E-02  0.8072543E-01
        2   -1    0    0  501    0  0.00000000000E+00  0.00000000000E+00  0.22859081095E+04  0.22859081095E+04  0.25500000920E-02 0. -1.
       -2   -1    0    0    0  501  0.00000000000E+00  0.00000000000E+00 -0.14805884964E+04  0.14805884964E+04  0.25500000920E-02 0.  1.
    10030    2    1    2    0    0  0.00000000000E+00  0.00000000000E+00  0.80531961305E+03  0.37664966059E+04  0.36793962825E+04 0.  0.
        1    1    3    3  502    0  0.17497934533E+04  0.32046492081E+03  0.88282041140E+03  0.19859120760E+04  0.50400001928E-02 0.  1.
       -1    1    3    3    0  502 -0.17497934533E+04 -0.32046492081E+03 -0.77500798353E+02  0.17805845300E+04  0.50400001928E-02 0. -1.
</event>
<event>
 5   0  0.1496000E-07  0.3383986E+04  0.7818609E-02  0.8141848E-01
        1   -1    0    0  501    0  0.00000000000E+00  0.00000000000E+00  0.23398036542E+04  0.23398036542E+04  0.50400001928E-02 0.  1.
       -1   -1    0    0    0  501  0.00000000000E+00  0.00000000000E+00 -0.12235390209E+04  0.12235390209E+04  0.50400001928E-02 0. -1.
    10030    2    1    2    0    0  0.00000000000E+00  0.00000000000E+00  0.11162646334E+04  0.35633426751E+04  0.33839864492E+04 0.  0.
        2    1    3    3  502    0 -0.11103292010E+04  0.44531084545E+03  0.18180908683E+04  0.21763701636E+04  0.25500000920E-02 0.  1.
       -2    1    3    3    0  502  0.11103292010E+04 -0.44531084545E+03 -0.70182623493E+03  0.13869725115E+04  0.25500000920E-02 0. -1.
</event>
<event>
 5   0  0.1496000E-07  0.3715586E+04  0.7818609E-02  0.8064517E-01
       -1   -1    0    0    0  501  0.00000000000E+00  0.00000000000E+00  0.22146735740E+04  0.22146735740E+04  0.50400001928E-02 0. -1.
        1   -1    0    0  501    0  0.00000000000E+00  0.00000000000E+00 -0.15584212827E+04  0.15584212827E+04  0.50400001928E-02 0.  1.
    10030    2    1    2    0    0  0.00000000000E+00  0.00000000000E+00  0.65625229132E+03  0.37730948567E+04  0.37155857853E+04 0.  0.
        2    1    3    3  502    0  0.70107827961E+03 -0.13258417197E+04  0.14414656437E+04  0.20801899485E+04  0.25500000920E-02 0. -1.
       -2    1    3    3    0  502 -0.70107827961E+03  0.13258417197E+04 -0.78521335237E+03  0.16929049083E+04  0.25500000920E-02 0.  1.
</event>
<event>
 5   0  0.4824268E-07  0.3646197E+04  0.7818609E-02  0.8079991E-01
        2   -1    0    0  501    0  0.00000000000E+00  0.00000000000E+00  0.30736798278E+04  0.30736798278E+04  0.25500000920E-02 0. -1.
       -2   -1    0    0    0  501  0.00000000000E+00  0.00000000000E+00 -0.10813387241E+04  0.10813387241E+04  0.25500000920E-02 0.  1.
    10030    2    1    2    0    0  0.00000000000E+00  0.00000000000E+00  0.19923411037E+04  0.41550185519E+04  0.36461974841E+04 0.  0.
        1    1    3    3  502    0  0.10721302268E+04  0.83903106167E+03 -0.38557720952E+03  0.14149579959E+04  0.50400001928E-02 0.  1.
       -1    1    3    3    0  502 -0.10721302268E+04 -0.83903106167E+03  0.23779183133E+04  0.27400605560E+04  0.50400001928E-02 0. -1.
</event>
<event>
 5   0  0.4687817E-07  0.3709957E+04  0.7818609E-02  0.8065759E-01
       -2   -1    0    0    0  501  0.00000000000E+00  0.00000000000E+00  0.16797748734E+04  0.16797748734E+04  0.25500000920E-02 0. -1.
        2   -1    0    0  501    0  0.00000000000E+00  0.00000000000E+00 -0.20484566957E+04  0.20484566957E+04  0.25500000920E-02 0.  1.
    10030    2    1    2    0    0  0.00000000000E+00  0.00000000000E+00 -0.36868182227E+03  0.37282315691E+04  0.37099574589E+04 0.  0.
        4    1    3    3  502    0 -0.12286889736E+04  0.11237681262E+04 -0.10059333226E+04  0.19453623975E+04  0.12699999809E+01 0.  1.
       -4    1    3    3    0  502  0.12286889736E+04 -0.11237681262E+04  0.63725150035E+03  0.17828691715E+04  0.12699999809E+01 0. -1.
</event>
<event>
 5   0  0.4687817E-07  0.3607020E+04  0.7818609E-02  0.8088886E-01
       -2   -1    0    0    0  501  0.00000000000E+00  0.00000000000E+00  0.18398266753E+04  0.18398266753E+04  0.25500000920E-02 0.  1.
        2   -1    0    0  501    0  0.00000000000E+00  0.00000000000E+00 -0.17679104811E+04  0.17679104811E+04  0.25500000920E-02 0. -1.
    10030    2    1    2    0    0  0.00000000000E+00  0.00000000000E+00  0.71916194167E+02  0.36077371565E+04  0.36070203009E+04 0.  0.
        4    1    3    3  502    0 -0.14672641646E+04 -0.75023584505E+03  0.76885832005E+03  0.18184781222E+04  0.12699999809E+01 0. -1.
       -4    1    3    3    0  502  0.14672641646E+04  0.75023584505E+03 -0.69694212588E+03  0.17892590342E+04  0.12699999809E+01 0.  1.
</event>
<event>
 5   0  0.1496000E-07  0.3688820E+04  0.7818609E-02  0.8070444E-01
        1   -1    0    0  501    0  0.00000000000E+00  0.00000000000E+00  0.17456416118E+04  0.17456416118E+04  0.50400001928E-02 0.  1.
       -1   -1    0    0    0  501  0.00000000000E+00  0.00000000000E+00 -0.19487669742E+04  0.19487669742E+04  0.50400001928E-02 0. -1.
    10030    2    1    2    0    0  0.00000000000E+00  0.00000000000E+00 -0.20312536246E+03  0.36944085860E+04  0.36888202569E+04 0.  0.
        3    1    3    3  502    0 -0.10251535964E+04  0.81373230884E+02  0.14318633804E+04  0.17628937146E+04  0.10100000352E+00 0.  1.
       -3    1    3    3    0  502  0.10251535964E+04 -0.81373230884E+02 -0.16349887428E+04  0.19315148713E+04  0.10100000352E+00 0. -1.
</event>
<event>
 5   0  0.1496000E-07  0.3712703E+04  0.7818609E-02  0.8065152E-01
        1   -1    0    0  501    0  0.00000000000E+00  0.00000000000E+00  0.22473300624E+04  0.22473300624E+04  0.50400001928E-02 0. -1.
       -1   -1    0    0    0  501  0.00000000000E+00  0.00000000000E+00 -0.15333935685E+04  0.15333935685E+04  0.50400001928E-02 0.  1.
    10030    2    1    2    0    0  0.00000000000E+00  0.00000000000E+00  0.71393649390E+03  0.37807236310E+04  0.37127033084E+04 0.  0.
        5    1    3    3  502    0 -0.83224652675E+03 -0.13165153940E+04  0.13855088781E+04  0.20845872505E+04  0.46999998093E+01 0. -1.
       -5    1    3    3    0  502  0.83224652675E+03  0.13165153940E+04 -0.67157238416E+03  0.16961363804E+04  0.46999998093E+01 0.  1.
</event>
<event>
 5   0  0.4758908E-07  0.3685260E+04  0.7818609E-02  0.8071236E-01
       -2   -1    0    0    0  501  0.00000000000E+00  0.00000000000E+00  0.16681091037E+04  0.16681091037E+04  0.25500000920E-02 0.  1.
        2   -1    0    0  501    0  0.00000000000E+00  0.00000000000E+00 -0.20354099755E+04  0.20354099755E+04  0.25500000920E-02 0. -1.
    10030    2    1    2    0    0  0.00000000000E+00  0.00000000000E+00 -0.36730087179E+03  0.37035190792E+04  0.36852603218E+04 0.  0.
        2    1    3    3  502    0 -0.95941339306E+03 -0.11594737704E+04 -0.12521361466E+04  0.19577278699E+04  0.25500000920E-02 0. -1.
       -2    1    3    3    0  502  0.95941339306E+03  0.11594737704E+04  0.88483527476E+03  0.17457912093E+04  0.25500000920E-02 0.  1.
</event>
<event>
 5   0  0.1496000E-07  0.3685872E+04  0.7818609E-02  0.8071100E-01
        1   -1    0    0  501    0  0.00000000000E+00  0.00000000000E+00  0.12309753979E+04  0.12309753979E+04  0.50400001928E-02 0.  1.
       -1   -1    0    0    0  501  0.00000000000E+00  0.00000000000E+00 -0.27591236110E+04  0.27591236110E+04  0.50400001928E-02 0. -1.
    10030    2    1    2    0    0  0.00000000000E+00  0.00000000000E+00 -0.15281482132E+04  0.39900990089E+04  0.36858721002E+04 0.  0.
        2    1    3    3  502    0  0.57265473583E+03 -0.17335755928E+04 -0.10362104193E+04  0.20992736400E+04  0.25500000920E-02 0. -1.
       -2    1    3    3    0  502 -0.57265473583E+03  0.17335755928E+04 -0.49193779386E+03  0.18908253689E+04  0.25500000920E-02 0.  1.
</event>
<event>
 5   0  0.1496000E-07  0.3388837E+04  0.7818609E-02  0.8140652E-01
       -1   -1    0    0    0  501  0.00000000000E+00  0.00000000000E+00  0.12582306141E+04  0.12582306141E+04  0.50400001928E-02 0.  1.
        1   -1    0    0  501    0  0.00000000000E+00  0.00000000000E+00 -0.22818182969E+04  0.22818182969E+04  0.50400001928E-02 0. -1.
    10030    2    1    2    0    0  0.00000000000E+00  0.00000000000E+00 -0.10235876828E+04  0.35400489110E+04  0.33888367544E+04 0.  0.
        2    1    3    3  502    0 -0.64486379628E+03 -0.14374518282E+04 -0.11632692092E+04  0.19583953449E+04  0.25500000920E-02 0. -1.
       -2    1    3    3    0  502  0.64486379628E+03  0.14374518282E+04  0.13968152643E+03  0.15816535660E+04  0.25500000920E-02 0.  1.
</event>
<event>
 5   0  0.1496287E-07  0.3733984E+04  0.7818609E-02  0.8060472E-01
        1   -1    0    0  501    0  0.00000000000E+00  0.00000000000E+00  0.26654010292E+04  0.26654010292E+04  0.50400001928E-02 0.  1.
       -1   -1    0    0    0  501  0.00000000000E+00  0.00000000000E+00 -0.13077425688E+04  0.13077425689E+04  0.50400001928E-02 0. -1.
    10030    2    1    2    0    0  0.00000000000E+00  0.00000000000E+00  0.13576584604E+04  0.39731435981E+04  0.37339836041E+04 0.  0.
        1    1    3    3  502    0 -0.18075800506E+03 -0.16933266759E+04  0.14931085447E+04  0.22648182739E+04  0.50400001928E-02 0.  1.
       -1    1    3    3    0  502  0.18075800506E+03  0.16933266759E+04 -0.13545008431E+03  0.17083253241E+04  0.50400001928E-02 0. -1.
</event>
<event>
 5   0  0.4758908E-07  0.3686781E+04  0.7818609E-02  0.8070898E-01
        2   -1    0    0  501    0  0.00000000000E+00  0.00000000000E+00  0.97724803141E+03  0.97724803142E+03  0.25500000920E-02 0.  1.
       -2   -1    0    0    0  501  0.00000000000E+00  0.00000000000E+00 -0.34772014783E+04  0.34772014783E+04  0.25500000920E-02 0. -1.
    10030    2    1    2    0    0  0.00000000000E+00  0.00000000000E+00 -0.24999534469E+04  0.44544495097E+04  0.36867808720E+04 0.  0.
        2    1    3    3  502    0 -0.11927283243E+03  0.15843017281E+04 -0.12053132277E+03  0.15933504868E+04  0.25500000920E-02 0.  1.
       -2    1    3    3    0  502  0.11927283243E+03 -0.15843017281E+04 -0.23794221241E+04  0.28610990229E+04  0.25500000920E-02 0. -1.
</event>
<event>
 5   0  0.4687817E-07  0.3668219E+04  0.7818609E-02  0.8075042E-01
       -2   -1    0    0    0  501  0.00000000000E+00  0.00000000000E+00  0.13379855863E+04  0.13379855863E+04  0.25500000920E-02 0. -1.
        2   -1    0    0  501    0  0.00000000000E+00  0.00000000000E+00 -0.25141953678E+04  0.25141953678E+04  0.25500000920E-02 0.  1.
    10030    2    1    2    0    0  0.00000000000E+00  0.00000000000E+00 -0.11762097815E+04  0.38521809540E+04  0.36682187302E+04 0.  0.
        4    1    3    3  502    0  0.79762224180E+03  0.14735301302E+04  0.19527010506E+03  0.16868978369E+04  0.12699999809E+01 0. -1.
       -4    1    3    3    0  502 -0.79762224180E+03 -0.14735301302E+04 -0.13714798865E+04  0.21652831171E+04  0.12699999809E+01 0.  1.
</event>
<event>
 5   0  0.1496000E-07  0.3694270E+04  0.7818609E-02  0.8069233E-01
        1   -1    0    0  501    0  0.00000000000E+00  0.00000000000E+00  0.21019355602E+04  0.21019355602E+04  0.50400001928E-02 0.  1.
       -1   -1    0    0    0  501  0.00000000000E+00  0.00000000000E+00 -0.16232222155E+04  0.16232222155E+04  0.50400001928E-02 0. -1.
    10030    2    1    2    0    0  0.00000000000E+00  0.00000000000E+00  0.47871334475E+03  0.37251577758E+04  0.36942704270E+04 0.  0.
        3    1    3    3  502    0 -0.63701077548E+03  0.16807543890E+04  0.66858031028E+03  0.19177376478E+04  0.10100000352E+00 0.  1.
       -3    1    3    3    0  502  0.63701077548E+03 -0.16807543890E+04 -0.18986696553E+03  0.18074201280E+04  0.10100000352E+00 0. -1.
</event>
<event>
 5   0  0.4824268E-07  0.3703089E+04  0.7818609E-02  0.8067278E-01
       -2   -1    0    0    0  501  0.00000000000E+00  0.00000000000E+00  0.13638915459E+04  0.13638915459E+04  0.25500000920E-02 0.  1.
        2   -1    0    0  501    0  0.00000000000E+00  0.00000000000E+00 -0.25135560468E+04  0.25135560468E+04  0.25500000920E-02 0. -1.
    10030    2    1    2    0    0  0.00000000000E+00  0.00000000000E+00 -0.11496645009E+04  0.38774475927E+04  0.37030894358E+04 0.  0.
        1    1    3    3  502    0 -0.41370621841E+03  0.14571084584E+04  0.54015295070E+03  0.16081303134E+04  0.50400001928E-02 0.  1.
       -1    1    3    3    0  502  0.41370621841E+03 -0.14571084584E+04 -0.16898174516E+04  0.22693172793E+04  0.50400001928E-02 0. -1.
</event>
<event>
 5   0  0.1496000E-07  0.3743957E+04  0.7818609E-02  0.8058290E-01
       -1   -1    0    0    0  501  0.00000000000E+00  0.00000000000E+00  0.14868296612E+04  0.14868296612E+04  0.50400001928E-02 0. -1.
        1   -1    0    0  501    0  0.00000000000E+00  0.00000000000E+00 -0.23568967913E+04  0.23568967913E+04  0.50400001928E-02 0.  1.
    10030    2    1    2    0    0  0.00000000000E+00  0.00000000000E+00 -0.87006713005E+03  0.38437264525E+04  0.37439572955E+04 0.  0.
        2    1    3    3  502    0 -0.18434785978E+04  0.15224346151E+03 -0.73029555441E+03  0.19886988231E+04  0.25500000920E-02 0.  1.
       -2    1    3    3    0  502  0.18434785978E+04 -0.15224346151E+03 -0.13977157565E+03  0.18550276293E+04  0.25500000920E-02 0. -1.
</event>
<event>
 5   0  0.1496287E-07  0.3699505E+04  0.7818609E-02  0.8068071E-01
       -1   -1    0    0    0  501  0.00000000000E+00  0.00000000000E+00  0.15793023949E+04  0.15793023949E+04  0.50400001928E-02 0. -1.
        1   -1    0    0  501    0  0.00000000000E+00  0.00000000000E+00 -0.21665167809E+04  0.21665167809E+04  0.50400001928E-02 0.  1.
    10030    2    1    2    0    0  0.00000000000E+00  0.00000000000E+00 -0.58721438600E+03  0.37458191758E+04  0.36995054484E+04 0.  0.
        1    1    3    3  502    0  0.11608739199E+04 -0.89930591624E+03 -0.14325022712E+04  0.20514487919E+04  0.50400001928E-02 0.  1.
       -1    1    3    3    0  502 -0.11608739199E+04  0.89930591624E+03  0.84528788523E+03  0.16943703839E+04  0.50400001928E-02 0. -1.
</event>
<event>
 5   0  0.1496000E-07  0.3708885E+04  0.7818609E-02  0.8065996E-01
       -1   -1    0    0    0  501  0.00000000000E+00  0.00000000000E+00  0.14798099017E+04  0.14798099017E+04  0.50400001928E-02 0.  1.
        1   -1    0    0  501    0  0.00000000000E+00  0.00000000000E+00 -0.23239182554E+04  0.23239182554E+04  0.50400001928E-02 0. -1.
    10030    2    1    2    0    0  0.00000000000E+00  0.00000000000E+00 -0.84410835372E+03  0.38037281571E+04  0.37088851398E+04 0.  0.
        3    1    3    3  502    0  0.15518613363E+04 -0.67782061647E+03  0.35307926144E+03  0.17298495224E+04  0.10100000352E+00 0.  1.
       -3    1    3    3    0  502 -0.15518613363E+04  0.67782061647E+03 -0.11971876152E+04  0.20738786346E+04  0.10100000352E+00 0. -1.
</event>
<event>
 5   0  0.1496287E-07  0.3736699E+04  0.7818609E-02  0.8059877E-01
        1   -1    0    0  501    0  0.00000000000E+00  0.00000000000E+00  0.28004169673E+04  0.28004169673E+04  0.50400001928E-02 0. -1.
       -1   -1    0    0    0  501  0.00000000000E+00  0.00000000000E+00 -0.12465037820E+04  0.12465037820E+04  0.50400001928E-02 0.  1.
    10030    2    1    2    0    0  0.00000000000E+00  0.00000000000E+00  0.15539131853E+04  0.40469207493E+04  0.37366992605E+04 0.  0.
        1    1    3    3  502    0  0.60453420740E+03 -0.46554770006E+03 -0.10700720550E+04  0.13142490144E+04  0.50400001928E-02 0.  1.
       -1    1    3    3    0  502 -0.60453420740E+03  0.46554770006E+03  0.26239852403E+04  0.27326717348E+04  0.50400001928E-02 0. -1.
</event>
<event>
 5   0  0.1496287E-07  0.3705697E+04  0.7818609E-02  0.8066701E-01
        1   -1    0    0  501    0  0.00000000000E+00  0.00000000000E+00  0.24020553692E+04  0.24020553692E+04  0.50400001928E-02 0.  1.
       -1   -1    0    0    0  501  0.00000000000E+00  0.00000000000E+00 -0.14292121726E+04  0.14292121726E+04  0.50400001928E-02 0. -1.
    10030    2    1    2    0    0  0.00000000000E+00  0.00000000000E+00  0.97284319668E+03  0.38312675418E+04  0.37056965731E+04 0.  0.
        1    1    3    3  502    0 -0.15929348209E+04  0.59507197274E+03 -0.27437709886E+03  0.17224502282E+04  0.50400001928E-02 0. -1.
       -1    1    3    3    0  502  0.15929348209E+04 -0.59507197274E+03  0.12472202955E+04  0.21088173136E+04  0.50400001928E-02 0.  1.
</event>
<event>
 5   0  0.1496000E-07  0.3739121E+04  0.7818609E-02  0.8059347E-01
       -1   -1    0    0    0  501  0.00000000000E+00  0.00000000000E+00  0.21135329878E+04  0.21135329878E+04  0.50400001928E-02 0. -1.
        1   -1    0    0  501    0  0.00000000000E+00  0.00000000000E+00 -0.16537506558E+04  0.16537506558E+04  0.50400001928E-02 0.  1.
    10030    2    1    2    0    0  0.00000000000E+00  0.00000000000E+00  0.45978233197E+03  0.37672836436E+04  0.37391210542E+04 0.  0.
        2    1    3    3  502    0  0.15986493352E+04  0.63166290037E+03 -0.51088724767E+03  0.17932326945E+04  0.25500000920E-02 0.  1.
       -2    1    3    3    0  502 -0.15986493352E+04 -0.63166290037E+03  0.97066957964E+03  0.19740509491E+04  0.25500000920E-02 0. -1.
</event>
<event>
 5   0  0.1496287E-07  0.3787707E+04  0.7818609E-02  0.8048798E-01
        1   -1    0    0  501    0  0.00000000000E+00  0.00000000000E+00  0.19115075555E+04  0.19115075555E+04  0.50400001928E-02 0.  1.
       -1   -1    0    0    0  501  0.00000000000E+00  0.00000000000E+00 -0.18763625379E+04  0.18763625379E+04  0.50400001928E-02 0. -1.
    10030    2    1    2    0    0  0.00000000000E+00  0.00000000000E+00  0.35145017638E+02  0.37878700934E+04  0.37877070467E+04 0.  0.
        1    1    3    3  502    0 -0.15511029468E+04  0.31423926538E+02  0.11037929860E+04  0.19040133326E+04  0.50400001928E-02 0.  1.
       -1    1    3    3    0  502  0.15511029468E+04 -0.31423926538E+02 -0.10686479684E+04  0.18838567608E+04  0.50400001928E-02 0. -1.
</event>
<event>
 5   0  0.4758908E-07  0.3696983E+04  0.7818609E-02  0.8068631E-01
        2   -1    0    0  501    0  0.00000000000E+00  0.00000000000E+00  0.15745234870E+04  0.15745234870E+04  0.25500000920E-02 0. -1.
       -2   -1    0    0    0  501  0.00000000000E+00  0.00000000000E+00 -0.21701304684E+04  0.21701304684E+04  0.25500000920E-02 0.  1.
    10030    2    1    2    0    0  0.00000000000E+00  0.00000000000E+00 -0.59560698148E+03  0.37446539554E+04  0.36969833066E+04 0.  0.
        2    1    3    3  502    0 -0.13264286740E+04 -0.22624094727E+02 -0.16016455867E+04  0.20797099467E+04  0.25500000920E-02 0.  1.
       -2    1    3    3    0  502  0.13264286740E+04  0.22624094727E+02  0.10060386053E+04  0.16649440087E+04  0.25500000920E-02 0. -1.
</event>
<event>
 5   0  0.1496000E-07  0.3665551E+04  0.7818609E-02  0.8075639E-01
       -1   -1    0    0    0  501  0.00000000000E+00  0.00000000000E+00  0.19843896625E+04  0.19843896625E+04  0.50400001928E-02 0.  1.
        1   -1    0    0  501    0  0.00000000000E+00  0.00000000000E+00 -0.16927453254E+04  0.16927453255E+04  0.50400001928E-02 0. -1.
    10030    2    1    2    0    0  0.00000000000E+00  0.00000000000E+00  0.29164433705E+03  0.36771349880E+04  0.36655511591E+04 0.  0.
        2    1    3    3  502    0  0.65350040608E+03 -0.13366901266E+04 -0.92772940416E+03  0.17534209770E+04  0.25500000920E-02 0. -1.
       -2    1    3    3    0  502 -0.65350040608E+03  0.13366901266E+04  0.12193737412E+04  0.19237140110E+04  0.25500000920E-02 0.  1.
</event>
<event>
 5   0  0.1496000E-07  0.3716461E+04  0.7818609E-02  0.8064324E-01
        1   -1    0    0  501    0  0.00000000000E+00  0.00000000000E+00  0.21579513134E+04  0.21579513134E+04  0.50400001928E-02 0.  1.
       -1   -1    0    0    0  501  0.00000000000E+00  0.00000000000E+00 -0.16001387356E+04  0.16001387356E+04  0.50400001928E-02 0. -1.
    10030    2    1    2    0    0  0.00000000000E+00  0.00000000000E+00  0.55781257779E+03  0.37580900490E+04  0.37164614816E+04 0.  0.
        5    1    3    3  502    0 -0.12681791255E+04 -0.10054424288E+04 -0.64445192463E+03  0.17419911438E+04  0.46999998093E+01 0. -1.
       -5    1    3    3    0  502  0.12681791255E+04  0.10054424288E+04  0.12022645024E+04  0.20160989052E+04  0.46999998093E+01 0.  1.
</event>
<event>
 5   0  0.4824268E-07  0.3743681E+04  0.7818609E-02  0.8058350E-01
       -2   -1    0    0    0  501  0.00000000000E+00  0.00000000000E+00  0.17018833070E+04  0.17018833070E+04  0.25500000920E-02 0.  1.
        2   -1    0    0  501    0  0.00000000000E+00  0.00000000000E+00 -0.20587705952E+04  0.20587705952E+04  0.25500000920E-02 0. -1.
    10030    2    1    2    0    0  0.00000000000E+00  0.00000000000E+00 -0.35688728820E+03  0.37606539022E+04  0.37436812412E+04 0.  0.
        1    1    3    3  502    0  0.15771911886E+04  0.44701702305E+03  0.72921857482E+03  0.17941895090E+04  0.50400001928E-02 0.  1.
       -1    1    3    3    0  502 -0.15771911886E+04 -0.44701702305E+03 -0.10861058630E+04  0.19664643932E+04  0.50400001928E-02 0. -1.
</event>
<event>
 5   0  0.4824268E-07  0.3710340E+04  0.7818609E-02  0.8065674E-01
       -2   -1    0    0    0  501  0.00000000000E+00  0.00000000000E+00  0.23408684243E+04  0.23408684243E+04  0.25500000920E-02 0.  1.
        2   -1    0    0  501    0  0.00000000000E+00  0.00000000000E+00 -0.14702471978E+04  0.14702471978E+04  0.25500000920E-02 0. -1.
    10030    2    1    2    0    0  0.00000000000E+00  0.00000000000E+00  0.87062122644E+03  0.38111156221E+04  0.37103397372E+04 0.  0.
        1    1    3    3  502    0 -0.75290743545E+02 -0.11785632965E+04 -0.10342744430E+04  0.15698419549E+04  0.50400001928E-02 0. -1.
       -1    1    3    3    0  502  0.75290743545E+02  0.11785632965E+04  0.19048956694E+04  0.22412736672E+04  0.50400001928E-02 0.  1.
</event>
<event>
 5   0  0.4758908E-07  0.3683380E+04  0.7818609E-02  0.8071655E-01
       -2   -1    0    0    0  501  0.00000000000E+00  0.00000000000E+00  0.19610584477E+04  0.19610584477E+04  0.25500000920E-02 0. -1.
        2   -1    0    0  501    0  0.00000000000E+00  0.00000000000E+00 -0.17295871690E+04  0.17295871690E+04  0.25500000920E-02 0.  1.
    10030    2    1    2    0    0  0.00000000000E+00  0.00000000000E+00  0.23147127866E+03  0.36906456167E+04  0.36833797137E+04 0.  0.
        2    1    3    3  502    0 -0.89640332906E+03 -0.74509462447E+03  0.15444223227E+04  0.19349277089E+04  0.25500000920E-02 0. -1.
       -2    1    3    3    0  502  0.89640332906E+03  0.74509462447E+03 -0.13129510441E+04  0.17557179078E+04  0.25500000920E-02 0.  1.
</event>
<event>
 5   0  0.4857514E-07  0.3688590E+04  0.7818609E-02  0.8070495E-01
        2   -1    0    0  501    0  0.00000000000E+00  0.00000000000E+00  0.34461906858E+04  0.34461906858E+04  0.25500000920E-02 0. -1.
       -2   -1    0    0    0  501  0.00000000000E+00  0.00000000000E+00 -0.98700982829E+03  0.98700982829E+03  0.25500000920E-02 0.  1.
    10030    2    1    2    0    0  0.00000000000E+00  0.00000000000E+00  0.24591808576E+04  0.44332005141E+04  0.36885900163E+04 0.  0.
        5    1    3    3  502    0  0.76524437922E+03 -0.43825930439E+03  0.31763696795E+04  0.32965158287E+04  0.46999998093E+01 0. -1.
       -5    1    3    3    0  502 -0.76524437922E+03  0.43825930439E+03 -0.71718882196E+03  0.11366846855E+04  0.46999998093E+01 0.  1.
</event>
<event>
 5   0  0.1522273E-07  0.3419448E+04  0.7818609E-02  0.8133150E-01
       -1   -1    0    0    0  501  0.00000000000E+00  0.00000000000E+00  0.16358400556E+04  0.16358400556E+04  0.50400001928E-02 0.  1.
        1   -1    0    0  501    0  0.00000000000E+00  0.00000000000E+00 -0.17869444573E+04  0.17869444573E+04  0.50400001928E-02 0. -1.
    10030    2    1    2    0    0  0.00000000000E+00  0.00000000000E+00 -0.15110440167E+03  0.34227845130E+04  0.34194475112E+04 0.  0.
        4    1    3    3  502    0 -0.45395726927E+03 -0.16467885918E+04 -0.36222159559E+01  0.17082167900E+04  0.12699999809E+01 0.  1.
       -4    1    3    3    0  502  0.45395726927E+03  0.16467885918E+04 -0.14748218572E+03  0.17145677229E+04  0.12699999809E+01 0. -1.
</event>
<event>
 5   0  0.4824268E-07  0.3727578E+04  0.7818609E-02  0.8061877E-01
       -2   -1    0    0    0  501  0.00000000000E+00  0.00000000000E+00  0.11072087206E+04  0.11072087206E+04  0.25500000920E-02 0.  1.
        2   -1    0    0  501    0  0.00000000000E+00  0.00000000000E+00 -0.31373578168E+04  0.31373578168E+04  0.25500000920E-02 0. -1.
    10030    2    1    2    0    0  0.00000000000E+00  0.00000000000E+00 -0.20301490962E+04  0.42445665375E+04  0.37275782672E+04 0.  0.
        1    1    3    3  502    0 -0.59520064673E+03  0.15965157561E+04 -0.15494037205E+03  0.17108865796E+04  0.50400001928E-02 0.  1.
       -1    1    3    3    0  502  0.59520064673E+03 -0.15965157561E+04 -0.18752087242E+04  0.25336799578E+04  0.50400001928E-02 0. -1.
</event>
<event>
 5   0  0.1496287E-07  0.3626338E+04  0.7818609E-02  0.8084485E-01
        1   -1    0    0  501    0  0.00000000000E+00  0.00000000000E+00  0.17967214165E+04  0.17967214165E+04  0.50400001928E-02 0.  1.
       -1   -1    0    0    0  501  0.00000000000E+00  0.00000000000E+00 -0.18297671243E+04  0.18297671243E+04  0.50400001928E-02 0. -1.
    10030    2    1    2    0    0  0.00000000000E+00  0.00000000000E+00 -0.33045707838E+02  0.36264885408E+04  0.36263379762E+04 0.  0.
        1    1    3    3  502    0  0.99077134428E+03 -0.45927571141E+02 -0.15344279547E+04  0.18270759006E+04  0.50400001928E-02 0. -1.
       -1    1    3    3    0  502 -0.99077134428E+03  0.45927571141E+02  0.15013822468E+04  0.17994126402E+04  0.50400001928E-02 0.  1.
</event>
<event>
 5   0  0.1496000E-07  0.3636875E+04  0.7818609E-02  0.8082097E-01
        1   -1    0    0  501    0  0.00000000000E+00  0.00000000000E+00  0.23060530542E+04  0.23060530542E+04  0.50400001928E-02 0.  1.
       -1   -1    0    0    0  501  0.00000000000E+00  0.00000000000E+00 -0.14339282072E+04  0.14339282072E+04  0.50400001928E-02 0. -1.
    10030    2    1    2    0    0  0.00000000000E+00  0.00000000000E+00  0.87212484703E+03  0.37399812614E+04  0.36368747692E+04 0.  0.
        2    1    3    3  502    0 -0.76843503813E+03 -0.15420409113E+04  0.10342158292E+04  0.20094738021E+04  0.25500000920E-02 0.  1.
       -2    1    3    3    0  502  0.76843503813E+03  0.15420409113E+04 -0.16209098219E+03  0.17305074592E+04  0.25500000920E-02 0. -1.
</event>
<event>
 5   0  0.1496000E-07  0.3733728E+04  0.7818609E-02  0.8060528E-01
       -1   -1    0    0    0  501  0.00000000000E+00  0.00000000000E+00  0.19953558844E+04  0.19953558844E+04  0.50400001928E-02 0.  1.
        1   -1    0    0  501    0  0.00000000000E+00  0.00000000000E+00 -0.17466468171E+04  0.17466468171E+04  0.50400001928E-02 0. -1.
    10030    2    1    2    0    0  0.00000000000E+00  0.00000000000E+00  0.24870906729E+03  0.37420027015E+04  0.37337284339E+04 0.  0.
        3    1    3    3  502    0  0.11017545697E+03 -0.72820578132E+03 -0.15948944242E+04  0.17567329125E+04  0.10100000352E+00 0. -1.
       -3    1    3    3    0  502 -0.11017545697E+03  0.72820578132E+03  0.18436034915E+04  0.19852697890E+04  0.10100000352E+00 0.  1.
</event>
<event>
 5   0  0.1496000E-07  0.3620366E+04  0.7818609E-02  0.8085843E-01
        1   -1    0    0  501    0  0.00000000000E+00  0.00000000000E+00  0.27303652052E+04  0.27303652052E+04  0.50400001928E-02 0. -1.
       -1   -1    0    0    0  501  0.00000000000E+00  0.00000000000E+00 -0.12001186111E+04  0.12001186111E+04  0.50400001928E-02 0.  1.
    10030    2    1    2    0    0  0.00000000000E+00  0.00000000000E+00  0.15302465941E+04  0.39304838163E+04  0.36203657814E+04 0.  0.
        5    1    3    3  502    0  0.13080477128E+03  0.42073358345E+03  0.26712558133E+04  0.27073522761E+04  0.46999998093E+01 0. -1.
       -5    1    3    3    0  502 -0.13080477128E+03 -0.42073358345E+03 -0.11410092192E+04  0.12231315402E+04  0.46999998093E+01 0.  1.
</event>
<event>
 5   0  0.1496000E-07  0.3684392E+04  0.7818609E-02  0.8071430E-01
        1   -1    0    0  501    0  0.00000000000E+00  0.00000000000E+00  0.23760688170E+04  0.23760688170E+04  0.50400001928E-02 0. -1.
       -1   -1    0    0    0  501  0.00000000000E+00  0.00000000000E+00 -0.14282776192E+04  0.14282776192E+04  0.50400001928E-02 0.  1.
    10030    2    1    2    0    0  0.00000000000E+00  0.00000000000E+00  0.94779119779E+03  0.38043464363E+04  0.36843918972E+04 0.  0.
        2    1    3    3  502    0  0.10429787024E+04  0.29247336087E+03 -0.10646984456E+04  0.15188574721E+04  0.25500000920E-02 0.  1.
       -2    1    3    3    0  502 -0.10429787024E+04 -0.29247336087E+03  0.20124896434E+04  0.22854889642E+04  0.25500000920E-02 0. -1.
</event>
<event>
 5   0  0.4824268E-07  0.3769763E+04  0.7818609E-02  0.8052675E-01
        2   -1    0    0  501    0  0.00000000000E+00  0.00000000000E+00  0.11647717379E+04  0.11647717379E+04  0.25500000920E-02 0. -1.
       -2   -1    0    0    0  501  0.00000000000E+00  0.00000000000E+00 -0.30501928767E+04  0.30501928767E+04  0.25500000920E-02 0.  1.
    10030    2    1    2    0    0  0.00000000000E+00  0.00000000000E+00 -0.18854211388E+04  0.42149646146E+04  0.37697631002E+04 0.  0.
        1    1    3    3  502    0  0.47353482612E+03  0.28555041080E+03  0.10720400519E+04  0.12062521053E+04  0.50400001928E-02 0. -1.
       -1    1    3    3    0  502 -0.47353482612E+03 -0.28555041080E+03 -0.29574611907E+04  0.30087125092E+04  0.50400001928E-02 0.  1.
</event>
<event>
 5   0  0.4793557E-07  0.3680692E+04  0.7818609E-02  0.8072254E-01
        2   -1    0    0  501    0  0.00000000000E+00  0.00000000000E+00  0.19586571011E+04  0.19586571011E+04  0.25500000920E-02 0.  1.
       -2   -1    0    0    0  501  0.00000000000E+00  0.00000000000E+00 -0.17291814685E+04  0.17291814685E+04  0.25500000920E-02 0. -1.
    10030    2    1    2    0    0  0.00000000000E+00  0.00000000000E+00  0.22947563261E+03  0.36878385697E+04  0.36806920884E+04 0.  0.
        3    1    3    3  502    0 -0.77210183497E+03  0.71057510862E+03 -0.14000889990E+04  0.17496592365E+04  0.10100000352E+00 0. -1.
       -3    1    3    3    0  502  0.77210183497E+03 -0.71057510862E+03  0.16295646316E+04  0.19381793331E+04  0.10100000352E+00 0.  1.
</event>
<event>
 5   0  0.1496287E-07  0.3683218E+04  0.7818609E-02  0.8071691E-01
       -1   -1    0    0    0  501  0.00000000000E+00  0.00000000000E+00  0.14802488185E+04  0.14802488185E+04  0.50400001928E-02 0.  1.
        1   -1    0    0  501    0  0.00000000000E+00  0.00000000000E+00 -0.22911852433E+04  0.22911852433E+04  0.50400001928E-02 0. -1.
    10030    2    1    2    0    0  0.00000000000E+00  0.00000000000E+00 -0.81093642487E+03  0.37714340618E+04  0.36832182935E+04 0.  0.
        1    1    3    3  502    0  0.46389552783E+03  0.22384203187E+03  0.14049913292E+04  0.14964307372E+04  0.50400001928E-02 0.  1.
       -1    1    3    3    0  502 -0.46389552783E+03 -0.22384203187E+03 -0.22159277541E+04  0.22750033247E+04  0.50400001928E-02 0. -1.
</event>
<event>
 5   0  0.1496000E-07  0.3732301E+04  0.7818609E-02  0.8060841E-01
       -1   -1    0    0    0  501  0.00000000000E+00  0.00000000000E+00  0.14306788544E+04  0.14306788544E+04  0.50400001928E-02 0.  1.
        1   -1    0    0  501    0  0.00000000000E+00  0.00000000000E+00 -0.24341712836E+04  0.24341712836E+04  0.50400001928E-02 0. -1.
    10030    2    1    2    0    0  0.00000000000E+00  0.00000000000E+00 -0.10034924292E+04  0.38648501380E+04  0.37323008364E+04 0.  0.
        2    1    3    3  502    0  0.16589956213E+04  0.30483927656E+03  0.32493130607E+03  0.17177816537E+04  0.25500000920E-02 0.  1.
       -2    1    3    3    0  502 -0.16589956213E+04 -0.30483927656E+03 -0.13284237353E+04  0.21470684843E+04  0.25500000920E-02 0. -1.
</event>
<event>
 5   0  0.1496287E-07  0.3691970E+04  0.7818609E-02  0.8069744E-01
        1   -1    0    0  501    0  0.00000000000E+00  0.00000000000E+00  0.17110430614E+04  0.17110430614E+04  0.50400001928E-02 0.  1.
       -1   -1    0    0    0  501  0.00000000000E+00  0.00000000000E+00 -0.19915691060E+04  0.19915691060E+04  0.50400001928E-02 0. -1.
    10030    2    1    2    0    0  0.00000000000E+00  0.00000000000E+00 -0.28052604454E+03  0.37026121674E+04  0.36919699350E+04 0.  0.
        1    1    3    3  502    0 -0.17936244714E+04 -0.42277358404E+03 -0.24936194992E+03  0.18595718942E+04  0.50400001928E-02 0.  1.
       -1    1    3    3    0  502  0.17936244714E+04  0.42277358404E+03 -0.31164094628E+02  0.18430402732E+04  0.50400001928E-02 0. -1.
</event>
<event>
 5   0  0.1522273E-07  0.3681553E+04  0.7818609E-02  0.8072062E-01
       -1   -1    0    0    0  501  0.00000000000E+00  0.00000000000E+00  0.15810536517E+04  0.15810536517E+04  0.50400001928E-02 0. -1.
        1   -1    0    0  501    0  0.00000000000E+00  0.00000000000E+00 -0.21431641207E+04  0.21431641207E+04  0.50400001928E-02 0.  1.
    10030    2    1    2    0    0  0.00000000000E+00  0.00000000000E+00 -0.56211046901E+03  0.37242177724E+04  0.36815526394E+04 0.  0.
        4    1    3    3  502    0  0.15136604150E+04  0.70240102729E+03 -0.10671846454E+04  0.19807624126E+04  0.12699999809E+01 0.  1.
       -4    1    3    3    0  502 -0.15136604150E+04 -0.70240102729E+03  0.50507417640E+03  0.17434553598E+04  0.12699999809E+01 0. -1.
</event>
<event>
 5   0  0.1496000E-07  0.3000037E+04  0.7818609E-02  0.8243720E-01
        1   -1    0    0  501    0  0.00000000000E+00  0.00000000000E+00  0.20375957951E+04  0.20375957951E+04  0.50400001928E-02 0. -1.
       -1   -1    0    0    0  501  0.00000000000E+00  0.00000000000E+00 -0.11042695463E+04  0.11042695463E+04  0.50400001928E-02 0.  1.
    10030    2    1    2    0    0  0.00000000000E+00  0.00000000000E+00  0.93332624883E+03  0.31418653414E+04  0.30000366559E+04 0.  0.
        5    1    3    3  502    0  0.83901525632E+03  0.46452432760E+03 -0.74125184619E+03  0.12121080153E+04  0.46999998093E+01 0.  1.
       -5    1    3    3    0  502 -0.83901525632E+03 -0.46452432760E+03  0.16745780950E+04  0.19297573261E+04  0.46999998093E+01 0. -1.
</event>
<event>
 5   0  0.4824268E-07  0.4019621E+04  0.7818609E-02  0.8000600E-01
        2   -1    0    0  501    0  0.00000000000E+00  0.00000000000E+00  0.27698036312E+04  0.27698036312E+04  0.25500000920E-02 0.  1.
       -2   -1    0    0    0  501  0.00000000000E+00  0.00000000000E+00 -0.14583484600E+04  0.14583484600E+04  0.25500000920E-02 0. -1.
    10030    2    1    2    0    0  0.00000000000E+00  0.00000000000E+00  0.13114551712E+04  0.42281520912E+04  0.40196213056E+04 0.  0.
        1    1    3    3  502    0 -0.44718122610E+03 -0.62150971480E+03 -0.12989252306E+04  0.15077971114E+04  0.50400001928E-02 0. -1.
       -1    1    3    3    0  502  0.44718122610E+03  0.62150971480E+03  0.26103804017E+04  0.27203549798E+04  0.50400001928E-02 0.  1.
</event>
<event>
 5   0  0.1496000E-07  0.3685377E+04  0.7818609E-02  0.8071210E-01
        1   -1    0    0  501    0  0.00000000000E+00  0.00000000000E+00  0.23014055882E+04  0.23014055882E+04  0.50400001928E-02 0.  1.
       -1   -1    0    0    0  501  0.00000000000E+00  0.00000000000E+00 -0.14754028230E+04  0.14754028230E+04  0.50400001928E-02 0. -1.
    10030    2    1    2    0    0  0.00000000000E+00  0.00000000000E+00  0.82600276520E+03  0.37768084113E+04  0.36853766710E+04 0.  0.
        5    1    3    3  502    0 -0.11444163970E+04  0.11232588114E+04  0.13433109484E+04  0.20918665448E+04  0.46999998093E+01 0.  1.
       -5    1    3    3    0  502  0.11444163970E+04 -0.11232588114E+04 -0.51730818316E+03  0.16849418665E+04  0.46999998093E+01 0. -1.
</event>
<event>
 5   0  0.4758908E-07  0.3721621E+04  0.7818609E-02  0.8063187E-01
       -2   -1    0    0    0  501  0.00000000000E+00  0.00000000000E+00  0.12148559553E+04  0.12148559554E+04  0.25500000920E-02 0.  1.
        2   -1    0    0  501    0  0.00000000000E+00  0.00000000000E+00 -0.28502268529E+04  0.28502268529E+04  0.25500000920E-02 0. -1.
    10030    2    1    2    0    0  0.00000000000E+00  0.00000000000E+00 -0.16353708975E+04  0.40650828082E+04  0.37216206504E+04 0.  0.
        2    1    3    3  502    0  0.77886413652E+03  0.55795895573E+03 -0.25601053303E+04  0.27335118148E+04  0.25500000920E-02 0. -1.
       -2    1    3    3    0  502 -0.77886413652E+03 -0.55795895573E+03  0.92473443276E+03  0.13315709934E+04  0.25500000920E-02 0.  1.
</event>
<event>
 5   0  0.1522273E-07  0.3767477E+04  0.7818609E-02  0.8053171E-01
       -1   -1    0    0    0  501  0.00000000000E+00  0.00000000000E+00  0.20657204554E+04  0.20657204554E+04  0.50400001928E-02 0. -1.
        1   -1    0    0  501    0  0.00000000000E+00  0.00000000000E+00 -0.17177880269E+04  0.17177880269E+04  0.50400001928E-02 0.  1.
    10030    2    1    2    0    0  0.00000000000E+00  0.00000000000E+00  0.34793242852E+03  0.37835084823E+04  0.37674765375E+04 0.  0.
        4    1    3    3  502    0  0.90125190001E+03  0.10740781709E+04  0.14373215836E+04  0.20079327310E+04  0.12699999809E+01 0. -1.
       -4    1    3    3    0  502 -0.90125190001E+03 -0.10740781709E+04 -0.10893891551E+04  0.17755757513E+04  0.12699999809E+01 0.  1.
</event>
<event>
 5   0  0.4793557E-07  0.3759235E+04  0.7818609E-02  0.8054960E-01
       -2   -1    0    0    0  501  0.00000000000E+00  0.00000000000E+00  0.13887676860E+04  0.13887676860E+04  0.25500000920E-02 0. -1.
        2   -1    0    0  501    0  0.00000000000E+00  0.00000000000E+00 -0.25439545257E+04  0.25439545257E+04  0.25500000920E-02 0.  1.
    10030    2    1    2    0    0  0.00000000000E+00  0.00000000000E+00 -0.11551868398E+04  0.39327222117E+04  0.37592349434E+04 0.  0.
        3    1    3    3  502    0 -0.65428681850E+03 -0.38224777656E+03  0.12218925624E+04  0.14377851188E+04  0.10100000352E+00 0. -1.
       -3    1    3    3    0  502  0.65428681850E+03  0.38224777656E+03 -0.23770794021E+04  0.24949370930E+04  0.10100000352E+00 0.  1.
</event>
<event>
 5   0  0.1496287E-07  0.3664138E+04  0.7818609E-02  0.8075956E-01
        1   -1    0    0  501    0  0.00000000000E+00  0.00000000000E+00  0.20661119673E+04  0.20661119673E+04  0.50400001928E-02 0. -1.
       -1   -1    0    0    0  501  0.00000000000E+00  0.00000000000E+00 -0.16245379418E+04  0.16245379418E+04  0.50400001928E-02 0.  1.
    10030    2    1    2    0    0  0.00000000000E+00  0.00000000000E+00  0.44157402552E+03  0.36906499091E+04  0.36641382522E+04 0.  0.
        1    1    3    3  502    0 -0.10933267013E+04 -0.23821880773E+03  0.16819262956E+04  0.20201454254E+04  0.50400001928E-02 0. -1.
       -1    1    3    3    0  502  0.10933267013E+04  0.23821880773E+03 -0.12403522700E+04  0.16705044836E+04  0.50400001928E-02 0.  1.
</event>
<event>
 5   0  0.4793557E-07  0.3739803E+04  0.7818609E-02  0.8059198E-01
       -2   -1    0    0    0  501  0.00000000000E+00  0.00000000000E+00  0.17524271654E+04  0.17524271654E+04  0.25500000920E-02 0. -1.
        2   -1    0    0  501    0  0.00000000000E+00  0.00000000000E+00 -0.19952510363E+04  0.19952510363E+04  0.25500000920E-02 0.  1.
    10030    2    1    2    0    0  0.00000000000E+00  0.00000000000E+00 -0.24282387088E+03  0.37476782017E+04  0.37398032663E+04 0.  0.
        3    1    3    3  502    0 -0.11387404703E+04 -0.14421379367E+04 -0.46860999559E+03  0.18963351564E+04  0.10100000352E+00 0. -1.
       -3    1    3    3    0  502  0.11387404703E+04  0.14421379367E+04  0.22578612471E+03  0.18513430453E+04  0.10100000352E+00 0.  1.
</event>
<event>
 5   0  0.1496000E-07  0.3643330E+04  0.7818609E-02  0.8080638E-01
       -1   -1    0    0    0  501  0.00000000000E+00  0.00000000000E+00  0.20281130558E+04  0.20281130558E+04  0.50400001928E-02 0.  1.
        1   -1    0    0  501    0  0.00000000000E+00  0.00000000000E+00 -0.16362322924E+04  0.16362322924E+04  0.50400001928E-02 0. -1.
    10030    2    1    2    0    0  0.00000000000E+00  0.00000000000E+00  0.39188076340E+03  0.36643453482E+04  0.36433303855E+04 0.  0.
        5    1    3    3  502    0  0.61783117568E+03 -0.16634091210E+04 -0.21850040408E+03  0.17878506040E+04  0.46999998093E+01 0. -1.
       -5    1    3    3    0  502 -0.61783117568E+03  0.16634091210E+04  0.61038116748E+03  0.18764947442E+04  0.46999998093E+01 0.  1.
</event>
<event>
 5   0  0.1496000E-07  0.3701651E+04  0.7818609E-02  0.8067596E-01
       -1   -1    0    0    0  501  0.00000000000E+00  0.00000000000E+00  0.13580081321E+04  0.13580081322E+04  0.50400001928E-02 0.  1.
        1   -1    0    0  501    0  0.00000000000E+00  0.00000000000E+00 -0.25224854955E+04  0.25224854955E+04  0.50400001928E-02 0. -1.
    10030    2    1    2    0    0  0.00000000000E+00  0.00000000000E+00 -0.11644773633E+04  0.38804936276E+04  0.37016514239E+04 0.  0.
        5    1    3    3  502    0  0.75533089246E+03 -0.83410038816E+03  0.95820735843E+03  0.14779822889E+04  0.46999998093E+01 0.  1.
       -5    1    3    3    0  502 -0.75533089246E+03  0.83410038816E+03 -0.21226847218E+04  0.24025113387E+04  0.46999998093E+01 0. -1.
</event>
<event>
 5   0  0.1496000E-07  0.3356400E+04  0.7818609E-02  0.8148691E-01
        1   -1    0    0  501    0  0.00000000000E+00  0.00000000000E+00  0.27167647630E+04  0.27167647630E+04  0.50400001928E-02 0. -1.
       -1   -1    0    0    0  501  0.00000000000E+00  0.00000000000E+00 -0.10366575735E+04  0.10366575735E+04  0.50400001928E-02 0.  1.
    10030    2    1    2    0    0  0.00000000000E+00  0.00000000000E+00  0.16801071895E+04  0.37534223365E+04  0.33563997182E+04 0.  0.
        3    1    3    3  502    0 -0.14637188299E+04 -0.55705157242E+03  0.15143503299E+04  0.21785399237E+04  0.10100000352E+00 0. -1.
       -3    1    3    3    0  502  0.14637188299E+04  0.55705157242E+03  0.16575685961E+03  0.15748824128E+04  0.10100000352E+00 0.  1.
</event>
<event>
 5   0  0.4857514E-07  0.3686864E+04  0.7818609E-02  0.8070879E-01
        2   -1    0    0  501    0  0.00000000000E+00  0.00000000000E+00  0.27477890649E+04  0.27477890649E+04  0.25500000920E-02 0.  1.
       -2   -1    0    0    0  501  0.00000000000E+00  0.00000000000E+00 -0.12367183771E+04  0.12367183771E+04  0.25500000920E-02 0. -1.
    10030    2    1    2    0    0  0.00000000000E+00  0.00000000000E+00  0.15110706878E+04  0.39845074420E+04  0.36868638342E+04 0.  0.
        5    1    3    3  502    0 -0.26277833402E+03  0.18117783831E+04  0.52217309448E+03  0.19037542365E+04  0.46999998093E+01 0. -1.
       -5    1    3    3    0  502  0.26277833402E+03 -0.18117783831E+04  0.98889759327E+03  0.20807532055E+04  0.46999998093E+01 0.  1.
</event>
<event>
 5   0  0.4824268E-07  0.3736301E+04  0.7818609E-02  0.8059964E-01
       -2   -1    0    0    0  501  0.00000000000E+00  0.00000000000E+00  0.12607315563E+04  0.12607315563E+04  0.25500000920E-02 0. -1.
        2   -1    0    0  501    0  0.00000000000E+00  0.00000000000E+00 -0.27682224190E+04  0.27682224190E+04  0.25500000920E-02 0.  1.
    10030    2    1    2    0    0  0.00000000000E+00  0.00000000000E+00 -0.15074908627E+04  0.40289539752E+04  0.37363005010E+04 0.  0.
        1    1    3    3  502    0  0.90407530265E+03  0.11516785148E+04 -0.20049161173E+04  0.24826204284E+04  0.50400001928E-02 0.  1.
       -1    1    3    3    0  502 -0.90407530265E+03 -0.11516785148E+04  0.49742525458E+03  0.15463335469E+04  0.50400001928E-02 0. -1.
</event>
<event>
 5   0  0.4824268E-07  0.3798346E+04  0.7818609E-02  0.8046510E-01
       -2   -1    0    0    0  501  0.00000000000E+00  0.00000000000E+00  0.16215143099E+04  0.16215143099E+04  0.25500000920E-02 0. -1.
        2   -1    0    0  501    0  0.00000000000E+00  0.00000000000E+00 -0.22243761431E+04  0.22243761431E+04  0.25500000920E-02 0.  1.
    10030    2    1    2    0    0  0.00000000000E+00  0.00000000000E+00 -0.60286183321E+03  0.38458904531E+04  0.37983458225E+04 0.  0.
        1    1    3    3  502    0 -0.10498775062E+04  0.63336034484E+03 -0.17699193532E+04  0.21531378547E+04  0.50400001928E-02 0.  1.
       -1    1    3    3    0  502  0.10498775062E+04 -0.63336034484E+03  0.11670575200E+04  0.16927525984E+04  0.50400001928E-02 0. -1.
</event>
<event>
 5   0  0.1496000E-07  0.3696893E+04  0.7818609E-02  0.8068651E-01
        1   -1    0    0  501    0  0.00000000000E+00  0.00000000000E+00  0.22250854572E+04  0.22250854572E+04  0.50400001928E-02 0. -1.
       -1   -1    0    0    0  501  0.00000000000E+00  0.00000000000E+00 -0.15355606642E+04  0.15355606642E+04  0.50400001928E-02 0.  1.
    10030    2    1    2    0    0  0.00000000000E+00  0.00000000000E+00  0.68952479308E+03  0.37606461214E+04  0.36968925884E+04 0.  0.
        2    1    3    3  502    0 -0.13328526117E+04 -0.75959957131E+03 -0.70416788006E+03  0.16879988141E+04  0.25500000920E-02 0.  1.
       -2    1    3    3    0  502  0.13328526117E+04  0.75959957131E+03  0.13936926731E+04  0.20726473073E+04  0.25500000920E-02 0. -1.
</event>
<event>
 5   0  0.1496000E-07  0.3545270E+04  0.7818609E-02  0.8103145E-01
        1   -1    0    0  501    0  0.00000000000E+00  0.00000000000E+00  0.13474899994E+04  0.13474899994E+04  0.50400001928E-02 0. -1.
       -1   -1    0    0    0  501  0.00000000000E+00  0.00000000000E+00 -0.23319168909E+04  0.23319168909E+04  0.50400001928E-02 0.  1.
    10030    2    1    2    0    0  0.00000000000E+00  0.00000000000E+00 -0.98442689150E+03  0.36794068903E+04  0.35452699135E+04 0.  0.
        2    1    3    3  502    0 -0.81702213378E+03 -0.14785881041E+04 -0.10496448617E+04  0.19888444596E+04  0.25500000920E-02 0.  1.
       -2    1    3    3    0  502  0.81702213378E+03  0.14785881041E+04  0.65217970205E+02  0.16905624307E+04  0.25500000920E-02 0. -1.
</event>
<event>
 5   0  0.4758908E-07  0.3653528E+04  0.7818609E-02  0.8078339E-01
        2   -1    0    0  501    0  0.00000000000E+00  0.00000000000E+00  0.19059504766E+04  0.19059504766E+04  0.25500000920E-02 0. -1.
       -2   -1    0    0    0  501  0.00000000000E+00  0.00000000000E+00 -0.17508676016E+04  0.17508676016E+04  0.25500000920E-02 0.  1.
    10030    2    1    2    0    0  0.00000000000E+00  0.00000000000E+00  0.15508287499E+03  0.36568180782E+04  0.36535281248E+04 0.  0.
        2    1    3    3  502    0  0.11389387493E+03  0.50485524825E+03 -0.16759540340E+04  0.17540446290E+04  0.25500000920E-02 0.  1.
       -2    1    3    3    0  502 -0.11389387493E+03 -0.50485524825E+03  0.18310369090E+04  0.19027734491E+04  0.25500000920E-02 0. -1.
</event>
<event>
 5   0  0.1496000E-07  0.3721371E+04  0.7818609E-02  0.8063242E-01
       -1   -1    0    0    0  501  0.00000000000E+00  0.00000000000E+00  0.22172871173E+04  0.22172871173E+04  0.50400001928E-02 0. -1.
        1   -1    0    0  501    0  0.00000000000E+00  0.00000000000E+00 -0.15614354323E+04  0.15614354323E+04  0.50400001928E-02 0.  1.
    10030    2    1    2    0    0  0.00000000000E+00  0.00000000000E+00  0.65585168499E+03  0.37787225496E+04  0.37213710745E+04 0.  0.
        5    1    3    3  502    0  0.12026272849E+04 -0.56398881118E+02  0.17684633705E+04  0.21393872962E+04  0.46999998093E+01 0. -1.
       -5    1    3    3    0  502 -0.12026272849E+04  0.56398881118E+02 -0.11126116855E+04  0.16393352534E+04  0.46999998093E+01 0.  1.
</event>
<event>
 5   0  0.1522273E-07  0.3396351E+04  0.7818609E-02  0.8138802E-01
        1   -1    0    0  501    0  0.00000000000E+00  0.00000000000E+00  0.17910787177E+04  0.17910787178E+04  0.50400001928E-02 0.  1.
       -1   -1    0    0    0  501  0.00000000000E+00  0.00000000000E+00 -0.16100911096E+04  0.16100911096E+04  0.50400001928E-02 0. -1.
    10030    2    1    2    0    0  0.00000000000E+00  0.00000000000E+00  0.18098760817E+03  0.34011698273E+04  0.33963509359E+04 0.  0.
        4    1    3    3  502    0 -0.79797067303E+03  0.12650720243E+04 -0.71478262811E+03  0.16577334647E+04  0.12699999809E+01 0. -1.
       -4    1    3    3    0  502  0.79797067303E+03 -0.12650720243E+04  0.89577023628E+03  0.17434363627E+04  0.12699999809E+01 0.  1.
</event>
<event>
 5   0  0.1496000E-07  0.3700549E+04  0.7818609E-02  0.8067840E-01
       -1   -1    0    0    0  501  0.00000000000E+00  0.00000000000E+00  0.23501986438E+04  0.23501986438E+04  0.50400001928E-02 0.  1.
        1   -1    0    0  501    0  0.00000000000E+00  0.00000000000E+00 -0.14566919241E+04  0.14566919241E+04  0.50400001928E-02 0. -1.
    10030    2    1    2    0    0  0.00000000000E+00  0.00000000000E+00  0.89350671966E+03  0.38068905679E+04  0.37005488157E+04 0.  0.
        3    1    3    3  502    0 -0.39496482244E+03 -0.14647539555E+04  0.15364444396E+04  0.21592042254E+04  0.10100000352E+00 0.  1.
       -3    1    3    3    0  502  0.39496482244E+03  0.14647539555E+04 -0.64293771990E+03  0.16476863424E+04  0.10100000352E+00 0. -1.
</event>
<event>
 5   0  0.1496000E-07  0.3681236E+04  0.7818609E-02  0.8072133E-01
       -1   -1    0    0    0  501  0.00000000000E+00  0.00000000000E+00  0.12707357493E+04  0.12707357493E+04  0.50400001928E-02 0.  1.
        1   -1    0    0  501    0  0.00000000000E+00  0.00000000000E+00 -0.26660736553E+04  0.26660736553E+04  0.50400001928E-02 0. -1.
    10030    2    1    2    0    0  0.00000000000E+00  0.00000000000E+00 -0.13953379060E+04  0.39368094046E+04  0.36812362619E+04 0.  0.
        5    1    3    3  502    0 -0.27844251304E+03  0.15511835220E+04 -0.17145532308E+04  0.23288227548E+04  0.46999998093E+01 0. -1.
       -5    1    3    3    0  502  0.27844251304E+03 -0.15511835220E+04  0.31921532487E+03  0.16079866497E+04  0.46999998093E+01 0.  1.
</event>
<event>
 5   0  0.4758908E-07  0.3715301E+04  0.7818609E-02  0.8064579E-01
       -2   -1    0    0    0  501  0.00000000000E+00  0.00000000000E+00  0.12012373893E+04  0.12012373893E+04  0.25500000920E-02 0. -1.
        2   -1    0    0  501    0  0.00000000000E+00  0.00000000000E+00 -0.28727593981E+04  0.28727593981E+04  0.25500000920E-02 0.  1.
    10030    2    1    2    0    0  0.00000000000E+00  0.00000000000E+00 -0.16715220087E+04  0.40739967874E+04  0.37153013334E+04 0.  0.
        2    1    3    3  502    0 -0.27095415600E+03 -0.14878740792E+04  0.34712673434E+03  0.15516708414E+04  0.25500000920E-02 0. -1.
       -2    1    3    3    0  502  0.27095415600E+03  0.14878740792E+04 -0.20186487431E+04  0.25223259461E+04  0.25500000920E-02 0.  1.
</event>
<event>
 5   0  0.4758908E-07  0.3574639E+04  0.7818609E-02  0.8096326E-01
       -2   -1    0    0    0  501  0.00000000000E+00  0.00000000000E+00  0.20949575000E+04  0.20949575000E+04  0.25500000920E-02 0.  1.
        2   -1    0    0  501    0  0.00000000000E+00  0.00000000000E+00 -0.15248575154E+04  0.15248575154E+04  0.25500000920E-02 0. -1.
    10030    2    1    2    0    0  0.00000000000E+00  0.00000000000E+00  0.57009998458E+03  0.36198150154E+04  0.35746393878E+04 0.  0.
        2    1    3    3  502    0  0.14872298834E+03  0.16056944372E+03  0.20813366433E+04  0.20928122936E+04  0.25500000920E-02 0.  1.
       -2    1    3    3    0  502 -0.14872298834E+03 -0.16056944372E+03 -0.15112366587E+04  0.15270027218E+04  0.25500000920E-02 0. -1.
</event>
<event>
 5   0  0.1522273E-07  0.3661945E+04  0.7818609E-02  0.8076448E-01
        1   -1    0    0  501    0  0.00000000000E+00  0.00000000000E+00  0.17596117018E+04  0.17596117019E+04  0.50400001928E-02 0. -1.
       -1   -1    0    0    0  501  0.00000000000E+00  0.00000000000E+00 -0.19052277762E+04  0.19052277762E+04  0.50400001928E-02 0.  1.
    10030    2    1    2    0    0  0.00000000000E+00  0.00000000000E+00 -0.14561607431E+03  0.36648394780E+04  0.36619454336E+04 0.  0.
        4    1    3    3  502    0 -0.18205813680E+04  0.78469858268E+01 -0.26759326025E+03  0.18401591938E+04  0.12699999809E+01 0. -1.
       -4    1    3    3    0  502  0.18205813680E+04 -0.78469858268E+01  0.12197718593E+03  0.18246802842E+04  0.12699999809E+01 0.  1.
</event>
<event>
 5   0  0.1496000E-07  0.3666645E+04  0.7818609E-02  0.8075394E-01
       -1   -1    0    0    0  501  0.00000000000E+00  0.00000000000E+00  0.13275512482E+04  0.13275512482E+04  0.50400001928E-02 0. -1.
        1   -1    0    0  501    0  0.00000000000E+00  0.00000000000E+00 -0.25317821642E+04  0.25317821642E+04  0.50400001928E-02 0.  1.
    10030    2    1    2    0    0  0.00000000000E+00  0.00000000000E+00 -0.12042309160E+04  0.38593334125E+04  0.36666445546E+04 0.  0.
        3    1    3    3  502    0  0.12801480152E+04  0.13123605907E+04 -0.60091473012E+03  0.19292920421E+04  0.10100000352E+00 0. -1.
       -3    1    3    3    0  502 -0.12801480152E+04 -0.13123605907E+04 -0.60331618590E+03  0.19300413703E+04  0.10100000352E+00 0.  1.
</event>
<event>
 5   0  0.1496287E-07  0.3706570E+04  0.7818609E-02  0.8066507E-01
        1   -1    0    0  501    0  0.00000000000E+00  0.00000000000E+00  0.21203235411E+04  0.21203235411E+04  0.50400001928E-02 0. -1.
       -1   -1    0    0    0  501  0.00000000000E+00  0.00000000000E+00 -0.16198776892E+04  0.16198776892E+04  0.50400001928E-02 0.  1.
    10030    2    1    2    0    0  0.00000000000E+00  0.00000000000E+00  0.50044585194E+03  0.37402012304E+04  0.37065697340E+04 0.  0.
        1    1    3    3  502    0 -0.17080859819E+01 -0.17937945338E+04 -0.21979636541E+03  0.18072111635E+04  0.50400001928E-02 0.  1.
       -1    1    3    3    0  502  0.17080859819E+01  0.17937945338E+04  0.72024221736E+03  0.19329900669E+04  0.50400001928E-02 0. -1.
</event>
<event>
 5   0  0.1496000E-07  0.3728379E+04  0.7818609E-02  0.8061702E-01
       -1   -1    0    0    0  501  0.00000000000E+00  0.00000000000E+00  0.12544389140E+04  0.12544389140E+04  0.50400001928E-02 0. -1.
        1   -1    0    0  501    0  0.00000000000E+00  0.00000000000E+00 -0.27703243525E+04  0.27703243525E+04  0.50400001928E-02 0.  1.
    10030    2    1    2    0    0  0.00000000000E+00  0.00000000000E+00 -0.15158854385E+04  0.40247632665E+04  0.37283790967E+04 0.  0.
        5    1    3    3  502    0  0.10022062605E+04  0.10389663766E+04  0.51536259387E+03  0.15328043624E+04  0.46999998093E+01 0. -1.
       -5    1    3    3    0  502 -0.10022062605E+04 -0.10389663766E+04 -0.20312480324E+04  0.24919589040E+04  0.46999998093E+01 0.  1.
</event>
<event>
 5   0  0.4824268E-07  0.3723577E+04  0.7818609E-02  0.8062757E-01
        2   -1    0    0  501    0  0.00000000000E+00  0.00000000000E+00  0.14839501132E+04  0.14839501132E+04  0.25500000920E-02 0.  1.
       -2   -1    0    0    0  501  0.00000000000E+00  0.00000000000E+00 -0.23358310667E+04  0.23358310667E+04  0.25500000920E-02 0. -1.
    10030    2    1    2    0    0  0.00000000000E+00  0.00000000000E+00 -0.85188095343E+03  0.38197811799E+04  0.37235771918E+04 0.  0.
        1    1    3    3  502    0 -0.15146250456E+04 -0.23914814593E+03 -0.15091459993E+04  0.21514652011E+04  0.50400001928E-02 0. -1.
       -1    1    3    3    0  502  0.15146250456E+04  0.23914814593E+03  0.65726504585E+03  0.16683159788E+04  0.50400001928E-02 0.  1.
</event>
<event>
 5   0  0.4793557E-07  0.3684215E+04  0.7818609E-02  0.8071469E-01
       -2   -1    0    0    0  501  0.00000000000E+00  0.00000000000E+00  0.13945717356E+04  0.13945717356E+04  0.25500000920E-02 0.  1.
        2   -1    0    0  501    0  0.00000000000E+00  0.00000000000E+00 -0.24332630525E+04  0.24332630525E+04  0.25500000920E-02 0. -1.
    10030    2    1    2    0    0  0.00000000000E+00  0.00000000000E+00 -0.10386913169E+04  0.38278347881E+04  0.36842149114E+04 0.  0.
        3    1    3    3  502    0 -0.83070245012E+03 -0.37312449666E+03  0.11443477190E+04  0.14624705682E+04  0.10100000352E+00 0.  1.
       -3    1    3    3    0  502  0.83070245012E+03  0.37312449666E+03 -0.21830390359E+04  0.23653642199E+04  0.10100000352E+00 0. -1.
</event>
<event>
 5   0  0.4824268E-07  0.3710456E+04  0.7818609E-02  0.8065649E-01
       -2   -1    0    0    0  501  0.00000000000E+00  0.00000000000E+00  0.17289673269E+04  0.17289673269E+04  0.25500000920E-02 0.  1.
        2   -1    0    0  501    0  0.00000000000E+00  0.00000000000E+00 -0.19907086981E+04  0.19907086981E+04  0.25500000920E-02 0. -1.
    10030    2    1    2    0    0  0.00000000000E+00  0.00000000000E+00 -0.26174137112E+03  0.37196760250E+04  0.37104556574E+04 0.  0.
        1    1    3    3  502    0  0.15105094046E+04  0.31718071018E+03  0.90106965241E+03  0.17872237641E+04  0.50400001928E-02 0.  1.
       -1    1    3    3    0  502 -0.15105094046E+04 -0.31718071018E+03 -0.11628110235E+04  0.19324522609E+04  0.50400001928E-02 0. -1.
</event>
<event>
 5   0  0.4793557E-07  0.3699750E+04  0.7818609E-02  0.8068017E-01
       -2   -1    0    0    0  501  0.00000000000E+00  0.00000000000E+00  0.13479602199E+04  0.13479602199E+04  0.25500000920E-02 0. -1.
        2   -1    0    0  501    0  0.00000000000E+00  0.00000000000E+00 -0.25386778842E+04  0.25386778842E+04  0.25500000920E-02 0.  1.
    10030    2    1    2    0    0  0.00000000000E+00  0.00000000000E+00 -0.11907176643E+04  0.38866381041E+04  0.36997496126E+04 0.  0.
        3    1    3    3  502    0 -0.15017989643E+04 -0.10502369894E+04 -0.86036939884E+03  0.20245081812E+04  0.10100000352E+00 0. -1.
       -3    1    3    3    0  502  0.15017989643E+04  0.10502369894E+04 -0.33034826548E+03  0.18621299229E+04  0.10100000352E+00 0.  1.
</event>
<event>
 5   0  0.4857514E-07  0.3682382E+04  0.7818609E-02  0.8071877E-01
        2   -1    0    0  501    0  0.00000000000E+00  0.00000000000E+00  0.26658347858E+04  0.26658347858E+04  0.25500000920E-02 0. -1.
       -2   -1    0    0    0  501  0.00000000000E+00  0.00000000000E+00 -0.12716409681E+04  0.12716409681E+04  0.25500000920E-02 0.  1.
    10030    2    1    2    0    0  0.00000000000E+00  0.00000000000E+00  0.13941938177E+04  0.39374757539E+04  0.36823822332E+04 0.  0.
        5    1    3    3  502    0  0.68684603522E+03  0.37805623106E+03  0.24784184641E+04  0.25994738243E+04  0.46999998093E+01 0. -1.
       -5    1    3    3    0  502 -0.68684603522E+03 -0.37805623106E+03 -0.10842246464E+04  0.13380019297E+04  0.46999998093E+01 0.  1.
</event>
<event>
 5   0  0.1496000E-07  0.3703784E+04  0.7818609E-02  0.8067124E-01
        1   -1    0    0  501    0  0.00000000000E+00  0.00000000000E+00  0.15100360185E+04  0.15100360185E+04  0.50400001928E-02 0. -1.
       -1   -1    0    0    0  501  0.00000000000E+00  0.00000000000E+00 -0.22711404952E+04  0.22711404952E+04  0.50400001928E-02 0.  1.
    10030    2    1    2    0    0  0.00000000000E+00  0.00000000000E+00 -0.76110447669E+03  0.37811765137E+04  0.37037839844E+04 0.  0.
        2    1    3    3  502    0  0.48554583682E+03 -0.59069668585E+03 -0.21024573035E+04  0.22371866367E+04  0.25500000920E-02 0.  1.
       -2    1    3    3    0  502 -0.48554583682E+03  0.59069668585E+03  0.13413528268E+04  0.15439898770E+04  0.25500000920E-02 0. -1.
</event>
<event>
 5   0  0.1496000E-07  0.3074027E+04  0.7818609E-02  0.8222902E-01
       -1   -1    0    0    0  501  0.00000000000E+00  0.00000000000E+00  0.22673807506E+04  0.22673807506E+04  0.50400001928E-02 0. -1.
        1   -1    0    0  501    0  0.00000000000E+00  0.00000000000E+00 -0.10419119015E+04  0.10419119015E+04  0.50400001928E-02 0.  1.
    10030    2    1    2    0    0  0.00000000000E+00  0.00000000000E+00  0.12254688491E+04  0.33092926520E+04  0.30740273188E+04 0.  0.
        3    1    3    3  502    0  0.24955023497E+03  0.34471365965E+03  0.22026935640E+04  0.22434263469E+04  0.10100000352E+00 0. -1.
       -3    1    3    3    0  502 -0.24955023497E+03 -0.34471365965E+03 -0.97722471487E+03  0.10658663052E+04  0.10100000352E+00 0.  1.
</event>
<event>
 5   0  0.4824268E-07  0.3681673E+04  0.7818609E-02  0.8072035E-01
        2   -1    0    0  501    0  0.00000000000E+00  0.00000000000E+00  0.24076906906E+04  0.24076906906E+04  0.25500000920E-02 0.  1.
       -2   -1    0    0    0  501  0.00000000000E+00  0.00000000000E+00 -0.14074398613E+04  0.14074398613E+04  0.25500000920E-02 0. -1.
    10030    2    1    2    0    0  0.00000000000E+00  0.00000000000E+00  0.10002508293E+04  0.38151305519E+04  0.36816734519E+04 0.  0.
        1    1    3    3  502    0 -0.17976713707E+04  0.13720460631E+03  0.11485199519E+03  0.18065543008E+04  0.50400001928E-02 0.  1.
       -1    1    3    3    0  502  0.17976713707E+04 -0.13720460631E+03  0.88539883408E+03  0.20085762511E+04  0.50400001928E-02 0. -1.
</event>
<event>
 5   0  0.1496000E-07  0.3671626E+04  0.7818609E-02  0.8074279E-01
        1   -1    0    0  501    0  0.00000000000E+00  0.00000000000E+00  0.20190752983E+04  0.20190752983E+04  0.50400001928E-02 0. -1.
       -1   -1    0    0    0  501  0.00000000000E+00  0.00000000000E+00 -0.16691842639E+04  0.16691842639E+04  0.50400001928E-02 0.  1.
    10030    2    1    2    0    0  0.00000000000E+00  0.00000000000E+00  0.34989103438E+03  0.36882595622E+04  0.36716256430E+04 0.  0.
        3    1    3    3  502    0  0.16930995711E+04 -0.70209980922E+03  0.27875004279E+03  0.18539773182E+04  0.10100000352E+00 0.  1.
       -3    1    3    3    0  502 -0.16930995711E+04  0.70209980922E+03  0.71140991594E+02  0.18342822440E+04  0.10100000352E+00 0. -1.
</event>
<event>
 5   0  0.1496000E-07  0.3623396E+04  0.7818609E-02  0.8085153E-01
        1   -1    0    0  501    0  0.00000000000E+00  0.00000000000E+00  0.19020024226E+04  0.19020024227E+04  0.50400001928E-02 0.  1.
       -1   -1    0    0    0  501  0.00000000000E+00  0.00000000000E+00 -0.17256815533E+04  0.17256815533E+04  0.50400001928E-02 0. -1.
    10030    2    1    2    0    0  0.00000000000E+00  0.00000000000E+00  0.17632086939E+03  0.36276839759E+04  0.36233964702E+04 0.  0.
        2    1    3    3  502    0 -0.10799014554E+04  0.14281128639E+04 -0.18885630494E+03  0.18003777963E+04  0.25500000920E-02 0. -1.
       -2    1    3    3    0  502  0.10799014554E+04 -0.14281128639E+04  0.36517717433E+03  0.18273061796E+04  0.25500000920E-02 0.  1.
</event>
<event>
 5   0  0.1522273E-07  0.3655697E+04  0.7818609E-02  0.8077851E-01
       -1   -1    0    0    0  501  0.00000000000E+00  0.00000000000E+00  0.17528847668E+04  0.17528847668E+04  0.50400001928E-02 0.  1.
        1   -1    0    0  501    0  0.00000000000E+00  0.00000000000E+00 -0.19060178965E+04  0.19060178965E+04  0.50400001928E-02 0. -1.
    10030    2    1    2    0    0  0.00000000000E+00  0.00000000000E+00 -0.15313312970E+03  0.36589026633E+04  0.36556967795E+04 0.  0.
        4    1    3    3  502    0  0.24302161082E+03  0.15502241284E+04 -0.10148179909E+04  0.18687192189E+04  0.12699999809E+01 0. -1.
       -4    1    3    3    0  502 -0.24302161082E+03 -0.15502241284E+04  0.86168486124E+03  0.17901834444E+04  0.12699999809E+01 0.  1.
</event>
<event>
 5   0  0.4687817E-07  0.3740686E+04  0.7818609E-02  0.8059005E-01
       -2   -1    0    0    0  501  0.00000000000E+00  0.00000000000E+00  0.19573176149E+04  0.19573176149E+04  0.25500000920E-02 0.  1.
        2   -1    0    0  501    0  0.00000000000E+00  0.00000000000E+00 -0.17872335146E+04  0.17872335146E+04  0.25500000920E-02 0. -1.
    10030    2    1    2    0    0  0.00000000000E+00  0.00000000000E+00  0.17008410029E+03  0.37445511295E+04  0.37406863755E+04 0.  0.
        4    1    3    3  502    0  0.68151041572E+03  0.15958803569E+04 -0.61345495549E+03  0.18405486018E+04  0.12699999809E+01 0.  1.
       -4    1    3    3    0  502 -0.68151041572E+03 -0.15958803569E+04  0.78353905578E+03  0.19040025276E+04  0.12699999809E+01 0. -1.
</event>
<event>
 5   0  0.1496000E-07  0.3821565E+04  0.7818609E-02  0.8041543E-01
        3   -1    0    0  501    0  0.00000000000E+00  0.00000000000E+00  0.31978700565E+04  0.31978700581E+04  0.10100000352E+00 0.  1.
       -3   -1    0    0    0  501  0.00000000000E+00  0.00000000000E+00 -0.11417253295E+04  0.11417253340E+04  0.10100000352E+00 0. -1.
    10030    2    1    2    0    0  0.00000000000E+00  0.00000000000E+00  0.20561447270E+04  0.43395953921E+04  0.38215647357E+04 0.  0.
        4    1    3    3  502    0  0.67922602695E+02 -0.46785147491E+03 -0.10742649529E+04  0.11736887511E+04  0.12699999809E+01 0. -1.
       -4    1    3    3    0  502 -0.67922602695E+02  0.46785147491E+03  0.31304096799E+04  0.31659066410E+04  0.12699999809E+01 0.  1.
</event>
<event>
 5   0  0.1496000E-07  0.3688493E+04  0.7818609E-02  0.8070517E-01
       -1   -1    0    0    0  501  0.00000000000E+00  0.00000000000E+00  0.19498259161E+04  0.19498259161E+04  0.50400001928E-02 0. -1.
        1   -1    0    0  501    0  0.00000000000E+00  0.00000000000E+00 -0.17443836184E+04  0.17443836184E+04  0.50400001928E-02 0.  1.
    10030    2    1    2    0    0  0.00000000000E+00  0.00000000000E+00  0.20544229770E+03  0.36942095344E+04  0.36884925846E+04 0.  0.
        5    1    3    3  502    0 -0.18115594473E+02  0.16486758009E+04 -0.72485383232E+03  0.18010816859E+04  0.46999998093E+01 0.  1.
       -5    1    3    3    0  502  0.18115594473E+02 -0.16486758009E+04  0.93029613002E+03  0.18931278485E+04  0.46999998093E+01 0. -1.
</event>
<event>
 5   0  0.1496000E-07  0.3741451E+04  0.7818609E-02  0.8058837E-01
       -1   -1    0    0    0  501  0.00000000000E+00  0.00000000000E+00  0.18301846163E+04  0.18301846163E+04  0.50400001928E-02 0.  1.
        1   -1    0    0  501    0  0.00000000000E+00  0.00000000000E+00 -0.19121645650E+04  0.19121645650E+04  0.50400001928E-02 0. -1.
    10030    2    1    2    0    0  0.00000000000E+00  0.00000000000E+00 -0.81979948698E+02  0.37423491813E+04  0.37414511467E+04 0.  0.
        5    1    3    3  502    0  0.10675787082E+04 -0.55820967722E+03  0.13905312867E+04  0.18398156677E+04  0.46999998093E+01 0.  1.
       -5    1    3    3    0  502 -0.10675787082E+04  0.55820967722E+03 -0.14725112354E+04  0.19025335136E+04  0.46999998093E+01 0. -1.
</event>
<event>
 5   0  0.4857514E-07  0.2973421E+04  0.7818609E-02  0.8251362E-01
        2   -1    0    0  501    0  0.00000000000E+00  0.00000000000E+00  0.22232060988E+04  0.22232060988E+04  0.25500000920E-02 0.  1.
       -2   -1    0    0    0  501  0.00000000000E+00  0.00000000000E+00 -0.99419850705E+03  0.99419850705E+03  0.25500000920E-02 0. -1.
    10030    2    1    2    0    0  0.00000000000E+00  0.00000000000E+00  0.12290075918E+04  0.32174046059E+04  0.29734210495E+04 0.  0.
        5    1    3    3  502    0 -0.49629233263E+03 -0.13882850468E+04  0.40736830388E+03  0.15295791825E+04  0.46999998093E+01 0.  1.
       -5    1    3    3    0  502  0.49629233263E+03  0.13882850468E+04  0.82163928792E+03  0.16878254234E+04  0.46999998093E+01 0. -1.
</event>
<event>
 5   0  0.4824268E-07  0.3599723E+04  0.7818609E-02  0.8090555E-01
        2   -1    0    0  501    0  0.00000000000E+00  0.00000000000E+00  0.17382962683E+04  0.17382962683E+04  0.25500000920E-02 0.  1.
       -2   -1    0    0    0  501  0.00000000000E+00  0.00000000000E+00 -0.18636069083E+04  0.18636069083E+04  0.25500000920E-02 0. -1.
    10030    2    1    2    0    0  0.00000000000E+00  0.00000000000E+00 -0.12531064004E+03  0.36019031767E+04  0.35997227306E+04 0.  0.
        1    1    3    3  502    0  0.10724823904E+04  0.13232697153E+04 -0.64459140112E+03  0.18211972138E+04  0.50400001928E-02 0.  1.
       -1    1    3    3    0  502 -0.10724823904E+04 -0.13232697153E+04  0.51928076108E+03  0.17807059628E+04  0.50400001928E-02 0. -1.
</event>
<event>
 5   0  0.1496000E-07  0.3633374E+04  0.7818609E-02  0.8082889E-01
       -1   -1    0    0    0  501  0.00000000000E+00  0.00000000000E+00  0.13277436102E+04  0.13277436102E+04  0.50400001928E-02 0. -1.
        1   -1    0    0  501    0  0.00000000000E+00  0.00000000000E+00 -0.24856846823E+04  0.24856846823E+04  0.50400001928E-02 0.  1.
    10030    2    1    2    0    0  0.00000000000E+00  0.00000000000E+00 -0.11579410721E+04  0.38134282925E+04  0.36333741640E+04 0.  0.
        2    1    3    3  502    0  0.93745496826E+03 -0.69634379018E+03  0.88162308868E+03  0.14632073545E+04  0.25500000920E-02 0. -1.
       -2    1    3    3    0  502 -0.93745496826E+03  0.69634379018E+03 -0.20395641608E+04  0.23502209381E+04  0.25500000920E-02 0.  1.
</event>
<event>
 5   0  0.1496000E-07  0.3689742E+04  0.7818609E-02  0.8070239E-01
        1   -1    0    0  501    0  0.00000000000E+00  0.00000000000E+00  0.29828136684E+04  0.29828136684E+04  0.50400001928E-02 0. -1.
       -1   -1    0    0    0  501  0.00000000000E+00  0.00000000000E+00 -0.11410530965E+04  0.11410530965E+04  0.50400001928E-02 0.  1.
    10030    2    1    2    0    0  0.00000000000E+00  0.00000000000E+00  0.18417605719E+04  0.41238667650E+04  0.36897418732E+04 0.  0.
        2    1    3    3  502    0  0.15272986702E+04 -0.58116898702E+03  0.18778652307E+04  0.24893325298E+04  0.25500000920E-02 0. -1.
       -2    1    3    3    0  502 -0.15272986702E+04  0.58116898702E+03 -0.36104658766E+02  0.16345342352E+04  0.25500000920E-02 0.  1.
</event>
<event>
 5   0  0.4824268E-07  0.3699152E+04  0.7818609E-02  0.8068150E-01
        2   -1    0    0  501    0  0.00000000000E+00  0.00000000000E+00  0.26895432162E+04  0.26895432162E+04  0.25500000920E-02 0. -1.
       -2   -1    0    0    0  501  0.00000000000E+00  0.00000000000E+00 -0.12719376864E+04  0.12719376864E+04  0.25500000920E-02 0.  1.
    10030    2    1    2    0    0  0.00000000000E+00  0.00000000000E+00  0.14176055298E+04  0.39614809025E+04  0.36991519978E+04 0.  0.
        1    1    3    3  502    0 -0.51745738504E+03 -0.36642239192E+03 -0.11519129745E+04  0.13148882141E+04  0.50400001928E-02 0.  1.
       -1    1    3    3    0  502  0.51745738504E+03  0.36642239192E+03  0.25695185043E+04  0.26465926885E+04  0.50400001928E-02 0. -1.
</event>
<event>
 5   0  0.4824268E-07  0.3711345E+04  0.7818609E-02  0.8065452E-01
       -2   -1    0    0    0  501  0.00000000000E+00  0.00000000000E+00  0.17794050305E+04  0.17794050305E+04  0.25500000920E-02 0. -1.
        2   -1    0    0  501    0  0.00000000000E+00  0.00000000000E+00 -0.19352083889E+04  0.19352083889E+04  0.25500000920E-02 0.  1.
    10030    2    1    2    0    0  0.00000000000E+00  0.00000000000E+00 -0.15580335838E+03  0.37146134193E+04  0.37113445230E+04 0.  0.
        1    1    3    3  502    0  0.36172798001E+03  0.17538762197E+04  0.40893255431E+03  0.18368872474E+04  0.50400001928E-02 0. -1.
       -1    1    3    3    0  502 -0.36172798001E+03 -0.17538762197E+04 -0.56473591270E+03  0.18777261719E+04  0.50400001928E-02 0.  1.
</event>
<event>
 5   0  0.4793557E-07  0.3710801E+04  0.7818609E-02  0.8065572E-01
        2   -1    0    0  501    0  0.00000000000E+00  0.00000000000E+00  0.27715237719E+04  0.27715237719E+04  0.25500000920E-02 0.  1.
       -2   -1    0    0    0  501  0.00000000000E+00  0.00000000000E+00 -0.12421006829E+04  0.12421006829E+04  0.25500000920E-02 0. -1.
    10030    2    1    2    0    0  0.00000000000E+00  0.00000000000E+00  0.15294230890E+04  0.40136244548E+04  0.37108012988E+04 0.  0.
        3    1    3    3  502    0 -0.95749515190E+03  0.45896051298E+03 -0.88099002348E+03  0.13797047329E+04  0.10100000352E+00 0. -1.
       -3    1    3    3    0  502  0.95749515190E+03 -0.45896051298E+03  0.24104131125E+04  0.26339197219E+04  0.10100000352E+00 0.  1.
</event>
<event>
 5   0  0.1522273E-07  0.3702700E+04  0.7818609E-02  0.8067364E-01
       -1   -1    0    0    0  501  0.00000000000E+00  0.00000000000E+00  0.15434042181E+04  0.15434042181E+04  0.50400001928E-02 0.  1.
        1   -1    0    0  501    0  0.00000000000E+00  0.00000000000E+00 -0.22207385903E+04  0.22207385903E+04  0.50400001928E-02 0. -1.
    10030    2    1    2    0    0  0.00000000000E+00  0.00000000000E+00 -0.67733437221E+03  0.37641428083E+04  0.37027002619E+04 0.  0.
        4    1    3    3  502    0 -0.14274782661E+04  0.87642402008E+03 -0.11402194263E+04  0.20263058052E+04  0.12699999809E+01 0. -1.
       -4    1    3    3    0  502  0.14274782661E+04 -0.87642402008E+03  0.46288505407E+03  0.17378370031E+04  0.12699999809E+01 0.  1.
</event>
<event>
 5   0  0.1522273E-07  0.3726364E+04  0.7818609E-02  0.8062144E-01
       -1   -1    0    0    0  501  0.00000000000E+00  0.00000000000E+00  0.21099247058E+04  0.21099247058E+04  0.50400001928E-02 0. -1.
        1   -1    0    0  501    0  0.00000000000E+00  0.00000000000E+00 -0.16452947083E+04  0.16452947083E+04  0.50400001928E-02 0.  1.
    10030    2    1    2    0    0  0.00000000000E+00  0.00000000000E+00  0.46462999745E+03  0.37552194141E+04  0.37263644231E+04 0.  0.
        4    1    3    3  502    0 -0.11081463099E+04  0.11275143700E+04 -0.76130649061E+03  0.17546697935E+04  0.12699999809E+01 0.  1.
       -4    1    3    3    0  502  0.11081463099E+04 -0.11275143700E+04  0.12259364881E+04  0.20005496206E+04  0.12699999809E+01 0. -1.
</event>
<event>
 5   0  0.1496287E-07  0.3699489E+04  0.7818609E-02  0.8068075E-01
       -1   -1    0    0    0  501  0.00000000000E+00  0.00000000000E+00  0.28064556867E+04  0.28064556867E+04  0.50400001928E-02 0. -1.
        1   -1    0    0  501    0  0.00000000000E+00  0.00000000000E+00 -0.12191729368E+04  0.12191729368E+04  0.50400001928E-02 0.  1.
    10030    2    1    2    0    0  0.00000000000E+00  0.00000000000E+00  0.15872827500E+04  0.40256286235E+04  0.36994890575E+04 0.  0.
        1    1    3    3  502    0  0.14001024878E+04  0.11038455269E+04  0.13298205593E+04  0.22242267518E+04  0.50400001928E-02 0. -1.
       -1    1    3    3    0  502 -0.14001024878E+04 -0.11038455269E+04  0.25746219065E+03  0.18014018717E+04  0.50400001928E-02 0.  1.
</event>
<event>
 5   0  0.4857514E-07  0.3727800E+04  0.7818609E-02  0.8061829E-01
       -2   -1    0    0    0  501  0.00000000000E+00  0.00000000000E+00  0.14720632381E+04  0.14720632381E+04  0.25500000920E-02 0.  1.
        2   -1    0    0  501    0  0.00000000000E+00  0.00000000000E+00 -0.23600371877E+04  0.23600371877E+04  0.25500000920E-02 0. -1.
    10030    2    1    2    0    0  0.00000000000E+00  0.00000000000E+00 -0.88797394960E+03  0.38321004258E+04  0.37278004156E+04 0.  0.
        5    1    3    3  502    0  0.90709258070E+03 -0.16097691777E+04 -0.19233541573E+03  0.18577375374E+04  0.46999998093E+01 0. -1.
       -5    1    3    3    0  502 -0.90709258070E+03  0.16097691777E+04 -0.69563853387E+03  0.19743628885E+04  0.46999998093E+01 0.  1.
</event>
<event>
 5   0  0.1496000E-07  0.3739894E+04  0.7818609E-02  0.8059178E-01
       -1   -1    0    0    0  501  0.00000000000E+00  0.00000000000E+00  0.14929472527E+04  0.14929472527E+04  0.50400001928E-02 0.  1.
        1   -1    0    0  501    0  0.00000000000E+00  0.00000000000E+00 -0.23421466811E+04  0.23421466811E+04  0.50400001928E-02 0. -1.
    10030    2    1    2    0    0  0.00000000000E+00  0.00000000000E+00 -0.84919942842E+03  0.38350939338E+04  0.37398938237E+04 0.  0.
        3    1    3    3  502    0  0.14583192858E+04  0.51112682695E+03  0.65517874649E+03  0.16784531488E+04  0.10100000352E+00 0.  1.
       -3    1    3    3    0  502 -0.14583192858E+04 -0.51112682695E+03 -0.15043781749E+04  0.21566407851E+04  0.10100000352E+00 0. -1.
</event>
<event>
 5   0  0.4857514E-07  0.3687960E+04  0.7818609E-02  0.8070635E-01
       -2   -1    0    0    0  501  0.00000000000E+00  0.00000000000E+00  0.11965598821E+04  0.11965598821E+04  0.25500000920E-02 0. -1.
        2   -1    0    0  501    0  0.00000000000E+00  0.00000000000E+00 -0.28416990961E+04  0.28416990961E+04  0.25500000920E-02 0.  1.
    10030    2    1    2    0    0  0.00000000000E+00  0.00000000000E+00 -0.16451392140E+04  0.40382589782E+04  0.36879604853E+04 0.  0.
        5    1    3    3  502    0  0.88186035831E+03  0.97487962885E+03  0.59338235536E+03  0.14422873126E+04  0.46999998093E+01 0. -1.
       -5    1    3    3    0  502 -0.88186035831E+03 -0.97487962885E+03 -0.22385215693E+04  0.25959716656E+04  0.46999998093E+01 0.  1.
</event>
<event>
 5   0  0.4824268E-07  0.3718526E+04  0.7818609E-02  0.8063869E-01
       -2   -1    0    0    0  501  0.00000000000E+00  0.00000000000E+00  0.13460256149E+04  0.13460256149E+04  0.25500000920E-02 0. -1.
        2   -1    0    0  501    0  0.00000000000E+00  0.00000000000E+00 -0.25681970473E+04  0.25681970473E+04  0.25500000920E-02 0.  1.
    10030    2    1    2    0    0  0.00000000000E+00  0.00000000000E+00 -0.12221714324E+04  0.39142226622E+04  0.37185260574E+04 0.  0.
        1    1    3    3  502    0  0.10291626842E+04  0.90274286846E+03 -0.19353640699E+04  0.23706021598E+04  0.50400001928E-02 0.  1.
       -1    1    3    3    0  502 -0.10291626842E+04 -0.90274286846E+03  0.71319263752E+03  0.15436205024E+04  0.50400001928E-02 0. -1.
</event>
<event>
 5   0  0.4687817E-07  0.3604901E+04  0.7818609E-02  0.8089370E-01
       -2   -1    0    0    0  501  0.00000000000E+00  0.00000000000E+00  0.18045699454E+04  0.18045699454E+04  0.25500000920E-02 0.  1.
        2   -1    0    0  501    0  0.00000000000E+00  0.00000000000E+00 -0.18003331077E+04  0.18003331077E+04  0.25500000920E-02 0. -1.
    10030    2    1    2    0    0  0.00000000000E+00  0.00000000000E+00  0.42368376683E+01  0.36049030531E+04  0.36049005633E+04 0.  0.
        4    1    3    3  502    0 -0.15660311962E+04  0.45688984075E+03 -0.76444807057E+03  0.18015505820E+04  0.12699999809E+01 0. -1.
       -4    1    3    3    0  502  0.15660311962E+04 -0.45688984075E+03  0.76868490824E+03  0.18033524711E+04  0.12699999809E+01 0.  1.
</event>
<event>
 5   0  0.4857514E-07  0.3682409E+04  0.7818609E-02  0.8071872E-01
        2   -1    0    0  501    0  0.00000000000E+00  0.00000000000E+00  0.18758468458E+04  0.18758468458E+04  0.25500000920E-02 0. -1.
       -2   -1    0    0    0  501  0.00000000000E+00  0.00000000000E+00 -0.18072015015E+04  0.18072015015E+04  0.25500000920E-02 0.  1.
    10030    2    1    2    0    0  0.00000000000E+00  0.00000000000E+00  0.68645344359E+02  0.36830483473E+04  0.36824085794E+04 0.  0.
        5    1    3    3  502    0  0.11443383087E+03  0.63276331207E+03 -0.16912383921E+04  0.18093628436E+04  0.46999998093E+01 0.  1.
       -5    1    3    3    0  502 -0.11443383087E+03 -0.63276331207E+03  0.17598837365E+04  0.18736855037E+04  0.46999998093E+01 0. -1.
</event>
<event>
 5   0  0.1522273E-07  0.3684173E+04  0.7818609E-02  0.8071478E-01
       -1   -1    0    0    0  501  0.00000000000E+00  0.00000000000E+00  0.22267020035E+04  0.22267020035E+04  0.50400001928E-02 0. -1.
        1   -1    0    0  501    0  0.00000000000E+00  0.00000000000E+00 -0.15239055430E+04  0.15239055430E+04  0.50400001928E-02 0.  1.
    10030    2    1    2    0    0  0.00000000000E+00  0.00000000000E+00  0.70279646050E+03  0.37506075466E+04  0.36841734627E+04 0.  0.
        4    1    3    3  502    0 -0.51728577657E+03 -0.15540327784E+04 -0.50682138332E+03  0.17144888388E+04  0.12699999809E+01 0.  1.
       -4    1    3    3    0  502  0.51728577657E+03  0.15540327784E+04  0.12096178438E+04  0.20361187077E+04  0.12699999809E+01 0. -1.
</event>
<event>
 5   0  0.4824268E-07  0.3680204E+04  0.7818609E-02  0.8072363E-01
        2   -1    0    0  501    0  0.00000000000E+00  0.00000000000E+00  0.22209895060E+04  0.22209895060E+04  0.25500000920E-02 0.  1.
       -2   -1    0    0    0  501  0.00000000000E+00  0.00000000000E+00 -0.15245348104E+04  0.15245348104E+04  0.25500000920E-02 0. -1.
    10030    2    1    2    0    0  0.00000000000E+00  0.00000000000E+00  0.69645469558E+03  0.37455243165E+04  0.36802042419E+04 0.  0.
        1    1    3    3  502    0  0.11923653012E+04  0.13773838387E+04  0.61177240382E+03  0.19217665636E+04  0.50400001928E-02 0.  1.
       -1    1    3    3    0  502 -0.11923653012E+04 -0.13773838387E+04  0.84682291757E+02  0.18237577529E+04  0.50400001928E-02 0. -1.
</event>
<event>
 5   0  0.1496287E-07  0.3762621E+04  0.7818609E-02  0.8054224E-01
        1   -1    0    0  501    0  0.00000000000E+00  0.00000000000E+00  0.16590776494E+04  0.16590776494E+04  0.50400001928E-02 0. -1.
       -1   -1    0    0    0  501  0.00000000000E+00  0.00000000000E+00 -0.21333114540E+04  0.21333114540E+04  0.50400001928E-02 0.  1.
    10030    2    1    2    0    0  0.00000000000E+00  0.00000000000E+00 -0.47423380467E+03  0.37923891034E+04  0.37626210825E+04 0.  0.
        1    1    3    3  502    0  0.18477446774E+04 -0.33843526403E+03 -0.13319671969E+03  0.18831994549E+04  0.50400001928E-02 0. -1.
       -1    1    3    3    0  502 -0.18477446774E+04  0.33843526403E+03 -0.34103708497E+03  0.19091896485E+04  0.50400001928E-02 0.  1.
</event>
<event>
 5   0  0.1496000E-07  0.3664291E+04  0.7818609E-02  0.8075922E-01
       -1   -1    0    0    0  501  0.00000000000E+00  0.00000000000E+00  0.13482763550E+04  0.13482763550E+04  0.50400001928E-02 0. -1.
        1   -1    0    0  501    0  0.00000000000E+00  0.00000000000E+00 -0.24896648558E+04  0.24896648558E+04  0.50400001928E-02 0.  1.
    10030    2    1    2    0    0  0.00000000000E+00  0.00000000000E+00 -0.11413885008E+04  0.38379412108E+04  0.36642905217E+04 0.  0.
        2    1    3    3  502    0  0.42643523751E+03  0.66892351320E+03  0.11590697871E+04  0.14045456382E+04  0.25500000920E-02 0. -1.
       -2    1    3    3    0  502 -0.42643523751E+03 -0.66892351320E+03 -0.23004582879E+04  0.24333955726E+04  0.25500000920E-02 0.  1.
</event>
<event>
 5   0  0.1496000E-07  0.3605850E+04  0.7818609E-02  0.8089153E-01
        1   -1    0    0  501    0  0.00000000000E+00  0.00000000000E+00  0.29253469589E+04  0.29253469589E+04  0.50400001928E-02 0. -1.
       -1   -1    0    0    0  501  0.00000000000E+00  0.00000000000E+00 -0.11111635627E+04  0.11111635627E+04  0.50400001928E-02 0.  1.
    10030    2    1    2    0    0  0.00000000000E+00  0.00000000000E+00  0.18141833962E+04  0.40365105216E+04  0.36058502182E+04 0.  0.
        2    1    3    3  502    0 -0.62601989803E+03 -0.13443567554E+04  0.20549032983E+04  0.25341317179E+04  0.25500000920E-02 0. -1.
       -2    1    3    3    0  502  0.62601989803E+03  0.13443567554E+04 -0.24071990205E+03  0.15023788037E+04  0.25500000920E-02 0.  1.
</event>
<event>
 5   0  0.1496287E-07  0.3690786E+04  0.7818609E-02  0.8070007E-01
        1   -1    0    0  501    0  0.00000000000E+00  0.00000000000E+00  0.16064285559E+04  0.16064285559E+04  0.50400001928E-02 0.  1.
       -1   -1    0    0    0  501  0.00000000000E+00  0.00000000000E+00 -0.21199046079E+04  0.21199046079E+04  0.50400001928E-02 0. -1.
    10030    2    1    2    0    0  0.00000000000E+00  0.00000000000E+00 -0.51347605201E+03  0.37263331638E+04  0.36907859856E+04 0.  0.
        1    1    3    3  502    0 -0.48095173246E+03  0.15131819523E+04 -0.12062430758E+04  0.19940051524E+04  0.50400001928E-02 0. -1.
       -1    1    3    3    0  502  0.48095173246E+03 -0.15131819523E+04  0.69276702375E+03  0.17323280114E+04  0.50400001928E-02 0.  1.
</event>
<event>
 5   0  0.1522273E-07  0.3691814E+04  0.7818609E-02  0.8069778E-01
       -1   -1    0    0    0  501  0.00000000000E+00  0.00000000000E+00  0.26520124778E+04  0.26520124778E+04  0.50400001928E-02 0. -1.
        1   -1    0    0  501    0  0.00000000000E+00  0.00000000000E+00 -0.12848251849E+04  0.12848251849E+04  0.50400001928E-02 0.  1.
    10030    2    1    2    0    0  0.00000000000E+00  0.00000000000E+00  0.13671872929E+04  0.39368376627E+04  0.36918138751E+04 0.  0.
        4    1    3    3  502    0 -0.93581753885E+02 -0.16839412456E+04 -0.11650697159E+03  0.16905594194E+04  0.12699999809E+01 0. -1.
       -4    1    3    3    0  502  0.93581753885E+02  0.16839412456E+04  0.14836942645E+04  0.22462782433E+04  0.12699999809E+01 0.  1.
</event>
<event>
 5   0  0.4687817E-07  0.3695064E+04  0.7818609E-02  0.8069057E-01
       -2   -1    0    0    0  501  0.00000000000E+00  0.00000000000E+00  0.12797983161E+04  0.12797983161E+04  0.25500000920E-02 0.  1.
        2   -1    0    0  501    0  0.00000000000E+00  0.00000000000E+00 -0.26671188920E+04  0.26671188920E+04  0.25500000920E-02 0. -1.
    10030    2    1    2    0    0  0.00000000000E+00  0.00000000000E+00 -0.13873205759E+04  0.39469172082E+04  0.36950638787E+04 0.  0.
        4    1    3    3  502    0 -0.77898481284E+03  0.78510090289E+03  0.88713330126E+03  0.14178179973E+04  0.12699999809E+01 0.  1.
       -4    1    3    3    0  502  0.77898481284E+03 -0.78510090289E+03 -0.22744538772E+04  0.25290992109E+04  0.12699999809E+01 0. -1.
</event>
<event>
 5   0  0.4687817E-07  0.3523331E+04  0.7818609E-02  0.8108283E-01
       -2   -1    0    0    0  501  0.00000000000E+00  0.00000000000E+00  0.16381359664E+04  0.16381359664E+04  0.25500000920E-02 0. -1.
        2   -1    0    0  501    0  0.00000000000E+00  0.00000000000E+00 -0.18945101562E+04  0.18945101562E+04  0.25500000920E-02 0.  1.
    10030    2    1    2    0    0  0.00000000000E+00  0.00000000000E+00 -0.25637418981E+03  0.35326461225E+04  0.35233309384E+04 0.  0.
        4    1    3    3  502    0  0.74475921638E+03 -0.72682578482E+03 -0.15533957342E+04  0.18697545111E+04  0.12699999809E+01 0.  1.
       -4    1    3    3    0  502 -0.74475921638E+03  0.72682578482E+03  0.12970215444E+04  0.16628916114E+04  0.12699999809E+01 0. -1.
</event>
<event>
 5   0  0.1496000E-07  0.3718541E+04  0.7818609E-02  0.8063865E-01
        1   -1    0    0  501    0  0.00000000000E+00  0.00000000000E+00  0.21213167193E+04  0.21213167193E+04  0.50400001928E-02 0. -1.
       -1   -1    0    0    0  501  0.00000000000E+00  0.00000000000E+00 -0.16295949870E+04  0.16295949870E+04  0.50400001928E-02 0.  1.
    10030    2    1    2    0    0  0.00000000000E+00  0.00000000000E+00  0.49172173233E+03  0.37509117063E+04  0.37185411610E+04 0.  0.
        5    1    3    3  502    0 -0.54172327574E+03  0.99560431042E+03 -0.12407984232E+04  0.16805638540E+04  0.46999998093E+01 0.  1.
       -5    1    3    3    0  502  0.54172327574E+03 -0.99560431042E+03  0.17325201555E+04  0.20703478523E+04  0.46999998093E+01 0. -1.
</event>
<event>
 5   0  0.4758908E-07  0.3658375E+04  0.7818609E-02  0.8077250E-01
       -2   -1    0    0    0  501  0.00000000000E+00  0.00000000000E+00  0.11270760378E+04  0.11270760378E+04  0.25500000920E-02 0.  1.
        2   -1    0    0  501    0  0.00000000000E+00  0.00000000000E+00 -0.29686788534E+04  0.29686788534E+04  0.25500000920E-02 0. -1.
    10030    2    1    2    0    0  0.00000000000E+00  0.00000000000E+00 -0.18416028156E+04  0.40957548912E+04  0.36583749396E+04 0.  0.
        2    1    3    3  502    0 -0.78253468088E+03 -0.15911611888E+04 -0.41790727926E+03  0.18217576539E+04  0.25500000920E-02 0.  1.
       -2    1    3    3    0  502  0.78253468088E+03  0.15911611888E+04 -0.14236955363E+04  0.22739972374E+04  0.25500000920E-02 0. -1.
</event>
<event>
 5   0  0.1496000E-07  0.3707405E+04  0.7818609E-02  0.8066323E-01
        3   -1    0    0  501    0  0.00000000000E+00  0.00000000000E+00  0.11579360602E+04  0.11579360646E+04  0.10100000352E+00 0. -1.
       -3   -1    0    0    0  501  0.00000000000E+00  0.00000000000E+00 -0.29675326945E+04  0.29675326962E+04  0.10100000352E+00 0.  1.
    10030    2    1    2    0    0  0.00000000000E+00  0.00000000000E+00 -0.18095966342E+04  0.41254687608E+04  0.37074050922E+04 0.  0.
        4    1    3    3  502    0 -0.39240035816E+03  0.18101859578E+04 -0.82257207146E+03  0.20266666397E+04  0.12699999809E+01 0. -1.
       -4    1    3    3    0  502  0.39240035816E+03 -0.18101859578E+04 -0.98702456276E+03  0.20988021211E+04  0.12699999809E+01 0.  1.
</event>
<event>
 5   0  0.4824268E-07  0.3637541E+04  0.7818609E-02  0.8081946E-01
       -2   -1    0    0    0  501  0.00000000000E+00  0.00000000000E+00  0.15456949137E+04  0.15456949137E+04  0.25500000920E-02 0. -1.
        2   -1    0    0  501    0  0.00000000000E+00  0.00000000000E+00 -0.21400904657E+04  0.21400904657E+04  0.25500000920E-02 0.  1.
    10030    2    1    2    0    0  0.00000000000E+00  0.00000000000E+00 -0.59439555198E+03  0.36857853794E+04  0.36375414487E+04 0.  0.
        1    1    3    3  502    0 -0.28328871279E+03 -0.16054786881E+04  0.51979157476E+03  0.17111392678E+04  0.50400001928E-02 0. -1.
       -1    1    3    3    0  502  0.28328871279E+03  0.16054786881E+04 -0.11141871267E+04  0.19746461116E+04  0.50400001928E-02 0.  1.
</event>
<event>
 5   0  0.4687817E-07  0.3691446E+04  0.7818609E-02  0.8069860E-01
        2   -1    0    0  501    0  0.00000000000E+00  0.00000000000E+00  0.21399372977E+04  0.21399372977E+04  0.25500000920E-02 0.  1.
       -2   -1    0    0    0  501  0.00000000000E+00  0.00000000000E+00 -0.15919594746E+04  0.15919594746E+04  0.25500000920E-02 0. -1.
    10030    2    1    2    0    0  0.00000000000E+00  0.00000000000E+00  0.54797782312E+03  0.37318967723E+04  0.36914460344E+04 0.  0.
        4    1    3    3  502    0 -0.62789523330E+03  0.12883725791E+04  0.14497184723E+04  0.20385881360E+04  0.12699999809E+01 0.  1.
       -4    1    3    3    0  502  0.62789523330E+03 -0.12883725791E+04 -0.90174064919E+03  0.16933086363E+04  0.12699999809E+01 0. -1.
</event>
<event>
 5   0  0.1496000E-07  0.3664250E+04  0.7818609E-02  0.8075931E-01
        1   -1    0    0  501    0  0.00000000000E+00  0.00000000000E+00  0.96013410116E+03  0.96013410117E+03  0.50400001928E-02 0. -1.
       -1   -1    0    0    0  501  0.00000000000E+00  0.00000000000E+00 -0.34960560503E+04  0.34960560503E+04  0.50400001928E-02 0.  1.
    10030    2    1    2    0    0  0.00000000000E+00  0.00000000000E+00 -0.25359219492E+04  0.44561901515E+04  0.36642503373E+04 0.  0.
        5    1    3    3  502    0  0.78442571765E+03  0.15312886607E+04 -0.50219560230E+03  0.17923144763E+04  0.46999998093E+01 0.  1.
       -5    1    3    3    0  502 -0.78442571765E+03 -0.15312886607E+04 -0.20337263469E+04  0.26638756752E+04  0.46999998093E+01 0. -1.
</event>
<event>
 5   0  0.4687817E-07  0.3959520E+04  0.7818609E-02  0.8012763E-01
       -2   -1    0    0    0  501  0.00000000000E+00  0.00000000000E+00  0.16304002345E+04  0.16304002345E+04  0.25500000920E-02 0. -1.
        2   -1    0    0  501    0  0.00000000000E+00  0.00000000000E+00 -0.24039803218E+04  0.24039803218E+04  0.25500000920E-02 0.  1.
    10030    2    1    2    0    0  0.00000000000E+00  0.00000000000E+00 -0.77358008734E+03  0.40343805563E+04  0.39595202136E+04 0.  0.
        4    1    3    3  502    0 -0.14617230703E+04 -0.13338684156E+04 -0.44800235085E+03  0.20289275501E+04  0.12699999809E+01 0. -1.
       -4    1    3    3    0  502  0.14617230703E+04  0.13338684156E+04 -0.32557773649E+03  0.20054530062E+04  0.12699999809E+01 0.  1.
</event>
<event>
 5   0  0.4857514E-07  0.3734625E+04  0.7818609E-02  0.8060332E-01
        2   -1    0    0  501    0  0.00000000000E+00  0.00000000000E+00  0.21722832606E+04  0.21722832606E+04  0.25500000920E-02 0. -1.
       -2   -1    0    0    0  501  0.00000000000E+00  0.00000000000E+00 -0.16051570751E+04  0.16051570751E+04  0.25500000920E-02 0.  1.
    10030    2    1    2    0    0  0.00000000000E+00  0.00000000000E+00  0.56712618543E+03  0.37774403357E+04  0.37346249316E+04 0.  0.
        5    1    3    3  502    0 -0.31870486146E+03 -0.11856973291E+04 -0.11394716995E+04  0.16750727713E+04  0.46999998093E+01 0.  1.
       -5    1    3    3    0  502  0.31870486146E+03  0.11856973291E+04  0.17065978850E+04  0.21023675644E+04  0.46999998093E+01 0. -1.
</event>
<event>
 5   0  0.4824268E-07  0.3714411E+04  0.7818609E-02  0.8064776E-01
       -2   -1    0    0    0  501  0.00000000000E+00  0.00000000000E+00  0.23832729068E+04  0.23832729068E+04  0.25500000920E-02 0. -1.
        2   -1    0    0  501    0  0.00000000000E+00  0.00000000000E+00 -0.14472589053E+04  0.14472589053E+04  0.25500000920E-02 0.  1.
    10030    2    1    2    0    0  0.00000000000E+00  0.00000000000E+00  0.93601400150E+03  0.38305318120E+04  0.37144113601E+04 0.  0.
        1    1    3    3  502    0 -0.11087244694E+04  0.14887029361E+04  0.53079178625E+03  0.19306077544E+04  0.50400001928E-02 0.  1.
       -1    1    3    3    0  502  0.11087244694E+04 -0.14887029361E+04  0.40522221525E+03  0.18999240576E+04  0.50400001928E-02 0. -1.
</event>
<event>
 5   0  0.1522273E-07  0.3731162E+04  0.7818609E-02  0.8061091E-01
        1   -1    0    0  501    0  0.00000000000E+00  0.00000000000E+00  0.22860077485E+04  0.22860077485E+04  0.50400001928E-02 0. -1.
       -1   -1    0    0    0  501  0.00000000000E+00  0.00000000000E+00 -0.15224758627E+04  0.15224758627E+04  0.50400001928E-02 0.  1.
    10030    2    1    2    0    0  0.00000000000E+00  0.00000000000E+00  0.76353188585E+03  0.38084836112E+04  0.37311615451E+04 0.  0.
        4    1    3    3  502    0  0.39124939366E+03 -0.56602273135E+03  0.21517520404E+04  0.22590919142E+04  0.12699999809E+01 0. -1.
       -4    1    3    3    0  502 -0.39124939366E+03  0.56602273135E+03 -0.13882201545E+04  0.15493916970E+04  0.12699999809E+01 0.  1.
</event>
<event>
 5   0  0.4824268E-07  0.3727038E+04  0.7818609E-02  0.8061996E-01
        2   -1    0    0  501    0  0.00000000000E+00  0.00000000000E+00  0.16859443675E+04  0.16859443675E+04  0.25500000920E-02 0. -1.
       -2   -1    0    0    0  501  0.00000000000E+00  0.00000000000E+00 -0.20597971383E+04  0.20597971383E+04  0.25500000920E-02 0.  1.
    10030    2    1    2    0    0  0.00000000000E+00  0.00000000000E+00 -0.37385277085E+03  0.37457415058E+04  0.37270381718E+04 0.  0.
        1    1    3    3  502    0 -0.88133897630E+03  0.15318109506E+04 -0.78107854409E+03  0.19321715430E+04  0.50400001928E-02 0.  1.
       -1    1    3    3    0  502  0.88133897630E+03 -0.15318109506E+04  0.40722577324E+03  0.18135699628E+04  0.50400001928E-02 0. -1.
</event>
<event>
 5   0  0.1496000E-07  0.3768842E+04  0.7818609E-02  0.8052875E-01
        1   -1    0    0  501    0  0.00000000000E+00  0.00000000000E+00  0.13456183207E+04  0.13456183207E+04  0.50400001928E-02 0.  1.
       -1   -1    0    0    0  501  0.00000000000E+00  0.00000000000E+00 -0.26389664379E+04  0.26389664379E+04  0.50400001928E-02 0. -1.
    10030    2    1    2    0    0  0.00000000000E+00  0.00000000000E+00 -0.12933481172E+04  0.39845847586E+04  0.37688415124E+04 0.  0.
        2    1    3    3  502    0 -0.16851800122E+04  0.51067529920E+03  0.62878126532E+02  0.17619803045E+04  0.25500000920E-02 0.  1.
       -2    1    3    3    0  502  0.16851800122E+04 -0.51067529920E+03 -0.13562262438E+04  0.22226044540E+04  0.25500000920E-02 0. -1.
</event>
<event>
 5   0  0.4793557E-07  0.3663379E+04  0.7818609E-02  0.8076126E-01
        2   -1    0    0  501    0  0.00000000000E+00  0.00000000000E+00  0.20318295768E+04  0.20318295768E+04  0.25500000920E-02 0.  1.
       -2   -1    0    0    0  501  0.00000000000E+00  0.00000000000E+00 -0.16512636309E+04  0.16512636309E+04  0.25500000920E-02 0. -1.
    10030    2    1    2    0    0  0.00000000000E+00  0.00000000000E+00  0.38056594594E+03  0.36830932077E+04  0.36633789235E+04 0.  0.
        3    1    3    3  502    0 -0.11644171858E+04 -0.38649704805E+03 -0.11771241060E+04  0.17002554284E+04  0.10100000352E+00 0. -1.
       -3    1    3    3    0  502  0.11644171858E+04  0.38649704805E+03  0.15576900519E+04  0.19828377793E+04  0.10100000352E+00 0.  1.
</event>
<event>
 5   0  0.1522273E-07  0.3735185E+04  0.7818609E-02  0.8060209E-01
        1   -1    0    0  501    0  0.00000000000E+00  0.00000000000E+00  0.18750942362E+04  0.18750942362E+04  0.50400001928E-02 0. -1.
       -1   -1    0    0    0  501  0.00000000000E+00  0.00000000000E+00 -0.18601210394E+04  0.18601210394E+04  0.50400001928E-02 0.  1.
    10030    2    1    2    0    0  0.00000000000E+00  0.00000000000E+00  0.14973196768E+02  0.37352152757E+04  0.37351852643E+04 0.  0.
        4    1    3    3  502    0  0.10054201764E+04  0.15565822011E+04  0.24004544257E+03  0.18685398865E+04  0.12699999809E+01 0. -1.
       -4    1    3    3    0  502 -0.10054201764E+04 -0.15565822011E+04 -0.22507224581E+03  0.18666753892E+04  0.12699999809E+01 0.  1.
</event>
<event>
 5   0  0.1496287E-07  0.3810019E+04  0.7818609E-02  0.8044008E-01
       -1   -1    0    0    0  501  0.00000000000E+00  0.00000000000E+00  0.13967357844E+04  0.13967357844E+04  0.50400001928E-02 0. -1.
        1   -1    0    0  501    0  0.00000000000E+00  0.00000000000E+00 -0.25982451923E+04  0.25982451923E+04  0.50400001928E-02 0.  1.
    10030    2    1    2    0    0  0.00000000000E+00  0.00000000000E+00 -0.12015094079E+04  0.39949809768E+04  0.38100194419E+04 0.  0.
        1    1    3    3  502    0 -0.23096852531E+03 -0.17680480919E+04  0.10241371880E+03  0.17860092623E+04  0.50400001928E-02 0. -1.
       -1    1    3    3    0  502  0.23096852531E+03  0.17680480919E+04 -0.13039231267E+04  0.22089717145E+04  0.50400001928E-02 0.  1.
</event>
<event>
 5   0  0.4824268E-07  0.3702411E+04  0.7818609E-02  0.8067428E-01
        2   -1    0    0  501    0  0.00000000000E+00  0.00000000000E+00  0.28729888104E+04  0.28729888104E+04  0.25500000920E-02 0.  1.
       -2   -1    0    0    0  501  0.00000000000E+00  0.00000000000E+00 -0.11928212347E+04  0.11928212347E+04  0.25500000920E-02 0. -1.
    10030    2    1    2    0    0  0.00000000000E+00  0.00000000000E+00  0.16801675756E+04  0.40658100451E+04  0.37024111388E+04 0.  0.
        1    1    3    3  502    0 -0.83554802273E+03  0.13830581993E+04 -0.15188945268E+03  0.16229790161E+04  0.50400001928E-02 0. -1.
       -1    1    3    3    0  502  0.83554802273E+03 -0.13830581993E+04  0.18320570283E+04  0.24428310289E+04  0.50400001928E-02 0.  1.
</event>
<event>
 5   0  0.4687817E-07  0.3699880E+04  0.7818609E-02  0.8067988E-01
       -2   -1    0    0    0  501  0.00000000000E+00  0.00000000000E+00  0.27643855647E+04  0.27643855647E+04  0.25500000920E-02 0.  1.
        2   -1    0    0  501    0  0.00000000000E+00  0.00000000000E+00 -0.12379888909E+04  0.12379888909E+04  0.25500000920E-02 0. -1.
    10030    2    1    2    0    0  0.00000000000E+00  0.00000000000E+00  0.15263966738E+04  0.40023744556E+04  0.36998803328E+04 0.  0.
        4    1    3    3  502    0 -0.65201581838E+03  0.16384761924E+04  0.13679659200E+04  0.22318291224E+04  0.12699999809E+01 0.  1.
       -4    1    3    3    0  502  0.65201581838E+03 -0.16384761924E+04  0.15843075378E+03  0.17705453332E+04  0.12699999809E+01 0. -1.
</event>
<event>
 5   0  0.1496000E-07  0.3322501E+04  0.7818609E-02  0.8157194E-01
        3   -1    0    0  501    0  0.00000000000E+00  0.00000000000E+00  0.21347708958E+04  0.21347708982E+04  0.10100000352E+00 0.  1.
       -3   -1    0    0    0  501  0.00000000000E+00  0.00000000000E+00 -0.12927631032E+04  0.12927631072E+04  0.10100000352E+00 0. -1.
    10030    2    1    2    0    0  0.00000000000E+00  0.00000000000E+00  0.84200779260E+03  0.34275340054E+04  0.33225009007E+04 0.  0.
        4    1    3    3  502    0  0.10203762944E+02  0.10173611495E+04 -0.93376067199E+03  0.13809556223E+04  0.12699999809E+01 0. -1.
       -4    1    3    3    0  502 -0.10203762944E+02 -0.10173611495E+04  0.17757684646E+04  0.20465783831E+04  0.12699999809E+01 0.  1.
</event>
<event>
 5   0  0.4824268E-07  0.3656138E+04  0.7818609E-02  0.8077752E-01
       -2   -1    0    0    0  501  0.00000000000E+00  0.00000000000E+00  0.22261869351E+04  0.22261869351E+04  0.25500000920E-02 0. -1.
        2   -1    0    0  501    0  0.00000000000E+00  0.00000000000E+00 -0.15011477408E+04  0.15011477408E+04  0.25500000920E-02 0.  1.
    10030    2    1    2    0    0  0.00000000000E+00  0.00000000000E+00  0.72503919423E+03  0.37273346759E+04  0.36561375730E+04 0.  0.
        1    1    3    3  502    0 -0.52555339785E+03 -0.14095595435E+04 -0.69634516004E+03  0.16576975185E+04  0.50400001928E-02 0.  1.
       -1    1    3    3    0  502  0.52555339785E+03  0.14095595435E+04  0.14213843543E+04  0.20696371574E+04  0.50400001928E-02 0. -1.
</event>
<event>
 5   0  0.4793557E-07  0.3802727E+04  0.7818609E-02  0.8045570E-01
        2   -1    0    0  501    0  0.00000000000E+00  0.00000000000E+00  0.20064561426E+04  0.20064561426E+04  0.25500000920E-02 0.  1.
       -2   -1    0    0    0  501  0.00000000000E+00  0.00000000000E+00 -0.18017754593E+04  0.18017754593E+04  0.25500000920E-02 0. -1.
    10030    2    1    2    0    0  0.00000000000E+00  0.00000000000E+00  0.20468068322E+03  0.38082316019E+04  0.38027271466E+04 0.  0.
        3    1    3    3  502    0  0.19578751152E+03 -0.17355420509E+04 -0.65024227062E+03  0.18636668106E+04  0.10100000352E+00 0. -1.
       -3    1    3    3    0  502 -0.19578751152E+03  0.17355420509E+04  0.85492295384E+03  0.19445647913E+04  0.10100000352E+00 0.  1.
</event>
<event>
 5   0  0.1496287E-07  0.3694628E+04  0.7818609E-02  0.8069153E-01
       -1   -1    0    0    0  501  0.00000000000E+00  0.00000000000E+00  0.13797469682E+04  0.13797469682E+04  0.50400001928E-02 0. -1.
        1   -1    0    0  501    0  0.00000000000E+00  0.00000000000E+00 -0.24733302454E+04  0.24733302454E+04  0.50400001928E-02 0.  1.
    10030    2    1    2    0    0  0.00000000000E+00  0.00000000000E+00 -0.10935832773E+04  0.38530772136E+04  0.36946284833E+04 0.  0.
        1    1    3    3  502    0 -0.29935542893E+03  0.11692372520E+04  0.91169902589E+03  0.15125886877E+04  0.50400001928E-02 0. -1.
       -1    1    3    3    0  502  0.29935542893E+03 -0.11692372520E+04 -0.20052823032E+04  0.23404885259E+04  0.50400001928E-02 0.  1.
</event>
<event>
 5   0  0.1496287E-07  0.3705581E+04  0.7818609E-02  0.8066726E-01
        1   -1    0    0  501    0  0.00000000000E+00  0.00000000000E+00  0.11411625713E+04  0.11411625713E+04  0.50400001928E-02 0.  1.
       -1   -1    0    0    0  501  0.00000000000E+00  0.00000000000E+00 -0.30081890088E+04  0.30081890088E+04  0.50400001928E-02 0. -1.
    10030    2    1    2    0    0  0.00000000000E+00  0.00000000000E+00 -0.18670264375E+04  0.41493515801E+04  0.37055810364E+04 0.  0.
        1    1    3    3  502    0 -0.13254298614E+04 -0.10873428706E+04 -0.17203400755E+04  0.24287134065E+04  0.50400001928E-02 0. -1.
       -1    1    3    3    0  502  0.13254298614E+04  0.10873428706E+04 -0.14668636203E+03  0.17206381736E+04  0.50400001928E-02 0.  1.
</event>
<event>
 5   0  0.1496000E-07  0.3184921E+04  0.7818609E-02  0.8192811E-01
       -1   -1    0    0    0  501  0.00000000000E+00  0.00000000000E+00  0.13817669089E+04  0.13817669089E+04  0.50400001928E-02 0.  1.
        1   -1    0    0  501    0  0.00000000000E+00  0.00000000000E+00 -0.18352813640E+04  0.18352813640E+04  0.50400001928E-02 0. -1.
    10030    2    1    2    0    0  0.00000000000E+00  0.00000000000E+00 -0.45351445512E+03  0.32170482729E+04  0.31849213851E+04 0.  0.
        3    1    3    3  502    0  0.58565324652E+03  0.27816250350E+03 -0.16959278885E+04  0.18156363944E+04  0.10100000352E+00 0. -1.
       -3    1    3    3    0  502 -0.58565324652E+03 -0.27816250350E+03  0.12424134334E+04  0.14014118785E+04  0.10100000352E+00 0.  1.
</event>
<event>
 5   0  0.1496000E-07  0.3644293E+04  0.7818609E-02  0.8080420E-01
        1   -1    0    0  501    0  0.00000000000E+00  0.00000000000E+00  0.18650137897E+04  0.18650137898E+04  0.50400001928E-02 0.  1.
       -1   -1    0    0    0  501  0.00000000000E+00  0.00000000000E+00 -0.17802647749E+04  0.17802647749E+04  0.50400001928E-02 0. -1.
    10030    2    1    2    0    0  0.00000000000E+00  0.00000000000E+00  0.84749014894E+02  0.36452785646E+04  0.36442932673E+04 0.  0.
        5    1    3    3  502    0 -0.15353865526E+04 -0.90977028750E+03 -0.32528768398E+03  0.18140915107E+04  0.46999998093E+01 0.  1.
       -5    1    3    3    0  502  0.15353865526E+04  0.90977028750E+03  0.41003669887E+03  0.18311870539E+04  0.46999998093E+01 0. -1.
</event>
<event>
 5   0  0.1496000E-07  0.3713184E+04  0.7818609E-02  0.8065046E-01
        1   -1    0    0  501    0  0.00000000000E+00  0.00000000000E+00  0.20229171462E+04  0.20229171462E+04  0.50400001928E-02 0.  1.
       -1   -1    0    0    0  501  0.00000000000E+00  0.00000000000E+00 -0.17039423044E+04  0.17039423044E+04  0.50400001928E-02 0. -1.
    10030    2    1    2    0    0  0.00000000000E+00  0.00000000000E+00  0.31897484177E+03  0.37268594506E+04  0.37131841342E+04 0.  0.
        5    1    3    3  502    0 -0.12084885985E+04 -0.14057914846E+04  0.58032886422E+02  0.18547464238E+04  0.46999998093E+01 0.  1.
       -5    1    3    3    0  502  0.12084885985E+04  0.14057914846E+04  0.26094195535E+03  0.18721130267E+04  0.46999998093E+01 0. -1.
</event>
<event>
 5   0  0.4687817E-07  0.3679895E+04  0.7818609E-02  0.8072432E-01
       -2   -1    0    0    0  501  0.00000000000E+00  0.00000000000E+00  0.15172140476E+04  0.15172140476E+04  0.25500000920E-02 0.  1.
        2   -1    0    0  501    0  0.00000000000E+00  0.00000000000E+00 -0.22313312366E+04  0.22313312366E+04  0.25500000920E-02 0. -1.
    10030    2    1    2    0    0  0.00000000000E+00  0.00000000000E+00 -0.71411718902E+03  0.37485452841E+04  0.36798951599E+04 0.  0.
        4    1    3    3  502    0  0.13003140958E+04  0.67276383708E+03  0.77817226879E+03  0.16580053139E+04  0.12699999809E+01 0.  1.
       -4    1    3    3    0  502 -0.13003140958E+04 -0.67276383708E+03 -0.14922894578E+04  0.20905399702E+04  0.12699999809E+01 0. -1.
</event>
<event>
 5   0  0.4824268E-07  0.3696368E+04  0.7818609E-02  0.8068767E-01
        2   -1    0    0  501    0  0.00000000000E+00  0.00000000000E+00  0.18271662839E+04  0.18271662839E+04  0.25500000920E-02 0.  1.
       -2   -1    0    0    0  501  0.00000000000E+00  0.00000000000E+00 -0.18694431936E+04  0.18694431936E+04  0.25500000920E-02 0. -1.
    10030    2    1    2    0    0  0.00000000000E+00  0.00000000000E+00 -0.42276909695E+02  0.36966094776E+04  0.36963677161E+04 0.  0.
        1    1    3    3  502    0  0.12424821413E+04 -0.13054640789E+04 -0.43078121274E+03  0.18529896886E+04  0.50400001928E-02 0. -1.
       -1    1    3    3    0  502 -0.12424821413E+04  0.13054640789E+04  0.38850430304E+03  0.18436197890E+04  0.50400001928E-02 0.  1.
</event>
<event>
 5   0  0.1522273E-07  0.3717664E+04  0.7818609E-02  0.8064058E-01
        1   -1    0    0  501    0  0.00000000000E+00  0.00000000000E+00  0.14930234470E+04  0.14930234470E+04  0.50400001928E-02 0.  1.
       -1   -1    0    0    0  501  0.00000000000E+00  0.00000000000E+00 -0.23142685209E+04  0.23142685209E+04  0.50400001928E-02 0. -1.
    10030    2    1    2    0    0  0.00000000000E+00  0.00000000000E+00 -0.82124507389E+03  0.38072919680E+04  0.37176644090E+04 0.  0.
        4    1    3    3  502    0 -0.11709061374E+04  0.14423208200E+04 -0.47494618368E+03  0.19175208006E+04  0.12699999809E+01 0. -1.
       -4    1    3    3    0  502  0.11709061374E+04 -0.14423208200E+04 -0.34629889020E+03  0.18897711673E+04  0.12699999809E+01 0.  1.
</event>
<event>
 5   0  0.4857514E-07  0.3659146E+04  0.7818609E-02  0.8077076E-01
       -2   -1    0    0    0  501  0.00000000000E+00  0.00000000000E+00  0.32114002023E+04  0.32114002023E+04  0.25500000920E-02 0.  1.
        2   -1    0    0  501    0  0.00000000000E+00  0.00000000000E+00 -0.10423294053E+04  0.10423294053E+04  0.25500000920E-02 0. -1.
    10030    2    1    2    0    0  0.00000000000E+00  0.00000000000E+00  0.21690707970E+04  0.42537296076E+04  0.36591457270E+04 0.  0.
        5    1    3    3  502    0  0.93284953357E+03 -0.14440197448E+04  0.18122905439E+04  0.24979632465E+04  0.46999998093E+01 0. -1.
       -5    1    3    3    0  502 -0.93284953357E+03  0.14440197448E+04  0.35678025315E+03  0.17557663610E+04  0.46999998093E+01 0.  1.
</event>
<event>
 5   0  0.1496000E-07  0.3681900E+04  0.7818609E-02  0.8071985E-01
       -1   -1    0    0    0  501  0.00000000000E+00  0.00000000000E+00  0.16029149585E+04  0.16029149585E+04  0.50400001928E-02 0. -1.
        1   -1    0    0  501    0  0.00000000000E+00  0.00000000000E+00 -0.21143340057E+04  0.21143340057E+04  0.50400001928E-02 0.  1.
    10030    2    1    2    0    0  0.00000000000E+00  0.00000000000E+00 -0.51141904714E+03  0.37172489642E+04  0.36819003816E+04 0.  0.
        2    1    3    3  502    0 -0.82796271793E+03  0.49748844774E+03  0.13265252369E+04  0.16409406516E+04  0.25500000920E-02 0. -1.
       -2    1    3    3    0  502  0.82796271793E+03 -0.49748844774E+03 -0.18379442840E+04  0.20763083126E+04  0.25500000920E-02 0.  1.
</event>
<event>
 5   0  0.4758908E-07  0.3529855E+04  0.7818609E-02  0.8106751E-01
       -2   -1    0    0    0  501  0.00000000000E+00  0.00000000000E+00  0.29862659103E+04  0.29862659103E+04  0.25500000920E-02 0. -1.
        2   -1    0    0  501    0  0.00000000000E+00  0.00000000000E+00 -0.10430982866E+04  0.10430982866E+04  0.25500000920E-02 0.  1.
    10030    2    1    2    0    0  0.00000000000E+00  0.00000000000E+00  0.19431676237E+04  0.40293641968E+04  0.35298548720E+04 0.  0.
        2    1    3    3  502    0 -0.88659544064E+03 -0.12998110938E+04  0.58798011163E+02  0.15744896193E+04  0.25500000920E-02 0.  1.
       -2    1    3    3    0  502  0.88659544064E+03  0.12998110938E+04  0.18843696125E+04  0.24548745776E+04  0.25500000920E-02 0. -1.
</event>
<event>
 5   0  0.4793557E-07  0.3669288E+04  0.7818609E-02  0.8074802E-01
       -2   -1    0    0    0  501  0.00000000000E+00  0.00000000000E+00  0.15673668033E+04  0.15673668033E+04  0.25500000920E-02 0.  1.
        2   -1    0    0  501    0  0.00000000000E+00  0.00000000000E+00 -0.21474986843E+04  0.21474986843E+04  0.25500000920E-02 0. -1.
    10030    2    1    2    0    0  0.00000000000E+00  0.00000000000E+00 -0.58013188107E+03  0.37148654876E+04  0.36692877499E+04 0.  0.
        3    1    3    3  502    0  0.87214821772E+03 -0.26367466860E+03 -0.19022501003E+04  0.21091994450E+04  0.10100000352E+00 0. -1.
       -3    1    3    3    0  502 -0.87214821772E+03  0.26367466860E+03  0.13221182192E+04  0.16056660426E+04  0.10100000352E+00 0.  1.
</event>
<event>
 5   0  0.4824268E-07  0.3645974E+04  0.7818609E-02  0.8080041E-01
       -2   -1    0    0    0  501  0.00000000000E+00  0.00000000000E+00  0.25756610311E+04  0.25756610311E+04  0.25500000920E-02 0. -1.
        2   -1    0    0  501    0  0.00000000000E+00  0.00000000000E+00 -0.12902632531E+04  0.12902632531E+04  0.25500000920E-02 0.  1.
    10030    2    1    2    0    0  0.00000000000E+00  0.00000000000E+00  0.12853977780E+04  0.38659242843E+04  0.36459735496E+04 0.  0.
        1    1    3    3  502    0 -0.16690296062E+03 -0.18079814975E+04  0.81572102209E+03  0.19904910147E+04  0.50400001928E-02 0.  1.
       -1    1    3    3    0  502  0.16690296062E+03  0.18079814975E+04  0.46967675589E+03  0.18754332696E+04  0.50400001928E-02 0. -1.
</event>
<event>
 5   0  0.4687817E-07  0.3403615E+04  0.7818609E-02  0.8137020E-01
        2   -1    0    0  501    0  0.00000000000E+00  0.00000000000E+00  0.17945924062E+04  0.17945924062E+04  0.25500000920E-02 0. -1.
       -2   -1    0    0    0  501  0.00000000000E+00  0.00000000000E+00 -0.16138195995E+04  0.16138195995E+04  0.25500000920E-02 0.  1.
    10030    2    1    2    0    0  0.00000000000E+00  0.00000000000E+00  0.18077280662E+03  0.34084120057E+04  0.34036147833E+04 0.  0.
        4    1    3    3  502    0 -0.15379090765E+04  0.56910334735E+03 -0.36534164486E+03  0.16800354395E+04  0.12699999809E+01 0. -1.
       -4    1    3    3    0  502  0.15379090765E+04 -0.56910334735E+03  0.54611445148E+03  0.17283765662E+04  0.12699999809E+01 0.  1.
</event>
<event>
 5   0  0.1496000E-07  0.3698806E+04  0.7818609E-02  0.8068227E-01
        1   -1    0    0  501    0  0.00000000000E+00  0.00000000000E+00  0.23537486089E+04  0.23537486089E+04  0.50400001928E-02 0.  1.
       -1   -1    0    0    0  501  0.00000000000E+00  0.00000000000E+00 -0.14531251026E+04  0.14531251026E+04  0.50400001928E-02 0. -1.
    10030    2    1    2    0    0  0.00000000000E+00  0.00000000000E+00  0.90062350626E+03  0.38068737115E+04  0.36988058553E+04 0.  0.
        5    1    3    3  502    0  0.11038614293E+04  0.13590344241E+04  0.10633523549E+04  0.20484689262E+04  0.46999998093E+01 0.  1.
       -5    1    3    3    0  502 -0.11038614293E+04 -0.13590344241E+04 -0.16272884859E+03  0.17584047853E+04  0.46999998093E+01 0. -1.
</event>
<event>
 5   0  0.1522273E-07  0.3656393E+04  0.7818609E-02  0.8077695E-01
        1   -1    0    0  501    0  0.00000000000E+00  0.00000000000E+00  0.17398080509E+04  0.17398080509E+04  0.50400001928E-02 0. -1.
       -1   -1    0    0    0  501  0.00000000000E+00  0.00000000000E+00 -0.19210752751E+04  0.19210752751E+04  0.50400001928E-02 0.  1.
    10030    2    1    2    0    0  0.00000000000E+00  0.00000000000E+00 -0.18126722422E+03  0.36608833260E+04  0.36563928837E+04 0.  0.
        4    1    3    3  502    0  0.47015116092E+03  0.15896138263E+04 -0.86254502093E+03  0.18686625583E+04  0.12699999809E+01 0.  1.
       -4    1    3    3    0  502 -0.47015116092E+03 -0.15896138263E+04  0.68127779671E+03  0.17922207677E+04  0.12699999809E+01 0. -1.
</event>
<event>
 5   0  0.1496000E-07  0.3759741E+04  0.7818609E-02  0.8054850E-01
        3   -1    0    0  501    0  0.00000000000E+00  0.00000000000E+00  0.23051224303E+04  0.23051224326E+04  0.10100000352E+00 0.  1.
       -3   -1    0    0    0  501  0.00000000000E+00  0.00000000000E+00 -0.15330693317E+04  0.15330693351E+04  0.10100000352E+00 0. -1.
    10030    2    1    2    0    0  0.00000000000E+00  0.00000000000E+00  0.77205309861E+03  0.38381917676E+04  0.37597406902E+04 0.  0.
        3    1    3    3  502    0  0.76914625605E+03  0.13206638575E+04  0.15034779263E+04  0.21438714683E+04  0.10100000352E+00 0.  1.
       -3    1    3    3    0  502 -0.76914625605E+03 -0.13206638575E+04 -0.73142482766E+03  0.16943202993E+04  0.10100000352E+00 0. -1.
</event>
<event>
 5   0  0.4793557E-07  0.3748895E+04  0.7818609E-02  0.8057212E-01
       -2   -1    0    0    0  501  0.00000000000E+00  0.00000000000E+00  0.19753275759E+04  0.19753275759E+04  0.25500000920E-02 0.  1.
        2   -1    0    0  501    0  0.00000000000E+00  0.00000000000E+00 -0.17787197544E+04  0.17787197544E+04  0.25500000920E-02 0. -1.
    10030    2    1    2    0    0  0.00000000000E+00  0.00000000000E+00  0.19660782144E+03  0.37540473303E+04  0.37488954004E+04 0.  0.
        3    1    3    3  502    0 -0.12281102002E+04 -0.10381682352E+04 -0.86609083723E+03  0.18265161639E+04  0.10100000352E+00 0. -1.
       -3    1    3    3    0  502  0.12281102002E+04  0.10381682352E+04  0.10626986587E+04  0.19275311665E+04  0.10100000352E+00 0.  1.
</event>
<event>
 5   0  0.4758908E-07  0.3737484E+04  0.7818609E-02  0.8059705E-01
       -2   -1    0    0    0  501  0.00000000000E+00  0.00000000000E+00  0.12393856369E+04  0.12393856369E+04  0.25500000920E-02 0. -1.
        2   -1    0    0  501    0  0.00000000000E+00  0.00000000000E+00 -0.28176842548E+04  0.28176842548E+04  0.25500000920E-02 0.  1.
    10030    2    1    2    0    0  0.00000000000E+00  0.00000000000E+00 -0.15782986179E+04  0.40570698916E+04  0.37374843917E+04 0.  0.
        2    1    3    3  502    0  0.93816960878E+03  0.14339871485E+04  0.20057571744E+02  0.17137338368E+04  0.25500000920E-02 0. -1.
       -2    1    3    3    0  502 -0.93816960878E+03 -0.14339871485E+04 -0.15983561897E+04  0.23433360549E+04  0.25500000920E-02 0.  1.
</event>
<event>
 5   0  0.4857514E-07  0.3806696E+04  0.7818609E-02  0.8044720E-01
       -2   -1    0    0    0  501  0.00000000000E+00  0.00000000000E+00  0.26638709624E+04  0.26638709624E+04  0.25500000920E-02 0. -1.
        2   -1    0    0  501    0  0.00000000000E+00  0.00000000000E+00 -0.13599505872E+04  0.13599505872E+04  0.25500000920E-02 0.  1.
    10030    2    1    2    0    0  0.00000000000E+00  0.00000000000E+00  0.13039203752E+04  0.40238215496E+04  0.38066956167E+04 0.  0.
        5    1    3    3  502    0 -0.15026038469E+04 -0.13253832924E+03  0.18789103294E+04  0.24095042738E+04  0.46999998093E+01 0.  1.
       -5    1    3    3    0  502  0.15026038469E+04  0.13253832924E+03 -0.57498995424E+03  0.16143172758E+04  0.46999998093E+01 0. -1.
</event>
<event>
 5   0  0.1522273E-07  0.4050901E+04  0.7818609E-02  0.7994356E-01
        1   -1    0    0  501    0  0.00000000000E+00  0.00000000000E+00  0.20094881737E+04  0.20094881737E+04  0.50400001928E-02 0.  1.
       -1   -1    0    0    0  501  0.00000000000E+00  0.00000000000E+00 -0.20415400776E+04  0.20415400776E+04  0.50400001928E-02 0. -1.
    10030    2    1    2    0    0  0.00000000000E+00  0.00000000000E+00 -0.32051903975E+02  0.40510282513E+04  0.40509014513E+04 0.  0.
        4    1    3    3  502    0 -0.91783540999E+03 -0.17534612045E+04  0.41456968260E+03  0.20221072351E+04  0.12699999809E+01 0.  1.
       -4    1    3    3    0  502  0.91783540999E+03  0.17534612045E+04 -0.44662158657E+03  0.20289210162E+04  0.12699999809E+01 0. -1.
</event>
<event>
 5   0  0.1496000E-07  0.3691028E+04  0.7818609E-02  0.8069953E-01
        1   -1    0    0  501    0  0.00000000000E+00  0.00000000000E+00  0.18542977658E+04  0.18542977658E+04  0.50400001928E-02 0.  1.
       -1   -1    0    0    0  501  0.00000000000E+00  0.00000000000E+00 -0.18367713862E+04  0.18367713862E+04  0.50400001928E-02 0. -1.
    10030    2    1    2    0    0  0.00000000000E+00  0.00000000000E+00  0.17526379640E+02  0.36910691520E+04  0.36910275414E+04 0.  0.
        3    1    3    3  502    0 -0.17673079661E+04 -0.47373218505E+03 -0.23232340808E+03  0.18443898196E+04  0.10100000352E+00 0. -1.
       -3    1    3    3    0  502  0.17673079661E+04  0.47373218505E+03  0.24984978772E+03  0.18466793325E+04  0.10100000352E+00 0.  1.
</event>
<event>
 5   0  0.4758908E-07  0.3670543E+04  0.7818609E-02  0.8074521E-01
        2   -1    0    0  501    0  0.00000000000E+00  0.00000000000E+00  0.27693303821E+04  0.27693303821E+04  0.25500000920E-02 0. -1.
       -2   -1    0    0    0  501  0.00000000000E+00  0.00000000000E+00 -0.12162586214E+04  0.12162586214E+04  0.25500000920E-02 0.  1.
    10030    2    1    2    0    0  0.00000000000E+00  0.00000000000E+00  0.15530717607E+04  0.39855890035E+04  0.36705432583E+04 0.  0.
        2    1    3    3  502    0  0.83779265335E+02 -0.11068287210E+04  0.23635336893E+04  0.26112028422E+04  0.25500000920E-02 0. -1.
       -2    1    3    3    0  502 -0.83779265335E+02  0.11068287210E+04 -0.81046192855E+03  0.13743861613E+04  0.25500000920E-02 0.  1.
</event>
<event>
 5   0  0.1522273E-07  0.3684532E+04  0.7818609E-02  0.8071398E-01
        1   -1    0    0  501    0  0.00000000000E+00  0.00000000000E+00  0.19047582193E+04  0.19047582193E+04  0.50400001928E-02 0.  1.
       -1   -1    0    0    0  501  0.00000000000E+00  0.00000000000E+00 -0.17818241190E+04  0.17818241190E+04  0.50400001928E-02 0. -1.
    10030    2    1    2    0    0  0.00000000000E+00  0.00000000000E+00  0.12293410024E+03  0.36865823383E+04  0.36845320659E+04 0.  0.
        4    1    3    3  502    0  0.27836929493E+02  0.18620851836E+03  0.18951062597E+04  0.19044363616E+04  0.12699999809E+01 0.  1.
       -4    1    3    3    0  502 -0.27836929493E+02 -0.18620851836E+03 -0.17721721594E+04  0.17821459768E+04  0.12699999809E+01 0. -1.
</event>
<event>
 5   0  0.4687817E-07  0.3708123E+04  0.7818609E-02  0.8066164E-01
       -2   -1    0    0    0  501  0.00000000000E+00  0.00000000000E+00  0.17203246426E+04  0.17203246427E+04  0.25500000920E-02 0. -1.
        2   -1    0    0  501    0  0.00000000000E+00  0.00000000000E+00 -0.19981950636E+04  0.19981950636E+04  0.25500000920E-02 0.  1.
    10030    2    1    2    0    0  0.00000000000E+00  0.00000000000E+00 -0.27787042090E+03  0.37185197062E+04  0.37081230878E+04 0.  0.
        4    1    3    3  502    0 -0.28398142281E+03  0.11960941106E+04  0.12528523508E+04  0.17552570170E+04  0.12699999809E+01 0. -1.
       -4    1    3    3    0  502  0.28398142281E+03 -0.11960941106E+04 -0.15307227717E+04  0.19632626892E+04  0.12699999809E+01 0.  1.
</event>
<event>
 5   0  0.1496000E-07  0.3660060E+04  0.7818609E-02  0.8076871E-01
        1   -1    0    0  501    0  0.00000000000E+00  0.00000000000E+00  0.17049588113E+04  0.17049588113E+04  0.50400001928E-02 0.  1.
       -1   -1    0    0    0  501  0.00000000000E+00  0.00000000000E+00 -0.19642755673E+04  0.19642755673E+04  0.50400001928E-02 0. -1.
    10030    2    1    2    0    0  0.00000000000E+00  0.00000000000E+00 -0.25931675596E+03  0.36692343786E+04  0.36600595275E+04 0.  0.
        5    1    3    3  502    0  0.83073220859E+03  0.13843622954E+04 -0.99345153894E+03  0.18956642681E+04  0.46999998093E+01 0. -1.
       -5    1    3    3    0  502 -0.83073220859E+03 -0.13843622954E+04  0.73413478298E+03  0.17735701105E+04  0.46999998093E+01 0.  1.
</event>
<event>
 5   0  0.4857514E-07  0.3737769E+04  0.7818609E-02  0.8059643E-01
        2   -1    0    0  501    0  0.00000000000E+00  0.00000000000E+00  0.21661225091E+04  0.21661225091E+04  0.25500000920E-02 0.  1.
       -2   -1    0    0    0  501  0.00000000000E+00  0.00000000000E+00 -0.16124336749E+04  0.16124336749E+04  0.25500000920E-02 0. -1.
    10030    2    1    2    0    0  0.00000000000E+00  0.00000000000E+00  0.55368883422E+03  0.37785561839E+04  0.37377687877E+04 0.  0.
        5    1    3    3  502    0  0.90639920041E+03 -0.16137641842E+04  0.15347322583E+02  0.18509597464E+04  0.46999998093E+01 0. -1.
       -5    1    3    3    0  502 -0.90639920041E+03  0.16137641842E+04  0.53834151163E+03  0.19275964375E+04  0.46999998093E+01 0.  1.
</event>
<event>
 5   0  0.4824268E-07  0.3673648E+04  0.7818609E-02  0.8073827E-01
       -2   -1    0    0    0  501  0.00000000000E+00  0.00000000000E+00  0.18337557040E+04  0.18337557040E+04  0.25500000920E-02 0. -1.
        2   -1    0    0  501    0  0.00000000000E+00  0.00000000000E+00 -0.18398969547E+04  0.18398969547E+04  0.25500000920E-02 0.  1.
    10030    2    1    2    0    0  0.00000000000E+00  0.00000000000E+00 -0.61412506825E+01  0.36736526587E+04  0.36736475255E+04 0.  0.
        1    1    3    3  502    0 -0.59046569478E+03 -0.16065528866E+04  0.66345834094E+03  0.18357120919E+04  0.50400001928E-02 0. -1.
       -1    1    3    3    0  502  0.59046569478E+03  0.16065528866E+04 -0.66959959162E+03  0.18379405668E+04  0.50400001928E-02 0.  1.
</event>
<event>
 5   0  0.1496000E-07  0.3622625E+04  0.7818609E-02  0.8085329E-01
       -1   -1    0    0    0  501  0.00000000000E+00  0.00000000000E+00  0.28832845084E+04  0.28832845084E+04  0.50400001928E-02 0. -1.
        1   -1    0    0  501    0  0.00000000000E+00  0.00000000000E+00 -0.11378872210E+04  0.11378872210E+04  0.50400001928E-02 0.  1.
    10030    2    1    2    0    0  0.00000000000E+00  0.00000000000E+00  0.17453972873E+04  0.40211717294E+04  0.36226247924E+04 0.  0.
        3    1    3    3  502    0 -0.75702951080E+03 -0.33253567686E+03 -0.91617720624E+03  0.12341208774E+04  0.10100000352E+00 0.  1.
       -3    1    3    3    0  502  0.75702951080E+03  0.33253567686E+03  0.26615744936E+04  0.27870508520E+04  0.10100000352E+00 0. -1.
</event>
<event>
 5   0  0.1522273E-07  0.3690317E+04  0.7818609E-02  0.8070111E-01
        1   -1    0    0  501    0  0.00000000000E+00  0.00000000000E+00  0.21838468322E+04  0.21838468322E+04  0.50400001928E-02 0.  1.
       -1   -1    0    0    0  501  0.00000000000E+00  0.00000000000E+00 -0.15589969754E+04  0.15589969755E+04  0.50400001928E-02 0. -1.
    10030    2    1    2    0    0  0.00000000000E+00  0.00000000000E+00  0.62484985679E+03  0.37428438077E+04  0.36903173881E+04 0.  0.
        4    1    3    3  502    0 -0.10531264025E+04 -0.12292845893E+04 -0.58584091676E+03  0.17214607210E+04  0.12699999809E+01 0. -1.
       -4    1    3    3    0  502  0.10531264025E+04  0.12292845893E+04  0.12106907736E+04  0.20213830867E+04  0.12699999809E+01 0.  1.
</event>
<event>
 5   0  0.1522273E-07  0.3446127E+04  0.7818609E-02  0.8126677E-01
       -1   -1    0    0    0  501  0.00000000000E+00  0.00000000000E+00  0.14905487412E+04  0.14905487412E+04  0.50400001928E-02 0. -1.
        1   -1    0    0  501    0  0.00000000000E+00  0.00000000000E+00 -0.19918489083E+04  0.19918489083E+04  0.50400001928E-02 0.  1.
    10030    2    1    2    0    0  0.00000000000E+00  0.00000000000E+00 -0.50130016716E+03  0.34823976495E+04  0.34461270336E+04 0.  0.
        4    1    3    3  502    0 -0.43908224480E+03  0.35152556085E+03 -0.18964671278E+04  0.19781184538E+04  0.12699999809E+01 0.  1.
       -4    1    3    3    0  502  0.43908224480E+03 -0.35152556085E+03  0.13951669606E+04  0.15042791957E+04  0.12699999809E+01 0. -1.
</event>
<event>
 5   0  0.1522273E-07  0.3686741E+04  0.7818609E-02  0.8070906E-01
        1   -1    0    0  501    0  0.00000000000E+00  0.00000000000E+00  0.19664866997E+04  0.19664866998E+04  0.50400001928E-02 0. -1.
       -1   -1    0    0    0  501  0.00000000000E+00  0.00000000000E+00 -0.17279626338E+04  0.17279626339E+04  0.50400001928E-02 0.  1.
    10030    2    1    2    0    0  0.00000000000E+00  0.00000000000E+00  0.23852406589E+03  0.36944493336E+04  0.36867413997E+04 0.  0.
        4    1    3    3  502    0 -0.13714429948E+03  0.38494026205E+03 -0.16820016369E+04  0.17309300054E+04  0.12699999809E+01 0.  1.
       -4    1    3    3    0  502  0.13714429948E+03 -0.38494026205E+03  0.19205257028E+04  0.19635193282E+04  0.12699999809E+01 0. -1.
</event>
<event>
 5   0  0.1496000E-07  0.3554019E+04  0.7818609E-02  0.8101106E-01
       -1   -1    0    0    0  501  0.00000000000E+00  0.00000000000E+00  0.14236987995E+04  0.14236987995E+04  0.50400001928E-02 0.  1.
        1   -1    0    0  501    0  0.00000000000E+00  0.00000000000E+00 -0.22179991816E+04  0.22179991817E+04  0.50400001928E-02 0. -1.
    10030    2    1    2    0    0  0.00000000000E+00  0.00000000000E+00 -0.79430038215E+03  0.36416979812E+04  0.35540190051E+04 0.  0.
        3    1    3    3  502    0 -0.13717789231E+04  0.10101663076E+03 -0.15499753976E+04  0.20722947466E+04  0.10100000352E+00 0. -1.
       -3    1    3    3    0  502  0.13717789231E+04 -0.10101663076E+03  0.75567501543E+03  0.15694032346E+04  0.10100000352E+00 0.  1.
</event>
<event>
 5   0  0.4857514E-07  0.3573085E+04  0.7818609E-02  0.8096685E-01
       -2   -1    0    0    0  501  0.00000000000E+00  0.00000000000E+00  0.13619166967E+04  0.13619166967E+04  0.25500000920E-02 0.  1.
        2   -1    0    0  501    0  0.00000000000E+00  0.00000000000E+00 -0.23435609649E+04  0.23435609650E+04  0.25500000920E-02 0. -1.
    10030    2    1    2    0    0  0.00000000000E+00  0.00000000000E+00 -0.98164426822E+03  0.37054776617E+04  0.35730853939E+04 0.  0.
        5    1    3    3  502    0 -0.12736706658E+02  0.13586817888E+04  0.71212956250E+03  0.15340563975E+04  0.46999998093E+01 0.  1.
       -5    1    3    3    0  502  0.12736706658E+02 -0.13586817888E+04 -0.16937738307E+04  0.21714212642E+04  0.46999998093E+01 0. -1.
</event>
<event>
 5   0  0.4758908E-07  0.3647865E+04  0.7818609E-02  0.8079615E-01
       -2   -1    0    0    0  501  0.00000000000E+00  0.00000000000E+00  0.14783360865E+04  0.14783360865E+04  0.25500000920E-02 0. -1.
        2   -1    0    0  501    0  0.00000000000E+00  0.00000000000E+00 -0.22503207897E+04  0.22503207897E+04  0.25500000920E-02 0.  1.
    10030    2    1    2    0    0  0.00000000000E+00  0.00000000000E+00 -0.77198470320E+03  0.37286568763E+04  0.36478653647E+04 0.  0.
        2    1    3    3  502    0 -0.10271634343E+04 -0.14811891815E+04 -0.10099032600E+03  0.18053213449E+04  0.25500000920E-02 0. -1.
       -2    1    3    3    0  502  0.10271634343E+04  0.14811891815E+04 -0.67099437719E+03  0.19233355314E+04  0.25500000920E-02 0.  1.
</event>
<event>
 5   0  0.1496000E-07  0.3722972E+04  0.7818609E-02  0.8062890E-01
        1   -1    0    0  501    0  0.00000000000E+00  0.00000000000E+00  0.15346521081E+04  0.15346521081E+04  0.50400001928E-02 0. -1.
       -1   -1    0    0    0  501  0.00000000000E+00  0.00000000000E+00 -0.22579261043E+04  0.22579261043E+04  0.50400001928E-02 0.  1.
    10030    2    1    2    0    0  0.00000000000E+00  0.00000000000E+00 -0.72327399618E+03  0.37925782124E+04  0.37229724984E+04 0.  0.
        2    1    3    3  502    0  0.11482259903E+04  0.23079448394E+03  0.11122873329E+04  0.16152003373E+04  0.25500000920E-02 0.  1.
       -2    1    3    3    0  502 -0.11482259903E+04 -0.23079448394E+03 -0.18355613291E+04  0.21773778752E+04  0.25500000920E-02 0. -1.
</event>
<event>
 5   0  0.1496287E-07  0.3738587E+04  0.7818609E-02  0.8059464E-01
        1   -1    0    0  501    0  0.00000000000E+00  0.00000000000E+00  0.27938025147E+04  0.27938025147E+04  0.50400001928E-02 0. -1.
       -1   -1    0    0    0  501  0.00000000000E+00  0.00000000000E+00 -0.12507176551E+04  0.12507176551E+04  0.50400001928E-02 0.  1.
    10030    2    1    2    0    0  0.00000000000E+00  0.00000000000E+00  0.15430848596E+04  0.40445201698E+04  0.37385869683E+04 0.  0.
        1    1    3    3  502    0  0.10266237980E+04 -0.15559231304E+04  0.92224319020E+03  0.20797561665E+04  0.50400001928E-02 0. -1.
       -1    1    3    3    0  502 -0.10266237980E+04  0.15559231304E+04  0.62084166941E+03  0.19647640033E+04  0.50400001928E-02 0.  1.
</event>
<event>
 5   0  0.1496000E-07  0.3709653E+04  0.7818609E-02  0.8065826E-01
        1   -1    0    0  501    0  0.00000000000E+00  0.00000000000E+00  0.19708803628E+04  0.19708803628E+04  0.50400001928E-02 0.  1.
       -1   -1    0    0    0  501  0.00000000000E+00  0.00000000000E+00 -0.17456068288E+04  0.17456068288E+04  0.50400001928E-02 0. -1.
    10030    2    1    2    0    0  0.00000000000E+00  0.00000000000E+00  0.22527353395E+03  0.37164871916E+04  0.37096534717E+04 0.  0.
        3    1    3    3  502    0  0.82264289744E+03 -0.11485057454E+03  0.17741400047E+04  0.19589550167E+04  0.10100000352E+00 0.  1.
       -3    1    3    3    0  502 -0.82264289744E+03  0.11485057454E+03 -0.15488664707E+04  0.17575321748E+04  0.10100000352E+00 0. -1.
</event>
<event>
 5   0  0.1496287E-07  0.3564796E+04  0.7818609E-02  0.8098604E-01
        1   -1    0    0  501    0  0.00000000000E+00  0.00000000000E+00  0.18173836768E+04  0.18173836768E+04  0.50400001928E-02 0. -1.
       -1   -1    0    0    0  501  0.00000000000E+00  0.00000000000E+00 -0.17480855191E+04  0.17480855191E+04  0.50400001928E-02 0.  1.
    10030    2    1    2    0    0  0.00000000000E+00  0.00000000000E+00  0.69298157652E+02  0.35654691959E+04  0.35647956957E+04 0.  0.
        1    1    3    3  502    0 -0.14528535116E+04  0.23705868545E+03 -0.97050941802E+03  0.17631984224E+04  0.50400001928E-02 0.  1.
       -1    1    3    3    0  502  0.14528535116E+04 -0.23705868545E+03  0.10398075757E+04  0.18022707735E+04  0.50400001928E-02 0. -1.
</event>
<event>
 5   0  0.1522273E-07  0.3675494E+04  0.7818609E-02  0.8073414E-01
        1   -1    0    0  501    0  0.00000000000E+00  0.00000000000E+00  0.21075559658E+04  0.21075559658E+04  0.50400001928E-02 0. -1.
       -1   -1    0    0    0  501  0.00000000000E+00  0.00000000000E+00 -0.16024793355E+04  0.16024793355E+04  0.50400001928E-02 0.  1.
    10030    2    1    2    0    0  0.00000000000E+00  0.00000000000E+00  0.50507663028E+03  0.37100353013E+04  0.36754944612E+04 0.  0.
        4    1    3    3  502    0  0.32727825955E+03  0.17343395492E+04  0.76947263741E+03  0.19253920338E+04  0.12699999809E+01 0. -1.
       -4    1    3    3    0  502 -0.32727825955E+03 -0.17343395492E+04 -0.26439600713E+03  0.17846432676E+04  0.12699999809E+01 0.  1.
</event>
<event>
 5   0  0.1522273E-07  0.3001199E+04  0.7818609E-02  0.8243389E-01
        1   -1    0    0  501    0  0.00000000000E+00  0.00000000000E+00  0.13756996704E+04  0.13756996704E+04  0.50400001928E-02 0.  1.
       -1   -1    0    0    0  501  0.00000000000E+00  0.00000000000E+00 -0.16368387548E+04  0.16368387548E+04  0.50400001928E-02 0. -1.
    10030    2    1    2    0    0  0.00000000000E+00  0.00000000000E+00 -0.26113908436E+03  0.30125384252E+04  0.30011987841E+04 0.  0.
        4    1    3    3  502    0 -0.51305417056E+03  0.76952341953E+02 -0.15439560286E+04  0.16287873023E+04  0.12699999809E+01 0. -1.
       -4    1    3    3    0  502  0.51305417056E+03 -0.76952341953E+02  0.12828169442E+04  0.13837511229E+04  0.12699999809E+01 0.  1.
</event>
<event>
 5   0  0.1496000E-07  0.3768941E+04  0.7818609E-02  0.8052853E-01
       -1   -1    0    0    0  501  0.00000000000E+00  0.00000000000E+00  0.10783129664E+04  0.10783129664E+04  0.50400001928E-02 0. -1.
        1   -1    0    0  501    0  0.00000000000E+00  0.00000000000E+00 -0.32933193917E+04  0.32933193917E+04  0.50400001928E-02 0.  1.
    10030    2    1    2    0    0  0.00000000000E+00  0.00000000000E+00 -0.22150064253E+04  0.43716323582E+04  0.37689409668E+04 0.  0.
        3    1    3    3  502    0  0.48401150781E+03  0.10938953499E+04 -0.27964990036E+04  0.30415918306E+04  0.10100000352E+00 0.  1.
       -3    1    3    3    0  502 -0.48401150781E+03 -0.10938953499E+04  0.58149257831E+03  0.13300405276E+04  0.10100000352E+00 0. -1.
</event>
<event>
 5   0  0.4758908E-07  0.3714159E+04  0.7818609E-02  0.8064831E-01
       -2   -1    0    0    0  501  0.00000000000E+00  0.00000000000E+00  0.15238224743E+04  0.15238224743E+04  0.25500000920E-02 0. -1.
        2   -1    0    0  501    0  0.00000000000E+00  0.00000000000E+00 -0.22632192992E+04  0.22632192992E+04  0.25500000920E-02 0.  1.
    10030    2    1    2    0    0  0.00000000000E+00  0.00000000000E+00 -0.73939682498E+03  0.37870417735E+04  0.37141590878E+04 0.  0.
        2    1    3    3  502    0 -0.15207408606E+04 -0.67191884681E+03  0.47395360212E+03  0.17288029728E+04  0.25500000920E-02 0. -1.
       -2    1    3    3    0  502  0.15207408606E+04  0.67191884681E+03 -0.12133504271E+04  0.20582388007E+04  0.25500000920E-02 0.  1.
</event>
<event>
 5   0  0.1496000E-07  0.3737103E+04  0.7818609E-02  0.8059789E-01
       -3   -1    0    0    0  501  0.00000000000E+00  0.00000000000E+00  0.14386782019E+04  0.14386782055E+04  0.10100000352E+00 0.  1.
        3   -1    0    0  501    0  0.00000000000E+00  0.00000000000E+00 -0.24268704418E+04  0.24268704439E+04  0.10100000352E+00 0. -1.
    10030    2    1    2    0    0  0.00000000000E+00  0.00000000000E+00 -0.98819223983E+03  0.38655486493E+04  0.37371034850E+04 0.  0.
        1    1    3    3  502    0  0.38101217638E+03 -0.71622893447E+03 -0.22352001082E+04  0.23778716720E+04  0.50400001928E-02 0. -1.
       -1    1    3    3    0  502 -0.38101217638E+03  0.71622893447E+03  0.12470078683E+04  0.14876769773E+04  0.50400001928E-02 0.  1.
</event>
<event>
 5   0  0.4824268E-07  0.3526676E+04  0.7818609E-02  0.8107497E-01
       -2   -1    0    0    0  501  0.00000000000E+00  0.00000000000E+00  0.18959247821E+04  0.18959247821E+04  0.25500000920E-02 0.  1.
        2   -1    0    0  501    0  0.00000000000E+00  0.00000000000E+00 -0.16400235118E+04  0.16400235118E+04  0.25500000920E-02 0. -1.
    10030    2    1    2    0    0  0.00000000000E+00  0.00000000000E+00  0.25590127031E+03  0.35359482939E+04  0.35266761798E+04 0.  0.
        1    1    3    3  502    0 -0.99599157020E+03 -0.56100470181E+03 -0.12182020116E+04  0.16705512936E+04  0.50400001928E-02 0. -1.
       -1    1    3    3    0  502  0.99599157020E+03  0.56100470181E+03  0.14741032819E+04  0.18653970004E+04  0.50400001928E-02 0.  1.
</event>
<event>
 5   0  0.1496000E-07  0.3691215E+04  0.7818609E-02  0.8069911E-01
       -1   -1    0    0    0  501  0.00000000000E+00  0.00000000000E+00  0.13088971060E+04  0.13088971060E+04  0.50400001928E-02 0. -1.
        1   -1    0    0  501    0  0.00000000000E+00  0.00000000000E+00 -0.26023949500E+04  0.26023949500E+04  0.50400001928E-02 0.  1.
    10030    2    1    2    0    0  0.00000000000E+00  0.00000000000E+00 -0.12934978440E+04  0.39112920560E+04  0.36912150946E+04 0.  0.
        3    1    3    3  502    0  0.40535069808E+03 -0.62423042436E+03 -0.24363163526E+04  0.25474713328E+04  0.10100000352E+00 0.  1.
       -3    1    3    3    0  502 -0.40535069808E+03  0.62423042436E+03  0.11428185086E+04  0.13638207232E+04  0.10100000352E+00 0. -1.
</event>
<event>
 5   0  0.4824268E-07  0.3606720E+04  0.7818609E-02  0.8088954E-01
        2   -1    0    0  501    0  0.00000000000E+00  0.00000000000E+00  0.31025127775E+04  0.31025127775E+04  0.25500000920E-02 0. -1.
       -2   -1    0    0    0  501  0.00000000000E+00  0.00000000000E+00 -0.10482174883E+04  0.10482174883E+04  0.25500000920E-02 0.  1.
    10030    2    1    2    0    0  0.00000000000E+00  0.00000000000E+00  0.20542952892E+04  0.41507302658E+04  0.36067204777E+04 0.  0.
        1    1    3    3  502    0  0.12633519487E+04  0.44616742555E+03  0.24162668374E+04  0.27628733137E+04  0.50400001928E-02 0. -1.
       -1    1    3    3    0  502 -0.12633519487E+04 -0.44616742555E+03 -0.36197154820E+03  0.13878569521E+04  0.50400001928E-02 0.  1.
</event>
<event>
 5   0  0.1496287E-07  0.3700345E+04  0.7818609E-02  0.8067885E-01
       -1   -1    0    0    0  501  0.00000000000E+00  0.00000000000E+00  0.23407324569E+04  0.23407324569E+04  0.50400001928E-02 0. -1.
        1   -1    0    0  501    0  0.00000000000E+00  0.00000000000E+00 -0.14624214614E+04  0.14624214615E+04  0.50400001928E-02 0.  1.
    10030    2    1    2    0    0  0.00000000000E+00  0.00000000000E+00  0.87831099547E+03  0.38031539184E+04  0.37003445140E+04 0.  0.
        1    1    3    3  502    0 -0.34864330298E+02 -0.14567982945E+04 -0.73254527589E+03  0.16309811077E+04  0.50400001928E-02 0.  1.
       -1    1    3    3    0  502  0.34864330298E+02  0.14567982945E+04  0.16108562714E+04  0.21721728107E+04  0.50400001928E-02 0. -1.
</event>
<event>
 5   0  0.4857514E-07  0.3681653E+04  0.7818609E-02  0.8072040E-01
       -2   -1    0    0    0  501  0.00000000000E+00  0.00000000000E+00  0.31396096791E+04  0.31396096791E+04  0.25500000920E-02 0.  1.
        2   -1    0    0  501    0  0.00000000000E+00  0.00000000000E+00 -0.10793193563E+04  0.10793193563E+04  0.25500000920E-02 0. -1.
    10030    2    1    2    0    0  0.00000000000E+00  0.00000000000E+00  0.20602903228E+04  0.42189290354E+04  0.36816526169E+04 0.  0.
        5    1    3    3  502    0 -0.30506121363E+03 -0.34386656919E+02  0.31100616800E+04  0.31251800795E+04  0.46999998093E+01 0.  1.
       -5    1    3    3    0  502  0.30506121363E+03  0.34386656919E+02 -0.10497713571E+04  0.10937489559E+04  0.46999998093E+01 0. -1.
</event>
<event>
 5   0  0.1496000E-07  0.3873369E+04  0.7818609E-02  0.8030591E-01
        1   -1    0    0  501    0  0.00000000000E+00  0.00000000000E+00  0.18831904849E+04  0.18831904849E+04  0.50400001928E-02 0. -1.
       -1   -1    0    0    0  501  0.00000000000E+00  0.00000000000E+00 -0.19916979186E+04  0.19916979186E+04  0.50400001928E-02 0.  1.
    10030    2    1    2    0    0  0.00000000000E+00  0.00000000000E+00 -0.10850743370E+03  0.38748884035E+04  0.38733688537E+04 0.  0.
        2    1    3    3  502    0  0.17925316694E+04 -0.10479182753E+03 -0.78020737354E+03  0.19577728823E+04  0.25500000920E-02 0.  1.
       -2    1    3    3    0  502 -0.17925316694E+04  0.10479182753E+03  0.67169993984E+03  0.19171155213E+04  0.25500000920E-02 0. -1.
</event>
<event>
 5   0  0.4793557E-07  0.3735662E+04  0.7818609E-02  0.8060104E-01
       -2   -1    0    0    0  501  0.00000000000E+00  0.00000000000E+00  0.17284029546E+04  0.17284029546E+04  0.25500000920E-02 0.  1.
        2   -1    0    0  501    0  0.00000000000E+00  0.00000000000E+00 -0.20185065444E+04  0.20185065444E+04  0.25500000920E-02 0. -1.
    10030    2    1    2    0    0  0.00000000000E+00  0.00000000000E+00 -0.29010358982E+03  0.37469094990E+04  0.37356620164E+04 0.  0.
        3    1    3    3  502    0  0.15553968381E+04 -0.60753444776E+03  0.69438812737E+03  0.18084613103E+04  0.10100000352E+00 0.  1.
       -3    1    3    3    0  502 -0.15553968381E+04  0.60753444776E+03 -0.98449171718E+03  0.19384481888E+04  0.10100000352E+00 0. -1.
</event>
<event>
 5   0  0.4758908E-07  0.3766191E+04  0.7818609E-02  0.8053449E-01
        2   -1    0    0  501    0  0.00000000000E+00  0.00000000000E+00  0.25043526922E+04  0.25043526922E+04  0.25500000920E-02 0. -1.
       -2   -1    0    0    0  501  0.00000000000E+00  0.00000000000E+00 -0.14159544082E+04  0.14159544082E+04  0.25500000920E-02 0.  1.
    10030    2    1    2    0    0  0.00000000000E+00  0.00000000000E+00  0.10883982840E+04  0.39203071004E+04  0.37661913038E+04 0.  0.
        2    1    3    3  502    0 -0.34196929283E+03  0.18475117118E+04  0.67506865362E+03  0.19964869670E+04  0.25500000920E-02 0. -1.
       -2    1    3    3    0  502  0.34196929283E+03 -0.18475117118E+04  0.41332963038E+03  0.19238201334E+04  0.25500000920E-02 0.  1.
</event>
<event>
 5   0  0.1496000E-07  0.3659064E+04  0.7818609E-02  0.8077095E-01
        1   -1    0    0  501    0  0.00000000000E+00  0.00000000000E+00  0.19383279475E+04  0.19383279475E+04  0.50400001928E-02 0. -1.
       -1   -1    0    0    0  501  0.00000000000E+00  0.00000000000E+00 -0.17268430466E+04  0.17268430466E+04  0.50400001928E-02 0.  1.
    10030    2    1    2    0    0  0.00000000000E+00  0.00000000000E+00  0.21148490092E+03  0.36651709941E+04  0.36590644368E+04 0.  0.
        2    1    3    3  502    0  0.13623480009E+03 -0.12217250167E+04 -0.12515156362E+04  0.17542700263E+04  0.25500000920E-02 0. -1.
       -2    1    3    3    0  502 -0.13623480009E+03  0.12217250167E+04  0.14630005372E+04  0.19109009679E+04  0.25500000920E-02 0.  1.
</event>
<event>
 5   0  0.4857514E-07  0.3667258E+04  0.7818609E-02  0.8075257E-01
       -2   -1    0    0    0  501  0.00000000000E+00  0.00000000000E+00  0.21791377379E+04  0.21791377379E+04  0.25500000920E-02 0.  1.
        2   -1    0    0  501    0  0.00000000000E+00  0.00000000000E+00 -0.15429020462E+04  0.15429020462E+04  0.25500000920E-02 0. -1.
    10030    2    1    2    0    0  0.00000000000E+00  0.00000000000E+00  0.63623569176E+03  0.37220397841E+04  0.36672584173E+04 0.  0.
        5    1    3    3  502    0 -0.70925683561E+03  0.98219810686E+03  0.17150558353E+04  0.20998087980E+04  0.46999998093E+01 0.  1.
       -5    1    3    3    0  502  0.70925683561E+03 -0.98219810686E+03 -0.10788201436E+04  0.16222309861E+04  0.46999998093E+01 0. -1.
</event>
<event>
 5   0  0.4857514E-07  0.4010588E+04  0.7818609E-02  0.8002414E-01
       -2   -1    0    0    0  501  0.00000000000E+00  0.00000000000E+00  0.27072457864E+04  0.27072457864E+04  0.25500000920E-02 0.  1.
        2   -1    0    0  501    0  0.00000000000E+00  0.00000000000E+00 -0.14853487156E+04  0.14853487156E+04  0.25500000920E-02 0. -1.
    10030    2    1    2    0    0  0.00000000000E+00  0.00000000000E+00  0.12218970708E+04  0.41925945020E+04  0.40105880126E+04 0.  0.
        5    1    3    3  502    0  0.19588508048E+04  0.26481229251E+03  0.25804914557E+03  0.19934476359E+04  0.46999998093E+01 0.  1.
       -5    1    3    3    0  502 -0.19588508048E+04 -0.26481229251E+03  0.96384792519E+03  0.21991468661E+04  0.46999998093E+01 0. -1.
</event>
<event>
 5   0  0.4793557E-07  0.3702179E+04  0.7818609E-02  0.8067479E-01
       -2   -1    0    0    0  501  0.00000000000E+00  0.00000000000E+00  0.14704467018E+04  0.14704467018E+04  0.25500000920E-02 0. -1.
        2   -1    0    0  501    0  0.00000000000E+00  0.00000000000E+00 -0.23302656718E+04  0.23302656718E+04  0.25500000920E-02 0.  1.
    10030    2    1    2    0    0  0.00000000000E+00  0.00000000000E+00 -0.85981897005E+03  0.38007123736E+04  0.37021785323E+04 0.  0.
        3    1    3    3  502    0 -0.95794611562E+03  0.13763018630E+04  0.37496191206E+03  0.17182735592E+04  0.10100000352E+00 0. -1.
       -3    1    3    3    0  502  0.95794611562E+03 -0.13763018630E+04 -0.12347808821E+04  0.20824388144E+04  0.10100000352E+00 0.  1.
</event>
<event>
 5   0  0.4824268E-07  0.3697285E+04  0.7818609E-02  0.8068564E-01
        2   -1    0    0  501    0  0.00000000000E+00  0.00000000000E+00  0.14581117341E+04  0.14581117341E+04  0.25500000920E-02 0.  1.
       -2   -1    0    0    0  501  0.00000000000E+00  0.00000000000E+00 -0.23437697761E+04  0.23437697761E+04  0.25500000920E-02 0. -1.
    10030    2    1    2    0    0  0.00000000000E+00  0.00000000000E+00 -0.88565804195E+03  0.38018815102E+04  0.36972845238E+04 0.  0.
        1    1    3    3  502    0 -0.10711758728E+04 -0.11347154907E+04  0.57641420273E+03  0.16635054338E+04  0.50400001928E-02 0.  1.
       -1    1    3    3    0  502  0.10711758728E+04  0.11347154907E+04 -0.14620722447E+04  0.21383760764E+04  0.50400001928E-02 0. -1.
</event>
<event>
 5   0  0.1496000E-07  0.3717025E+04  0.7818609E-02  0.8064199E-01
        1   -1    0    0  501    0  0.00000000000E+00  0.00000000000E+00  0.16252194757E+04  0.16252194757E+04  0.50400001928E-02 0. -1.
       -1   -1    0    0    0  501  0.00000000000E+00  0.00000000000E+00 -0.21252932079E+04  0.21252932080E+04  0.50400001928E-02 0.  1.
    10030    2    1    2    0    0  0.00000000000E+00  0.00000000000E+00 -0.50007373222E+03  0.37505126837E+04  0.37170245699E+04 0.  0.
        5    1    3    3  502    0 -0.18306111463E+03  0.57785079962E+03  0.15226702742E+04  0.16388928496E+04  0.46999998093E+01 0. -1.
       -5    1    3    3    0  502  0.18306111463E+03 -0.57785079962E+03 -0.20227440064E+04  0.21116198341E+04  0.46999998093E+01 0.  1.
</event>
<event>
 5   0  0.1496287E-07  0.3246770E+04  0.7818609E-02  0.8176573E-01
        1   -1    0    0  501    0  0.00000000000E+00  0.00000000000E+00  0.17981829768E+04  0.17981829768E+04  0.50400001928E-02 0. -1.
       -1   -1    0    0    0  501  0.00000000000E+00  0.00000000000E+00 -0.14655789495E+04  0.14655789495E+04  0.50400001928E-02 0.  1.
    10030    2    1    2    0    0  0.00000000000E+00  0.00000000000E+00  0.33260402739E+03  0.32637619263E+04  0.32467701601E+04 0.  0.
        1    1    3    3  502    0  0.43981373704E+03  0.79951524604E+03 -0.11833781579E+04  0.14943375176E+04  0.50400001928E-02 0.  1.
       -1    1    3    3    0  502 -0.43981373704E+03 -0.79951524604E+03  0.15159821853E+04  0.17694244087E+04  0.50400001928E-02 0. -1.
</event>
<event>
 5   0  0.4758908E-07  0.3703242E+04  0.7818609E-02  0.8067244E-01
       -2   -1    0    0    0  501  0.00000000000E+00  0.00000000000E+00  0.11617626341E+04  0.11617626341E+04  0.25500000920E-02 0.  1.
        2   -1    0    0  501    0  0.00000000000E+00  0.00000000000E+00 -0.29511187950E+04  0.29511187950E+04  0.25500000920E-02 0. -1.
    10030    2    1    2    0    0  0.00000000000E+00  0.00000000000E+00 -0.17893561609E+04  0.41128814291E+04  0.37032415772E+04 0.  0.
        2    1    3    3  502    0 -0.17202866803E+04 -0.56996100553E+03 -0.47285173604E+03  0.18729203332E+04  0.25500000920E-02 0. -1.
       -2    1    3    3    0  502  0.17202866803E+04  0.56996100553E+03 -0.13165044249E+04  0.22399610959E+04  0.25500000920E-02 0.  1.
</event>
<event>
 5   0  0.1496000E-07  0.3658470E+04  0.7818609E-02  0.8077228E-01
       -1   -1    0    0    0  501  0.00000000000E+00  0.00000000000E+00  0.14893477648E+04  0.14893477648E+04  0.50400001928E-02 0. -1.
        1   -1    0    0  501    0  0.00000000000E+00  0.00000000000E+00 -0.22466883165E+04  0.22466883165E+04  0.50400001928E-02 0.  1.
    10030    2    1    2    0    0  0.00000000000E+00  0.00000000000E+00 -0.75734055172E+03  0.37360360813E+04  0.36584697470E+04 0.  0.
        2    1    3    3  502    0 -0.17046007258E+04 -0.65652862897E+03 -0.47771499666E+03  0.18880956261E+04  0.25500000920E-02 0.  1.
       -2    1    3    3    0  502  0.17046007258E+04  0.65652862897E+03 -0.27962555506E+03  0.18479404553E+04  0.25500000920E-02 0. -1.
</event>
<event>
 5   0  0.4824268E-07  0.3700948E+04  0.7818609E-02  0.8067752E-01
        2   -1    0    0  501    0  0.00000000000E+00  0.00000000000E+00  0.15288615448E+04  0.15288615448E+04  0.25500000920E-02 0. -1.
       -2   -1    0    0    0  501  0.00000000000E+00  0.00000000000E+00 -0.22397409531E+04  0.22397409531E+04  0.25500000920E-02 0.  1.
    10030    2    1    2    0    0  0.00000000000E+00  0.00000000000E+00 -0.71087940825E+03  0.37686024979E+04  0.37009478859E+04 0.  0.
        1    1    3    3  502    0 -0.15705497508E+04  0.72734657540E+03 -0.10220784222E+04  0.20100507112E+04  0.50400001928E-02 0.  1.
       -1    1    3    3    0  502  0.15705497508E+04 -0.72734657540E+03  0.31119901395E+03  0.17585517867E+04  0.50400001928E-02 0. -1.
</event>
<event>
 5   0  0.4857514E-07  0.3714826E+04  0.7818609E-02  0.8064684E-01
        2   -1    0    0  501    0  0.00000000000E+00  0.00000000000E+00  0.27048346399E+04  0.27048346399E+04  0.25500000920E-02 0.  1.
       -2   -1    0    0    0  501  0.00000000000E+00  0.00000000000E+00 -0.12754874372E+04  0.12754874372E+04  0.25500000920E-02 0. -1.
    10030    2    1    2    0    0  0.00000000000E+00  0.00000000000E+00  0.14293472027E+04  0.39803220772E+04  0.37148257580E+04 0.  0.
        5    1    3    3  502    0 -0.88874167938E+03  0.12896677409E+04  0.17844572364E+04  0.23743239823E+04  0.46999998093E+01 0.  1.
       -5    1    3    3    0  502  0.88874167938E+03 -0.12896677409E+04 -0.35511003373E+03  0.16059980948E+04  0.46999998093E+01 0. -1.
</event>
<event>
 5   0  0.1496000E-07  0.3670615E+04  0.7818609E-02  0.8074505E-01
       -1   -1    0    0    0  501  0.00000000000E+00  0.00000000000E+00  0.29987488682E+04  0.29987488683E+04  0.50400001928E-02 0.  1.
        1   -1    0    0  501    0  0.00000000000E+00  0.00000000000E+00 -0.11232526953E+04  0.11232526953E+04  0.50400001928E-02 0. -1.
    10030    2    1    2    0    0  0.00000000000E+00  0.00000000000E+00  0.18754961730E+04  0.41220015635E+04  0.36706145255E+04 0.  0.
        5    1    3    3  502    0  0.42855207652E+03  0.16635851877E+04  0.21244468620E+03  0.17309902928E+04  0.46999998093E+01 0. -1.
       -5    1    3    3    0  502 -0.42855207652E+03 -0.16635851877E+04  0.16630514868E+04  0.23910112707E+04  0.46999998093E+01 0.  1.
</event>
<event>
 5   0  0.1496000E-07  0.3811588E+04  0.7818609E-02  0.8043673E-01
        1   -1    0    0  501    0  0.00000000000E+00  0.00000000000E+00  0.14316857730E+04  0.14316857730E+04  0.50400001928E-02 0.  1.
       -1   -1    0    0    0  501  0.00000000000E+00  0.00000000000E+00 -0.25369048710E+04  0.25369048710E+04  0.50400001928E-02 0. -1.
    10030    2    1    2    0    0  0.00000000000E+00  0.00000000000E+00 -0.11052190979E+04  0.39685906440E+04  0.38115879165E+04 0.  0.
        5    1    3    3  502    0 -0.84754940341E+02 -0.92135759279E+03  0.11821361338E+04  0.15011832475E+04  0.46999998093E+01 0.  1.
       -5    1    3    3    0  502  0.84754940341E+02  0.92135759279E+03 -0.22873552318E+04  0.24674073965E+04  0.46999998093E+01 0. -1.
</event>
<event>
 5   0  0.4824268E-07  0.3706952E+04  0.7818609E-02  0.8066423E-01
        2   -1    0    0  501    0  0.00000000000E+00  0.00000000000E+00  0.16527882810E+04  0.16527882810E+04  0.25500000920E-02 0.  1.
       -2   -1    0    0    0  501  0.00000000000E+00  0.00000000000E+00 -0.20785314668E+04  0.20785314668E+04  0.25500000920E-02 0. -1.
    10030    2    1    2    0    0  0.00000000000E+00  0.00000000000E+00 -0.42574318575E+03  0.37313197478E+04  0.37069515509E+04 0.  0.
        1    1    3    3  502    0  0.63425861127E+03  0.17177472650E+04  0.76126898945E+02  0.18326851768E+04  0.50400001928E-02 0.  1.
       -1    1    3    3    0  502 -0.63425861127E+03 -0.17177472650E+04 -0.50187008469E+03  0.18986345710E+04  0.50400001928E-02 0. -1.
</event>
<event>
 5   0  0.4687817E-07  0.3686976E+04  0.7818609E-02  0.8070854E-01
        2   -1    0    0  501    0  0.00000000000E+00  0.00000000000E+00  0.15953169946E+04  0.15953169946E+04  0.25500000920E-02 0. -1.
       -2   -1    0    0    0  501  0.00000000000E+00  0.00000000000E+00 -0.21302646382E+04  0.21302646382E+04  0.25500000920E-02 0.  1.
    10030    2    1    2    0    0  0.00000000000E+00  0.00000000000E+00 -0.53494764361E+03  0.37255816328E+04  0.36869756605E+04 0.  0.
        4    1    3    3  502    0 -0.11302461718E+04 -0.14388477631E+04 -0.39934994386E+02  0.18301190428E+04  0.12699999809E+01 0. -1.
       -4    1    3    3    0  502  0.11302461718E+04  0.14388477631E+04 -0.49501264922E+03  0.18954625900E+04  0.12699999809E+01 0.  1.
</event>
<event>
 5   0  0.1496000E-07  0.3711468E+04  0.7818609E-02  0.8065425E-01
        1   -1    0    0  501    0  0.00000000000E+00  0.00000000000E+00  0.17970587451E+04  0.17970587451E+04  0.50400001928E-02 0. -1.
       -1   -1    0    0    0  501  0.00000000000E+00  0.00000000000E+00 -0.19163255220E+04  0.19163255220E+04  0.50400001928E-02 0.  1.
    10030    2    1    2    0    0  0.00000000000E+00  0.00000000000E+00 -0.11926677689E+03  0.37133842671E+04  0.37114684629E+04 0.  0.
        2    1    3    3  502    0  0.27161432328E+03 -0.17842820280E+04  0.37222913021E+03  0.18428215382E+04  0.25500000920E-02 0. -1.
       -2    1    3    3    0  502 -0.27161432328E+03  0.17842820280E+04 -0.49149590710E+03  0.18705627289E+04  0.25500000920E-02 0.  1.
</event>
<event>
 5   0  0.1522273E-07  0.3437344E+04  0.7818609E-02  0.8128801E-01
       -1   -1    0    0    0  501  0.00000000000E+00  0.00000000000E+00  0.12364661385E+04  0.12364661385E+04  0.50400001928E-02 0. -1.
        1   -1    0    0  501    0  0.00000000000E+00  0.00000000000E+00 -0.23889312732E+04  0.23889312732E+04  0.50400001928E-02 0.  1.
    10030    2    1    2    0    0  0.00000000000E+00  0.00000000000E+00 -0.11524651346E+04  0.36253974117E+04  0.34373435246E+04 0.  0.
        4    1    3    3  502    0 -0.14456132580E+04 -0.77901869089E+03 -0.11110888415E+04  0.19827223303E+04  0.12699999809E+01 0.  1.
       -4    1    3    3    0  502  0.14456132580E+04  0.77901869089E+03 -0.41376293103E+02  0.16426750814E+04  0.12699999809E+01 0. -1.
</event>
<event>
 5   0  0.4793557E-07  0.3685894E+04  0.7818609E-02  0.8071095E-01
       -2   -1    0    0    0  501  0.00000000000E+00  0.00000000000E+00  0.18438507789E+04  0.18438507789E+04  0.25500000920E-02 0.  1.
        2   -1    0    0  501    0  0.00000000000E+00  0.00000000000E+00 -0.18420434909E+04  0.18420434909E+04  0.25500000920E-02 0. -1.
    10030    2    1    2    0    0  0.00000000000E+00  0.00000000000E+00  0.18072880202E+01  0.36858942698E+04  0.36858938267E+04 0.  0.
        3    1    3    3  502    0  0.38213941163E+03  0.79620330125E+03  0.16184585016E+04  0.18437402633E+04  0.10100000352E+00 0.  1.
       -3    1    3    3    0  502 -0.38213941163E+03 -0.79620330125E+03 -0.16166512136E+04  0.18421540065E+04  0.10100000352E+00 0. -1.
</event>
<event>
 5   0  0.1496287E-07  0.3702648E+04  0.7818609E-02  0.8067375E-01
       -1   -1    0    0    0  501  0.00000000000E+00  0.00000000000E+00  0.18091975782E+04  0.18091975782E+04  0.50400001928E-02 0. -1.
        1   -1    0    0  501    0  0.00000000000E+00  0.00000000000E+00 -0.18944314315E+04  0.18944314315E+04  0.50400001928E-02 0.  1.
    10030    2    1    2    0    0  0.00000000000E+00  0.00000000000E+00 -0.85233853325E+02  0.37036290097E+04  0.37026481107E+04 0.  0.
        1    1    3    3  502    0 -0.20785961098E+03 -0.14001402250E+04 -0.12361649872E+04  0.18792823479E+04  0.50400001928E-02 0.  1.
       -1    1    3    3    0  502  0.20785961098E+03  0.14001402250E+04  0.11509311338E+04  0.18243466618E+04  0.50400001928E-02 0. -1.
</event>
<event>
 5   0  0.4857514E-07  0.3699956E+04  0.7818609E-02  0.8067972E-01
       -2   -1    0    0    0  501  0.00000000000E+00  0.00000000000E+00  0.14842005910E+04  0.14842005910E+04  0.25500000920E-02 0.  1.
        2   -1    0    0  501    0  0.00000000000E+00  0.00000000000E+00 -0.23058997112E+04  0.23058997112E+04  0.25500000920E-02 0. -1.
    10030    2    1    2    0    0  0.00000000000E+00  0.00000000000E+00 -0.82169912024E+03  0.37901003022E+04  0.36999555209E+04 0.  0.
        5    1    3    3  502    0 -0.16541065599E+04  0.42510976235E+03 -0.11392354319E+04  0.20529652410E+04  0.46999998093E+01 0. -1.
       -5    1    3    3    0  502  0.16541065599E+04 -0.42510976235E+03  0.31753631169E+03  0.17371350612E+04  0.46999998093E+01 0.  1.
</event>
<event>
 5   0  0.1496000E-07  0.3746289E+04  0.7818609E-02  0.8057780E-01
       -1   -1    0    0    0  501  0.00000000000E+00  0.00000000000E+00  0.20143208135E+04  0.20143208135E+04  0.50400001928E-02 0.  1.
        1   -1    0    0  501    0  0.00000000000E+00  0.00000000000E+00 -0.17418629240E+04  0.17418629240E+04  0.50400001928E-02 0. -1.
    10030    2    1    2    0    0  0.00000000000E+00  0.00000000000E+00  0.27245788956E+03  0.37561837375E+04  0.37462892265E+04 0.  0.
        2    1    3    3  502    0 -0.29296088256E+03 -0.17508897028E+04 -0.46303677199E+03  0.18346236351E+04  0.25500000920E-02 0. -1.
       -2    1    3    3    0  502  0.29296088256E+03  0.17508897028E+04  0.73549466155E+03  0.19215601024E+04  0.25500000920E-02 0.  1.
</event>
<event>
 5   0  0.4824268E-07  0.3720979E+04  0.7818609E-02  0.8063328E-01
       -2   -1    0    0    0  501  0.00000000000E+00  0.00000000000E+00  0.35944064364E+04  0.35944064364E+04  0.25500000920E-02 0. -1.
        2   -1    0    0  501    0  0.00000000000E+00  0.00000000000E+00 -0.96300225144E+03  0.96300225145E+03  0.25500000920E-02 0.  1.
    10030    2    1    2    0    0  0.00000000000E+00  0.00000000000E+00  0.26314041850E+04  0.45574086879E+04  0.37209791673E+04 0.  0.
        1    1    3    3  502    0  0.49907983675E+03  0.37378927105E+02  0.35104117645E+04  0.35459087163E+04  0.50400001928E-02 0. -1.
       -1    1    3    3    0  502 -0.49907983675E+03 -0.37378927105E+02 -0.87900757954E+03  0.10114999716E+04  0.50400001928E-02 0.  1.
</event>
<event>
 5   0  0.4758908E-07  0.3763584E+04  0.7818609E-02  0.8054015E-01
       -2   -1    0    0    0  501  0.00000000000E+00  0.00000000000E+00  0.24969667052E+04  0.24969667052E+04  0.25500000920E-02 0.  1.
        2   -1    0    0  501    0  0.00000000000E+00  0.00000000000E+00 -0.14181768555E+04  0.14181768555E+04  0.25500000920E-02 0. -1.
    10030    2    1    2    0    0  0.00000000000E+00  0.00000000000E+00  0.10787898497E+04  0.39151435607E+04  0.37635836062E+04 0.  0.
        2    1    3    3  502    0  0.81097181338E+03  0.16980768732E+04  0.53960495503E+03  0.19576296527E+04  0.25500000920E-02 0.  1.
       -2    1    3    3    0  502 -0.81097181338E+03 -0.16980768732E+04  0.53918489470E+03  0.19575139080E+04  0.25500000920E-02 0. -1.
</event>
<event>
 5   0  0.1522273E-07  0.3637203E+04  0.7818609E-02  0.8082023E-01
       -1   -1    0    0    0  501  0.00000000000E+00  0.00000000000E+00  0.27606216003E+04  0.27606216003E+04  0.50400001928E-02 0.  1.
        1   -1    0    0  501    0  0.00000000000E+00  0.00000000000E+00 -0.11980314791E+04  0.11980314791E+04  0.50400001928E-02 0. -1.
    10030    2    1    2    0    0  0.00000000000E+00  0.00000000000E+00  0.15625901212E+04  0.39586530794E+04  0.36372030898E+04 0.  0.
        4    1    3    3  502    0  0.17860965823E+04  0.92365430153E+02  0.11400269280E+04  0.21209279534E+04  0.12699999809E+01 0.  1.
       -4    1    3    3    0  502 -0.17860965823E+04 -0.92365430153E+02  0.42256319313E+03  0.18377251261E+04  0.12699999809E+01 0. -1.
</event>
<event>
 5   0  0.4687817E-07  0.3706332E+04  0.7818609E-02  0.8066560E-01
        2   -1    0    0  501    0  0.00000000000E+00  0.00000000000E+00  0.20893755966E+04  0.20893755966E+04  0.25500000920E-02 0. -1.
       -2   -1    0    0    0  501  0.00000000000E+00  0.00000000000E+00 -0.16436602276E+04  0.16436602276E+04  0.25500000920E-02 0.  1.
    10030    2    1    2    0    0  0.00000000000E+00  0.00000000000E+00  0.44571536907E+03  0.37330358242E+04  0.37063316466E+04 0.  0.
        4    1    3    3  502    0  0.12519515772E+04  0.13288446690E+04 -0.97254586143E+02  0.18282972880E+04  0.12699999809E+01 0.  1.
       -4    1    3    3    0  502 -0.12519515772E+04 -0.13288446690E+04  0.54296995522E+03  0.19047385362E+04  0.12699999809E+01 0. -1.
</event>
<event>
 5   0  0.4857514E-07  0.3679333E+04  0.7818609E-02  0.8072557E-01
       -2   -1    0    0    0  501  0.00000000000E+00  0.00000000000E+00  0.14266778788E+04  0.14266778788E+04  0.25500000920E-02 0.  1.
        2   -1    0    0  501    0  0.00000000000E+00  0.00000000000E+00 -0.23722050989E+04  0.23722050989E+04  0.25500000920E-02 0. -1.
    10030    2    1    2    0    0  0.00000000000E+00  0.00000000000E+00 -0.94552722014E+03  0.37988829777E+04  0.36793328409E+04 0.  0.
        5    1    3    3  502    0 -0.16098117645E+04  0.88622329973E+03 -0.56196995906E+03  0.19216446027E+04  0.46999998093E+01 0.  1.
       -5    1    3    3    0  502  0.16098117645E+04 -0.88622329973E+03 -0.38355726109E+03  0.18772383750E+04  0.46999998093E+01 0. -1.
</event>
<event>
 5   0  0.1496287E-07  0.3581962E+04  0.7818609E-02  0.8094636E-01
        1   -1    0    0  501    0  0.00000000000E+00  0.00000000000E+00  0.14638353510E+04  0.14638353510E+04  0.50400001928E-02 0.  1.
       -1   -1    0    0    0  501  0.00000000000E+00  0.00000000000E+00 -0.21912384030E+04  0.21912384030E+04  0.50400001928E-02 0. -1.
    10030    2    1    2    0    0  0.00000000000E+00  0.00000000000E+00 -0.72740305201E+03  0.36550737540E+04  0.35819616060E+04 0.  0.
        1    1    3    3  502    0  0.41213120257E+03  0.58746845964E+03  0.13107186132E+04  0.14943073989E+04  0.50400001928E-02 0.  1.
       -1    1    3    3    0  502 -0.41213120257E+03 -0.58746845964E+03 -0.20381216652E+04  0.21607663551E+04  0.50400001928E-02 0. -1.
</event>
<event>
 5   0  0.4687817E-07  0.3652782E+04  0.7818609E-02  0.8078507E-01
        2   -1    0    0  501    0  0.00000000000E+00  0.00000000000E+00  0.20662450076E+04  0.20662450076E+04  0.25500000920E-02 0. -1.
       -2   -1    0    0    0  501  0.00000000000E+00  0.00000000000E+00 -0.16143798716E+04  0.16143798716E+04  0.25500000920E-02 0.  1.
    10030    2    1    2    0    0  0.00000000000E+00  0.00000000000E+00  0.45186513609E+03  0.36806248792E+04  0.36527821452E+04 0.  0.
        4    1    3    3  502    0 -0.79280650868E+03  0.39128661400E+03 -0.13843902229E+04  0.16426153770E+04  0.12699999809E+01 0.  1.
       -4    1    3    3    0  502  0.79280650868E+03 -0.39128661400E+03  0.18362553590E+04  0.20380095022E+04  0.12699999809E+01 0. -1.
</event>
<event>
 5   0  0.1496000E-07  0.3560386E+04  0.7818609E-02  0.8099627E-01
       -1   -1    0    0    0  501  0.00000000000E+00  0.00000000000E+00  0.13349420568E+04  0.13349420568E+04  0.50400001928E-02 0. -1.
        1   -1    0    0  501    0  0.00000000000E+00  0.00000000000E+00 -0.23739505857E+04  0.23739505858E+04  0.50400001928E-02 0.  1.
    10030    2    1    2    0    0  0.00000000000E+00  0.00000000000E+00 -0.10390085290E+04  0.37088926425E+04  0.35603856407E+04 0.  0.
        3    1    3    3  502    0 -0.14905283216E+04  0.96746659049E+03 -0.63082698627E+03  0.18856322489E+04  0.10100000352E+00 0.  1.
       -3    1    3    3    0  502  0.14905283216E+04 -0.96746659049E+03 -0.40818154270E+03  0.18232603937E+04  0.10100000352E+00 0. -1.
</event>
<event>
 5   0  0.1496000E-07  0.3759879E+04  0.7818609E-02  0.8054820E-01
       -1   -1    0    0    0  501  0.00000000000E+00  0.00000000000E+00  0.28198241040E+04  0.28198241040E+04  0.50400001928E-02 0. -1.
        1   -1    0    0  501    0  0.00000000000E+00  0.00000000000E+00 -0.12533311746E+04  0.12533311746E+04  0.50400001928E-02 0.  1.
    10030    2    1    2    0    0  0.00000000000E+00  0.00000000000E+00  0.15664929294E+04  0.40731552786E+04  0.37598794961E+04 0.  0.
        2    1    3    3  502    0  0.16128197588E+04  0.93810623281E+03  0.10325104779E+04  0.21324419724E+04  0.25500000920E-02 0. -1.
       -2    1    3    3    0  502 -0.16128197588E+04 -0.93810623281E+03  0.53398245150E+03  0.19407133062E+04  0.25500000920E-02 0.  1.
</event>
<event>
 5   0  0.1496000E-07  0.3682109E+04  0.7818609E-02  0.8071938E-01
       -1   -1    0    0    0  501  0.00000000000E+00  0.00000000000E+00  0.27581235025E+04  0.27581235025E+04  0.50400001928E-02 0. -1.
        1   -1    0    0  501    0  0.00000000000E+00  0.00000000000E+00 -0.12289085604E+04  0.12289085604E+04  0.50400001928E-02 0.  1.
    10030    2    1    2    0    0  0.00000000000E+00  0.00000000000E+00  0.15292149421E+04  0.39870320629E+04  0.36821089516E+04 0.  0.
        2    1    3    3  502    0 -0.17230241080E+04 -0.57420124319E+03  0.43803156493E+03  0.18682587605E+04  0.25500000920E-02 0.  1.
       -2    1    3    3    0  502  0.17230241080E+04  0.57420124319E+03  0.10911833771E+04  0.21187733024E+04  0.25500000920E-02 0. -1.
</event>
<event>
 5   0  0.1496287E-07  0.3734314E+04  0.7818609E-02  0.8060400E-01
        1   -1    0    0  501    0  0.00000000000E+00  0.00000000000E+00  0.24181525743E+04  0.24181525743E+04  0.50400001928E-02 0. -1.
       -1   -1    0    0    0  501  0.00000000000E+00  0.00000000000E+00 -0.14417100013E+04  0.14417100013E+04  0.50400001928E-02 0.  1.
    10030    2    1    2    0    0  0.00000000000E+00  0.00000000000E+00  0.97644257300E+03  0.38598625755E+04  0.37343137259E+04 0.  0.
        1    1    3    3  502    0 -0.13040866294E+04 -0.83967096859E+02  0.18666935423E+04  0.22786481060E+04  0.50400001928E-02 0. -1.
       -1    1    3    3    0  502  0.13040866294E+04  0.83967096859E+02 -0.89025096928E+03  0.15812144695E+04  0.50400001928E-02 0.  1.
</event>
<event>
 5   0  0.1496000E-07  0.3623713E+04  0.7818609E-02  0.8085081E-01
        1   -1    0    0  501    0  0.00000000000E+00  0.00000000000E+00  0.25200611295E+04  0.25200611295E+04  0.50400001928E-02 0.  1.
       -1   -1    0    0    0  501  0.00000000000E+00  0.00000000000E+00 -0.13026762834E+04  0.13026762834E+04  0.50400001928E-02 0. -1.
    10030    2    1    2    0    0  0.00000000000E+00  0.00000000000E+00  0.12173848462E+04  0.38227374129E+04  0.36237129390E+04 0.  0.
        5    1    3    3  502    0  0.97856190644E+03 -0.14810295791E+03  0.22097037881E+04  0.24212250643E+04  0.46999998093E+01 0.  1.
       -5    1    3    3    0  502 -0.97856190644E+03  0.14810295791E+03 -0.99231894192E+03  0.14015123486E+04  0.46999998093E+01 0. -1.
</event>
<event>
 5   0  0.1496000E-07  0.3604738E+04  0.7818609E-02  0.8089407E-01
       -1   -1    0    0    0  501  0.00000000000E+00  0.00000000000E+00  0.14190598137E+04  0.14190598137E+04  0.50400001928E-02 0. -1.
        1   -1    0    0  501    0  0.00000000000E+00  0.00000000000E+00 -0.22892156099E+04  0.22892156099E+04  0.50400001928E-02 0.  1.
    10030    2    1    2    0    0  0.00000000000E+00  0.00000000000E+00 -0.87015579619E+03  0.37082754237E+04  0.36047379250E+04 0.  0.
        2    1    3    3  502    0 -0.12367632925E+04 -0.66167951996E+03 -0.15994585963E+04  0.21273624586E+04  0.25500000920E-02 0.  1.
       -2    1    3    3    0  502  0.12367632925E+04  0.66167951996E+03  0.72930280012E+03  0.15809129651E+04  0.25500000920E-02 0. -1.
</event>
<event>
 5   0  0.4687817E-07  0.3711759E+04  0.7818609E-02  0.8065361E-01
        2   -1    0    0  501    0  0.00000000000E+00  0.00000000000E+00  0.26492564355E+04  0.26492564355E+04  0.25500000920E-02 0. -1.
       -2   -1    0    0    0  501  0.00000000000E+00  0.00000000000E+00 -0.13000964562E+04  0.13000964562E+04  0.25500000920E-02 0.  1.
    10030    2    1    2    0    0  0.00000000000E+00  0.00000000000E+00  0.13491599793E+04  0.39493528917E+04  0.37117590996E+04 0.  0.
        4    1    3    3  502    0  0.15723615733E+04 -0.69829176792E+03 -0.65925094091E+02  0.17217084658E+04  0.12699999809E+01 0.  1.
       -4    1    3    3    0  502 -0.15723615733E+04  0.69829176792E+03  0.14150850734E+04  0.22276444259E+04  0.12699999809E+01 0. -1.
</event>
<event>
 5   0  0.4687817E-07  0.3362612E+04  0.7818609E-02  0.8147144E-01
        2   -1    0    0  501    0  0.00000000000E+00  0.00000000000E+00  0.17221473242E+04  0.17221473242E+04  0.25500000920E-02 0. -1.
       -2   -1    0    0    0  501  0.00000000000E+00  0.00000000000E+00 -0.16414331773E+04  0.16414331773E+04  0.25500000920E-02 0.  1.
    10030    2    1    2    0    0  0.00000000000E+00  0.00000000000E+00  0.80714146845E+02  0.33635805015E+04  0.33626119337E+04 0.  0.
        4    1    3    3  502    0  0.36054835455E+03 -0.30036276046E+03 -0.15745971213E+04  0.16430370085E+04  0.12699999809E+01 0.  1.
       -4    1    3    3    0  502 -0.36054835455E+03  0.30036276046E+03  0.16553112682E+04  0.17205434930E+04  0.12699999809E+01 0. -1.
</event>
<event>
 5   0  0.4824268E-07  0.3679641E+04  0.7818609E-02  0.8072489E-01
       -2   -1    0    0    0  501  0.00000000000E+00  0.00000000000E+00  0.23836471306E+04  0.23836471306E+04  0.25500000920E-02 0. -1.
        2   -1    0    0  501    0  0.00000000000E+00  0.00000000000E+00 -0.14200675383E+04  0.14200675383E+04  0.25500000920E-02 0.  1.
    10030    2    1    2    0    0  0.00000000000E+00  0.00000000000E+00  0.96357959233E+03  0.38037146688E+04  0.36796412395E+04 0.  0.
        1    1    3    3  502    0 -0.12031665006E+04 -0.10368620759E+03 -0.95302522991E+03  0.15383814698E+04  0.50400001928E-02 0.  1.
       -1    1    3    3    0  502  0.12031665006E+04  0.10368620759E+03  0.19166048222E+04  0.22653331990E+04  0.50400001928E-02 0. -1.
</event>
<event>
 5   0  0.1522273E-07  0.3751534E+04  0.7818609E-02  0.8056636E-01
       -1   -1    0    0    0  501  0.00000000000E+00  0.00000000000E+00  0.15446287101E+04  0.15446287101E+04  0.50400001928E-02 0. -1.
        1   -1    0    0  501    0  0.00000000000E+00  0.00000000000E+00 -0.22778952747E+04  0.22778952747E+04  0.50400001928E-02 0.  1.
    10030    2    1    2    0    0  0.00000000000E+00  0.00000000000E+00 -0.73326656467E+03  0.38225239848E+04  0.37515343207E+04 0.  0.
        4    1    3    3  502    0  0.11873596574E+04 -0.10686821415E+04 -0.13683937079E+04  0.21034275429E+04  0.12699999809E+01 0.  1.
       -4    1    3    3    0  502 -0.11873596574E+04  0.10686821415E+04  0.63512714319E+03  0.17190964419E+04  0.12699999809E+01 0. -1.
</event>
<event>
 5   0  0.1522273E-07  0.3695528E+04  0.7818609E-02  0.8068954E-01
        1   -1    0    0  501    0  0.00000000000E+00  0.00000000000E+00  0.26122521617E+04  0.26122521617E+04  0.50400001928E-02 0. -1.
       -1   -1    0    0    0  501  0.00000000000E+00  0.00000000000E+00 -0.13070067285E+04  0.13070067285E+04  0.50400001928E-02 0.  1.
    10030    2    1    2    0    0  0.00000000000E+00  0.00000000000E+00  0.13052454332E+04  0.39192588902E+04  0.36955276494E+04 0.  0.
        4    1    3    3  502    0 -0.15386174757E+04  0.10323226014E+03  0.17322040010E+04  0.23191664343E+04  0.12699999809E+01 0.  1.
       -4    1    3    3    0  502  0.15386174757E+04 -0.10323226014E+03 -0.42695856780E+03  0.16000924559E+04  0.12699999809E+01 0. -1.
</event>
<event>
 5   0  0.4857514E-07  0.3760077E+04  0.7818609E-02  0.8054777E-01
       -2   -1    0    0    0  501  0.00000000000E+00  0.00000000000E+00  0.29232820686E+04  0.29232820686E+04  0.25500000920E-02 0. -1.
        2   -1    0    0  501    0  0.00000000000E+00  0.00000000000E+00 -0.12091014770E+04  0.12091014770E+04  0.25500000920E-02 0.  1.
    10030    2    1    2    0    0  0.00000000000E+00  0.00000000000E+00  0.17141805916E+04  0.41323835456E+04  0.37600769497E+04 0.  0.
        5    1    3    3  502    0  0.80589104774E+02  0.15440279060E+04 -0.31839717281E+03  0.15785802570E+04  0.46999998093E+01 0.  1.
       -5    1    3    3    0  502 -0.80589104774E+02 -0.15440279060E+04  0.20325777644E+04  0.25538032886E+04  0.46999998093E+01 0. -1.
</event>
<event>
 5   0  0.1496000E-07  0.3725147E+04  0.7818609E-02  0.8062412E-01
        1   -1    0    0  501    0  0.00000000000E+00  0.00000000000E+00  0.14012426884E+04  0.14012426884E+04  0.50400001928E-02 0.  1.
       -1   -1    0    0    0  501  0.00000000000E+00  0.00000000000E+00 -0.24757877260E+04  0.24757877260E+04  0.50400001928E-02 0. -1.
    10030    2    1    2    0    0  0.00000000000E+00  0.00000000000E+00 -0.10745450375E+04  0.38770304144E+04  0.37251466812E+04 0.  0.
        5    1    3    3  502    0 -0.14320838202E+04 -0.25285897459E+03  0.67394512480E+03  0.16028180965E+04  0.46999998093E+01 0.  1.
       -5    1    3    3    0  502  0.14320838202E+04  0.25285897459E+03 -0.17484901623E+04  0.22742123179E+04  0.46999998093E+01 0. -1.
</event>
<event>
 5   0  0.1496000E-07  0.3689171E+04  0.7818609E-02  0.8070366E-01
        3   -1    0    0  501    0  0.00000000000E+00  0.00000000000E+00  0.21796661264E+04  0.21796661287E+04  0.10100000352E+00 0.  1.
       -3   -1    0    0    0  501  0.00000000000E+00  0.00000000000E+00 -0.15610164836E+04  0.15610164869E+04  0.10100000352E+00 0. -1.
    10030    2    1    2    0    0  0.00000000000E+00  0.00000000000E+00  0.61864964281E+03  0.37406826156E+04  0.36891705098E+04 0.  0.
        3    1    3    3  502    0  0.87003311709E+03 -0.11691349444E+04 -0.83724307159E+03  0.16807171428E+04  0.10100000352E+00 0. -1.
       -3    1    3    3    0  502 -0.87003311709E+03  0.11691349444E+04  0.14558927144E+04  0.20599654728E+04  0.10100000352E+00 0.  1.
</event>
<event>
 5   0  0.4758908E-07  0.3682105E+04  0.7818609E-02  0.8071939E-01
        2   -1    0    0  501    0  0.00000000000E+00  0.00000000000E+00  0.17311331458E+04  0.17311331458E+04  0.25500000920E-02 0.  1.
       -2   -1    0    0    0  501  0.00000000000E+00  0.00000000000E+00 -0.19579514231E+04  0.19579514231E+04  0.25500000920E-02 0. -1.
    10030    2    1    2    0    0  0.00000000000E+00  0.00000000000E+00 -0.22681827730E+03  0.36890845688E+04  0.36821051621E+04 0.  0.
        2    1    3    3  502    0 -0.16693363295E+04 -0.39290442539E+03  0.55749956736E+03  0.18032923878E+04  0.25500000920E-02 0. -1.
       -2    1    3    3    0  502  0.16693363295E+04  0.39290442539E+03 -0.78431784466E+03  0.18857921810E+04  0.25500000920E-02 0.  1.
</event>
<event>
 5   0  0.1496000E-07  0.3624706E+04  0.7818609E-02  0.8084856E-01
       -1   -1    0    0    0  501  0.00000000000E+00  0.00000000000E+00  0.12223200382E+04  0.12223200382E+04  0.50400001928E-02 0.  1.
        1   -1    0    0  501    0  0.00000000000E+00  0.00000000000E+00 -0.26872045112E+04  0.26872045112E+04  0.50400001928E-02 0. -1.
    10030    2    1    2    0    0  0.00000000000E+00  0.00000000000E+00 -0.14648844730E+04  0.39095245494E+04  0.36247062892E+04 0.  0.
        3    1    3    3  502    0  0.67583999460E+03  0.56571507806E+03 -0.24404908504E+04  0.25947618097E+04  0.10100000352E+00 0. -1.
       -3    1    3    3    0  502 -0.67583999460E+03 -0.56571507806E+03  0.97560637741E+03  0.13147627397E+04  0.10100000352E+00 0.  1.
</event>
<event>
 5   0  0.4793557E-07  0.3428988E+04  0.7818609E-02  0.8130828E-01
       -2   -1    0    0    0  501  0.00000000000E+00  0.00000000000E+00  0.12324825164E+04  0.12324825164E+04  0.25500000920E-02 0.  1.
        2   -1    0    0  501    0  0.00000000000E+00  0.00000000000E+00 -0.23850153122E+04  0.23850153122E+04  0.25500000920E-02 0. -1.
    10030    2    1    2    0    0  0.00000000000E+00  0.00000000000E+00 -0.11525327958E+04  0.36174978286E+04  0.34289879986E+04 0.  0.
        3    1    3    3  502    0 -0.19545761921E+03 -0.14340651957E+04  0.39336040967E+03  0.14998263528E+04  0.10100000352E+00 0.  1.
       -3    1    3    3    0  502  0.19545761921E+03  0.14340651957E+04 -0.15458932055E+04  0.21176714758E+04  0.10100000352E+00 0. -1.
</event>
<event>
 5   0  0.4687817E-07  0.3702448E+04  0.7818609E-02  0.8067420E-01
        2   -1    0    0  501    0  0.00000000000E+00  0.00000000000E+00  0.17289908535E+04  0.17289908535E+04  0.25500000920E-02 0.  1.
       -2   -1    0    0    0  501  0.00000000000E+00  0.00000000000E+00 -0.19820983862E+04  0.19820983862E+04  0.25500000920E-02 0. -1.
    10030    2    1    2    0    0  0.00000000000E+00  0.00000000000E+00 -0.25310753272E+03  0.37110892397E+04  0.37024478284E+04 0.  0.
        4    1    3    3  502    0  0.21412488717E+03  0.10724122249E+04  0.13706228354E+04  0.17534326384E+04  0.12699999809E+01 0.  1.
       -4    1    3    3    0  502 -0.21412488717E+03 -0.10724122249E+04 -0.16237303682E+04  0.19576566014E+04  0.12699999809E+01 0. -1.
</event>
<event>
 5   0  0.4687817E-07  0.3745872E+04  0.7818609E-02  0.8057871E-01
       -2   -1    0    0    0  501  0.00000000000E+00  0.00000000000E+00  0.17178218359E+04  0.17178218359E+04  0.25500000920E-02 0.  1.
        2   -1    0    0  501    0  0.00000000000E+00  0.00000000000E+00 -0.20420566826E+04  0.20420566827E+04  0.25500000920E-02 0. -1.
    10030    2    1    2    0    0  0.00000000000E+00  0.00000000000E+00 -0.32423484678E+03  0.37598785185E+04  0.37458721599E+04 0.  0.
        4    1    3    3  502    0 -0.29722179592E+03  0.36662816394E+03 -0.19813876153E+04  0.20368248578E+04  0.12699999809E+01 0. -1.
       -4    1    3    3    0  502  0.29722179592E+03 -0.36662816394E+03  0.16571527685E+04  0.17230536607E+04  0.12699999809E+01 0.  1.
</event>
<event>
 5   0  0.1496000E-07  0.3706921E+04  0.7818609E-02  0.8066430E-01
        1   -1    0    0  501    0  0.00000000000E+00  0.00000000000E+00  0.12827434229E+04  0.12827434229E+04  0.50400001928E-02 0.  1.
       -1   -1    0    0    0  501  0.00000000000E+00  0.00000000000E+00 -0.26781005527E+04  0.26781005527E+04  0.50400001928E-02 0. -1.
    10030    2    1    2    0    0  0.00000000000E+00  0.00000000000E+00 -0.13953571298E+04  0.39608439756E+04  0.37069210241E+04 0.  0.
        2    1    3    3  502    0 -0.76676845213E+03  0.78122207276E+03  0.90046056402E+03  0.14174170217E+04  0.25500000920E-02 0.  1.
       -2    1    3    3    0  502  0.76676845213E+03 -0.78122207276E+03 -0.22958176939E+04  0.25434269539E+04  0.25500000920E-02 0. -1.
</event>
<event>
 5   0  0.4824268E-07  0.3704848E+04  0.7818609E-02  0.8066888E-01
       -2   -1    0    0    0  501  0.00000000000E+00  0.00000000000E+00  0.12070882510E+04  0.12070882511E+04  0.25500000920E-02 0.  1.
        2   -1    0    0  501    0  0.00000000000E+00  0.00000000000E+00 -0.28427700168E+04  0.28427700168E+04  0.25500000920E-02 0. -1.
    10030    2    1    2    0    0  0.00000000000E+00  0.00000000000E+00 -0.16356817657E+04  0.40498582678E+04  0.37048477905E+04 0.  0.
        1    1    3    3  502    0 -0.60621892561E+03 -0.93727429052E+03 -0.24338501500E+04  0.26776129358E+04  0.50400001928E-02 0. -1.
       -1    1    3    3    0  502  0.60621892561E+03  0.93727429052E+03  0.79816838429E+03  0.13722453320E+04  0.50400001928E-02 0.  1.
</event>
<event>
 5   0  0.1496287E-07  0.3686414E+04  0.7818609E-02  0.8070979E-01
       -1   -1    0    0    0  501  0.00000000000E+00  0.00000000000E+00  0.17652307635E+04  0.17652307635E+04  0.50400001928E-02 0. -1.
        1   -1    0    0  501    0  0.00000000000E+00  0.00000000000E+00 -0.19246275280E+04  0.19246275280E+04  0.50400001928E-02 0.  1.
    10030    2    1    2    0    0  0.00000000000E+00  0.00000000000E+00 -0.15939676457E+03  0.36898582915E+04  0.36864138241E+04 0.  0.
        1    1    3    3  502    0  0.71744657198E+03  0.15675573029E+04  0.57317347155E+03  0.18167259865E+04  0.50400001928E-02 0. -1.
       -1    1    3    3    0  502 -0.71744657198E+03 -0.15675573029E+04 -0.73257023612E+03  0.18731323051E+04  0.50400001928E-02 0.  1.
</event>
<event>
 5   0  0.1496000E-07  0.3860334E+04  0.7818609E-02  0.8033330E-01
       -1   -1    0    0    0  501  0.00000000000E+00  0.00000000000E+00  0.17792284047E+04  0.17792284047E+04  0.50400001928E-02 0. -1.
        1   -1    0    0  501    0  0.00000000000E+00  0.00000000000E+00 -0.20939099270E+04  0.20939099271E+04  0.50400001928E-02 0.  1.
    10030    2    1    2    0    0  0.00000000000E+00  0.00000000000E+00 -0.31468152233E+03  0.38731383318E+04  0.38603336743E+04 0.  0.
        5    1    3    3  502    0 -0.70689464053E+03  0.17919209621E+04 -0.27956915776E+03  0.19464998770E+04  0.46999998093E+01 0.  1.
       -5    1    3    3    0  502  0.70689464053E+03 -0.17919209621E+04 -0.35112364574E+02  0.19266384548E+04  0.46999998093E+01 0. -1.
</event>
<event>
 5   0  0.4824268E-07  0.3703950E+04  0.7818609E-02  0.8067087E-01
       -2   -1    0    0    0  501  0.00000000000E+00  0.00000000000E+00  0.13227068430E+04  0.13227068430E+04  0.25500000920E-02 0.  1.
        2   -1    0    0  501    0  0.00000000000E+00  0.00000000000E+00 -0.25930251368E+04  0.25930251368E+04  0.25500000920E-02 0. -1.
    10030    2    1    2    0    0  0.00000000000E+00  0.00000000000E+00 -0.12703182938E+04  0.39157319799E+04  0.37039503737E+04 0.  0.
        1    1    3    3  502    0  0.13610213039E+04 -0.21760469696E+03  0.67253160465E+03  0.15336327960E+04  0.50400001928E-02 0.  1.
       -1    1    3    3    0  502 -0.13610213039E+04  0.21760469696E+03 -0.19428498985E+04  0.23820991839E+04  0.50400001928E-02 0. -1.
</event>
<event>
 5   0  0.1496000E-07  0.3676512E+04  0.7818609E-02  0.8073187E-01
        1   -1    0    0  501    0  0.00000000000E+00  0.00000000000E+00  0.23928513176E+04  0.23928513176E+04  0.50400001928E-02 0.  1.
       -1   -1    0    0    0  501  0.00000000000E+00  0.00000000000E+00 -0.14122005564E+04  0.14122005564E+04  0.50400001928E-02 0. -1.
    10030    2    1    2    0    0  0.00000000000E+00  0.00000000000E+00  0.98065076120E+03  0.38050518740E+04  0.36765124572E+04 0.  0.
        5    1    3    3  502    0 -0.51630806497E+03 -0.15241134619E+04 -0.42937594458E+03  0.16654974195E+04  0.46999998093E+01 0. -1.
       -5    1    3    3    0  502  0.51630806497E+03  0.15241134619E+04  0.14100267058E+04  0.21395544545E+04  0.46999998093E+01 0.  1.
</event>
<event>
 5   0  0.1496000E-07  0.3700600E+04  0.7818609E-02  0.8067829E-01
       -1   -1    0    0    0  501  0.00000000000E+00  0.00000000000E+00  0.13734164774E+04  0.13734164774E+04  0.50400001928E-02 0. -1.
        1   -1    0    0  501    0  0.00000000000E+00  0.00000000000E+00 -0.24927696496E+04  0.24927696496E+04  0.50400001928E-02 0.  1.
    10030    2    1    2    0    0  0.00000000000E+00  0.00000000000E+00 -0.11193531722E+04  0.38661861271E+04  0.37006004439E+04 0.  0.
        5    1    3    3  502    0 -0.22300856023E+03 -0.33263524042E+02  0.13590036743E+04  0.13775893280E+04  0.46999998093E+01 0. -1.
       -5    1    3    3    0  502  0.22300856023E+03  0.33263524042E+02 -0.24783568465E+04  0.24885967991E+04  0.46999998093E+01 0.  1.
</event>
<event>
 5   0  0.1496287E-07  0.3632210E+04  0.7818609E-02  0.8083153E-01
        1   -1    0    0  501    0  0.00000000000E+00  0.00000000000E+00  0.11347570019E+04  0.11347570019E+04  0.50400001928E-02 0. -1.
       -1   -1    0    0    0  501  0.00000000000E+00  0.00000000000E+00 -0.29065575597E+04  0.29065575597E+04  0.50400001928E-02 0.  1.
    10030    2    1    2    0    0  0.00000000000E+00  0.00000000000E+00 -0.17718005578E+04  0.40413145616E+04  0.36322095436E+04 0.  0.
        1    1    3    3  502    0  0.98830446421E+03  0.11435329884E+04 -0.20061964682E+04  0.25118195951E+04  0.50400001928E-02 0.  1.
       -1    1    3    3    0  502 -0.98830446421E+03 -0.11435329884E+04  0.23439591035E+03  0.15294949664E+04  0.50400001928E-02 0. -1.
</event>
<event>
 5   0  0.4857514E-07  0.3941758E+04  0.7818609E-02  0.8016400E-01
       -2   -1    0    0    0  501  0.00000000000E+00  0.00000000000E+00  0.23223504143E+04  0.23223504143E+04  0.25500000920E-02 0.  1.
        2   -1    0    0  501    0  0.00000000000E+00  0.00000000000E+00 -0.16726006573E+04  0.16726006573E+04  0.25500000920E-02 0. -1.
    10030    2    1    2    0    0  0.00000000000E+00  0.00000000000E+00  0.64974975694E+03  0.39949510716E+04  0.39417584043E+04 0.  0.
        5    1    3    3  502    0 -0.69129298070E+02  0.84981031999E+02  0.23192567667E+04  0.23218472550E+04  0.46999998093E+01 0.  1.
       -5    1    3    3    0  502  0.69129298070E+02 -0.84981031999E+02 -0.16695070097E+04  0.16731038166E+04  0.46999998093E+01 0. -1.
</event>
<event>
 5   0  0.4824268E-07  0.3693940E+04  0.7818609E-02  0.8069306E-01
        2   -1    0    0  501    0  0.00000000000E+00  0.00000000000E+00  0.17949916488E+04  0.17949916488E+04  0.25500000920E-02 0.  1.
       -2   -1    0    0    0  501  0.00000000000E+00  0.00000000000E+00 -0.19004531616E+04  0.19004531617E+04  0.25500000920E-02 0. -1.
    10030    2    1    2    0    0  0.00000000000E+00  0.00000000000E+00 -0.10546151289E+03  0.36954448104E+04  0.36939396606E+04 0.  0.
        1    1    3    3  502    0  0.85989113202E+03 -0.56990546324E+03 -0.15853773766E+04  0.18914614514E+04  0.50400001928E-02 0. -1.
       -1    1    3    3    0  502 -0.85989113202E+03  0.56990546324E+03  0.14799158637E+04  0.18039833590E+04  0.50400001928E-02 0.  1.
</event>
<event>
 5   0  0.1496000E-07  0.3893830E+04  0.7818609E-02  0.8026314E-01
        1   -1    0    0  501    0  0.00000000000E+00  0.00000000000E+00  0.33508271397E+04  0.33508271397E+04  0.50400001928E-02 0.  1.
       -1   -1    0    0    0  501  0.00000000000E+00  0.00000000000E+00 -0.11312065644E+04  0.11312065644E+04  0.50400001928E-02 0. -1.
    10030    2    1    2    0    0  0.00000000000E+00  0.00000000000E+00  0.22196205753E+04  0.44820337041E+04  0.38938298147E+04 0.  0.
        2    1    3    3  502    0  0.19548139967E+03  0.46393197064E+03 -0.10549889904E+04  0.11689515049E+04  0.25500000920E-02 0. -1.
       -2    1    3    3    0  502 -0.19548139967E+03 -0.46393197064E+03  0.32746095657E+04  0.33130821992E+04  0.25500000920E-02 0.  1.
</event>
<event>
 5   0  0.1496000E-07  0.3758481E+04  0.7818609E-02  0.8055124E-01
       -1   -1    0    0    0  501  0.00000000000E+00  0.00000000000E+00  0.15793305729E+04  0.15793305729E+04  0.50400001928E-02 0.  1.
        1   -1    0    0  501    0  0.00000000000E+00  0.00000000000E+00 -0.22361028957E+04  0.22361028957E+04  0.50400001928E-02 0. -1.
    10030    2    1    2    0    0  0.00000000000E+00  0.00000000000E+00 -0.65677232279E+03  0.38154334687E+04  0.37584814314E+04 0.  0.
        5    1    3    3  502    0 -0.42537960435E+03  0.95918872283E+03  0.12542541225E+04  0.16352878363E+04  0.46999998093E+01 0.  1.
       -5    1    3    3    0  502  0.42537960435E+03 -0.95918872283E+03 -0.19110264453E+04  0.21801456324E+04  0.46999998093E+01 0. -1.
</event>
<event>
 5   0  0.4793557E-07  0.3691170E+04  0.7818609E-02  0.8069922E-01
        2   -1    0    0  501    0  0.00000000000E+00  0.00000000000E+00  0.17951631548E+04  0.17951631548E+04  0.25500000920E-02 0.  1.
       -2   -1    0    0    0  501  0.00000000000E+00  0.00000000000E+00 -0.18974229622E+04  0.18974229622E+04  0.25500000920E-02 0. -1.
    10030    2    1    2    0    0  0.00000000000E+00  0.00000000000E+00 -0.10225980737E+03  0.36925861170E+04  0.36911698908E+04 0.  0.
        3    1    3    3  502    0  0.82306706603E+03 -0.10112607883E+04 -0.13578071564E+04  0.18824792326E+04  0.10100000352E+00 0. -1.
       -3    1    3    3    0  502 -0.82306706603E+03  0.10112607883E+04  0.12555473490E+04  0.18101068844E+04  0.10100000352E+00 0.  1.
</event>
<event>
 5   0  0.4824268E-07  0.3536812E+04  0.7818609E-02  0.8105121E-01
       -2   -1    0    0    0  501  0.00000000000E+00  0.00000000000E+00  0.14760829576E+04  0.14760829576E+04  0.25500000920E-02 0. -1.
        2   -1    0    0  501    0  0.00000000000E+00  0.00000000000E+00 -0.21186211154E+04  0.21186211154E+04  0.25500000920E-02 0.  1.
    10030    2    1    2    0    0  0.00000000000E+00  0.00000000000E+00 -0.64253815781E+03  0.35947040730E+04  0.35368124192E+04 0.  0.
        1    1    3    3  502    0  0.17448654266E+04  0.26576140482E+03 -0.20957930759E+03  0.17773879620E+04  0.50400001928E-02 0.  1.
       -1    1    3    3    0  502 -0.17448654266E+04 -0.26576140482E+03 -0.43295885022E+03  0.18173161110E+04  0.50400001928E-02 0. -1.
</event>
<event>
 5   0  0.1496000E-07  0.3754456E+04  0.7818609E-02  0.8056000E-01
        1   -1    0    0  501    0  0.00000000000E+00  0.00000000000E+00  0.19845220678E+04  0.19845220679E+04  0.50400001928E-02 0.  1.
       -1   -1    0    0    0  501  0.00000000000E+00  0.00000000000E+00 -0.17757349108E+04  0.17757349109E+04  0.50400001928E-02 0. -1.
    10030    2    1    2    0    0  0.00000000000E+00  0.00000000000E+00  0.20878715700E+03  0.37602569787E+04  0.37544560816E+04 0.  0.
        2    1    3    3  502    0  0.12548509911E+04 -0.13645704815E+04  0.40028448540E+03  0.18965577445E+04  0.25500000920E-02 0.  1.
       -2    1    3    3    0  502 -0.12548509911E+04  0.13645704815E+04 -0.19149732840E+03  0.18636992342E+04  0.25500000920E-02 0. -1.
</event>
<event>
 5   0  0.1496000E-07  0.3630681E+04  0.7818609E-02  0.8083500E-01
       -1   -1    0    0    0  501  0.00000000000E+00  0.00000000000E+00  0.14302354208E+04  0.14302354208E+04  0.50400001928E-02 0.  1.
        1   -1    0    0  501    0  0.00000000000E+00  0.00000000000E+00 -0.23041383676E+04  0.23041383676E+04  0.50400001928E-02 0. -1.
    10030    2    1    2    0    0  0.00000000000E+00  0.00000000000E+00 -0.87390294687E+03  0.37343737884E+04  0.36306805466E+04 0.  0.
        5    1    3    3  502    0 -0.13081496329E+04  0.82959157869E+03 -0.14105371953E+04  0.20950214602E+04  0.46999998093E+01 0. -1.
       -5    1    3    3    0  502  0.13081496329E+04 -0.82959157869E+03  0.53663424838E+03  0.16393523282E+04  0.46999998093E+01 0.  1.
</event>
<event>
 5   0  0.1496000E-07  0.3672531E+04  0.7818609E-02  0.8074077E-01
        1   -1    0    0  501    0  0.00000000000E+00  0.00000000000E+00  0.10829856882E+04  0.10829856882E+04  0.50400001928E-02 0.  1.
       -1   -1    0    0    0  501  0.00000000000E+00  0.00000000000E+00 -0.31134947206E+04  0.31134947206E+04  0.50400001928E-02 0. -1.
    10030    2    1    2    0    0  0.00000000000E+00  0.00000000000E+00 -0.20305090323E+04  0.41964804088E+04  0.36725305841E+04 0.  0.
        2    1    3    3  502    0  0.30503308728E+02  0.11892071531E+04  0.58314301363E+03  0.13248395674E+04  0.25500000920E-02 0.  1.
       -2    1    3    3    0  502 -0.30503308728E+02 -0.11892071531E+04 -0.26136520460E+04  0.28716408414E+04  0.25500000920E-02 0. -1.
</event>
<event>
 5   0  0.1496000E-07  0.3694341E+04  0.7818609E-02  0.8069217E-01
        1   -1    0    0  501    0  0.00000000000E+00  0.00000000000E+00  0.17115652815E+04  0.17115652815E+04  0.50400001928E-02 0. -1.
       -1   -1    0    0    0  501  0.00000000000E+00  0.00000000000E+00 -0.19935199408E+04  0.19935199408E+04  0.50400001928E-02 0.  1.
    10030    2    1    2    0    0  0.00000000000E+00  0.00000000000E+00 -0.28195465930E+03  0.37050852223E+04  0.36943413587E+04 0.  0.
        5    1    3    3  502    0  0.10901286788E+04 -0.14486533709E+04  0.21366142191E+03  0.18255548248E+04  0.46999998093E+01 0. -1.
       -5    1    3    3    0  502 -0.10901286788E+04  0.14486533709E+04 -0.49561608121E+03  0.18795303975E+04  0.46999998093E+01 0.  1.
</event>
<event>
 5   0  0.1496000E-07  0.3661944E+04  0.7818609E-02  0.8076448E-01
        1   -1    0    0  501    0  0.00000000000E+00  0.00000000000E+00  0.11004311765E+04  0.11004311765E+04  0.50400001928E-02 0.  1.
       -1   -1    0    0    0  501  0.00000000000E+00  0.00000000000E+00 -0.30464950882E+04  0.30464950882E+04  0.50400001928E-02 0. -1.
    10030    2    1    2    0    0  0.00000000000E+00  0.00000000000E+00 -0.19460639117E+04  0.41469262648E+04  0.36619438413E+04 0.  0.
        2    1    3    3  502    0 -0.14556455807E+04  0.33735161168E+03 -0.21713574055E+04  0.26358116679E+04  0.25500000920E-02 0. -1.
       -2    1    3    3    0  502  0.14556455807E+04 -0.33735161168E+03  0.22529349377E+03  0.15111145968E+04  0.25500000920E-02 0.  1.
</event>
<event>
 5   0  0.4793557E-07  0.3696466E+04  0.7818609E-02  0.8068745E-01
       -2   -1    0    0    0  501  0.00000000000E+00  0.00000000000E+00  0.14501288342E+04  0.14501288342E+04  0.25500000920E-02 0. -1.
        2   -1    0    0  501    0  0.00000000000E+00  0.00000000000E+00 -0.23556292278E+04  0.23556292278E+04  0.25500000920E-02 0.  1.
    10030    2    1    2    0    0  0.00000000000E+00  0.00000000000E+00 -0.90550039364E+03  0.38057580620E+04  0.36964663482E+04 0.  0.
        3    1    3    3  502    0 -0.12815330257E+04 -0.54274170501E+03  0.79937813467E+03  0.16049613287E+04  0.10100000352E+00 0. -1.
       -3    1    3    3    0  502  0.12815330257E+04  0.54274170501E+03 -0.17048785283E+04  0.22007967332E+04  0.10100000352E+00 0.  1.
</event>
<event>
 5   0  0.4758908E-07  0.3633029E+04  0.7818609E-02  0.8082968E-01
        2   -1    0    0  501    0  0.00000000000E+00  0.00000000000E+00  0.26649593827E+04  0.26649593827E+04  0.25500000920E-02 0. -1.
       -2   -1    0    0    0  501  0.00000000000E+00  0.00000000000E+00 -0.12381896088E+04  0.12381896088E+04  0.25500000920E-02 0.  1.
    10030    2    1    2    0    0  0.00000000000E+00  0.00000000000E+00  0.14267697739E+04  0.39031489915E+04  0.36330290478E+04 0.  0.
        2    1    3    3  502    0 -0.53077443153E+03 -0.15550698473E+04  0.15454081606E+04  0.22557149886E+04  0.25500000920E-02 0. -1.
       -2    1    3    3    0  502  0.53077443153E+03  0.15550698473E+04 -0.11863838673E+03  0.16474340029E+04  0.25500000920E-02 0.  1.
</event>
<event>
 5   0  0.4824268E-07  0.3904892E+04  0.7818609E-02  0.8024013E-01
       -2   -1    0    0    0  501  0.00000000000E+00  0.00000000000E+00  0.18692710450E+04  0.18692710450E+04  0.25500000920E-02 0. -1.
        2   -1    0    0  501    0  0.00000000000E+00  0.00000000000E+00 -0.20393219586E+04  0.20393219586E+04  0.25500000920E-02 0.  1.
    10030    2    1    2    0    0  0.00000000000E+00  0.00000000000E+00 -0.17005091360E+03  0.39085930036E+04  0.39048920542E+04 0.  0.
        1    1    3    3  502    0  0.81399578928E+03 -0.42382632003E+03 -0.18099775442E+04  0.20293438854E+04  0.50400001928E-02 0.  1.
       -1    1    3    3    0  502 -0.81399578928E+03  0.42382632003E+03  0.16399266306E+04  0.18792491182E+04  0.50400001928E-02 0. -1.
</event>
<event>
 5   0  0.1496000E-07  0.3714565E+04  0.7818609E-02  0.8064742E-01
       -1   -1    0    0    0  501  0.00000000000E+00  0.00000000000E+00  0.18068168870E+04  0.18068168870E+04  0.50400001928E-02 0. -1.
        1   -1    0    0  501    0  0.00000000000E+00  0.00000000000E+00 -0.19091578191E+04  0.19091578191E+04  0.50400001928E-02 0.  1.
    10030    2    1    2    0    0  0.00000000000E+00  0.00000000000E+00 -0.10234093208E+03  0.37159747061E+04  0.37145651630E+04 0.  0.
        2    1    3    3  502    0  0.77533067996E+03  0.11047081421E+04 -0.13275781592E+04  0.18931406475E+04  0.25500000920E-02 0.  1.
       -2    1    3    3    0  502 -0.77533067996E+03 -0.11047081421E+04  0.12252372271E+04  0.18228340586E+04  0.25500000920E-02 0. -1.
</event>
<event>
 5   0  0.4687817E-07  0.3721205E+04  0.7818609E-02  0.8063279E-01
        2   -1    0    0  501    0  0.00000000000E+00  0.00000000000E+00  0.17113250821E+04  0.17113250821E+04  0.25500000920E-02 0.  1.
       -2   -1    0    0    0  501  0.00000000000E+00  0.00000000000E+00 -0.20229010529E+04  0.20229010529E+04  0.25500000920E-02 0. -1.
    10030    2    1    2    0    0  0.00000000000E+00  0.00000000000E+00 -0.31157597074E+03  0.37342261350E+04  0.37212048105E+04 0.  0.
        4    1    3    3  502    0  0.50262563789E+03  0.58934331647E+03 -0.18534173283E+04  0.20087596875E+04  0.12699999809E+01 0. -1.
       -4    1    3    3    0  502 -0.50262563789E+03 -0.58934331647E+03  0.15418413575E+04  0.17254664474E+04  0.12699999809E+01 0.  1.
</event>
<event>
 5   0  0.1496287E-07  0.3588207E+04  0.7818609E-02  0.8093198E-01
        1   -1    0    0  501    0  0.00000000000E+00  0.00000000000E+00  0.17056901449E+04  0.17056901449E+04  0.50400001928E-02 0. -1.
       -1   -1    0    0    0  501  0.00000000000E+00  0.00000000000E+00 -0.18870999811E+04  0.18870999811E+04  0.50400001928E-02 0.  1.
    10030    2    1    2    0    0  0.00000000000E+00  0.00000000000E+00 -0.18140983622E+03  0.35927901260E+04  0.35882072628E+04 0.  0.
        1    1    3    3  502    0  0.69107612195E+03  0.10540200665E+03 -0.17451203164E+04  0.18799310381E+04  0.50400001928E-02 0.  1.
       -1    1    3    3    0  502 -0.69107612195E+03 -0.10540200665E+03  0.15637104802E+04  0.17128590879E+04  0.50400001928E-02 0. -1.
</event>
<event>
 5   0  0.1522273E-07  0.3703609E+04  0.7818609E-02  0.8067163E-01
        1   -1    0    0  501    0  0.00000000000E+00  0.00000000000E+00  0.24752774537E+04  0.24752774537E+04  0.50400001928E-02 0. -1.
       -1   -1    0    0    0  501  0.00000000000E+00  0.00000000000E+00 -0.13853718331E+04  0.13853718331E+04  0.50400001928E-02 0.  1.
    10030    2    1    2    0    0  0.00000000000E+00  0.00000000000E+00  0.10899056207E+04  0.38606492868E+04  0.37036088689E+04 0.  0.
        4    1    3    3  502    0  0.13226570937E+04 -0.10151531780E+04  0.13848599576E+04  0.21674400747E+04  0.12699999809E+01 0. -1.
       -4    1    3    3    0  502 -0.13226570937E+04  0.10151531780E+04 -0.29495433697E+03  0.16932092121E+04  0.12699999809E+01 0.  1.
</event>
<event>
 5   0  0.4793557E-07  0.3747249E+04  0.7818609E-02  0.8057571E-01
       -2   -1    0    0    0  501  0.00000000000E+00  0.00000000000E+00  0.15469783297E+04  0.15469783297E+04  0.25500000920E-02 0.  1.
        2   -1    0    0  501    0  0.00000000000E+00  0.00000000000E+00 -0.22692418070E+04  0.22692418070E+04  0.25500000920E-02 0. -1.
    10030    2    1    2    0    0  0.00000000000E+00  0.00000000000E+00 -0.72226347733E+03  0.38162201368E+04  0.37472485375E+04 0.  0.
        3    1    3    3  502    0 -0.74093724864E+02  0.29715291146E+03 -0.22435795974E+04  0.22643849392E+04  0.10100000352E+00 0. -1.
       -3    1    3    3    0  502  0.74093724864E+02 -0.29715291146E+03  0.15213161201E+04  0.15518351975E+04  0.10100000352E+00 0.  1.
</event>
<event>
 5   0  0.1496000E-07  0.3690429E+04  0.7818609E-02  0.8070086E-01
        1   -1    0    0  501    0  0.00000000000E+00  0.00000000000E+00  0.24084631016E+04  0.24084631016E+04  0.50400001928E-02 0.  1.
       -1   -1    0    0    0  501  0.00000000000E+00  0.00000000000E+00 -0.14136886306E+04  0.14136886306E+04  0.50400001928E-02 0. -1.
    10030    2    1    2    0    0  0.00000000000E+00  0.00000000000E+00  0.99477447106E+03  0.38221517322E+04  0.36904291913E+04 0.  0.
        5    1    3    3  502    0 -0.17145740388E+04 -0.31972919239E+03  0.11212183528E+04  0.20734376228E+04  0.46999998093E+01 0.  1.
       -5    1    3    3    0  502  0.17145740388E+04  0.31972919239E+03 -0.12644388175E+03  0.17487141094E+04  0.46999998093E+01 0. -1.
</event>
<event>
 5   0  0.4793557E-07  0.4133689E+04  0.7818609E-02  0.7978107E-01
       -2   -1    0    0    0  501  0.00000000000E+00  0.00000000000E+00  0.19779336160E+04  0.19779336160E+04  0.25500000920E-02 0. -1.
        2   -1    0    0  501    0  0.00000000000E+00  0.00000000000E+00 -0.21597523882E+04  0.21597523882E+04  0.25500000920E-02 0.  1.
    10030    2    1    2    0    0  0.00000000000E+00  0.00000000000E+00 -0.18181877216E+03  0.41376860042E+04  0.41336893211E+04 0.  0.
        3    1    3    3  502    0 -0.41391139678E+03 -0.19460561753E+04 -0.65126271849E+03  0.20934661259E+04  0.10100000352E+00 0.  1.
       -3    1    3    3    0  502  0.41391139678E+03  0.19460561753E+04  0.46944394633E+03  0.20442198783E+04  0.10100000352E+00 0. -1.
</event>
<event>
 5   0  0.1496287E-07  0.3737941E+04  0.7818609E-02  0.8059605E-01
        1   -1    0    0  501    0  0.00000000000E+00  0.00000000000E+00  0.29963307700E+04  0.29963307700E+04  0.50400001928E-02 0. -1.
       -1   -1    0    0    0  501  0.00000000000E+00  0.00000000000E+00 -0.11657759000E+04  0.11657759000E+04  0.50400001928E-02 0.  1.
    10030    2    1    2    0    0  0.00000000000E+00  0.00000000000E+00  0.18305548700E+04  0.41621066699E+04  0.37379407165E+04 0.  0.
        1    1    3    3  502    0 -0.46834682081E+03 -0.16946582705E+04  0.16211146795E+04  0.23914907908E+04  0.50400001928E-02 0. -1.
       -1    1    3    3    0  502  0.46834682081E+03  0.16946582705E+04  0.20944019056E+03  0.17706158792E+04  0.50400001928E-02 0.  1.
</event>
<event>
 5   0  0.1496000E-07  0.3705217E+04  0.7818609E-02  0.8066807E-01
        1   -1    0    0  501    0  0.00000000000E+00  0.00000000000E+00  0.19689248758E+04  0.19689248758E+04  0.50400001928E-02 0. -1.
       -1   -1    0    0    0  501  0.00000000000E+00  0.00000000000E+00 -0.17431640885E+04  0.17431640885E+04  0.50400001928E-02 0.  1.
    10030    2    1    2    0    0  0.00000000000E+00  0.00000000000E+00  0.22576078730E+03  0.37120889643E+04  0.37052174761E+04 0.  0.
        5    1    3    3  502    0  0.12901371709E+04  0.28885178874E+03  0.14130729124E+04  0.19351192267E+04  0.46999998093E+01 0. -1.
       -5    1    3    3    0  502 -0.12901371709E+04 -0.28885178874E+03 -0.11873121251E+04  0.17769697376E+04  0.46999998093E+01 0.  1.
</event>
<event>
 5   0  0.4857514E-07  0.3776258E+04  0.7818609E-02  0.8051269E-01
       -2   -1    0    0    0  501  0.00000000000E+00  0.00000000000E+00  0.15016770286E+04  0.15016770286E+04  0.25500000920E-02 0. -1.
        2   -1    0    0  501    0  0.00000000000E+00  0.00000000000E+00 -0.23740328240E+04  0.23740328240E+04  0.25500000920E-02 0.  1.
    10030    2    1    2    0    0  0.00000000000E+00  0.00000000000E+00 -0.87235579537E+03  0.38757098525E+04  0.37762577014E+04 0.  0.
        5    1    3    3  502    0  0.17037293590E+03  0.18459706914E+04 -0.68449031242E+02  0.18550854673E+04  0.46999998093E+01 0. -1.
       -5    1    3    3    0  502 -0.17037293590E+03 -0.18459706914E+04 -0.80390676413E+03  0.20206243853E+04  0.46999998093E+01 0.  1.
</event>
<event>
 5   0  0.1496287E-07  0.3742890E+04  0.7818609E-02  0.8058523E-01
       -1   -1    0    0    0  501  0.00000000000E+00  0.00000000000E+00  0.11833981430E+04  0.11833981430E+04  0.50400001928E-02 0. -1.
        1   -1    0    0  501    0  0.00000000000E+00  0.00000000000E+00 -0.29595334494E+04  0.29595334494E+04  0.50400001928E-02 0.  1.
    10030    2    1    2    0    0  0.00000000000E+00  0.00000000000E+00 -0.17761353064E+04  0.41429315924E+04  0.37428900001E+04 0.  0.
        1    1    3    3  502    0  0.77523507536E+03  0.14589910130E+04  0.84893562879E+02  0.16543431069E+04  0.50400001928E-02 0. -1.
       -1    1    3    3    0  502 -0.77523507536E+03 -0.14589910130E+04 -0.18610288692E+04  0.24885884855E+04  0.50400001928E-02 0.  1.
</event>
<event>
 5   0  0.4857514E-07  0.3724203E+04  0.7818609E-02  0.8062619E-01
       -2   -1    0    0    0  501  0.00000000000E+00  0.00000000000E+00  0.26805850544E+04  0.26805850544E+04  0.25500000920E-02 0. -1.
        2   -1    0    0  501    0  0.00000000000E+00  0.00000000000E+00 -0.12935318405E+04  0.12935318405E+04  0.25500000920E-02 0.  1.
    10030    2    1    2    0    0  0.00000000000E+00  0.00000000000E+00  0.13870532139E+04  0.39741168949E+04  0.37242030659E+04 0.  0.
        5    1    3    3  502    0  0.42665257658E+03 -0.31376503471E+03 -0.12114638494E+04  0.13221753539E+04  0.46999998093E+01 0.  1.
       -5    1    3    3    0  502 -0.42665257658E+03  0.31376503471E+03  0.25985170634E+04  0.26519415410E+04  0.46999998093E+01 0. -1.
</event>
<event>
 5   0  0.1496000E-07  0.3691883E+04  0.7818609E-02  0.8069763E-01
       -1   -1    0    0    0  501  0.00000000000E+00  0.00000000000E+00  0.26033446418E+04  0.26033446418E+04  0.50400001928E-02 0.  1.
        1   -1    0    0  501    0  0.00000000000E+00  0.00000000000E+00 -0.13088929441E+04  0.13088929441E+04  0.50400001928E-02 0. -1.
    10030    2    1    2    0    0  0.00000000000E+00  0.00000000000E+00  0.12944516977E+04  0.39122375860E+04  0.36918826812E+04 0.  0.
        2    1    3    3  502    0 -0.11280648841E+04 -0.40456185569E+03 -0.84060497949E+03  0.14638365378E+04  0.25500000920E-02 0. -1.
       -2    1    3    3    0  502  0.11280648841E+04  0.40456185569E+03  0.21350566772E+04  0.24484010482E+04  0.25500000920E-02 0.  1.
</event>
<event>
 5   0  0.1496000E-07  0.3694047E+04  0.7818609E-02  0.8069282E-01
        1   -1    0    0  501    0  0.00000000000E+00  0.00000000000E+00  0.20927158409E+04  0.20927158409E+04  0.50400001928E-02 0. -1.
       -1   -1    0    0    0  501  0.00000000000E+00  0.00000000000E+00 -0.16301761316E+04  0.16301761316E+04  0.50400001928E-02 0.  1.
    10030    2    1    2    0    0  0.00000000000E+00  0.00000000000E+00  0.46253970927E+03  0.37228919725E+04  0.36940467858E+04 0.  0.
        3    1    3    3  502    0 -0.18220027496E+04 -0.30236761951E+03  0.25079136667E+03  0.18638713788E+04  0.10100000352E+00 0. -1.
       -3    1    3    3    0  502  0.18220027496E+04  0.30236761951E+03  0.21174834260E+03  0.18590205937E+04  0.10100000352E+00 0.  1.
</event>
<event>
 5   0  0.1496000E-07  0.3781338E+04  0.7818609E-02  0.8050172E-01
        1   -1    0    0  501    0  0.00000000000E+00  0.00000000000E+00  0.17823590984E+04  0.17823590984E+04  0.50400001928E-02 0.  1.
       -1   -1    0    0    0  501  0.00000000000E+00  0.00000000000E+00 -0.20055603030E+04  0.20055603030E+04  0.50400001928E-02 0. -1.
    10030    2    1    2    0    0  0.00000000000E+00  0.00000000000E+00 -0.22320120454E+03  0.37879194014E+04  0.37813376752E+04 0.  0.
        5    1    3    3  502    0  0.12437153882E+04 -0.13812445425E+04 -0.45853000682E+03  0.19144023376E+04  0.46999998093E+01 0. -1.
       -5    1    3    3    0  502 -0.12437153882E+04  0.13812445425E+04  0.23532880228E+03  0.18735170638E+04  0.46999998093E+01 0.  1.
</event>
<event>
 5   0  0.4758908E-07  0.3696143E+04  0.7818609E-02  0.8068817E-01
        2   -1    0    0  501    0  0.00000000000E+00  0.00000000000E+00  0.31310199296E+04  0.31310199296E+04  0.25500000920E-02 0.  1.
       -2   -1    0    0    0  501  0.00000000000E+00  0.00000000000E+00 -0.10908167081E+04  0.10908167081E+04  0.25500000920E-02 0. -1.
    10030    2    1    2    0    0  0.00000000000E+00  0.00000000000E+00  0.20402032216E+04  0.42218366377E+04  0.36961433157E+04 0.  0.
        2    1    3    3  502    0 -0.13477879037E+03 -0.27407764048E+03 -0.10617894035E+04  0.11048441576E+04  0.25500000920E-02 0. -1.
       -2    1    3    3    0  502  0.13477879037E+03  0.27407764048E+03  0.31019926250E+04  0.31169924801E+04  0.25500000920E-02 0.  1.
</event>
<event>
 5   0  0.4824268E-07  0.3713068E+04  0.7818609E-02  0.8065072E-01
       -2   -1    0    0    0  501  0.00000000000E+00  0.00000000000E+00  0.13089771027E+04  0.13089771027E+04  0.25500000920E-02 0.  1.
        2   -1    0    0  501    0  0.00000000000E+00  0.00000000000E+00 -0.26331390593E+04  0.26331390594E+04  0.25500000920E-02 0. -1.
    10030    2    1    2    0    0  0.00000000000E+00  0.00000000000E+00 -0.13241619566E+04  0.39421161621E+04  0.37130681313E+04 0.  0.
        1    1    3    3  502    0 -0.18765217104E+03  0.10121422623E+04  0.97824207886E+03  0.14200714283E+04  0.50400001928E-02 0.  1.
       -1    1    3    3    0  502  0.18765217104E+03 -0.10121422623E+04 -0.23024040355E+04  0.25220447338E+04  0.50400001928E-02 0. -1.
</event>
<event>
 5   0  0.1496287E-07  0.3709368E+04  0.7818609E-02  0.8065889E-01
        1   -1    0    0  501    0  0.00000000000E+00  0.00000000000E+00  0.16720668010E+04  0.16720668010E+04  0.50400001928E-02 0.  1.
       -1   -1    0    0    0  501  0.00000000000E+00  0.00000000000E+00 -0.20572462801E+04  0.20572462802E+04  0.50400001928E-02 0. -1.
    10030    2    1    2    0    0  0.00000000000E+00  0.00000000000E+00 -0.38517947916E+03  0.37293130812E+04  0.37093682516E+04 0.  0.
        1    1    3    3  502    0  0.49831546017E+03  0.17822126667E+04 -0.68422970845E+02  0.18518320632E+04  0.50400001928E-02 0. -1.
       -1    1    3    3    0  502 -0.49831546017E+03 -0.17822126667E+04 -0.31675650831E+03  0.18774810180E+04  0.50400001928E-02 0.  1.
</event>
<event>
 5   0  0.1496000E-07  0.3668491E+04  0.7818609E-02  0.8074981E-01
       -1   -1    0    0    0  501  0.00000000000E+00  0.00000000000E+00  0.13916317517E+04  0.13916317517E+04  0.50400001928E-02 0. -1.
        1   -1    0    0  501    0  0.00000000000E+00  0.00000000000E+00 -0.24176339304E+04  0.24176339304E+04  0.50400001928E-02 0.  1.
    10030    2    1    2    0    0  0.00000000000E+00  0.00000000000E+00 -0.10260021787E+04  0.38092656821E+04  0.36684907750E+04 0.  0.
        3    1    3    3  502    0  0.13359673924E+04 -0.10591179006E+04 -0.12156639405E+04  0.20938907391E+04  0.10100000352E+00 0.  1.
       -3    1    3    3    0  502 -0.13359673924E+04  0.10591179006E+04  0.18966176188E+03  0.17153749430E+04  0.10100000352E+00 0. -1.
</event>
<event>
 5   0  0.1496000E-07  0.3636992E+04  0.7818609E-02  0.8082070E-01
        1   -1    0    0  501    0  0.00000000000E+00  0.00000000000E+00  0.28784052504E+04  0.28784052504E+04  0.50400001928E-02 0.  1.
       -1   -1    0    0    0  501  0.00000000000E+00  0.00000000000E+00 -0.11488749684E+04  0.11488749684E+04  0.50400001928E-02 0. -1.
    10030    2    1    2    0    0  0.00000000000E+00  0.00000000000E+00  0.17295302819E+04  0.40272802188E+04  0.36369920215E+04 0.  0.
        3    1    3    3  502    0  0.15501608813E+04 -0.76698014828E+03  0.14869027392E+04  0.22808193860E+04  0.10100000352E+00 0.  1.
       -3    1    3    3    0  502 -0.15501608813E+04  0.76698014828E+03  0.24262754273E+03  0.17464608327E+04  0.10100000352E+00 0. -1.
</event>
<event>
 5   0  0.1522273E-07  0.3710184E+04  0.7818609E-02  0.8065709E-01
       -1   -1    0    0    0  501  0.00000000000E+00  0.00000000000E+00  0.18900482695E+04  0.18900482695E+04  0.50400001928E-02 0.  1.
        1   -1    0    0  501    0  0.00000000000E+00  0.00000000000E+00 -0.18207825328E+04  0.18207825328E+04  0.50400001928E-02 0. -1.
    10030    2    1    2    0    0  0.00000000000E+00  0.00000000000E+00  0.69265736736E+02  0.37108308023E+04  0.37101842948E+04 0.  0.
        4    1    3    3  502    0  0.61888185949E+03 -0.15916464020E+04  0.75933640934E+03  0.18689425942E+04  0.12699999809E+01 0.  1.
       -4    1    3    3    0  502 -0.61888185949E+03  0.15916464020E+04 -0.69007067260E+03  0.18418882081E+04  0.12699999809E+01 0. -1.
</event>
<event>
 5   0  0.4824268E-07  0.3699163E+04  0.7818609E-02  0.8068147E-01
       -2   -1    0    0    0  501  0.00000000000E+00  0.00000000000E+00  0.16416392753E+04  0.16416392753E+04  0.25500000920E-02 0.  1.
        2   -1    0    0  501    0  0.00000000000E+00  0.00000000000E+00 -0.20838636752E+04  0.20838636752E+04  0.25500000920E-02 0. -1.
    10030    2    1    2    0    0  0.00000000000E+00  0.00000000000E+00 -0.44222439994E+03  0.37255029505E+04  0.36991633938E+04 0.  0.
        1    1    3    3  502    0 -0.99177108497E+03 -0.10493400185E+04 -0.13852963875E+04  0.20009423881E+04  0.50400001928E-02 0. -1.
       -1    1    3    3    0  502  0.99177108497E+03  0.10493400185E+04  0.94307198756E+03  0.17245605623E+04  0.50400001928E-02 0.  1.
</event>
<event>
 5   0  0.4793557E-07  0.3751599E+04  0.7818609E-02  0.8056622E-01
       -2   -1    0    0    0  501  0.00000000000E+00  0.00000000000E+00  0.20146650828E+04  0.20146650828E+04  0.25500000920E-02 0.  1.
        2   -1    0    0  501    0  0.00000000000E+00  0.00000000000E+00 -0.17465051541E+04  0.17465051541E+04  0.25500000920E-02 0. -1.
    10030    2    1    2    0    0  0.00000000000E+00  0.00000000000E+00  0.26815992867E+03  0.37611702369E+04  0.37515985664E+04 0.  0.
        3    1    3    3  502    0 -0.32308879293E+03 -0.90917065794E+02 -0.17161558397E+04  0.17486689674E+04  0.10100000352E+00 0. -1.
       -3    1    3    3    0  502  0.32308879293E+03  0.90917065794E+02  0.19843157684E+04  0.20125012695E+04  0.10100000352E+00 0.  1.
</event>
<event>
 5   0  0.1496000E-07  0.3699772E+04  0.7818609E-02  0.8068012E-01
       -1   -1    0    0    0  501  0.00000000000E+00  0.00000000000E+00  0.19422566567E+04  0.19422566567E+04  0.50400001928E-02 0. -1.
        1   -1    0    0  501    0  0.00000000000E+00  0.00000000000E+00 -0.17619079860E+04  0.17619079861E+04  0.50400001928E-02 0.  1.
    10030    2    1    2    0    0  0.00000000000E+00  0.00000000000E+00  0.18034867067E+03  0.37041646428E+04  0.36997716224E+04 0.  0.
        3    1    3    3  502    0 -0.16747444722E+04  0.86251362548E+02  0.87204280730E+03  0.18901499974E+04  0.10100000352E+00 0.  1.
       -3    1    3    3    0  502  0.16747444722E+04 -0.86251362548E+02 -0.69169413663E+03  0.18140146454E+04  0.10100000352E+00 0. -1.
</event>
<event>
 5   0  0.4687817E-07  0.3660218E+04  0.7818609E-02  0.8076836E-01
       -2   -1    0    0    0  501  0.00000000000E+00  0.00000000000E+00  0.13626183729E+04  0.13626183729E+04  0.25500000920E-02 0.  1.
        2   -1    0    0  501    0  0.00000000000E+00  0.00000000000E+00 -0.24579874825E+04  0.24579874825E+04  0.25500000920E-02 0. -1.
    10030    2    1    2    0    0  0.00000000000E+00  0.00000000000E+00 -0.10953691096E+04  0.38206058554E+04  0.36602179739E+04 0.  0.
        4    1    3    3  502    0  0.15785134930E+04 -0.77003269178E+03 -0.10846604026E+04  0.20642541016E+04  0.12699999809E+01 0. -1.
       -4    1    3    3    0  502 -0.15785134930E+04  0.77003269178E+03 -0.10708706978E+02  0.17563517539E+04  0.12699999809E+01 0.  1.
</event>
<event>
 5   0  0.1496000E-07  0.4011549E+04  0.7818609E-02  0.8002221E-01
       -1   -1    0    0    0  501  0.00000000000E+00  0.00000000000E+00  0.16992257777E+04  0.16992257777E+04  0.50400001928E-02 0.  1.
        1   -1    0    0  501    0  0.00000000000E+00  0.00000000000E+00 -0.23676261376E+04  0.23676261376E+04  0.50400001928E-02 0. -1.
    10030    2    1    2    0    0  0.00000000000E+00  0.00000000000E+00 -0.66840035989E+03  0.40668519153E+04  0.40115490100E+04 0.  0.
        3    1    3    3  502    0  0.78682957102E+01  0.63960611462E+03 -0.22614532052E+04  0.23501762703E+04  0.10100000352E+00 0. -1.
       -3    1    3    3    0  502 -0.78682957102E+01 -0.63960611462E+03  0.15930528453E+04  0.17166756450E+04  0.10100000352E+00 0.  1.
</event>
<event>
 5   0  0.1496000E-07  0.3632190E+04  0.7818609E-02  0.8083158E-01
        1   -1    0    0  501    0  0.00000000000E+00  0.00000000000E+00  0.18724303574E+04  0.18724303574E+04  0.50400001928E-02 0.  1.
       -1   -1    0    0    0  501  0.00000000000E+00  0.00000000000E+00 -0.17614550304E+04  0.17614550304E+04  0.50400001928E-02 0. -1.
    10030    2    1    2    0    0  0.00000000000E+00  0.00000000000E+00  0.11097532697E+03  0.36338853878E+04  0.36321904533E+04 0.  0.
        3    1    3    3  502    0  0.15100955840E+04  0.60591276449E+03  0.86251326736E+03  0.18415884713E+04  0.10100000352E+00 0.  1.
       -3    1    3    3    0  502 -0.15100955840E+04 -0.60591276449E+03 -0.75153794038E+03  0.17922969166E+04  0.10100000352E+00 0. -1.
</event>
<event>
 5   0  0.4857514E-07  0.3675000E+04  0.7818609E-02  0.8073525E-01
       -2   -1    0    0    0  501  0.00000000000E+00  0.00000000000E+00  0.21060939489E+04  0.21060939489E+04  0.25500000920E-02 0. -1.
        2   -1    0    0  501    0  0.00000000000E+00  0.00000000000E+00 -0.16031600645E+04  0.16031600645E+04  0.25500000920E-02 0.  1.
    10030    2    1    2    0    0  0.00000000000E+00  0.00000000000E+00  0.50293388442E+03  0.37092540134E+04  0.36749997066E+04 0.  0.
        5    1    3    3  502    0 -0.19592146157E+03 -0.22583974646E+03  0.20813729195E+04  0.21027420503E+04  0.46999998093E+01 0. -1.
       -5    1    3    3    0  502  0.19592146157E+03  0.22583974646E+03 -0.15784390350E+04  0.16065119631E+04  0.46999998093E+01 0.  1.
</event>
<event>
 5   0  0.1522273E-07  0.3686110E+04  0.7818609E-02  0.8071047E-01
        1   -1    0    0  501    0  0.00000000000E+00  0.00000000000E+00  0.13519219033E+04  0.13519219034E+04  0.50400001928E-02 0. -1.
       -1   -1    0    0    0  501  0.00000000000E+00  0.00000000000E+00 -0.25126090562E+04  0.25126090562E+04  0.50400001928E-02 0.  1.
    10030    2    1    2    0    0  0.00000000000E+00  0.00000000000E+00 -0.11606871528E+04  0.38645309595E+04  0.36861097204E+04 0.  0.
        4    1    3    3  502    0  0.35024340133E+03  0.64131619940E+03 -0.23542514770E+04  0.24650473703E+04  0.12699999809E+01 0.  1.
       -4    1    3    3    0  502 -0.35024340133E+03 -0.64131619940E+03  0.11935643242E+04  0.13994835893E+04  0.12699999809E+01 0. -1.
</event>
<event>
 5   0  0.1496000E-07  0.3627992E+04  0.7818609E-02  0.8084110E-01
        1   -1    0    0  501    0  0.00000000000E+00  0.00000000000E+00  0.26341881426E+04  0.26341881426E+04  0.50400001928E-02 0.  1.
       -1   -1    0    0    0  501  0.00000000000E+00  0.00000000000E+00 -0.12491824681E+04  0.12491824681E+04  0.50400001928E-02 0. -1.
    10030    2    1    2    0    0  0.00000000000E+00  0.00000000000E+00  0.13850056745E+04  0.38833706107E+04  0.36279920867E+04 0.  0.
        3    1    3    3  502    0  0.56486873735E+03 -0.12057491723E+04  0.20111595139E+04  0.24119847341E+04  0.10100000352E+00 0.  1.
       -3    1    3    3    0  502 -0.56486873735E+03  0.12057491723E+04 -0.62615383937E+03  0.14713858766E+04  0.10100000352E+00 0. -1.
</event>
<event>
 5   0  0.4758908E-07  0.3687565E+04  0.7818609E-02  0.8070723E-01
        2   -1    0    0  501    0  0.00000000000E+00  0.00000000000E+00  0.19264350565E+04  0.19264350565E+04  0.25500000920E-02 0. -1.
       -2   -1    0    0    0  501  0.00000000000E+00  0.00000000000E+00 -0.17646764967E+04  0.17646764968E+04  0.25500000920E-02 0.  1.
    10030    2    1    2    0    0  0.00000000000E+00  0.00000000000E+00  0.16175855974E+03  0.36911115532E+04  0.36875654119E+04 0.  0.
        2    1    3    3  502    0 -0.11759080394E+04 -0.78915407526E+02  0.15001805327E+04  0.19077549606E+04  0.25500000920E-02 0. -1.
       -2    1    3    3    0  502  0.11759080394E+04  0.78915407526E+02 -0.13384219730E+04  0.17833565927E+04  0.25500000920E-02 0.  1.
</event>
<event>
 5   0  0.1496287E-07  0.3617559E+04  0.7818609E-02  0.8086481E-01
       -1   -1    0    0    0  501  0.00000000000E+00  0.00000000000E+00  0.17271237060E+04  0.17271237060E+04  0.50400001928E-02 0. -1.
        1   -1    0    0  501    0  0.00000000000E+00  0.00000000000E+00 -0.18942960101E+04  0.18942960101E+04  0.50400001928E-02 0.  1.
    10030    2    1    2    0    0  0.00000000000E+00  0.00000000000E+00 -0.16717230415E+03  0.36214197161E+04  0.36175591469E+04 0.  0.
        1    1    3    3  502    0  0.86670035692E+03 -0.10366128405E+04 -0.12873451236E+04  0.18662778885E+04  0.50400001928E-02 0.  1.
       -1    1    3    3    0  502 -0.86670035692E+03  0.10366128405E+04  0.11201728194E+04  0.17551418277E+04  0.50400001928E-02 0. -1.
</event>
<event>
 5   0  0.4824268E-07  0.3679457E+04  0.7818609E-02  0.8072530E-01
        2   -1    0    0  501    0  0.00000000000E+00  0.00000000000E+00  0.16088622548E+04  0.16088622548E+04  0.25500000920E-02 0.  1.
       -2   -1    0    0    0  501  0.00000000000E+00  0.00000000000E+00 -0.21037231355E+04  0.21037231355E+04  0.25500000920E-02 0. -1.
    10030    2    1    2    0    0  0.00000000000E+00  0.00000000000E+00 -0.49486088073E+03  0.37125853903E+04  0.36794568877E+04 0.  0.
        1    1    3    3  502    0 -0.81039556171E+03  0.11865095074E+04  0.91185062048E+03  0.17017688832E+04  0.50400001928E-02 0.  1.
       -1    1    3    3    0  502  0.81039556171E+03 -0.11865095074E+04 -0.14067115012E+04  0.20108165071E+04  0.50400001928E-02 0. -1.
</event>
<event>
 5   0  0.1496000E-07  0.3683599E+04  0.7818609E-02  0.8071606E-01
       -1   -1    0    0    0  501  0.00000000000E+00  0.00000000000E+00  0.14991800448E+04  0.14991800448E+04  0.50400001928E-02 0. -1.
        1   -1    0    0  501    0  0.00000000000E+00  0.00000000000E+00 -0.22627206325E+04  0.22627206325E+04  0.50400001928E-02 0.  1.
    10030    2    1    2    0    0  0.00000000000E+00  0.00000000000E+00 -0.76354058776E+03  0.37619006773E+04  0.36835991200E+04 0.  0.
        2    1    3    3  502    0  0.16188686831E+04 -0.49335430499E+03  0.36037593610E+03  0.17303193632E+04  0.25500000920E-02 0. -1.
       -2    1    3    3    0  502 -0.16188686831E+04  0.49335430499E+03 -0.11239165239E+04  0.20315813141E+04  0.25500000920E-02 0.  1.
</event>
<event>
 5   0  0.1522273E-07  0.3704300E+04  0.7818609E-02  0.8067010E-01
        1   -1    0    0  501    0  0.00000000000E+00  0.00000000000E+00  0.21640256349E+04  0.21640256349E+04  0.50400001928E-02 0. -1.
       -1   -1    0    0    0  501  0.00000000000E+00  0.00000000000E+00 -0.15852212746E+04  0.15852212746E+04  0.50400001928E-02 0.  1.
    10030    2    1    2    0    0  0.00000000000E+00  0.00000000000E+00  0.57880436028E+03  0.37492469095E+04  0.37042999205E+04 0.  0.
        4    1    3    3  502    0  0.16476308484E+03  0.74834274776E+03 -0.14172648287E+04  0.16111501947E+04  0.12699999809E+01 0.  1.
       -4    1    3    3    0  502 -0.16476308484E+03 -0.74834274776E+03  0.19960691889E+04  0.21380967149E+04  0.12699999809E+01 0. -1.
</event>
<event>
 5   0  0.4793557E-07  0.3396539E+04  0.7818609E-02  0.8138756E-01
       -2   -1    0    0    0  501  0.00000000000E+00  0.00000000000E+00  0.16279290972E+04  0.16279290972E+04  0.25500000920E-02 0. -1.
        2   -1    0    0  501    0  0.00000000000E+00  0.00000000000E+00 -0.17716491822E+04  0.17716491822E+04  0.25500000920E-02 0.  1.
    10030    2    1    2    0    0  0.00000000000E+00  0.00000000000E+00 -0.14372008501E+03  0.33995782795E+04  0.33965389760E+04 0.  0.
        3    1    3    3  502    0  0.99661002689E+03 -0.11539760084E+04 -0.82034406841E+03  0.17314319433E+04  0.10100000352E+00 0.  1.
       -3    1    3    3    0  502 -0.99661002689E+03  0.11539760084E+04  0.67662398341E+03  0.16681463361E+04  0.10100000352E+00 0. -1.
</event>
<event>
 5   0  0.1496000E-07  0.3695327E+04  0.7818609E-02  0.8068998E-01
        1   -1    0    0  501    0  0.00000000000E+00  0.00000000000E+00  0.27693018014E+04  0.27693018014E+04  0.50400001928E-02 0. -1.
       -1   -1    0    0    0  501  0.00000000000E+00  0.00000000000E+00 -0.12327510271E+04  0.12327510271E+04  0.50400001928E-02 0.  1.
    10030    2    1    2    0    0  0.00000000000E+00  0.00000000000E+00  0.15365507743E+04  0.40020528285E+04  0.36953265837E+04 0.  0.
        3    1    3    3  502    0 -0.17586385705E+04  0.25762034585E+03  0.13148241516E+04  0.22108687035E+04  0.10100000352E+00 0. -1.
       -3    1    3    3    0  502  0.17586385705E+04 -0.25762034585E+03  0.22172662270E+03  0.17911841250E+04  0.10100000352E+00 0.  1.
</event>
<event>
 5   0  0.4758908E-07  0.3729863E+04  0.7818609E-02  0.8061376E-01
        2   -1    0    0  501    0  0.00000000000E+00  0.00000000000E+00  0.18055722130E+04  0.18055722130E+04  0.25500000920E-02 0. -1.
       -2   -1    0    0    0  501  0.00000000000E+00  0.00000000000E+00 -0.19262419431E+04  0.19262419431E+04  0.25500000920E-02 0.  1.
    10030    2    1    2    0    0  0.00000000000E+00  0.00000000000E+00 -0.12066973016E+03  0.37318141561E+04  0.37298626934E+04 0.  0.
        2    1    3    3  502    0 -0.13192626370E+04  0.31074735544E+03 -0.13420012190E+04  0.19073502814E+04  0.25500000920E-02 0.  1.
       -2    1    3    3    0  502  0.13192626370E+04 -0.31074735544E+03  0.12213314888E+04  0.18244638746E+04  0.25500000920E-02 0. -1.
</event>
<event>
 5   0  0.4793557E-07  0.3692766E+04  0.7818609E-02  0.8069567E-01
       -2   -1    0    0    0  501  0.00000000000E+00  0.00000000000E+00  0.18330405073E+04  0.18330405074E+04  0.25500000920E-02 0.  1.
        2   -1    0    0  501    0  0.00000000000E+00  0.00000000000E+00 -0.18598227231E+04  0.18598227231E+04  0.25500000920E-02 0. -1.
    10030    2    1    2    0    0  0.00000000000E+00  0.00000000000E+00 -0.26782215755E+02  0.36928632305E+04  0.36927661112E+04 0.  0.
        3    1    3    3  502    0  0.44697670099E+03 -0.16055091055E+04 -0.80819671021E+03  0.18521958837E+04  0.10100000352E+00 0. -1.
       -3    1    3    3    0  502 -0.44697670099E+03  0.16055091055E+04  0.78141449445E+03  0.18406673467E+04  0.10100000352E+00 0.  1.
</event>
<event>
 5   0  0.4758908E-07  0.3698035E+04  0.7818609E-02  0.8068397E-01
        2   -1    0    0  501    0  0.00000000000E+00  0.00000000000E+00  0.21163848566E+04  0.21163848566E+04  0.25500000920E-02 0. -1.
       -2   -1    0    0    0  501  0.00000000000E+00  0.00000000000E+00 -0.16154274154E+04  0.16154274154E+04  0.25500000920E-02 0.  1.
    10030    2    1    2    0    0  0.00000000000E+00  0.00000000000E+00  0.50095744121E+03  0.37318122720E+04  0.36980352182E+04 0.  0.
        2    1    3    3  502    0 -0.15073814550E+04 -0.28589608201E+03 -0.79090172593E+03  0.17261115146E+04  0.25500000920E-02 0.  1.
       -2    1    3    3    0  502  0.15073814550E+04  0.28589608201E+03  0.12918591671E+04  0.20057007574E+04  0.25500000920E-02 0. -1.
</event>
<event>
 5   0  0.4758908E-07  0.3647928E+04  0.7818609E-02  0.8079601E-01
       -2   -1    0    0    0  501  0.00000000000E+00  0.00000000000E+00  0.11126766302E+04  0.11126766302E+04  0.25500000920E-02 0.  1.
        2   -1    0    0  501    0  0.00000000000E+00  0.00000000000E+00 -0.29899480890E+04  0.29899480890E+04  0.25500000920E-02 0. -1.
    10030    2    1    2    0    0  0.00000000000E+00  0.00000000000E+00 -0.18772714588E+04  0.41026247192E+04  0.36479283787E+04 0.  0.
        2    1    3    3  502    0 -0.77023194893E+03 -0.40148068661E+03  0.86514962008E+03  0.12259395833E+04  0.25500000920E-02 0.  1.
       -2    1    3    3    0  502  0.77023194893E+03  0.40148068661E+03 -0.27424210789E+04  0.28766851358E+04  0.25500000920E-02 0. -1.
</event>
<event>
 5   0  0.1496000E-07  0.3041064E+04  0.7818609E-02  0.8232101E-01
       -1   -1    0    0    0  501  0.00000000000E+00  0.00000000000E+00  0.13202788153E+04  0.13202788153E+04  0.50400001928E-02 0. -1.
        1   -1    0    0  501    0  0.00000000000E+00  0.00000000000E+00 -0.17511583575E+04  0.17511583575E+04  0.50400001928E-02 0.  1.
    10030    2    1    2    0    0  0.00000000000E+00  0.00000000000E+00 -0.43087954221E+03  0.30714371727E+04  0.30410638149E+04 0.  0.
        5    1    3    3  502    0 -0.61981247145E+03  0.11436708391E+04 -0.10106053091E+04  0.16472691550E+04  0.46999998093E+01 0.  1.
       -5    1    3    3    0  502  0.61981247145E+03 -0.11436708391E+04  0.57972576691E+03  0.14241680178E+04  0.46999998093E+01 0. -1.
</event>
<event>
 5   0  0.1496287E-07  0.3697449E+04  0.7818609E-02  0.8068527E-01
       -1   -1    0    0    0  501  0.00000000000E+00  0.00000000000E+00  0.13103743587E+04  0.13103743587E+04  0.50400001928E-02 0.  1.
        1   -1    0    0  501    0  0.00000000000E+00  0.00000000000E+00 -0.26082492469E+04  0.26082492469E+04  0.50400001928E-02 0. -1.
    10030    2    1    2    0    0  0.00000000000E+00  0.00000000000E+00 -0.12978748882E+04  0.39186236056E+04  0.36974493555E+04 0.  0.
        1    1    3    3  502    0 -0.59129509001E+03  0.83525818782E+03  0.98280272125E+03  0.14188683211E+04  0.50400001928E-02 0.  1.
       -1    1    3    3    0  502  0.59129509001E+03 -0.83525818782E+03 -0.22806776095E+04  0.24997552845E+04  0.50400001928E-02 0. -1.
</event>
<event>
 5   0  0.4758908E-07  0.3668252E+04  0.7818609E-02  0.8075034E-01
       -2   -1    0    0    0  501  0.00000000000E+00  0.00000000000E+00  0.22094754371E+04  0.22094754371E+04  0.25500000920E-02 0.  1.
        2   -1    0    0  501    0  0.00000000000E+00  0.00000000000E+00 -0.15225413466E+04  0.15225413466E+04  0.25500000920E-02 0. -1.
    10030    2    1    2    0    0  0.00000000000E+00  0.00000000000E+00  0.68693409047E+03  0.37320167837E+04  0.36682517402E+04 0.  0.
        2    1    3    3  502    0 -0.15754037178E+04 -0.68556548415E+03 -0.30965857936E+03  0.17457907501E+04  0.25500000920E-02 0.  1.
       -2    1    3    3    0  502  0.15754037178E+04  0.68556548415E+03  0.99659266983E+03  0.19862260337E+04  0.25500000920E-02 0. -1.
</event>
<event>
 5   0  0.4758908E-07  0.3670584E+04  0.7818609E-02  0.8074512E-01
        2   -1    0    0  501    0  0.00000000000E+00  0.00000000000E+00  0.25130197428E+04  0.25130197428E+04  0.25500000920E-02 0. -1.
       -2   -1    0    0    0  501  0.00000000000E+00  0.00000000000E+00 -0.13403385209E+04  0.13403385209E+04  0.25500000920E-02 0.  1.
    10030    2    1    2    0    0  0.00000000000E+00  0.00000000000E+00  0.11726812219E+04  0.38533582636E+04  0.36705842396E+04 0.  0.
        2    1    3    3  502    0  0.15060442749E+02  0.12135668033E+04 -0.85891994273E+03  0.14868472252E+04  0.25500000920E-02 0.  1.
       -2    1    3    3    0  502 -0.15060442749E+02 -0.12135668033E+04  0.20316011646E+04  0.23665110384E+04  0.25500000920E-02 0. -1.
</event>
<event>
 5   0  0.4793557E-07  0.3699907E+04  0.7818609E-02  0.8067982E-01
       -2   -1    0    0    0  501  0.00000000000E+00  0.00000000000E+00  0.14463141619E+04  0.14463141619E+04  0.25500000920E-02 0. -1.
        2   -1    0    0  501    0  0.00000000000E+00  0.00000000000E+00 -0.23662411657E+04  0.23662411657E+04  0.25500000920E-02 0.  1.
    10030    2    1    2    0    0  0.00000000000E+00  0.00000000000E+00 -0.91992700377E+03  0.38125553275E+04  0.36999070844E+04 0.  0.
        3    1    3    3  502    0 -0.13889426896E+04 -0.10686643540E+04 -0.10705607655E+04  0.20536079614E+04  0.10100000352E+00 0.  1.
       -3    1    3    3    0  502  0.13889426896E+04  0.10686643540E+04  0.15063376169E+03  0.17589473661E+04  0.10100000352E+00 0. -1.
</event>
<event>
 5   0  0.1496000E-07  0.3676362E+04  0.7818609E-02  0.8073221E-01
        1   -1    0    0  501    0  0.00000000000E+00  0.00000000000E+00  0.12644993289E+04  0.12644993289E+04  0.50400001928E-02 0.  1.
       -1   -1    0    0    0  501  0.00000000000E+00  0.00000000000E+00 -0.26721321198E+04  0.26721321199E+04  0.50400001928E-02 0. -1.
    10030    2    1    2    0    0  0.00000000000E+00  0.00000000000E+00 -0.14076327910E+04  0.39366314488E+04  0.36763619366E+04 0.  0.
        2    1    3    3  502    0 -0.60078032164E+03 -0.85013989824E+03 -0.23260747586E+04  0.25483913797E+04  0.25500000920E-02 0. -1.
       -2    1    3    3    0  502  0.60078032164E+03  0.85013989824E+03  0.91844196764E+03  0.13882400691E+04  0.25500000920E-02 0.  1.
</event>
<event>
 5   0  0.1496287E-07  0.3724409E+04  0.7818609E-02  0.8062574E-01
       -1   -1    0    0    0  501  0.00000000000E+00  0.00000000000E+00  0.14031837845E+04  0.14031837846E+04  0.50400001928E-02 0.  1.
        1   -1    0    0  501    0  0.00000000000E+00  0.00000000000E+00 -0.24713832200E+04  0.24713832200E+04  0.50400001928E-02 0. -1.
    10030    2    1    2    0    0  0.00000000000E+00  0.00000000000E+00 -0.10681994354E+04  0.38745670045E+04  0.37244086026E+04 0.  0.
        1    1    3    3  502    0 -0.73369178994E+03 -0.16177864600E+04 -0.11154390739E+04  0.20975559589E+04  0.50400001928E-02 0.  1.
       -1    1    3    3    0  502  0.73369178994E+03  0.16177864600E+04  0.47239638500E+02  0.17770110457E+04  0.50400001928E-02 0. -1.
</event>
<event>
 5   0  0.4758908E-07  0.3690629E+04  0.7818609E-02  0.8070042E-01
        2   -1    0    0  501    0  0.00000000000E+00  0.00000000000E+00  0.20052471239E+04  0.20052471239E+04  0.25500000920E-02 0. -1.
       -2   -1    0    0    0  501  0.00000000000E+00  0.00000000000E+00 -0.16981379084E+04  0.16981379084E+04  0.25500000920E-02 0.  1.
    10030    2    1    2    0    0  0.00000000000E+00  0.00000000000E+00  0.30710921550E+03  0.37033850323E+04  0.36906292996E+04 0.  0.
        2    1    3    3  502    0  0.12699929621E+04 -0.94312823598E+03 -0.79989420671E+03  0.17726262255E+04  0.25500000920E-02 0.  1.
       -2    1    3    3    0  502 -0.12699929621E+04  0.94312823598E+03  0.11070034222E+04  0.19307588068E+04  0.25500000920E-02 0. -1.
</event>
<event>
 5   0  0.4857514E-07  0.3729848E+04  0.7818609E-02  0.8061379E-01
        2   -1    0    0  501    0  0.00000000000E+00  0.00000000000E+00  0.18187319603E+04  0.18187319603E+04  0.25500000920E-02 0. -1.
       -2   -1    0    0    0  501  0.00000000000E+00  0.00000000000E+00 -0.19122889876E+04  0.19122889876E+04  0.25500000920E-02 0.  1.
    10030    2    1    2    0    0  0.00000000000E+00  0.00000000000E+00 -0.93557027258E+02  0.37310209479E+04  0.37298477712E+04 0.  0.
        5    1    3    3  502    0 -0.14694164215E+04 -0.93120977183E+03 -0.71898895263E+03  0.18823664529E+04  0.46999998093E+01 0.  1.
       -5    1    3    3    0  502  0.14694164215E+04  0.93120977183E+03  0.62543192537E+03  0.18486544951E+04  0.46999998093E+01 0. -1.
</event>
<event>
 5   0  0.1496000E-07  0.3642053E+04  0.7818609E-02  0.8080926E-01
        1   -1    0    0  501    0  0.00000000000E+00  0.00000000000E+00  0.25056458043E+04  0.25056458043E+04  0.50400001928E-02 0. -1.
       -1   -1    0    0    0  501  0.00000000000E+00  0.00000000000E+00 -0.13234661093E+04  0.13234661093E+04  0.50400001928E-02 0.  1.
    10030    2    1    2    0    0  0.00000000000E+00  0.00000000000E+00  0.11821796950E+04  0.38291119136E+04  0.36420528848E+04 0.  0.
        2    1    3    3  502    0  0.17563023439E+03  0.18116152541E+04  0.65186446951E+03  0.19333191911E+04  0.25500000920E-02 0. -1.
       -2    1    3    3    0  502 -0.17563023439E+03 -0.18116152541E+04  0.53031522546E+03  0.18957927225E+04  0.25500000920E-02 0.  1.
</event>
<event>
 5   0  0.1496000E-07  0.3826805E+04  0.7818609E-02  0.8040427E-01
        1   -1    0    0  501    0  0.00000000000E+00  0.00000000000E+00  0.32899538943E+04  0.32899538943E+04  0.50400001928E-02 0. -1.
       -1   -1    0    0    0  501  0.00000000000E+00  0.00000000000E+00 -0.11128146775E+04  0.11128146775E+04  0.50400001928E-02 0.  1.
    10030    2    1    2    0    0  0.00000000000E+00  0.00000000000E+00  0.21771392168E+04  0.44027685718E+04  0.38268049241E+04 0.  0.
        5    1    3    3  502    0  0.10087519899E+04 -0.15487200969E+03  0.29506587763E+04  0.31221747582E+04  0.46999998093E+01 0. -1.
       -5    1    3    3    0  502 -0.10087519899E+04  0.15487200969E+03 -0.77351955948E+03  0.12805938136E+04  0.46999998093E+01 0.  1.
</event>
<event>
 5   0  0.4687817E-07  0.3747994E+04  0.7818609E-02  0.8057408E-01
       -2   -1    0    0    0  501  0.00000000000E+00  0.00000000000E+00  0.15038452712E+04  0.15038452712E+04  0.25500000920E-02 0. -1.
        2   -1    0    0  501    0  0.00000000000E+00  0.00000000000E+00 -0.23352564262E+04  0.23352564262E+04  0.25500000920E-02 0.  1.
    10030    2    1    2    0    0  0.00000000000E+00  0.00000000000E+00 -0.83141115505E+03  0.38391016974E+04  0.37479937746E+04 0.  0.
        4    1    3    3  502    0 -0.21142768036E+03  0.18281645303E+04 -0.77781782081E+03  0.19979713184E+04  0.12699999809E+01 0.  1.
       -4    1    3    3    0  502  0.21142768036E+03 -0.18281645303E+04 -0.53593334238E+02  0.18411303790E+04  0.12699999809E+01 0. -1.
</event>
<event>
 5   0  0.1496000E-07  0.3736128E+04  0.7818609E-02  0.8060002E-01
       -1   -1    0    0    0  501  0.00000000000E+00  0.00000000000E+00  0.18142280121E+04  0.18142280121E+04  0.50400001928E-02 0.  1.
        1   -1    0    0  501    0  0.00000000000E+00  0.00000000000E+00 -0.19234974502E+04  0.19234974502E+04  0.50400001928E-02 0. -1.
    10030    2    1    2    0    0  0.00000000000E+00  0.00000000000E+00 -0.10926943814E+03  0.37377254623E+04  0.37361279183E+04 0.  0.
        3    1    3    3  502    0 -0.11230575125E+04  0.68892516630E+03  0.12702377354E+04  0.18301311362E+04  0.10100000352E+00 0.  1.
       -3    1    3    3    0  502  0.11230575125E+04 -0.68892516630E+03 -0.13795071735E+04  0.19075943261E+04  0.10100000352E+00 0. -1.
</event>
<event>
 5   0  0.1496000E-07  0.3702665E+04  0.7818609E-02  0.8067371E-01
        1   -1    0    0  501    0  0.00000000000E+00  0.00000000000E+00  0.19320078478E+04  0.19320078478E+04  0.50400001928E-02 0. -1.
       -1   -1    0    0    0  501  0.00000000000E+00  0.00000000000E+00 -0.17740261793E+04  0.17740261793E+04  0.50400001928E-02 0.  1.
    10030    2    1    2    0    0  0.00000000000E+00  0.00000000000E+00  0.15798166853E+03  0.37060340271E+04  0.37026652566E+04 0.  0.
        2    1    3    3  502    0 -0.14586260178E+04 -0.99822287987E+03  0.63030385191E+03  0.18765185113E+04  0.25500000920E-02 0. -1.
       -2    1    3    3    0  502  0.14586260178E+04  0.99822287987E+03 -0.47232218338E+03  0.18295155158E+04  0.25500000920E-02 0.  1.
</event>
<event>
 5   0  0.4758908E-07  0.3693116E+04  0.7818609E-02  0.8069489E-01
        2   -1    0    0  501    0  0.00000000000E+00  0.00000000000E+00  0.20419016140E+04  0.20419016140E+04  0.25500000920E-02 0.  1.
       -2   -1    0    0    0  501  0.00000000000E+00  0.00000000000E+00 -0.16699025627E+04  0.16699025627E+04  0.25500000920E-02 0. -1.
    10030    2    1    2    0    0  0.00000000000E+00  0.00000000000E+00  0.37199905135E+03  0.37118041767E+04  0.36931161574E+04 0.  0.
        2    1    3    3  502    0  0.10977634592E+04  0.35776936719E+03 -0.12623662686E+04  0.17107460737E+04  0.25500000920E-02 0. -1.
       -2    1    3    3    0  502 -0.10977634592E+04 -0.35776936719E+03  0.16343653200E+04  0.20010581030E+04  0.25500000920E-02 0.  1.
</event>
<event>
 5   0  0.4857514E-07  0.3007259E+04  0.7818609E-02  0.8241661E-01
        2   -1    0    0  501    0  0.00000000000E+00  0.00000000000E+00  0.12314403135E+04  0.12314403135E+04  0.25500000920E-02 0. -1.
       -2   -1    0    0    0  501  0.00000000000E+00  0.00000000000E+00 -0.18359812637E+04  0.18359812637E+04  0.25500000920E-02 0.  1.
    10030    2    1    2    0    0  0.00000000000E+00  0.00000000000E+00 -0.60454095020E+03  0.30674215772E+04  0.30072587803E+04 0.  0.
        5    1    3    3  502    0  0.11230728177E+04 -0.99516779701E+03 -0.40025346588E+03  0.15530217078E+04  0.46999998093E+01 0.  1.
       -5    1    3    3    0  502 -0.11230728177E+04  0.99516779701E+03 -0.20428748432E+03  0.15143998694E+04  0.46999998093E+01 0. -1.
</event>
<event>
 5   0  0.1522273E-07  0.3687864E+04  0.7818609E-02  0.8070657E-01
        1   -1    0    0  501    0  0.00000000000E+00  0.00000000000E+00  0.17368599391E+04  0.17368599391E+04  0.50400001928E-02 0. -1.
       -1   -1    0    0    0  501  0.00000000000E+00  0.00000000000E+00 -0.19576047356E+04  0.19576047356E+04  0.50400001928E-02 0.  1.
    10030    2    1    2    0    0  0.00000000000E+00  0.00000000000E+00 -0.22074479654E+03  0.36944646747E+04  0.36878640115E+04 0.  0.
        4    1    3    3  502    0 -0.55239277765E+03  0.30600826203E+03 -0.18459005827E+04  0.19509303964E+04  0.12699999809E+01 0.  1.
       -4    1    3    3    0  502  0.55239277765E+03 -0.30600826203E+03  0.16251557862E+04  0.17435342783E+04  0.12699999809E+01 0. -1.
</event>
<event>
 5   0  0.4857514E-07  0.3707172E+04  0.7818609E-02  0.8066374E-01
        2   -1    0    0  501    0  0.00000000000E+00  0.00000000000E+00  0.21494446482E+04  0.21494446482E+04  0.25500000920E-02 0. -1.
       -2   -1    0    0    0  501  0.00000000000E+00  0.00000000000E+00 -0.15984506876E+04  0.15984506876E+04  0.25500000920E-02 0.  1.
    10030    2    1    2    0    0  0.00000000000E+00  0.00000000000E+00  0.55099396065E+03  0.37478953358E+04  0.37071721167E+04 0.  0.
        5    1    3    3  502    0 -0.15967347455E+04  0.84552014043E+03  0.69391901863E+03  0.19354616632E+04  0.46999998093E+01 0.  1.
       -5    1    3    3    0  502  0.15967347455E+04 -0.84552014043E+03 -0.14292505798E+03  0.18124336726E+04  0.46999998093E+01 0. -1.
</event>
<event>
 5   0  0.1496000E-07  0.3723326E+04  0.7818609E-02  0.8062812E-01
       -1   -1    0    0    0  501  0.00000000000E+00  0.00000000000E+00  0.30583914388E+04  0.30583914388E+04  0.50400001928E-02 0. -1.
        1   -1    0    0  501    0  0.00000000000E+00  0.00000000000E+00 -0.11332066574E+04  0.11332066574E+04  0.50400001928E-02 0.  1.
    10030    2    1    2    0    0  0.00000000000E+00  0.00000000000E+00  0.19251847813E+04  0.41915980962E+04  0.37233262223E+04 0.  0.
        3    1    3    3  502    0 -0.13739592281E+04 -0.98259582236E+03  0.18436668024E+04  0.25004731151E+04  0.10100000352E+00 0. -1.
       -3    1    3    3    0  502  0.13739592281E+04  0.98259582236E+03  0.81517978941E+02  0.16911249811E+04  0.10100000352E+00 0.  1.
</event>
<event>
 5   0  0.4758908E-07  0.3680449E+04  0.7818609E-02  0.8072308E-01
        2   -1    0    0  501    0  0.00000000000E+00  0.00000000000E+00  0.22698023930E+04  0.22698023930E+04  0.25500000920E-02 0.  1.
       -2   -1    0    0    0  501  0.00000000000E+00  0.00000000000E+00 -0.14919475015E+04  0.14919475015E+04  0.25500000920E-02 0. -1.
    10030    2    1    2    0    0  0.00000000000E+00  0.00000000000E+00  0.77785489147E+03  0.37617498944E+04  0.36804488906E+04 0.  0.
        2    1    3    3  502    0  0.32355666750E+03  0.12001934673E+04 -0.99798225932E+03  0.15940896669E+04  0.25500000920E-02 0. -1.
       -2    1    3    3    0  502 -0.32355666750E+03 -0.12001934673E+04  0.17758371508E+04  0.21676602276E+04  0.25500000920E-02 0.  1.
</event>
<event>
 5   0  0.4793557E-07  0.3690737E+04  0.7818609E-02  0.8070018E-01
        2   -1    0    0  501    0  0.00000000000E+00  0.00000000000E+00  0.17275991498E+04  0.17275991498E+04  0.25500000920E-02 0. -1.
       -2   -1    0    0    0  501  0.00000000000E+00  0.00000000000E+00 -0.19711663850E+04  0.19711663850E+04  0.25500000920E-02 0.  1.
    10030    2    1    2    0    0  0.00000000000E+00  0.00000000000E+00 -0.24356723517E+03  0.36987655348E+04  0.36907372547E+04 0.  0.
        3    1    3    3  502    0  0.15213734284E+04 -0.40853700343E+03  0.84150740515E+03  0.17859491356E+04  0.10100000352E+00 0. -1.
       -3    1    3    3    0  502 -0.15213734284E+04  0.40853700343E+03 -0.10850746403E+04  0.19128163992E+04  0.10100000352E+00 0.  1.
</event>
<event>
 5   0  0.4824268E-07  0.3718624E+04  0.7818609E-02  0.8063847E-01
        2   -1    0    0  501    0  0.00000000000E+00  0.00000000000E+00  0.17603779626E+04  0.17603779626E+04  0.25500000920E-02 0. -1.
       -2   -1    0    0    0  501  0.00000000000E+00  0.00000000000E+00 -0.19638064524E+04  0.19638064524E+04  0.25500000920E-02 0.  1.
    10030    2    1    2    0    0  0.00000000000E+00  0.00000000000E+00 -0.20342848981E+03  0.37241844150E+04  0.37186242626E+04 0.  0.
        1    1    3    3  502    0  0.11618382125E+04 -0.10195994224E+04 -0.11365019210E+04  0.19186160717E+04  0.50400001928E-02 0.  1.
       -1    1    3    3    0  502 -0.11618382125E+04  0.10195994224E+04  0.93307343115E+03  0.18055683433E+04  0.50400001928E-02 0. -1.
</event>
<event>
 5   0  0.1496287E-07  0.3704780E+04  0.7818609E-02  0.8066903E-01
        1   -1    0    0  501    0  0.00000000000E+00  0.00000000000E+00  0.23121714185E+04  0.23121714185E+04  0.50400001928E-02 0. -1.
       -1   -1    0    0    0  501  0.00000000000E+00  0.00000000000E+00 -0.14840371732E+04  0.14840371732E+04  0.50400001928E-02 0.  1.
    10030    2    1    2    0    0  0.00000000000E+00  0.00000000000E+00  0.82813424536E+03  0.37962085917E+04  0.37047797969E+04 0.  0.
        1    1    3    3  502    0  0.11154354760E+04 -0.63580462682E+03  0.17822738139E+04  0.21965754647E+04  0.50400001928E-02 0. -1.
       -1    1    3    3    0  502 -0.11154354760E+04  0.63580462682E+03 -0.95413956852E+03  0.15996331269E+04  0.50400001928E-02 0.  1.
</event>
<event>
 5   0  0.4793557E-07  0.2983994E+04  0.7818609E-02  0.8248316E-01
       -2   -1    0    0    0  501  0.00000000000E+00  0.00000000000E+00  0.12335694999E+04  0.12335694999E+04  0.25500000920E-02 0. -1.
        2   -1    0    0  501    0  0.00000000000E+00  0.00000000000E+00 -0.18045638133E+04  0.18045638133E+04  0.25500000920E-02 0.  1.
    10030    2    1    2    0    0  0.00000000000E+00  0.00000000000E+00 -0.57099431344E+03  0.30381333132E+04  0.29839938879E+04 0.  0.
        3    1    3    3  502    0  0.29975139131E+03  0.10862947238E+04 -0.12810766502E+04  0.17061783370E+04  0.10100000352E+00 0.  1.
       -3    1    3    3    0  502 -0.29975139131E+03 -0.10862947238E+04  0.71008233676E+03  0.13319549763E+04  0.10100000352E+00 0. -1.
</event>
<event>
 5   0  0.1522273E-07  0.3704384E+04  0.7818609E-02  0.8066991E-01
       -1   -1    0    0    0  501  0.00000000000E+00  0.00000000000E+00  0.11277188696E+04  0.11277188696E+04  0.50400001928E-02 0. -1.
        1   -1    0    0  501    0  0.00000000000E+00  0.00000000000E+00 -0.30420844413E+04  0.30420844413E+04  0.50400001928E-02 0.  1.
    10030    2    1    2    0    0  0.00000000000E+00  0.00000000000E+00 -0.19143655717E+04  0.41698033109E+04  0.37043844440E+04 0.  0.
        4    1    3    3  502    0 -0.52352977018E+03 -0.23668827344E+03 -0.29392394314E+04  0.29948680784E+04  0.12699999809E+01 0.  1.
       -4    1    3    3    0  502  0.52352977018E+03  0.23668827344E+03  0.10248738598E+04  0.11749352324E+04  0.12699999809E+01 0. -1.
</event>
<event>
 5   0  0.4857514E-07  0.3692821E+04  0.7818609E-02  0.8069555E-01
       -2   -1    0    0    0  501  0.00000000000E+00  0.00000000000E+00  0.15139647991E+04  0.15139647991E+04  0.25500000920E-02 0. -1.
        2   -1    0    0  501    0  0.00000000000E+00  0.00000000000E+00 -0.22518563590E+04  0.22518563590E+04  0.25500000920E-02 0.  1.
    10030    2    1    2    0    0  0.00000000000E+00  0.00000000000E+00 -0.73789155990E+03  0.37658211581E+04  0.36928207431E+04 0.  0.
        5    1    3    3  502    0  0.18482815284E+03 -0.13129583549E+04 -0.16793332667E+04  0.21396736663E+04  0.46999998093E+01 0. -1.
       -5    1    3    3    0  502 -0.18482815284E+03  0.13129583549E+04  0.94144170679E+03  0.16261474918E+04  0.46999998093E+01 0.  1.
</event>
<event>
 5   0  0.1522273E-07  0.3733249E+04  0.7818609E-02  0.8060633E-01
       -1   -1    0    0    0  501  0.00000000000E+00  0.00000000000E+00  0.10400710293E+04  0.10400710293E+04  0.50400001928E-02 0. -1.
        1   -1    0    0  501    0  0.00000000000E+00  0.00000000000E+00 -0.33500474436E+04  0.33500474437E+04  0.50400001928E-02 0.  1.
    10030    2    1    2    0    0  0.00000000000E+00  0.00000000000E+00 -0.23099764143E+04  0.43901184730E+04  0.37332491441E+04 0.  0.
        4    1    3    3  502    0  0.70652674898E+03 -0.17005131871E+04 -0.79567686294E+03  0.20059981130E+04  0.12699999809E+01 0. -1.
       -4    1    3    3    0  502 -0.70652674898E+03  0.17005131871E+04 -0.15142995514E+04  0.23841203599E+04  0.12699999809E+01 0.  1.
</event>
<event>
 5   0  0.1496000E-07  0.3692378E+04  0.7818609E-02  0.8069653E-01
        1   -1    0    0  501    0  0.00000000000E+00  0.00000000000E+00  0.27833607980E+04  0.27833607980E+04  0.50400001928E-02 0.  1.
       -1   -1    0    0    0  501  0.00000000000E+00  0.00000000000E+00 -0.12245679873E+04  0.12245679873E+04  0.50400001928E-02 0. -1.
    10030    2    1    2    0    0  0.00000000000E+00  0.00000000000E+00  0.15587928107E+04  0.40079287853E+04  0.36923783828E+04 0.  0.
        5    1    3    3  502    0 -0.86657390448E+02  0.14483043568E+04  0.20185797438E+04  0.24859165886E+04  0.46999998093E+01 0.  1.
       -5    1    3    3    0  502  0.86657390448E+02 -0.14483043568E+04 -0.45978693309E+03  0.15220121968E+04  0.46999998093E+01 0. -1.
</event>
<event>
 5   0  0.4824268E-07  0.3769454E+04  0.7818609E-02  0.8052742E-01
       -2   -1    0    0    0  501  0.00000000000E+00  0.00000000000E+00  0.14514890653E+04  0.14514890653E+04  0.25500000920E-02 0.  1.
        2   -1    0    0  501    0  0.00000000000E+00  0.00000000000E+00 -0.24472774656E+04  0.24472774656E+04  0.25500000920E-02 0. -1.
    10030    2    1    2    0    0  0.00000000000E+00  0.00000000000E+00 -0.99578840028E+03  0.38987665309E+04  0.37694543271E+04 0.  0.
        1    1    3    3  502    0 -0.92100007338E+03  0.13308540388E+04  0.50104492982E+03  0.16942430845E+04  0.50400001928E-02 0.  1.
       -1    1    3    3    0  502  0.92100007338E+03 -0.13308540388E+04 -0.14968333301E+04  0.22045234464E+04  0.50400001928E-02 0. -1.
</event>
<event>
 5   0  0.4687817E-07  0.3697408E+04  0.7818609E-02  0.8068537E-01
       -2   -1    0    0    0  501  0.00000000000E+00  0.00000000000E+00  0.15250303809E+04  0.15250303809E+04  0.25500000920E-02 0. -1.
        2   -1    0    0  501    0  0.00000000000E+00  0.00000000000E+00 -0.22410737883E+04  0.22410737883E+04  0.25500000920E-02 0.  1.
    10030    2    1    2    0    0  0.00000000000E+00  0.00000000000E+00 -0.71604340747E+03  0.37661041692E+04  0.36974075312E+04 0.  0.
        4    1    3    3  502    0 -0.14354126652E+04  0.76854913756E+03  0.53381836035E+03  0.17134879489E+04  0.12699999809E+01 0. -1.
       -4    1    3    3    0  502  0.14354126652E+04 -0.76854913756E+03 -0.12498617678E+04  0.20526162203E+04  0.12699999809E+01 0.  1.
</event>
<event>
 5   0  0.4793557E-07  0.3190712E+04  0.7818609E-02  0.8191274E-01
        2   -1    0    0  501    0  0.00000000000E+00  0.00000000000E+00  0.17058999361E+04  0.17058999361E+04  0.25500000920E-02 0.  1.
       -2   -1    0    0    0  501  0.00000000000E+00  0.00000000000E+00 -0.14919754610E+04  0.14919754610E+04  0.25500000920E-02 0. -1.
    10030    2    1    2    0    0  0.00000000000E+00  0.00000000000E+00  0.21392447509E+03  0.31978753971E+04  0.31907120482E+04 0.  0.
        3    1    3    3  502    0  0.11005429917E+04 -0.41265117322E+03  0.11881263893E+04  0.16712630537E+04  0.10100000352E+00 0.  1.
       -3    1    3    3    0  502 -0.11005429917E+04  0.41265117322E+03 -0.97420191425E+03  0.15266123435E+04  0.10100000352E+00 0. -1.
</event>
<event>
 5   0  0.1522273E-07  0.3716315E+04  0.7818609E-02  0.8064356E-01
        1   -1    0    0  501    0  0.00000000000E+00  0.00000000000E+00  0.18413946406E+04  0.18413946406E+04  0.50400001928E-02 0.  1.
       -1   -1    0    0    0  501  0.00000000000E+00  0.00000000000E+00 -0.18750730458E+04  0.18750730458E+04  0.50400001928E-02 0. -1.
    10030    2    1    2    0    0  0.00000000000E+00  0.00000000000E+00 -0.33678405244E+02  0.37164676864E+04  0.37163150875E+04 0.  0.
        4    1    3    3  502    0  0.23422933506E+03  0.18731439919E+03 -0.18507077776E+04  0.18748522493E+04  0.12699999809E+01 0. -1.
       -4    1    3    3    0  502 -0.23422933506E+03 -0.18731439919E+03  0.18170293724E+04  0.18416154372E+04  0.12699999809E+01 0.  1.
</event>
<event>
 5   0  0.1496000E-07  0.3707737E+04  0.7818609E-02  0.8066249E-01
       -1   -1    0    0    0  501  0.00000000000E+00  0.00000000000E+00  0.15630379962E+04  0.15630379962E+04  0.50400001928E-02 0. -1.
        1   -1    0    0  501    0  0.00000000000E+00  0.00000000000E+00 -0.21988130826E+04  0.21988130826E+04  0.50400001928E-02 0.  1.
    10030    2    1    2    0    0  0.00000000000E+00  0.00000000000E+00 -0.63577508636E+03  0.37618510788E+04  0.37077369889E+04 0.  0.
        2    1    3    3  502    0 -0.81247566511E+03  0.10496268329E+04 -0.16309925670E+04  0.21028480564E+04  0.25500000920E-02 0.  1.
       -2    1    3    3    0  502  0.81247566511E+03 -0.10496268329E+04  0.99521748063E+03  0.16590030224E+04  0.25500000920E-02 0. -1.
</event>
<event>
 5   0  0.4857514E-07  0.3752412E+04  0.7818609E-02  0.8056445E-01
       -2   -1    0    0    0  501  0.00000000000E+00  0.00000000000E+00  0.23351077099E+04  0.23351077099E+04  0.25500000920E-02 0. -1.
        2   -1    0    0  501    0  0.00000000000E+00  0.00000000000E+00 -0.15074892428E+04  0.15074892429E+04  0.25500000920E-02 0.  1.
    10030    2    1    2    0    0  0.00000000000E+00  0.00000000000E+00  0.82761846700E+03  0.38425969527E+04  0.37524124259E+04 0.  0.
        5    1    3    3  502    0  0.75861302429E+03  0.15875358567E+04 -0.25327927162E+03  0.17776209653E+04  0.46999998093E+01 0.  1.
       -5    1    3    3    0  502 -0.75861302429E+03 -0.15875358567E+04  0.10808977386E+04  0.20649759874E+04  0.46999998093E+01 0. -1.
</event>
<event>
 5   0  0.1496287E-07  0.3480210E+04  0.7818609E-02  0.8118496E-01
        1   -1    0    0  501    0  0.00000000000E+00  0.00000000000E+00  0.11901939140E+04  0.11901939140E+04  0.50400001928E-02 0. -1.
       -1   -1    0    0    0  501  0.00000000000E+00  0.00000000000E+00 -0.25440941899E+04  0.25440941899E+04  0.50400001928E-02 0.  1.
    10030    2    1    2    0    0  0.00000000000E+00  0.00000000000E+00 -0.13539002759E+04  0.37342881040E+04  0.34802100060E+04 0.  0.
        1    1    3    3  502    0 -0.84037372603E+03  0.12158054588E+04 -0.16624553949E+04  0.22244479884E+04  0.50400001928E-02 0.  1.
       -1    1    3    3    0  502  0.84037372603E+03 -0.12158054588E+04  0.30855511897E+03  0.15098401156E+04  0.50400001928E-02 0. -1.
</event>
<event>
 5   0  0.4793557E-07  0.3720273E+04  0.7818609E-02  0.8063484E-01
        2   -1    0    0  501    0  0.00000000000E+00  0.00000000000E+00  0.11233594865E+04  0.11233594865E+04  0.25500000920E-02 0. -1.
       -2   -1    0    0    0  501  0.00000000000E+00  0.00000000000E+00 -0.30801431582E+04  0.30801431582E+04  0.25500000920E-02 0.  1.
    10030    2    1    2    0    0  0.00000000000E+00  0.00000000000E+00 -0.19567836717E+04  0.42035026446E+04  0.37202731278E+04 0.  0.
        3    1    3    3  502    0 -0.11678322228E+04 -0.13711385305E+04 -0.45295606638E+03  0.18571543228E+04  0.10100000352E+00 0. -1.
       -3    1    3    3    0  502  0.11678322228E+04  0.13711385305E+04 -0.15038276053E+04  0.23463483218E+04  0.10100000352E+00 0.  1.
</event>
<event>
 5   0  0.1496000E-07  0.3701516E+04  0.7818609E-02  0.8067626E-01
       -1   -1    0    0    0  501  0.00000000000E+00  0.00000000000E+00  0.27580167491E+04  0.27580167491E+04  0.50400001928E-02 0. -1.
        1   -1    0    0  501    0  0.00000000000E+00  0.00000000000E+00 -0.12419449725E+04  0.12419449725E+04  0.50400001928E-02 0.  1.
    10030    2    1    2    0    0  0.00000000000E+00  0.00000000000E+00  0.15160717767E+04  0.39999617216E+04  0.37015159249E+04 0.  0.
        2    1    3    3  502    0  0.99665624389E+02  0.10481253958E+04  0.24028656277E+04  0.26234068130E+04  0.25500000920E-02 0. -1.
       -2    1    3    3    0  502 -0.99665624389E+02 -0.10481253958E+04 -0.88679385101E+03  0.13765549086E+04  0.25500000920E-02 0.  1.
</event>
<event>
 5   0  0.1522273E-07  0.3667789E+04  0.7818609E-02  0.8075138E-01
       -1   -1    0    0    0  501  0.00000000000E+00  0.00000000000E+00  0.12722367384E+04  0.12722367384E+04  0.50400001928E-02 0. -1.
        1   -1    0    0  501    0  0.00000000000E+00  0.00000000000E+00 -0.26435089233E+04  0.26435089233E+04  0.50400001928E-02 0.  1.
    10030    2    1    2    0    0  0.00000000000E+00  0.00000000000E+00 -0.13712721849E+04  0.39157456617E+04  0.36677890728E+04 0.  0.
        4    1    3    3  502    0  0.30368606269E+03  0.13670776149E+04 -0.19497624886E+04  0.24005628100E+04  0.12699999809E+01 0. -1.
       -4    1    3    3    0  502 -0.30368606269E+03 -0.13670776149E+04  0.57849030368E+03  0.15151828517E+04  0.12699999809E+01 0.  1.
</event>
<event>
 5   0  0.4687817E-07  0.3722915E+04  0.7818609E-02  0.8062902E-01
        2   -1    0    0  501    0  0.00000000000E+00  0.00000000000E+00  0.24754898263E+04  0.24754898263E+04  0.25500000920E-02 0.  1.
       -2   -1    0    0    0  501  0.00000000000E+00  0.00000000000E+00 -0.13997326636E+04  0.13997326636E+04  0.25500000920E-02 0. -1.
    10030    2    1    2    0    0  0.00000000000E+00  0.00000000000E+00  0.10757571628E+04  0.38752224899E+04  0.37229149699E+04 0.  0.
        4    1    3    3  502    0 -0.17915756937E+04  0.19275197424E+03  0.51732476930E+02  0.18026576635E+04  0.12699999809E+01 0. -1.
       -4    1    3    3    0  502  0.17915756937E+04 -0.19275197424E+03  0.10240246858E+04  0.20725648264E+04  0.12699999809E+01 0.  1.
</event>
<event>
 5   0  0.1496000E-07  0.3689735E+04  0.7818609E-02  0.8070240E-01
        1   -1    0    0  501    0  0.00000000000E+00  0.00000000000E+00  0.23719698925E+04  0.23719698925E+04  0.50400001928E-02 0. -1.
       -1   -1    0    0    0  501  0.00000000000E+00  0.00000000000E+00 -0.14348987346E+04  0.14348987346E+04  0.50400001928E-02 0.  1.
    10030    2    1    2    0    0  0.00000000000E+00  0.00000000000E+00  0.93707115789E+03  0.38068686271E+04  0.36897352735E+04 0.  0.
        5    1    3    3  502    0 -0.11817643023E+04  0.60847775344E+03  0.17884857905E+04  0.22283436798E+04  0.46999998093E+01 0. -1.
       -5    1    3    3    0  502  0.11817643023E+04 -0.60847775344E+03 -0.85141463257E+03  0.15785249473E+04  0.46999998093E+01 0.  1.
</event>
<event>
 5   0  0.4758908E-07  0.3715940E+04  0.7818609E-02  0.8064439E-01
        2   -1    0    0  501    0  0.00000000000E+00  0.00000000000E+00  0.16631082546E+04  0.16631082546E+04  0.25500000920E-02 0. -1.
       -2   -1    0    0    0  501  0.00000000000E+00  0.00000000000E+00 -0.20756627389E+04  0.20756627389E+04  0.25500000920E-02 0.  1.
    10030    2    1    2    0    0  0.00000000000E+00  0.00000000000E+00 -0.41255448431E+03  0.37387709934E+04  0.37159396307E+04 0.  0.
        2    1    3    3  502    0 -0.46258576782E+03  0.76486696066E+03 -0.18451019560E+04  0.20502215217E+04  0.25500000920E-02 0.  1.
       -2    1    3    3    0  502  0.46258576782E+03 -0.76486696066E+03  0.14325474716E+04  0.16885494718E+04  0.25500000920E-02 0. -1.
</event>
<event>
 5   0  0.1522273E-07  0.3266900E+04  0.7818609E-02  0.8171369E-01
       -1   -1    0    0    0  501  0.00000000000E+00  0.00000000000E+00  0.13284494425E+04  0.13284494425E+04  0.50400001928E-02 0. -1.
        1   -1    0    0  501    0  0.00000000000E+00  0.00000000000E+00 -0.20084757813E+04  0.20084757813E+04  0.50400001928E-02 0.  1.
    10030    2    1    2    0    0  0.00000000000E+00  0.00000000000E+00 -0.68002633878E+03  0.33369252237E+04  0.32668997731E+04 0.  0.
        4    1    3    3  502    0 -0.91486514943E+03  0.24856515603E+03  0.10186848557E+04  0.13915758429E+04  0.12699999809E+01 0. -1.
       -4    1    3    3    0  502  0.91486514943E+03 -0.24856515603E+03 -0.16987111945E+04  0.19453493808E+04  0.12699999809E+01 0.  1.
</event>
<event>
 5   0  0.1496287E-07  0.3751136E+04  0.7818609E-02  0.8056723E-01
       -1   -1    0    0    0  501  0.00000000000E+00  0.00000000000E+00  0.13498823340E+04  0.13498823340E+04  0.50400001928E-02 0. -1.
        1   -1    0    0  501    0  0.00000000000E+00  0.00000000000E+00 -0.26059714184E+04  0.26059714184E+04  0.50400001928E-02 0.  1.
    10030    2    1    2    0    0  0.00000000000E+00  0.00000000000E+00 -0.12560890845E+04  0.39558537524E+04  0.37511357110E+04 0.  0.
        1    1    3    3  502    0 -0.41284724884E+03  0.10770695572E+04  0.93159768585E+03  0.14826988670E+04  0.50400001928E-02 0. -1.
       -1    1    3    3    0  502  0.41284724884E+03 -0.10770695572E+04 -0.21876867703E+04  0.24731548854E+04  0.50400001928E-02 0.  1.
</event>
<event>
 5   0  0.4758908E-07  0.3654526E+04  0.7818609E-02  0.8078115E-01
        2   -1    0    0  501    0  0.00000000000E+00  0.00000000000E+00  0.17193767387E+04  0.17193767387E+04  0.25500000920E-02 0.  1.
       -2   -1    0    0    0  501  0.00000000000E+00  0.00000000000E+00 -0.19419187400E+04  0.19419187400E+04  0.25500000920E-02 0. -1.
    10030    2    1    2    0    0  0.00000000000E+00  0.00000000000E+00 -0.22254200133E+03  0.36612954786E+04  0.36545259117E+04 0.  0.
        2    1    3    3  502    0 -0.22624390760E+03  0.10147650589E+04  0.13941619622E+04  0.17391440444E+04  0.25500000920E-02 0.  1.
       -2    1    3    3    0  502  0.22624390760E+03 -0.10147650589E+04 -0.16167039635E+04  0.19221514342E+04  0.25500000920E-02 0. -1.
</event>
<event>
 5   0  0.4824268E-07  0.3680992E+04  0.7818609E-02  0.8072187E-01
       -2   -1    0    0    0  501  0.00000000000E+00  0.00000000000E+00  0.20837704357E+04  0.20837704357E+04  0.25500000920E-02 0.  1.
        2   -1    0    0  501    0  0.00000000000E+00  0.00000000000E+00 -0.16256235713E+04  0.16256235713E+04  0.25500000920E-02 0. -1.
    10030    2    1    2    0    0  0.00000000000E+00  0.00000000000E+00  0.45814686436E+03  0.37093940070E+04  0.36809924409E+04 0.  0.
        1    1    3    3  502    0 -0.40736224034E+03 -0.10987056270E+04 -0.12011476195E+04  0.16780505516E+04  0.50400001928E-02 0. -1.
       -1    1    3    3    0  502  0.40736224034E+03  0.10987056270E+04  0.16592944839E+04  0.20313434554E+04  0.50400001928E-02 0.  1.
</event>
<event>
 5   0  0.1496000E-07  0.3694440E+04  0.7818609E-02  0.8069195E-01
        1   -1    0    0  501    0  0.00000000000E+00  0.00000000000E+00  0.25842533111E+04  0.25842533111E+04  0.50400001928E-02 0. -1.
       -1   -1    0    0    0  501  0.00000000000E+00  0.00000000000E+00 -0.13203899530E+04  0.13203899530E+04  0.50400001928E-02 0.  1.
    10030    2    1    2    0    0  0.00000000000E+00  0.00000000000E+00  0.12638633580E+04  0.39046432641E+04  0.36944402055E+04 0.  0.
        2    1    3    3  502    0  0.53900902054E+00  0.11706618243E+04  0.21421384657E+04  0.24411486238E+04  0.25500000920E-02 0. -1.
       -2    1    3    3    0  502 -0.53900902054E+00 -0.11706618243E+04 -0.87827510770E+03  0.14634946403E+04  0.25500000920E-02 0.  1.
</event>
<event>
 5   0  0.1496000E-07  0.3760743E+04  0.7818609E-02  0.8054632E-01
        1   -1    0    0  501    0  0.00000000000E+00  0.00000000000E+00  0.17018749654E+04  0.17018749654E+04  0.50400001928E-02 0. -1.
       -1   -1    0    0    0  501  0.00000000000E+00  0.00000000000E+00 -0.20775886718E+04  0.20775886718E+04  0.50400001928E-02 0.  1.
    10030    2    1    2    0    0  0.00000000000E+00  0.00000000000E+00 -0.37571370645E+03  0.37794636372E+04  0.37607425591E+04 0.  0.
        3    1    3    3  502    0  0.13795847204E+04  0.33374294742E+03 -0.14273487683E+04  0.20129488002E+04  0.10100000352E+00 0.  1.
       -3    1    3    3    0  502 -0.13795847204E+04 -0.33374294742E+03  0.10516350619E+04  0.17665148370E+04  0.10100000352E+00 0. -1.
</event>
<event>
 5   0  0.1496287E-07  0.3714548E+04  0.7818609E-02  0.8064746E-01
        1   -1    0    0  501    0  0.00000000000E+00  0.00000000000E+00  0.18325584046E+04  0.18325584046E+04  0.50400001928E-02 0.  1.
       -1   -1    0    0    0  501  0.00000000000E+00  0.00000000000E+00 -0.18823226311E+04  0.18823226311E+04  0.50400001928E-02 0. -1.
    10030    2    1    2    0    0  0.00000000000E+00  0.00000000000E+00 -0.49764226574E+02  0.37148810357E+04  0.37145477021E+04 0.  0.
        1    1    3    3  502    0 -0.14391138690E+04  0.68504027008E+03 -0.97845457122E+03  0.18702144924E+04  0.50400001928E-02 0. -1.
       -1    1    3    3    0  502  0.14391138690E+04 -0.68504027008E+03  0.92869034464E+03  0.18446665433E+04  0.50400001928E-02 0.  1.
</event>
<event>
 5   0  0.4687817E-07  0.3691615E+04  0.7818609E-02  0.8069823E-01
        2   -1    0    0  501    0  0.00000000000E+00  0.00000000000E+00  0.20969175345E+04  0.20969175345E+04  0.25500000920E-02 0.  1.
       -2   -1    0    0    0  501  0.00000000000E+00  0.00000000000E+00 -0.16247681551E+04  0.16247681551E+04  0.25500000920E-02 0. -1.
    10030    2    1    2    0    0  0.00000000000E+00  0.00000000000E+00  0.47214937932E+03  0.37216856896E+04  0.36916147329E+04 0.  0.
        4    1    3    3  502    0 -0.14767352086E+04 -0.10898817981E+04  0.43366614041E+03  0.18859101634E+04  0.12699999809E+01 0.  1.
       -4    1    3    3    0  502  0.14767352086E+04  0.10898817981E+04  0.38483238909E+02  0.18357755262E+04  0.12699999809E+01 0. -1.
</event>
<event>
 5   0  0.1496000E-07  0.3658684E+04  0.7818609E-02  0.8077180E-01
        1   -1    0    0  501    0  0.00000000000E+00  0.00000000000E+00  0.22728011764E+04  0.22728011764E+04  0.50400001928E-02 0.  1.
       -1   -1    0    0    0  501  0.00000000000E+00  0.00000000000E+00 -0.14724087275E+04  0.14724087276E+04  0.50400001928E-02 0. -1.
    10030    2    1    2    0    0  0.00000000000E+00  0.00000000000E+00  0.80039244884E+03  0.37452099039E+04  0.36586840739E+04 0.  0.
        3    1    3    3  502    0 -0.15357565443E+04  0.91317018302E+03  0.80198916762E+03  0.19584725124E+04  0.10100000352E+00 0.  1.
       -3    1    3    3    0  502  0.15357565443E+04 -0.91317018302E+03 -0.15967187770E+01  0.17867373915E+04  0.10100000352E+00 0. -1.
</event>
<event>
 5   0  0.1496287E-07  0.3734296E+04  0.7818609E-02  0.8060404E-01
        1   -1    0    0  501    0  0.00000000000E+00  0.00000000000E+00  0.14922399572E+04  0.14922399572E+04  0.50400001928E-02 0.  1.
       -1   -1    0    0    0  501  0.00000000000E+00  0.00000000000E+00 -0.23362470658E+04  0.23362470658E+04  0.50400001928E-02 0. -1.
    10030    2    1    2    0    0  0.00000000000E+00  0.00000000000E+00 -0.84400710861E+03  0.38284870230E+04  0.37342957684E+04 0.  0.
        1    1    3    3  502    0  0.30898719763E+03  0.10704597001E+04 -0.19580892147E+04  0.22528804741E+04  0.50400001928E-02 0. -1.
       -1    1    3    3    0  502 -0.30898719763E+03 -0.10704597001E+04  0.11140821061E+04  0.15756065489E+04  0.50400001928E-02 0.  1.
</event>
<event>
 5   0  0.1496287E-07  0.3687749E+04  0.7818609E-02  0.8070682E-01
       -1   -1    0    0    0  501  0.00000000000E+00  0.00000000000E+00  0.11961570308E+04  0.11961570308E+04  0.50400001928E-02 0.  1.
        1   -1    0    0  501    0  0.00000000000E+00  0.00000000000E+00 -0.28423304908E+04  0.28423304908E+04  0.50400001928E-02 0. -1.
    10030    2    1    2    0    0  0.00000000000E+00  0.00000000000E+00 -0.16461734600E+04  0.40384875216E+04  0.36877492324E+04 0.  0.
        1    1    3    3  502    0 -0.14784044433E+04  0.10961280881E+04 -0.94648524130E+03  0.20695436201E+04  0.50400001928E-02 0.  1.
       -1    1    3    3    0  502  0.14784044433E+04 -0.10961280881E+04 -0.69968821871E+03  0.19689439014E+04  0.50400001928E-02 0. -1.
</event>
<event>
 5   0  0.4687817E-07  0.3682425E+04  0.7818609E-02  0.8071868E-01
       -2   -1    0    0    0  501  0.00000000000E+00  0.00000000000E+00  0.25803247525E+04  0.25803247525E+04  0.25500000920E-02 0.  1.
        2   -1    0    0  501    0  0.00000000000E+00  0.00000000000E+00 -0.13138123600E+04  0.13138123600E+04  0.25500000920E-02 0. -1.
    10030    2    1    2    0    0  0.00000000000E+00  0.00000000000E+00  0.12665123925E+04  0.38941371125E+04  0.36824245017E+04 0.  0.
        4    1    3    3  502    0  0.14698145129E+04  0.78886122500E+03 -0.19091282161E+03  0.16790193724E+04  0.12699999809E+01 0. -1.
       -4    1    3    3    0  502 -0.14698145129E+04 -0.78886122500E+03  0.14574252141E+04  0.22151177400E+04  0.12699999809E+01 0.  1.
</event>
<event>
 5   0  0.4793557E-07  0.3732019E+04  0.7818609E-02  0.8060903E-01
        2   -1    0    0  501    0  0.00000000000E+00  0.00000000000E+00  0.19050039098E+04  0.19050039098E+04  0.25500000920E-02 0. -1.
       -2   -1    0    0    0  501  0.00000000000E+00  0.00000000000E+00 -0.18278135058E+04  0.18278135058E+04  0.25500000920E-02 0.  1.
    10030    2    1    2    0    0  0.00000000000E+00  0.00000000000E+00  0.77190403959E+02  0.37328174156E+04  0.37320192255E+04 0.  0.
        3    1    3    3  502    0  0.42746543085E+03 -0.11087007054E+04 -0.14004786247E+04  0.18366503034E+04  0.10100000352E+00 0.  1.
       -3    1    3    3    0  502 -0.42746543085E+03  0.11087007054E+04  0.14776690286E+04  0.18961671121E+04  0.10100000352E+00 0. -1.
</event>
<event>
 5   0  0.4857514E-07  0.3683194E+04  0.7818609E-02  0.8071696E-01
        2   -1    0    0  501    0  0.00000000000E+00  0.00000000000E+00  0.13825558618E+04  0.13825558618E+04  0.25500000920E-02 0.  1.
       -2   -1    0    0    0  501  0.00000000000E+00  0.00000000000E+00 -0.24530512353E+04  0.24530512353E+04  0.25500000920E-02 0. -1.
    10030    2    1    2    0    0  0.00000000000E+00  0.00000000000E+00 -0.10704953736E+04  0.38356070971E+04  0.36831944639E+04 0.  0.
        5    1    3    3  502    0  0.63346092438E+03 -0.13610405875E+04 -0.16460420306E+04  0.22278197144E+04  0.46999998093E+01 0. -1.
       -5    1    3    3    0  502 -0.63346092438E+03  0.13610405875E+04  0.57554665706E+03  0.16077873827E+04  0.46999998093E+01 0.  1.
</event>
<event>
 5   0  0.4793557E-07  0.3612282E+04  0.7818609E-02  0.8087684E-01
       -2   -1    0    0    0  501  0.00000000000E+00  0.00000000000E+00  0.12405268302E+04  0.12405268302E+04  0.25500000920E-02 0. -1.
        2   -1    0    0  501    0  0.00000000000E+00  0.00000000000E+00 -0.26296446528E+04  0.26296446528E+04  0.25500000920E-02 0.  1.
    10030    2    1    2    0    0  0.00000000000E+00  0.00000000000E+00 -0.13891178226E+04  0.38701714830E+04  0.36122816865E+04 0.  0.
        3    1    3    3  502    0 -0.36108779479E+03  0.89444384785E+02  0.11990375435E+04  0.12554185495E+04  0.10100000352E+00 0. -1.
       -3    1    3    3    0  502  0.36108779479E+03 -0.89444384785E+02 -0.25881553661E+04  0.26147529334E+04  0.10100000352E+00 0.  1.
</event>
<event>
 5   0  0.1496000E-07  0.3673882E+04  0.7818609E-02  0.8073775E-01
       -1   -1    0    0    0  501  0.00000000000E+00  0.00000000000E+00  0.12245712416E+04  0.12245712416E+04  0.50400001928E-02 0. -1.
        1   -1    0    0  501    0  0.00000000000E+00  0.00000000000E+00 -0.27555376911E+04  0.27555376911E+04  0.50400001928E-02 0.  1.
    10030    2    1    2    0    0  0.00000000000E+00  0.00000000000E+00 -0.15309664495E+04  0.39801089327E+04  0.36738819859E+04 0.  0.
        5    1    3    3  502    0  0.15890855824E+04  0.35342257256E+03 -0.16874343485E+04  0.23446870311E+04  0.46999998093E+01 0.  1.
       -5    1    3    3    0  502 -0.15890855824E+04 -0.35342257256E+03  0.15646789900E+03  0.16354219017E+04  0.46999998093E+01 0. -1.
</event>
<event>
 5   0  0.4857514E-07  0.3686042E+04  0.7818609E-02  0.8071062E-01
       -2   -1    0    0    0  501  0.00000000000E+00  0.00000000000E+00  0.11842409902E+04  0.11842409902E+04  0.25500000920E-02 0. -1.
        2   -1    0    0  501    0  0.00000000000E+00  0.00000000000E+00 -0.28682725430E+04  0.28682725430E+04  0.25500000920E-02 0.  1.
    10030    2    1    2    0    0  0.00000000000E+00  0.00000000000E+00 -0.16840315527E+04  0.40525135332E+04  0.36860417341E+04 0.  0.
        5    1    3    3  502    0  0.16181396849E+03  0.10353220627E+04 -0.25088737608E+04  0.27189235317E+04  0.46999998093E+01 0.  1.
       -5    1    3    3    0  502 -0.16181396849E+03 -0.10353220627E+04  0.82484220802E+03  0.13335900014E+04  0.46999998093E+01 0. -1.
</event>
<event>
 5   0  0.4758908E-07  0.3728720E+04  0.7818609E-02  0.8061627E-01
       -2   -1    0    0    0  501  0.00000000000E+00  0.00000000000E+00  0.25209099152E+04  0.25209099152E+04  0.25500000920E-02 0. -1.
        2   -1    0    0  501    0  0.00000000000E+00  0.00000000000E+00 -0.13788029489E+04  0.13788029489E+04  0.25500000920E-02 0.  1.
    10030    2    1    2    0    0  0.00000000000E+00  0.00000000000E+00  0.11421069663E+04  0.38997128641E+04  0.37287199009E+04 0.  0.
        2    1    3    3  502    0 -0.13236708018E+04 -0.39806115501E+03  0.18795393024E+04  0.23330720229E+04  0.25500000920E-02 0. -1.
       -2    1    3    3    0  502  0.13236708018E+04  0.39806115501E+03 -0.73743233615E+03  0.15666408411E+04  0.25500000920E-02 0.  1.
</event>
<event>
 5   0  0.4857514E-07  0.3697236E+04  0.7818609E-02  0.8068575E-01
        2   -1    0    0  501    0  0.00000000000E+00  0.00000000000E+00  0.16673027883E+04  0.16673027883E+04  0.25500000920E-02 0. -1.
       -2   -1    0    0    0  501  0.00000000000E+00  0.00000000000E+00 -0.20496503187E+04  0.20496503187E+04  0.25500000920E-02 0.  1.
    10030    2    1    2    0    0  0.00000000000E+00  0.00000000000E+00 -0.38234753045E+03  0.37169531070E+04  0.36972355573E+04 0.  0.
        5    1    3    3  502    0  0.90328855861E+03 -0.11211325711E+04 -0.13568821015E+04  0.19783881291E+04  0.46999998093E+01 0.  1.
       -5    1    3    3    0  502 -0.90328855861E+03  0.11211325711E+04  0.97453457107E+03  0.17385649779E+04  0.46999998093E+01 0. -1.
</event>
<event>
 5   0  0.1496287E-07  0.3740774E+04  0.7818609E-02  0.8058985E-01
       -1   -1    0    0    0  501  0.00000000000E+00  0.00000000000E+00  0.24483486868E+04  0.24483486869E+04  0.50400001928E-02 0.  1.
        1   -1    0    0  501    0  0.00000000000E+00  0.00000000000E+00 -0.14288602472E+04  0.14288602472E+04  0.50400001928E-02 0. -1.
    10030    2    1    2    0    0  0.00000000000E+00  0.00000000000E+00  0.10194884397E+04  0.38772089340E+04  0.37407743102E+04 0.  0.
        1    1    3    3  502    0  0.74381390998E+03  0.16548337294E+04  0.38617331118E+02  0.18147245253E+04  0.50400001928E-02 0.  1.
       -1    1    3    3    0  502 -0.74381390998E+03 -0.16548337294E+04  0.98087110856E+03  0.20624844087E+04  0.50400001928E-02 0. -1.
</event>
<event>
 5   0  0.4758908E-07  0.3696536E+04  0.7818609E-02  0.8068730E-01
        2   -1    0    0  501    0  0.00000000000E+00  0.00000000000E+00  0.23338898765E+04  0.23338898765E+04  0.25500000920E-02 0.  1.
       -2   -1    0    0    0  501  0.00000000000E+00  0.00000000000E+00 -0.14636913587E+04  0.14636913587E+04  0.25500000920E-02 0. -1.
    10030    2    1    2    0    0  0.00000000000E+00  0.00000000000E+00  0.87019851776E+03  0.37975812352E+04  0.36965359159E+04 0.  0.
        2    1    3    3  502    0 -0.12399939921E+04 -0.13209493162E+04  0.81060711328E+03  0.19848365395E+04  0.25500000920E-02 0.  1.
       -2    1    3    3    0  502  0.12399939921E+04  0.13209493162E+04  0.59591404487E+02  0.18127446957E+04  0.25500000920E-02 0. -1.
</event>
<event>
 5   0  0.1496000E-07  0.3729142E+04  0.7818609E-02  0.8061534E-01
       -1   -1    0    0    0  501  0.00000000000E+00  0.00000000000E+00  0.11277500523E+04  0.11277500524E+04  0.50400001928E-02 0. -1.
        1   -1    0    0  501    0  0.00000000000E+00  0.00000000000E+00 -0.30827975044E+04  0.30827975044E+04  0.50400001928E-02 0.  1.
    10030    2    1    2    0    0  0.00000000000E+00  0.00000000000E+00 -0.19550474520E+04  0.42105475567E+04  0.37291420176E+04 0.  0.
        5    1    3    3  502    0  0.10706583327E+04  0.15264312086E+04 -0.95791983565E+03  0.20961712720E+04  0.46999998093E+01 0. -1.
       -5    1    3    3    0  502 -0.10706583327E+04 -0.15264312086E+04 -0.99712761637E+03  0.21143762847E+04  0.46999998093E+01 0.  1.
</event>
<event>
 5   0  0.1496000E-07  0.3395917E+04  0.7818609E-02  0.8138909E-01
       -1   -1    0    0    0  501  0.00000000000E+00  0.00000000000E+00  0.12453945743E+04  0.12453945743E+04  0.50400001928E-02 0.  1.
        1   -1    0    0  501    0  0.00000000000E+00  0.00000000000E+00 -0.23149793415E+04  0.23149793415E+04  0.50400001928E-02 0. -1.
    10030    2    1    2    0    0  0.00000000000E+00  0.00000000000E+00 -0.10695847672E+04  0.35603739159E+04  0.33959167903E+04 0.  0.
        3    1    3    3  502    0  0.14508879000E+04 -0.74402541106E+02  0.38666258201E+03  0.15033693488E+04  0.10100000352E+00 0.  1.
       -3    1    3    3    0  502 -0.14508879000E+04  0.74402541106E+02 -0.14562473492E+04  0.20570045670E+04  0.10100000352E+00 0. -1.
</event>
<event>
 5   0  0.4687817E-07  0.3637760E+04  0.7818609E-02  0.8081897E-01
       -2   -1    0    0    0  501  0.00000000000E+00  0.00000000000E+00  0.20412932792E+04  0.20412932792E+04  0.25500000920E-02 0.  1.
        2   -1    0    0  501    0  0.00000000000E+00  0.00000000000E+00 -0.16207006473E+04  0.16207006473E+04  0.25500000920E-02 0. -1.
    10030    2    1    2    0    0  0.00000000000E+00  0.00000000000E+00  0.42059263189E+03  0.36619939264E+04  0.36377604862E+04 0.  0.
        4    1    3    3  502    0  0.13213095739E+04 -0.72681282007E+03  0.12340310427E+04  0.19485764272E+04  0.12699999809E+01 0. -1.
       -4    1    3    3    0  502 -0.13213095739E+04  0.72681282007E+03 -0.81343841082E+03  0.17134174992E+04  0.12699999809E+01 0.  1.
</event>
<event>
 5   0  0.1496000E-07  0.3680416E+04  0.7818609E-02  0.8072316E-01
       -1   -1    0    0    0  501  0.00000000000E+00  0.00000000000E+00  0.13950635618E+04  0.13950635618E+04  0.50400001928E-02 0. -1.
        1   -1    0    0  501    0  0.00000000000E+00  0.00000000000E+00 -0.24273916202E+04  0.24273916202E+04  0.50400001928E-02 0.  1.
    10030    2    1    2    0    0  0.00000000000E+00  0.00000000000E+00 -0.10323280583E+04  0.38224551820E+04  0.36804160632E+04 0.  0.
        5    1    3    3  502    0 -0.95660104296E+03  0.10281664884E+04 -0.17512307000E+04  0.22447812673E+04  0.46999998093E+01 0.  1.
       -5    1    3    3    0  502  0.95660104296E+03 -0.10281664884E+04  0.71890264167E+03  0.15776739148E+04  0.46999998093E+01 0. -1.
</event>
<event>
 5   0  0.1496287E-07  0.3769683E+04  0.7818609E-02  0.8052692E-01
        1   -1    0    0  501    0  0.00000000000E+00  0.00000000000E+00  0.12974519807E+04  0.12974519807E+04  0.50400001928E-02 0.  1.
       -1   -1    0    0    0  501  0.00000000000E+00  0.00000000000E+00 -0.27381574478E+04  0.27381574478E+04  0.50400001928E-02 0. -1.
    10030    2    1    2    0    0  0.00000000000E+00  0.00000000000E+00 -0.14407054671E+04  0.40356094285E+04  0.37696831719E+04 0.  0.
        1    1    3    3  502    0  0.88418677374E+03  0.89394164668E+03  0.78287847677E+03  0.14811538164E+04  0.50400001928E-02 0.  1.
       -1    1    3    3    0  502 -0.88418677374E+03 -0.89394164668E+03 -0.22235839439E+04  0.25544556121E+04  0.50400001928E-02 0. -1.
</event>
<event>
 5   0  0.1496000E-07  0.3655085E+04  0.7818609E-02  0.8077989E-01
       -1   -1    0    0    0  501  0.00000000000E+00  0.00000000000E+00  0.13124953834E+04  0.13124953834E+04  0.50400001928E-02 0. -1.
        1   -1    0    0  501    0  0.00000000000E+00  0.00000000000E+00 -0.25447037164E+04  0.25447037164E+04  0.50400001928E-02 0.  1.
    10030    2    1    2    0    0  0.00000000000E+00  0.00000000000E+00 -0.12322083330E+04  0.38571990998E+04  0.36550851590E+04 0.  0.
        5    1    3    3  502    0 -0.16485916447E+04  0.78230050479E+03 -0.72185151929E+03  0.19623812567E+04  0.46999998093E+01 0. -1.
       -5    1    3    3    0  502  0.16485916447E+04 -0.78230050479E+03 -0.51035681375E+03  0.18948178430E+04  0.46999998093E+01 0.  1.
</event>
<event>
 5   0  0.4857514E-07  0.3680330E+04  0.7818609E-02  0.8072335E-01
       -2   -1    0    0    0  501  0.00000000000E+00  0.00000000000E+00  0.15873601011E+04  0.15873601011E+04  0.25500000920E-02 0. -1.
        2   -1    0    0  501    0  0.00000000000E+00  0.00000000000E+00 -0.21332319147E+04  0.21332319147E+04  0.25500000920E-02 0.  1.
    10030    2    1    2    0    0  0.00000000000E+00  0.00000000000E+00 -0.54587181357E+03  0.37205920157E+04  0.36803300002E+04 0.  0.
        5    1    3    3  502    0 -0.99577312692E+03 -0.14703826348E+04  0.21462215104E+03  0.17887632518E+04  0.46999998093E+01 0. -1.
       -5    1    3    3    0  502  0.99577312692E+03  0.14703826348E+04 -0.76049396461E+03  0.19318287640E+04  0.46999998093E+01 0.  1.
</event>
<event>
 5   0  0.1496287E-07  0.3689783E+04  0.7818609E-02  0.8070230E-01
       -1   -1    0    0    0  501  0.00000000000E+00  0.00000000000E+00  0.15933879770E+04  0.15933879770E+04  0.50400001928E-02 0.  1.
        1   -1    0    0  501    0  0.00000000000E+00  0.00000000000E+00 -0.21360923066E+04  0.21360923066E+04  0.50400001928E-02 0. -1.
    10030    2    1    2    0    0  0.00000000000E+00  0.00000000000E+00 -0.54270432957E+03  0.37294802836E+04  0.36897825406E+04 0.  0.
        1    1    3    3  502    0  0.10928142778E+04  0.87841141494E+03 -0.14833249782E+04  0.20411032925E+04  0.50400001928E-02 0. -1.
       -1    1    3    3    0  502 -0.10928142778E+04 -0.87841141494E+03  0.94062064858E+03  0.16883769912E+04  0.50400001928E-02 0.  1.
</event>
<event>
 5   0  0.1496000E-07  0.3972490E+04  0.7818609E-02  0.8010119E-01
       -3   -1    0    0    0  501  0.00000000000E+00  0.00000000000E+00  0.22637196324E+04  0.22637196346E+04  0.10100000352E+00 0. -1.
        3   -1    0    0  501    0  0.00000000000E+00  0.00000000000E+00 -0.17427815709E+04  0.17427815738E+04  0.10100000352E+00 0.  1.
    10030    2    1    2    0    0  0.00000000000E+00  0.00000000000E+00  0.52093806150E+03  0.40065012084E+04  0.39724898325E+04 0.  0.
        3    1    3    3  502    0  0.16500576091E+04  0.69918444467E+03  0.11243184039E+04  0.21155710540E+04  0.10100000352E+00 0. -1.
       -3    1    3    3    0  502 -0.16500576091E+04 -0.69918444467E+03 -0.60338034238E+03  0.18909301544E+04  0.10100000352E+00 0.  1.
</event>
<event>
 5   0  0.4857514E-07  0.3637322E+04  0.7818609E-02  0.8081996E-01
        2   -1    0    0  501    0  0.00000000000E+00  0.00000000000E+00  0.12790320886E+04  0.12790320886E+04  0.25500000920E-02 0. -1.
       -2   -1    0    0    0  501  0.00000000000E+00  0.00000000000E+00 -0.25859620047E+04  0.25859620047E+04  0.25500000920E-02 0.  1.
    10030    2    1    2    0    0  0.00000000000E+00  0.00000000000E+00 -0.13069299160E+04  0.38649940933E+04  0.36373223030E+04 0.  0.
        5    1    3    3  502    0 -0.87719009550E+03 -0.44750147125E+03  0.97122108704E+03  0.13831169583E+04  0.46999998093E+01 0. -1.
       -5    1    3    3    0  502  0.87719009550E+03  0.44750147125E+03 -0.22781510031E+04  0.24818771350E+04  0.46999998093E+01 0.  1.
</event>
<event>
 5   0  0.1496000E-07  0.3693225E+04  0.7818609E-02  0.8069465E-01
       -1   -1    0    0    0  501  0.00000000000E+00  0.00000000000E+00  0.25473426265E+04  0.25473426265E+04  0.50400001928E-02 0. -1.
        1   -1    0    0  501    0  0.00000000000E+00  0.00000000000E+00 -0.13386412075E+04  0.13386412075E+04  0.50400001928E-02 0.  1.
    10030    2    1    2    0    0  0.00000000000E+00  0.00000000000E+00  0.12087014189E+04  0.38859838340E+04  0.36932250457E+04 0.  0.
        5    1    3    3  502    0 -0.13424446258E+04 -0.33143116770E+03  0.18921378900E+04  0.23435469010E+04  0.46999998093E+01 0. -1.
       -5    1    3    3    0  502  0.13424446258E+04  0.33143116770E+03 -0.68343647108E+03  0.15424369330E+04  0.46999998093E+01 0.  1.
</event>
<event>
 5   0  0.4687817E-07  0.3653202E+04  0.7818609E-02  0.8078413E-01
       -2   -1    0    0    0  501  0.00000000000E+00  0.00000000000E+00  0.13396816653E+04  0.13396816653E+04  0.25500000920E-02 0.  1.
        2   -1    0    0  501    0  0.00000000000E+00  0.00000000000E+00 -0.24904954720E+04  0.24904954720E+04  0.25500000920E-02 0. -1.
    10030    2    1    2    0    0  0.00000000000E+00  0.00000000000E+00 -0.11508138067E+04  0.38301771374E+04  0.36532019498E+04 0.  0.
        4    1    3    3  502    0  0.15403888405E+03  0.52439087411E+03 -0.24027563416E+04  0.24641334008E+04  0.12699999809E+01 0. -1.
       -4    1    3    3    0  502 -0.15403888405E+03 -0.52439087411E+03  0.12519425349E+04  0.13660437366E+04  0.12699999809E+01 0.  1.
</event>
<event>
 5   0  0.1522273E-07  0.3681131E+04  0.7818609E-02  0.8072156E-01
       -1   -1    0    0    0  501  0.00000000000E+00  0.00000000000E+00  0.14979126853E+04  0.14979126853E+04  0.50400001928E-02 0.  1.
        1   -1    0    0  501    0  0.00000000000E+00  0.00000000000E+00 -0.22616009303E+04  0.22616009303E+04  0.50400001928E-02 0. -1.
    10030    2    1    2    0    0  0.00000000000E+00  0.00000000000E+00 -0.76368824504E+03  0.37595136156E+04  0.36811306538E+04 0.  0.
        4    1    3    3  502    0  0.37921780676E+03 -0.54238338006E+02 -0.22204359851E+04  0.22532388952E+04  0.12699999809E+01 0. -1.
       -4    1    3    3    0  502 -0.37921780676E+03  0.54238338006E+02  0.14567477400E+04  0.15062747204E+04  0.12699999809E+01 0.  1.
</event>
<event>
 5   0  0.1496000E-07  0.3673326E+04  0.7818609E-02  0.8073899E-01
       -1   -1    0    0    0  501  0.00000000000E+00  0.00000000000E+00  0.31434705802E+04  0.31434705802E+04  0.50400001928E-02 0.  1.
        1   -1    0    0  501    0  0.00000000000E+00  0.00000000000E+00 -0.10731229720E+04  0.10731229720E+04  0.50400001928E-02 0. -1.
    10030    2    1    2    0    0  0.00000000000E+00  0.00000000000E+00  0.20703476082E+04  0.42165935522E+04  0.36733257364E+04 0.  0.
        2    1    3    3  502    0 -0.99857593686E+03  0.15265109380E+04  0.78913576034E+03  0.19874920865E+04  0.25500000920E-02 0. -1.
       -2    1    3    3    0  502  0.99857593686E+03 -0.15265109380E+04  0.12812118479E+04  0.22291014658E+04  0.25500000920E-02 0.  1.
</event>
<event>
 5   0  0.1496000E-07  0.3685765E+04  0.7818609E-02  0.8071124E-01
        1   -1    0    0  501    0  0.00000000000E+00  0.00000000000E+00  0.21170348267E+04  0.21170348267E+04  0.50400001928E-02 0.  1.
       -1   -1    0    0    0  501  0.00000000000E+00  0.00000000000E+00 -0.16042326026E+04  0.16042326026E+04  0.50400001928E-02 0. -1.
    10030    2    1    2    0    0  0.00000000000E+00  0.00000000000E+00  0.51280222402E+03  0.37212674293E+04  0.36857652068E+04 0.  0.
        3    1    3    3  502    0 -0.15753856995E+04  0.50575708179E+03 -0.56294886717E+03  0.17477247395E+04  0.10100000352E+00 0. -1.
       -3    1    3    3    0  502  0.15753856995E+04 -0.50575708179E+03  0.10757510912E+04  0.19735426898E+04  0.10100000352E+00 0.  1.
</event>
<event>
 5   0  0.4793557E-07  0.3731490E+04  0.7818609E-02  0.8061019E-01
       -2   -1    0    0    0  501  0.00000000000E+00  0.00000000000E+00  0.16087665612E+04  0.16087665612E+04  0.25500000920E-02 0. -1.
        2   -1    0    0  501    0  0.00000000000E+00  0.00000000000E+00 -0.21637726746E+04  0.21637726746E+04  0.25500000920E-02 0.  1.
    10030    2    1    2    0    0  0.00000000000E+00  0.00000000000E+00 -0.55500611338E+03  0.37725392358E+04  0.37314903859E+04 0.  0.
        3    1    3    3  502    0  0.94193339924E+03 -0.12036081454E+04 -0.13593654172E+04  0.20454303811E+04  0.10100000352E+00 0.  1.
       -3    1    3    3    0  502 -0.94193339924E+03  0.12036081454E+04  0.80435930379E+03  0.17271088547E+04  0.10100000352E+00 0. -1.
</event>
<event>
 5   0  0.1496000E-07  0.3665900E+04  0.7818609E-02  0.8075561E-01
        1   -1    0    0  501    0  0.00000000000E+00  0.00000000000E+00  0.27950153762E+04  0.27950153762E+04  0.50400001928E-02 0. -1.
       -1   -1    0    0    0  501  0.00000000000E+00  0.00000000000E+00 -0.12020346596E+04  0.12020346596E+04  0.50400001928E-02 0.  1.
    10030    2    1    2    0    0  0.00000000000E+00  0.00000000000E+00  0.15929807166E+04  0.39970500358E+04  0.36658998111E+04 0.  0.
        2    1    3    3  502    0  0.31928624187E+03  0.15981098759E+04  0.17112049832E+04  0.23630745596E+04  0.25500000920E-02 0. -1.
       -2    1    3    3    0  502 -0.31928624187E+03 -0.15981098759E+04 -0.11822426660E+03  0.16339754762E+04  0.25500000920E-02 0.  1.
</event>
<event>
 5   0  0.1522273E-07  0.3758842E+04  0.7818609E-02  0.8055045E-01
       -1   -1    0    0    0  501  0.00000000000E+00  0.00000000000E+00  0.20071633971E+04  0.20071633971E+04  0.50400001928E-02 0. -1.
        1   -1    0    0  501    0  0.00000000000E+00  0.00000000000E+00 -0.17598087249E+04  0.17598087249E+04  0.50400001928E-02 0.  1.
    10030    2    1    2    0    0  0.00000000000E+00  0.00000000000E+00  0.24735467219E+03  0.37669721220E+04  0.37588421933E+04 0.  0.
        4    1    3    3  502    0 -0.61380207031E+03  0.12567653288E+04  0.13817849584E+04  0.19660985116E+04  0.12699999809E+01 0. -1.
       -4    1    3    3    0  502  0.61380207031E+03 -0.12567653288E+04 -0.11344302862E+04  0.18008736103E+04  0.12699999809E+01 0.  1.
</event>
<event>
 5   0  0.4857514E-07  0.3705264E+04  0.7818609E-02  0.8066796E-01
       -2   -1    0    0    0  501  0.00000000000E+00  0.00000000000E+00  0.14105637211E+04  0.14105637211E+04  0.25500000920E-02 0. -1.
        2   -1    0    0  501    0  0.00000000000E+00  0.00000000000E+00 -0.24332442893E+04  0.24332442893E+04  0.25500000920E-02 0.  1.
    10030    2    1    2    0    0  0.00000000000E+00  0.00000000000E+00 -0.10226805682E+04  0.38438080104E+04  0.37052644273E+04 0.  0.
        5    1    3    3  502    0 -0.57948038123E+03  0.31273035351E+03 -0.23077427778E+04  0.23998534548E+04  0.46999998093E+01 0.  1.
       -5    1    3    3    0  502  0.57948038123E+03 -0.31273035351E+03  0.12850622096E+04  0.14439545556E+04  0.46999998093E+01 0. -1.
</event>
<event>
 5   0  0.4687817E-07  0.3718789E+04  0.7818609E-02  0.8063811E-01
        2   -1    0    0  501    0  0.00000000000E+00  0.00000000000E+00  0.14398872386E+04  0.14398872386E+04  0.25500000920E-02 0.  1.
       -2   -1    0    0    0  501  0.00000000000E+00  0.00000000000E+00 -0.24011236049E+04  0.24011236049E+04  0.25500000920E-02 0. -1.
    10030    2    1    2    0    0  0.00000000000E+00  0.00000000000E+00 -0.96123636633E+03  0.38410108434E+04  0.37187886398E+04 0.  0.
        4    1    3    3  502    0  0.11401450273E+03 -0.15961119049E+04  0.49748646967E+03  0.16757287729E+04  0.12699999809E+01 0.  1.
       -4    1    3    3    0  502 -0.11401450273E+03  0.15961119049E+04 -0.14587228360E+04  0.21652820706E+04  0.12699999809E+01 0. -1.
</event>
<event>
 5   0  0.1496000E-07  0.3427429E+04  0.7818609E-02  0.8131207E-01
        1   -1    0    0  501    0  0.00000000000E+00  0.00000000000E+00  0.20457914700E+04  0.20457914700E+04  0.50400001928E-02 0.  1.
       -1   -1    0    0    0  501  0.00000000000E+00  0.00000000000E+00 -0.14355411247E+04  0.14355411247E+04  0.50400001928E-02 0. -1.
    10030    2    1    2    0    0  0.00000000000E+00  0.00000000000E+00  0.61025034522E+03  0.34813325947E+04  0.34274292336E+04 0.  0.
        2    1    3    3  502    0  0.11613656361E+04  0.11697292706E+04 -0.17105594702E+03  0.16571954755E+04  0.25500000920E-02 0.  1.
       -2    1    3    3    0  502 -0.11613656361E+04 -0.11697292706E+04  0.78130629224E+03  0.18241371192E+04  0.25500000920E-02 0. -1.
</event>
<event>
 5   0  0.1496000E-07  0.3633364E+04  0.7818609E-02  0.8082892E-01
       -1   -1    0    0    0  501  0.00000000000E+00  0.00000000000E+00  0.19688143123E+04  0.19688143123E+04  0.50400001928E-02 0.  1.
        1   -1    0    0  501    0  0.00000000000E+00  0.00000000000E+00 -0.16763048556E+04  0.16763048557E+04  0.50400001928E-02 0. -1.
    10030    2    1    2    0    0  0.00000000000E+00  0.00000000000E+00  0.29250945669E+03  0.36451191680E+04  0.36333637262E+04 0.  0.
        3    1    3    3  502    0  0.10324728555E+04 -0.11003761195E+04  0.11612122757E+04  0.19040067650E+04  0.10100000352E+00 0.  1.
       -3    1    3    3    0  502 -0.10324728555E+04  0.11003761195E+04 -0.86870281900E+03  0.17411124030E+04  0.10100000352E+00 0. -1.
</event>
<event>
 5   0  0.1496000E-07  0.3667160E+04  0.7818609E-02  0.8075279E-01
        1   -1    0    0  501    0  0.00000000000E+00  0.00000000000E+00  0.23971755031E+04  0.23971755031E+04  0.50400001928E-02 0.  1.
       -1   -1    0    0    0  501  0.00000000000E+00  0.00000000000E+00 -0.14024902750E+04  0.14024902750E+04  0.50400001928E-02 0. -1.
    10030    2    1    2    0    0  0.00000000000E+00  0.00000000000E+00  0.99468522808E+03  0.37996657780E+04  0.36671598441E+04 0.  0.
        5    1    3    3  502    0  0.11004440259E+04 -0.64657059664E+03 -0.86664415709E+03  0.15427653016E+04  0.46999998093E+01 0. -1.
       -5    1    3    3    0  502 -0.11004440259E+04  0.64657059664E+03  0.18613293852E+04  0.22569004765E+04  0.46999998093E+01 0.  1.
</event>
<event>
 5   0  0.4758908E-07  0.3696998E+04  0.7818609E-02  0.8068627E-01
        2   -1    0    0  501    0  0.00000000000E+00  0.00000000000E+00  0.13698744358E+04  0.13698744358E+04  0.25500000920E-02 0.  1.
       -2   -1    0    0    0  501  0.00000000000E+00  0.00000000000E+00 -0.24943517963E+04  0.24943517963E+04  0.25500000920E-02 0. -1.
    10030    2    1    2    0    0  0.00000000000E+00  0.00000000000E+00 -0.11244773605E+04  0.38642262321E+04  0.36969981118E+04 0.  0.
        2    1    3    3  502    0  0.18445001338E+04  0.53309717514E+02 -0.44809224275E+03  0.18988968712E+04  0.25500000920E-02 0.  1.
       -2    1    3    3    0  502 -0.18445001338E+04 -0.53309717514E+02 -0.67638511774E+03  0.19653293609E+04  0.25500000920E-02 0. -1.
</event>
<event>
 5   0  0.1496287E-07  0.3561399E+04  0.7818609E-02  0.8099391E-01
       -1   -1    0    0    0  501  0.00000000000E+00  0.00000000000E+00  0.27868880151E+04  0.27868880151E+04  0.50400001928E-02 0.  1.
        1   -1    0    0  501    0  0.00000000000E+00  0.00000000000E+00 -0.11377893522E+04  0.11377893522E+04  0.50400001928E-02 0. -1.
    10030    2    1    2    0    0  0.00000000000E+00  0.00000000000E+00  0.16490986629E+04  0.39246773673E+04  0.35613994493E+04 0.  0.
        1    1    3    3  502    0 -0.49889865707E+03  0.26931537670E+03 -0.10356720084E+04  0.11806977392E+04  0.50400001928E-02 0. -1.
       -1    1    3    3    0  502  0.49889865707E+03 -0.26931537670E+03  0.26847706714E+04  0.27439796282E+04  0.50400001928E-02 0.  1.
</event>
<event>
 5   0  0.4857514E-07  0.3710822E+04  0.7818609E-02  0.8065568E-01
       -2   -1    0    0    0  501  0.00000000000E+00  0.00000000000E+00  0.14315577935E+04  0.14315577935E+04  0.25500000920E-02 0. -1.
        2   -1    0    0  501    0  0.00000000000E+00  0.00000000000E+00 -0.24047574584E+04  0.24047574584E+04  0.25500000920E-02 0.  1.
    10030    2    1    2    0    0  0.00000000000E+00  0.00000000000E+00 -0.97319966490E+03  0.38363152519E+04  0.37108216239E+04 0.  0.
        5    1    3    3  502    0 -0.34985724004E+03 -0.56311242789E+03 -0.22781301142E+04  0.23726345277E+04  0.46999998093E+01 0.  1.
       -5    1    3    3    0  502  0.34985724004E+03  0.56311242789E+03  0.13049304493E+04  0.14636807242E+04  0.46999998093E+01 0. -1.
</event>
<event>
 5   0  0.1496000E-07  0.3701882E+04  0.7818609E-02  0.8067545E-01
        1   -1    0    0  501    0  0.00000000000E+00  0.00000000000E+00  0.22916123803E+04  0.22916123803E+04  0.50400001928E-02 0.  1.
       -1   -1    0    0    0  501  0.00000000000E+00  0.00000000000E+00 -0.14950095095E+04  0.14950095095E+04  0.50400001928E-02 0. -1.
    10030    2    1    2    0    0  0.00000000000E+00  0.00000000000E+00  0.79660287078E+03  0.37866218898E+04  0.37018818461E+04 0.  0.
        3    1    3    3  502    0 -0.46502060755E+03  0.17898017385E+04  0.31680415476E+03  0.18761661204E+04  0.10100000352E+00 0.  1.
       -3    1    3    3    0  502  0.46502060755E+03 -0.17898017385E+04  0.47979871602E+03  0.19104557694E+04  0.10100000352E+00 0. -1.
</event>
<event>
 5   0  0.4758908E-07  0.3699339E+04  0.7818609E-02  0.8068108E-01
        2   -1    0    0  501    0  0.00000000000E+00  0.00000000000E+00  0.21589873950E+04  0.21589873950E+04  0.25500000920E-02 0. -1.
       -2   -1    0    0    0  501  0.00000000000E+00  0.00000000000E+00 -0.15846671858E+04  0.15846671858E+04  0.25500000920E-02 0.  1.
    10030    2    1    2    0    0  0.00000000000E+00  0.00000000000E+00  0.57432020918E+03  0.37436545808E+04  0.36993385784E+04 0.  0.
        2    1    3    3  502    0  0.13740527874E+04 -0.12122704652E+04  0.54248341228E+03  0.19109968592E+04  0.25500000920E-02 0. -1.
       -2    1    3    3    0  502 -0.13740527874E+04  0.12122704652E+04  0.31836796905E+02  0.18326577217E+04  0.25500000920E-02 0.  1.
</event>
<event>
 5   0  0.4857514E-07  0.3680602E+04  0.7818609E-02  0.8072274E-01
        2   -1    0    0  501    0  0.00000000000E+00  0.00000000000E+00  0.26457046816E+04  0.26457046816E+04  0.25500000920E-02 0.  1.
       -2   -1    0    0    0  501  0.00000000000E+00  0.00000000000E+00 -0.12800779865E+04  0.12800779865E+04  0.25500000920E-02 0. -1.
    10030    2    1    2    0    0  0.00000000000E+00  0.00000000000E+00  0.13656266951E+04  0.39257826681E+04  0.36806022995E+04 0.  0.
        5    1    3    3  502    0  0.98389511333E+03 -0.15544976824E+04  0.73254083054E+03  0.19801895861E+04  0.46999998093E+01 0.  1.
       -5    1    3    3    0  502 -0.98389511333E+03  0.15544976824E+04  0.63308586461E+03  0.19455930820E+04  0.46999998093E+01 0. -1.
</event>
<event>
 5   0  0.1496287E-07  0.3700301E+04  0.7818609E-02  0.8067895E-01
       -1   -1    0    0    0  501  0.00000000000E+00  0.00000000000E+00  0.21819386792E+04  0.21819386792E+04  0.50400001928E-02 0. -1.
        1   -1    0    0  501    0  0.00000000000E+00  0.00000000000E+00 -0.15688143978E+04  0.15688143978E+04  0.50400001928E-02 0.  1.
    10030    2    1    2    0    0  0.00000000000E+00  0.00000000000E+00  0.61312428143E+03  0.37507530770E+04  0.37003009688E+04 0.  0.
        1    1    3    3  502    0 -0.11041979698E+04  0.42017733044E+03 -0.11366679645E+04  0.16394560705E+04  0.50400001928E-02 0.  1.
       -1    1    3    3    0  502  0.11041979698E+04 -0.42017733044E+03  0.17497922459E+04  0.21112970065E+04  0.50400001928E-02 0. -1.
</event>
<event>
 5   0  0.1522273E-07  0.3792756E+04  0.7818609E-02  0.8047711E-01
        1   -1    0    0  501    0  0.00000000000E+00  0.00000000000E+00  0.14830073226E+04  0.14830073226E+04  0.50400001928E-02 0.  1.
       -1   -1    0    0    0  501  0.00000000000E+00  0.00000000000E+00 -0.24249708338E+04  0.24249708339E+04  0.50400001928E-02 0. -1.
    10030    2    1    2    0    0  0.00000000000E+00  0.00000000000E+00 -0.94196351127E+03  0.39079781564E+04  0.37927559920E+04 0.  0.
        4    1    3    3  502    0 -0.87946876177E+03  0.92209118460E+02  0.12575640066E+04  0.15373472828E+04  0.12699999809E+01 0.  1.
       -4    1    3    3    0  502  0.87946876177E+03 -0.92209118460E+02 -0.21995275178E+04  0.23706308736E+04  0.12699999809E+01 0. -1.
</event>
<event>
 5   0  0.4793557E-07  0.3720696E+04  0.7818609E-02  0.8063391E-01
        2   -1    0    0  501    0  0.00000000000E+00  0.00000000000E+00  0.17620618580E+04  0.17620618580E+04  0.25500000920E-02 0. -1.
       -2   -1    0    0    0  501  0.00000000000E+00  0.00000000000E+00 -0.19641162922E+04  0.19641162922E+04  0.25500000920E-02 0.  1.
    10030    2    1    2    0    0  0.00000000000E+00  0.00000000000E+00 -0.20205443419E+03  0.37261781502E+04  0.37206958506E+04 0.  0.
        3    1    3    3  502    0 -0.16487491669E+04  0.86077700897E+03 -0.14087929970E+03  0.18652500802E+04  0.10100000352E+00 0.  1.
       -3    1    3    3    0  502  0.16487491669E+04 -0.86077700897E+03 -0.61175134490E+02  0.18609280700E+04  0.10100000352E+00 0. -1.
</event>
<event>
 5   0  0.1496000E-07  0.3678806E+04  0.7818609E-02  0.8072675E-01
        1   -1    0    0  501    0  0.00000000000E+00  0.00000000000E+00  0.15996379956E+04  0.15996379957E+04  0.50400001928E-02 0. -1.
       -1   -1    0    0    0  501  0.00000000000E+00  0.00000000000E+00 -0.21151051053E+04  0.21151051053E+04  0.50400001928E-02 0.  1.
    10030    2    1    2    0    0  0.00000000000E+00  0.00000000000E+00 -0.51546710963E+03  0.37147431009E+04  0.36788055079E+04 0.  0.
        5    1    3    3  502    0 -0.10875922937E+04  0.12872547441E+04 -0.10021589543E+04  0.19606698940E+04  0.46999998093E+01 0.  1.
       -5    1    3    3    0  502  0.10875922937E+04 -0.12872547441E+04  0.48669184467E+03  0.17540732069E+04  0.46999998093E+01 0. -1.
</event>
<event>
 5   0  0.4824268E-07  0.3770915E+04  0.7818609E-02  0.8052425E-01
       -2   -1    0    0    0  501  0.00000000000E+00  0.00000000000E+00  0.20942576830E+04  0.20942576830E+04  0.25500000920E-02 0. -1.
        2   -1    0    0  501    0  0.00000000000E+00  0.00000000000E+00 -0.16974751376E+04  0.16974751376E+04  0.25500000920E-02 0.  1.
    10030    2    1    2    0    0  0.00000000000E+00  0.00000000000E+00  0.39678254538E+03  0.37917328207E+04  0.37709151933E+04 0.  0.
        1    1    3    3  502    0 -0.46411865741E+03  0.62230243236E+03  0.19260979897E+04  0.20766607598E+04  0.50400001928E-02 0. -1.
       -1    1    3    3    0  502  0.46411865741E+03 -0.62230243236E+03 -0.15293154443E+04  0.17150720608E+04  0.50400001928E-02 0.  1.
</event>
<event>
 5   0  0.1496287E-07  0.3710657E+04  0.7818609E-02  0.8065604E-01
        1   -1    0    0  501    0  0.00000000000E+00  0.00000000000E+00  0.18225128371E+04  0.18225128371E+04  0.50400001928E-02 0. -1.
       -1   -1    0    0    0  501  0.00000000000E+00  0.00000000000E+00 -0.18887351002E+04  0.18887351002E+04  0.50400001928E-02 0.  1.
    10030    2    1    2    0    0  0.00000000000E+00  0.00000000000E+00 -0.66222263122E+02  0.37112479373E+04  0.37106570663E+04 0.  0.
        1    1    3    3  502    0  0.48011248908E+03  0.40350187826E+03 -0.17795054951E+04  0.18867860438E+04  0.50400001928E-02 0.  1.
       -1    1    3    3    0  502 -0.48011248908E+03 -0.40350187826E+03  0.17132832320E+04  0.18244618935E+04  0.50400001928E-02 0. -1.
</event>
<event>
 5   0  0.4758908E-07  0.3702509E+04  0.7818609E-02  0.8067406E-01
        2   -1    0    0  501    0  0.00000000000E+00  0.00000000000E+00  0.15429912695E+04  0.15429912695E+04  0.25500000920E-02 0.  1.
       -2   -1    0    0    0  501  0.00000000000E+00  0.00000000000E+00 -0.22211030001E+04  0.22211030001E+04  0.25500000920E-02 0. -1.
    10030    2    1    2    0    0  0.00000000000E+00  0.00000000000E+00 -0.67811173051E+03  0.37640942696E+04  0.37025086295E+04 0.  0.
        2    1    3    3  502    0  0.13952304185E+04  0.12954506063E+03 -0.15690112685E+04  0.21036269166E+04  0.25500000920E-02 0. -1.
       -2    1    3    3    0  502 -0.13952304185E+04 -0.12954506063E+03  0.89089953801E+03  0.16604673530E+04  0.25500000920E-02 0.  1.
</event>
<event>
 5   0  0.1496000E-07  0.3714894E+04  0.7818609E-02  0.8064669E-01
       -1   -1    0    0    0  501  0.00000000000E+00  0.00000000000E+00  0.18897365096E+04  0.18897365096E+04  0.50400001928E-02 0.  1.
        1   -1    0    0  501    0  0.00000000000E+00  0.00000000000E+00 -0.18257091359E+04  0.18257091359E+04  0.50400001928E-02 0. -1.
    10030    2    1    2    0    0  0.00000000000E+00  0.00000000000E+00  0.64027373743E+02  0.37154456455E+04  0.37148939204E+04 0.  0.
        3    1    3    3  502    0 -0.60646799564E+03 -0.11564869998E+04  0.13531351445E+04  0.18804893884E+04  0.10100000352E+00 0.  1.
       -3    1    3    3    0  502  0.60646799564E+03  0.11564869998E+04 -0.12891077708E+04  0.18349562571E+04  0.10100000352E+00 0. -1.
</event>
<event>
 5   0  0.4687817E-07  0.3656848E+04  0.7818609E-02  0.8077593E-01
        2   -1    0    0  501    0  0.00000000000E+00  0.00000000000E+00  0.23871690976E+04  0.23871690976E+04  0.25500000920E-02 0.  1.
       -2   -1    0    0    0  501  0.00000000000E+00  0.00000000000E+00 -0.14004595987E+04  0.14004595987E+04  0.25500000920E-02 0. -1.
    10030    2    1    2    0    0  0.00000000000E+00  0.00000000000E+00  0.98670949886E+03  0.37876286963E+04  0.36568477554E+04 0.  0.
        4    1    3    3  502    0 -0.11635803569E+04 -0.72567767804E+03 -0.75927878491E+03  0.15674926556E+04  0.12699999809E+01 0. -1.
       -4    1    3    3    0  502  0.11635803569E+04  0.72567767804E+03  0.17459882838E+04  0.22201360407E+04  0.12699999809E+01 0.  1.
</event>
<event>
 5   0  0.4824268E-07  0.3234501E+04  0.7818609E-02  0.8179764E-01
       -2   -1    0    0    0  501  0.00000000000E+00  0.00000000000E+00  0.10885473193E+04  0.10885473193E+04  0.25500000920E-02 0.  1.
        2   -1    0    0  501    0  0.00000000000E+00  0.00000000000E+00 -0.24027430068E+04  0.24027430068E+04  0.25500000920E-02 0. -1.
    10030    2    1    2    0    0  0.00000000000E+00  0.00000000000E+00 -0.13141956875E+04  0.34912903261E+04  0.32345011727E+04 0.  0.
        1    1    3    3  502    0 -0.42801838488E+03  0.72953882349E+03  0.83076800551E+03  0.11855809174E+04  0.50400001928E-02 0.  1.
       -1    1    3    3    0  502  0.42801838488E+03 -0.72953882349E+03 -0.21449636931E+04  0.23057094087E+04  0.50400001928E-02 0. -1.
</event>
<event>
 5   0  0.1496000E-07  0.3711267E+04  0.7818609E-02  0.8065470E-01
        1   -1    0    0  501    0  0.00000000000E+00  0.00000000000E+00  0.22646092830E+04  0.22646092830E+04  0.50400001928E-02 0. -1.
       -1   -1    0    0    0  501  0.00000000000E+00  0.00000000000E+00 -0.15205161039E+04  0.15205161039E+04  0.50400001928E-02 0.  1.
    10030    2    1    2    0    0  0.00000000000E+00  0.00000000000E+00  0.74409317910E+03  0.37851253870E+04  0.37112665676E+04 0.  0.
        3    1    3    3  502    0 -0.35383997084E+03  0.16746203040E+04 -0.35903053544E+03  0.17488449969E+04  0.10100000352E+00 0.  1.
       -3    1    3    3    0  502  0.35383997084E+03 -0.16746203040E+04  0.11031237145E+04  0.20362803901E+04  0.10100000352E+00 0. -1.
</event>
<event>
 5   0  0.1496000E-07  0.3752277E+04  0.7818609E-02  0.8056474E-01
       -1   -1    0    0    0  501  0.00000000000E+00  0.00000000000E+00  0.21217865725E+04  0.21217865725E+04  0.50400001928E-02 0.  1.
        1   -1    0    0  501    0  0.00000000000E+00  0.00000000000E+00 -0.16589302463E+04  0.16589302464E+04  0.50400001928E-02 0. -1.
    10030    2    1    2    0    0  0.00000000000E+00  0.00000000000E+00  0.46285632613E+03  0.37807168188E+04  0.37522771334E+04 0.  0.
        5    1    3    3  502    0  0.15376156779E+04  0.10314683575E+04 -0.73661938236E+02  0.18530075868E+04  0.46999998093E+01 0.  1.
       -5    1    3    3    0  502 -0.15376156779E+04 -0.10314683575E+04  0.53651826437E+03  0.19277092321E+04  0.46999998093E+01 0. -1.
</event>
<event>
 5   0  0.1496000E-07  0.3697252E+04  0.7818609E-02  0.8068571E-01
        1   -1    0    0  501    0  0.00000000000E+00  0.00000000000E+00  0.23095036434E+04  0.23095036434E+04  0.50400001928E-02 0. -1.
       -1   -1    0    0    0  501  0.00000000000E+00  0.00000000000E+00 -0.14797194394E+04  0.14797194394E+04  0.50400001928E-02 0.  1.
    10030    2    1    2    0    0  0.00000000000E+00  0.00000000000E+00  0.82978420404E+03  0.37892230829E+04  0.36972516477E+04 0.  0.
        3    1    3    3  502    0 -0.10553095261E+04  0.37492195211E+03 -0.10924671322E+04  0.15645220072E+04  0.10100000352E+00 0.  1.
       -3    1    3    3    0  502  0.10553095261E+04 -0.37492195211E+03  0.19222513363E+04  0.22247010756E+04  0.10100000352E+00 0. -1.
</event>
<event>
 5   0  0.1496000E-07  0.3708471E+04  0.7818609E-02  0.8066087E-01
        3   -1    0    0  501    0  0.00000000000E+00  0.00000000000E+00  0.25735381981E+04  0.25735382001E+04  0.10100000352E+00 0.  1.
       -3   -1    0    0    0  501  0.00000000000E+00  0.00000000000E+00 -0.13359773827E+04  0.13359773866E+04  0.10100000352E+00 0. -1.
    10030    2    1    2    0    0  0.00000000000E+00  0.00000000000E+00  0.12375608154E+04  0.39095155867E+04  0.37084707564E+04 0.  0.
        3    1    3    3  502    0 -0.13910464172E+04 -0.80185881223E+03 -0.35897020476E+03  0.16452499225E+04  0.10100000352E+00 0. -1.
       -3    1    3    3    0  502  0.13910464172E+04  0.80185881223E+03  0.15965310202E+04  0.22642656642E+04  0.10100000352E+00 0.  1.
</event>
<event>
 5   0  0.4758908E-07  0.3670606E+04  0.7818609E-02  0.8074507E-01
       -2   -1    0    0    0  501  0.00000000000E+00  0.00000000000E+00  0.15808034506E+04  0.15808034506E+04  0.25500000920E-02 0.  1.
        2   -1    0    0  501    0  0.00000000000E+00  0.00000000000E+00 -0.21307758631E+04  0.21307758631E+04  0.25500000920E-02 0. -1.
    10030    2    1    2    0    0  0.00000000000E+00  0.00000000000E+00 -0.54997241248E+03  0.37115793137E+04  0.36706064005E+04 0.  0.
        2    1    3    3  502    0  0.34926713945E+03 -0.17851063282E+04 -0.52214396727E+03  0.18924128672E+04  0.25500000920E-02 0.  1.
       -2    1    3    3    0  502 -0.34926713945E+03  0.17851063282E+04 -0.27828445214E+02  0.18191664465E+04  0.25500000920E-02 0. -1.
</event>
<event>
 5   0  0.1496000E-07  0.3614834E+04  0.7818609E-02  0.8087102E-01
       -1   -1    0    0    0  501  0.00000000000E+00  0.00000000000E+00  0.12030688741E+04  0.12030688741E+04  0.50400001928E-02 0. -1.
        1   -1    0    0  501    0  0.00000000000E+00  0.00000000000E+00 -0.27153520008E+04  0.27153520008E+04  0.50400001928E-02 0.  1.
    10030    2    1    2    0    0  0.00000000000E+00  0.00000000000E+00 -0.15122831267E+04  0.39184208749E+04  0.36148335920E+04 0.  0.
        3    1    3    3  502    0  0.21958605320E+03  0.92676630449E+03  0.90897943765E+03  0.13165703347E+04  0.10100000352E+00 0. -1.
       -3    1    3    3    0  502 -0.21958605320E+03 -0.92676630449E+03 -0.24212625644E+04  0.26018505402E+04  0.10100000352E+00 0.  1.
</event>
<event>
 5   0  0.4824268E-07  0.3678969E+04  0.7818609E-02  0.8072639E-01
        2   -1    0    0  501    0  0.00000000000E+00  0.00000000000E+00  0.30961883924E+04  0.30961883924E+04  0.25500000920E-02 0. -1.
       -2   -1    0    0    0  501  0.00000000000E+00  0.00000000000E+00 -0.10928608343E+04  0.10928608343E+04  0.25500000920E-02 0.  1.
    10030    2    1    2    0    0  0.00000000000E+00  0.00000000000E+00  0.20033275582E+04  0.41890492267E+04  0.36789688933E+04 0.  0.
        1    1    3    3  502    0  0.17647166821E+04  0.51711242215E+03  0.10535041984E+04  0.21193162391E+04  0.50400001928E-02 0. -1.
       -1    1    3    3    0  502 -0.17647166821E+04 -0.51711242215E+03  0.94982335975E+03  0.20697329876E+04  0.50400001928E-02 0.  1.
</event>
<event>
 5   0  0.4687817E-07  0.3692969E+04  0.7818609E-02  0.8069522E-01
        2   -1    0    0  501    0  0.00000000000E+00  0.00000000000E+00  0.19276085893E+04  0.19276085893E+04  0.25500000920E-02 0.  1.
       -2   -1    0    0    0  501  0.00000000000E+00  0.00000000000E+00 -0.17687747253E+04  0.17687747253E+04  0.25500000920E-02 0. -1.
    10030    2    1    2    0    0  0.00000000000E+00  0.00000000000E+00  0.15883386402E+03  0.36963833146E+04  0.36929691865E+04 0.  0.
        4    1    3    3  502    0  0.62038368010E+03 -0.11048143062E+04  0.14237942300E+04  0.19059596491E+04  0.12699999809E+01 0.  1.
       -4    1    3    3    0  502 -0.62038368010E+03  0.11048143062E+04 -0.12649603660E+04  0.17904236655E+04  0.12699999809E+01 0. -1.
</event>
<event>
 5   0  0.1496000E-07  0.3455444E+04  0.7818609E-02  0.8124431E-01
        1   -1    0    0  501    0  0.00000000000E+00  0.00000000000E+00  0.20586483587E+04  0.20586483587E+04  0.50400001928E-02 0.  1.
       -1   -1    0    0    0  501  0.00000000000E+00  0.00000000000E+00 -0.14499921390E+04  0.14499921390E+04  0.50400001928E-02 0. -1.
    10030    2    1    2    0    0  0.00000000000E+00  0.00000000000E+00  0.60865621970E+03  0.35086404977E+04  0.34554443633E+04 0.  0.
        5    1    3    3  502    0 -0.22208736885E+03 -0.10557685669E+04 -0.10659027039E+04  0.15166214855E+04  0.46999998093E+01 0. -1.
       -5    1    3    3    0  502  0.22208736885E+03  0.10557685669E+04  0.16745589236E+04  0.19920190121E+04  0.46999998093E+01 0.  1.
</event>
<event>
 5   0  0.4793557E-07  0.3060754E+04  0.7818609E-02  0.8226592E-01
       -2   -1    0    0    0  501  0.00000000000E+00  0.00000000000E+00  0.11432098068E+04  0.11432098068E+04  0.25500000920E-02 0.  1.
        2   -1    0    0  501    0  0.00000000000E+00  0.00000000000E+00 -0.20486648055E+04  0.20486648055E+04  0.25500000920E-02 0. -1.
    10030    2    1    2    0    0  0.00000000000E+00  0.00000000000E+00 -0.90545499871E+03  0.31918746123E+04  0.30607539571E+04 0.  0.
        3    1    3    3  502    0 -0.68024758256E+03  0.11013468976E+04  0.39854622927E+03  0.13544522397E+04  0.10100000352E+00 0.  1.
       -3    1    3    3    0  502  0.68024758256E+03 -0.11013468976E+04 -0.13040012280E+04  0.18374223726E+04  0.10100000352E+00 0. -1.
</event>
<event>
 5   0  0.4793557E-07  0.3719006E+04  0.7818609E-02  0.8063763E-01
       -2   -1    0    0    0  501  0.00000000000E+00  0.00000000000E+00  0.14941877095E+04  0.14941877095E+04  0.25500000920E-02 0.  1.
        2   -1    0    0  501    0  0.00000000000E+00  0.00000000000E+00 -0.23141349473E+04  0.23141349473E+04  0.25500000920E-02 0. -1.
    10030    2    1    2    0    0  0.00000000000E+00  0.00000000000E+00 -0.81994723779E+03  0.38083226568E+04  0.37190063169E+04 0.  0.
        3    1    3    3  502    0  0.30038180689E+02  0.66735828897E+03 -0.21870127864E+04  0.22867650330E+04  0.10100000352E+00 0. -1.
       -3    1    3    3    0  502 -0.30038180689E+02 -0.66735828897E+03  0.13670655486E+04  0.15215576238E+04  0.10100000352E+00 0.  1.
</event>
<event>
 5   0  0.1496000E-07  0.3097796E+04  0.7818609E-02  0.8216343E-01
        1   -1    0    0  501    0  0.00000000000E+00  0.00000000000E+00  0.30408485933E+04  0.30408485933E+04  0.50400001928E-02 0.  1.
       -1   -1    0    0    0  501  0.00000000000E+00  0.00000000000E+00 -0.78895225991E+03  0.78895225992E+03  0.50400001928E-02 0. -1.
    10030    2    1    2    0    0  0.00000000000E+00  0.00000000000E+00  0.22518963333E+04  0.38298008532E+04  0.30977955838E+04 0.  0.
        2    1    3    3  502    0 -0.12089693242E+04 -0.45181207897E+03  0.21846584358E+04  0.25374147203E+04  0.25500000920E-02 0. -1.
       -2    1    3    3    0  502  0.12089693242E+04  0.45181207897E+03  0.67237897505E+02  0.12923861329E+04  0.25500000920E-02 0.  1.
</event>
<event>
 5   0  0.1496000E-07  0.3558271E+04  0.7818609E-02  0.8100118E-01
       -1   -1    0    0    0  501  0.00000000000E+00  0.00000000000E+00  0.15146733027E+04  0.15146733027E+04  0.50400001928E-02 0. -1.
        1   -1    0    0  501    0  0.00000000000E+00  0.00000000000E+00 -0.20897729978E+04  0.20897729978E+04  0.50400001928E-02 0.  1.
    10030    2    1    2    0    0  0.00000000000E+00  0.00000000000E+00 -0.57509969511E+03  0.36044463006E+04  0.35582711356E+04 0.  0.
        5    1    3    3  502    0 -0.13267417289E+04  0.14503034166E+03 -0.14792618440E+04  0.19923642007E+04  0.46999998093E+01 0.  1.
       -5    1    3    3    0  502  0.13267417289E+04 -0.14503034166E+03  0.90416214892E+03  0.16120820998E+04  0.46999998093E+01 0. -1.
</event>
<event>
 5   0  0.1496287E-07  0.3634214E+04  0.7818609E-02  0.8082699E-01
        1   -1    0    0  501    0  0.00000000000E+00  0.00000000000E+00  0.17585367920E+04  0.17585367921E+04  0.50400001928E-02 0. -1.
       -1   -1    0    0    0  501  0.00000000000E+00  0.00000000000E+00 -0.18776283789E+04  0.18776283789E+04  0.50400001928E-02 0.  1.
    10030    2    1    2    0    0  0.00000000000E+00  0.00000000000E+00 -0.11909158682E+03  0.36361651709E+04  0.36342144054E+04 0.  0.
        1    1    3    3  502    0 -0.16011535444E+04 -0.62933414109E+03 -0.64477381756E+03  0.18372499584E+04  0.50400001928E-02 0.  1.
       -1    1    3    3    0  502  0.16011535444E+04  0.62933414109E+03  0.52568223074E+03  0.17989152125E+04  0.50400001928E-02 0. -1.
</event>
<event>
 5   0  0.4857514E-07  0.3125693E+04  0.7818609E-02  0.8208722E-01
        2   -1    0    0  501    0  0.00000000000E+00  0.00000000000E+00  0.17514587175E+04  0.17514587175E+04  0.25500000920E-02 0.  1.
       -2   -1    0    0    0  501  0.00000000000E+00  0.00000000000E+00 -0.13945458053E+04  0.13945458053E+04  0.25500000920E-02 0. -1.
    10030    2    1    2    0    0  0.00000000000E+00  0.00000000000E+00  0.35691291217E+03  0.31460045228E+04  0.31256931441E+04 0.  0.
        5    1    3    3  502    0  0.10287904794E+04 -0.11450884903E+04 -0.93167212459E+02  0.15421866685E+04  0.46999998093E+01 0. -1.
       -5    1    3    3    0  502 -0.10287904794E+04  0.11450884903E+04  0.45008012463E+03  0.16038178543E+04  0.46999998093E+01 0.  1.
</event>
<event>
 5   0  0.4793557E-07  0.3652187E+04  0.7818609E-02  0.8078641E-01
        2   -1    0    0  501    0  0.00000000000E+00  0.00000000000E+00  0.12261678841E+04  0.12261678841E+04  0.25500000920E-02 0. -1.
       -2   -1    0    0    0  501  0.00000000000E+00  0.00000000000E+00 -0.27195441786E+04  0.27195441786E+04  0.25500000920E-02 0.  1.
    10030    2    1    2    0    0  0.00000000000E+00  0.00000000000E+00 -0.14933762945E+04  0.39457120626E+04  0.36521871426E+04 0.  0.
        3    1    3    3  502    0 -0.14326031913E+04 -0.10003010508E+04 -0.13200618208E+04  0.21898669633E+04  0.10100000352E+00 0. -1.
       -3    1    3    3    0  502  0.14326031913E+04  0.10003010508E+04 -0.17331447374E+03  0.17558450994E+04  0.10100000352E+00 0.  1.
</event>
<event>
 5   0  0.4687817E-07  0.3690058E+04  0.7818609E-02  0.8070169E-01
        2   -1    0    0  501    0  0.00000000000E+00  0.00000000000E+00  0.21374854721E+04  0.21374854721E+04  0.25500000920E-02 0.  1.
       -2   -1    0    0    0  501  0.00000000000E+00  0.00000000000E+00 -0.15925872298E+04  0.15925872298E+04  0.25500000920E-02 0. -1.
    10030    2    1    2    0    0  0.00000000000E+00  0.00000000000E+00  0.54489824225E+03  0.37300727019E+04  0.36900580303E+04 0.  0.
        4    1    3    3  502    0  0.17709881745E+04  0.21625058837E+03  0.74761782903E+03  0.19344501706E+04  0.12699999809E+01 0.  1.
       -4    1    3    3    0  502 -0.17709881745E+04 -0.21625058837E+03 -0.20271958678E+03  0.17956225313E+04  0.12699999809E+01 0. -1.
</event>
<event>
 5   0  0.4793557E-07  0.3765483E+04  0.7818609E-02  0.8053603E-01
        2   -1    0    0  501    0  0.00000000000E+00  0.00000000000E+00  0.28606474907E+04  0.28606474907E+04  0.25500000920E-02 0.  1.
       -2   -1    0    0    0  501  0.00000000000E+00  0.00000000000E+00 -0.12391302287E+04  0.12391302287E+04  0.25500000920E-02 0. -1.
    10030    2    1    2    0    0  0.00000000000E+00  0.00000000000E+00  0.16215172620E+04  0.40997777194E+04  0.37654825876E+04 0.  0.
        3    1    3    3  502    0  0.14230648199E+04  0.35919066927E+03  0.20946792692E+04  0.25576967509E+04  0.10100000352E+00 0. -1.
       -3    1    3    3    0  502 -0.14230648199E+04 -0.35919066927E+03 -0.47316200713E+03  0.15420809686E+04  0.10100000352E+00 0.  1.
</event>
<event>
 5   0  0.1496000E-07  0.3865783E+04  0.7818609E-02  0.8032184E-01
       -1   -1    0    0    0  501  0.00000000000E+00  0.00000000000E+00  0.19781698019E+04  0.19781698019E+04  0.50400001928E-02 0. -1.
        1   -1    0    0  501    0  0.00000000000E+00  0.00000000000E+00 -0.18886491579E+04  0.18886491579E+04  0.50400001928E-02 0.  1.
    10030    2    1    2    0    0  0.00000000000E+00  0.00000000000E+00  0.89520644024E+02  0.38668189598E+04  0.38657825757E+04 0.  0.
        5    1    3    3  502    0  0.86143492236E+03 -0.10306714287E+04 -0.13454658472E+04  0.19012243832E+04  0.46999998093E+01 0.  1.
       -5    1    3    3    0  502 -0.86143492236E+03  0.10306714287E+04  0.14349864913E+04  0.19655945766E+04  0.46999998093E+01 0. -1.
</event>
<event>
 5   0  0.1522273E-07  0.3460855E+04  0.7818609E-02  0.8123130E-01
        1   -1    0    0  501    0  0.00000000000E+00  0.00000000000E+00  0.20137653660E+04  0.20137653660E+04  0.50400001928E-02 0. -1.
       -1   -1    0    0    0  501  0.00000000000E+00  0.00000000000E+00 -0.14869554044E+04  0.14869554044E+04  0.50400001928E-02 0.  1.
    10030    2    1    2    0    0  0.00000000000E+00  0.00000000000E+00  0.52680996161E+03  0.35007207705E+04  0.34608549778E+04 0.  0.
        4    1    3    3  502    0 -0.79979346936E+03  0.43420744032E+03  0.17521507412E+04  0.19743959905E+04  0.12699999809E+01 0. -1.
       -4    1    3    3    0  502  0.79979346936E+03 -0.43420744032E+03 -0.12253407795E+04  0.15263247799E+04  0.12699999809E+01 0.  1.
</event>
<event>
 5   0  0.1496000E-07  0.3679745E+04  0.7818609E-02  0.8072465E-01
        1   -1    0    0  501    0  0.00000000000E+00  0.00000000000E+00  0.27199866527E+04  0.27199866527E+04  0.50400001928E-02 0. -1.
       -1   -1    0    0    0  501  0.00000000000E+00  0.00000000000E+00 -0.12445393726E+04  0.12445393726E+04  0.50400001928E-02 0.  1.
    10030    2    1    2    0    0  0.00000000000E+00  0.00000000000E+00  0.14754472801E+04  0.39645260253E+04  0.36797448184E+04 0.  0.
        5    1    3    3  502    0  0.35706513386E+02 -0.24069550919E+03 -0.12271205006E+04  0.12510220207E+04  0.46999998093E+01 0.  1.
       -5    1    3    3    0  502 -0.35706513386E+02  0.24069550919E+03  0.27025677807E+04  0.27135040045E+04  0.46999998093E+01 0. -1.
</event>
<event>
 5   0  0.1522273E-07  0.3689649E+04  0.7818609E-02  0.8070260E-01
       -1   -1    0    0    0  501  0.00000000000E+00  0.00000000000E+00  0.12282766456E+04  0.12282766456E+04  0.50400001928E-02 0.  1.
        1   -1    0    0  501    0  0.00000000000E+00  0.00000000000E+00 -0.27708557866E+04  0.27708557866E+04  0.50400001928E-02 0. -1.
    10030    2    1    2    0    0  0.00000000000E+00  0.00000000000E+00 -0.15425791410E+04  0.39991324323E+04  0.36896490083E+04 0.  0.
        4    1    3    3  502    0 -0.12279390910E+04  0.44775854705E+03  0.63985810247E+03  0.14552464162E+04  0.12699999809E+01 0.  1.
       -4    1    3    3    0  502  0.12279390910E+04 -0.44775854705E+03 -0.21824372435E+04  0.25438860160E+04  0.12699999809E+01 0. -1.
</event>
<event>
 5   0  0.4793557E-07  0.3786897E+04  0.7818609E-02  0.8048973E-01
        2   -1    0    0  501    0  0.00000000000E+00  0.00000000000E+00  0.22654968742E+04  0.22654968742E+04  0.25500000920E-02 0. -1.
       -2   -1    0    0    0  501  0.00000000000E+00  0.00000000000E+00 -0.15824994550E+04  0.15824994550E+04  0.25500000920E-02 0.  1.
    10030    2    1    2    0    0  0.00000000000E+00  0.00000000000E+00  0.68299741919E+03  0.38479963293E+04  0.37868971831E+04 0.  0.
        3    1    3    3  502    0  0.13505358694E+03 -0.16584447536E+04 -0.57666687074E+03  0.17610290066E+04  0.10100000352E+00 0.  1.
       -3    1    3    3    0  502 -0.13505358694E+03  0.16584447536E+04  0.12596642899E+04  0.20869673226E+04  0.10100000352E+00 0. -1.
</event>
<event>
 5   0  0.1496000E-07  0.3740643E+04  0.7818609E-02  0.8059014E-01
       -1   -1    0    0    0  501  0.00000000000E+00  0.00000000000E+00  0.14598961912E+04  0.14598961912E+04  0.50400001928E-02 0.  1.
        1   -1    0    0  501    0  0.00000000000E+00  0.00000000000E+00 -0.23961316080E+04  0.23961316080E+04  0.50400001928E-02 0. -1.
    10030    2    1    2    0    0  0.00000000000E+00  0.00000000000E+00 -0.93623541684E+03  0.38560277992E+04  0.37406434784E+04 0.  0.
        3    1    3    3  502    0  0.60876044626E+03  0.21330461817E+03 -0.22778370620E+04  0.23674099417E+04  0.10100000352E+00 0. -1.
       -3    1    3    3    0  502 -0.60876044626E+03 -0.21330461817E+03  0.13416016451E+04  0.14886178574E+04  0.10100000352E+00 0.  1.
</event>
<event>
 5   0  0.1496000E-07  0.3694357E+04  0.7818609E-02  0.8069213E-01
        1   -1    0    0  501    0  0.00000000000E+00  0.00000000000E+00  0.28074863562E+04  0.28074863562E+04  0.50400001928E-02 0.  1.
       -1   -1    0    0    0  501  0.00000000000E+00  0.00000000000E+00 -0.12153465882E+04  0.12153465882E+04  0.50400001928E-02 0. -1.
    10030    2    1    2    0    0  0.00000000000E+00  0.00000000000E+00  0.15921397681E+04  0.40228329444E+04  0.36943572996E+04 0.  0.
        2    1    3    3  502    0  0.94147442617E+03 -0.14942826232E+04  0.13853058554E+04  0.22446217869E+04  0.25500000920E-02 0.  1.
       -2    1    3    3    0  502 -0.94147442617E+03  0.14942826232E+04  0.20683391270E+03  0.17782111575E+04  0.25500000920E-02 0. -1.
</event>
<event>
 5   0  0.4793557E-07  0.3720829E+04  0.7818609E-02  0.8063361E-01
       -2   -1    0    0    0  501  0.00000000000E+00  0.00000000000E+00  0.11276485165E+04  0.11276485165E+04  0.25500000920E-02 0. -1.
        2   -1    0    0  501    0  0.00000000000E+00  0.00000000000E+00 -0.30693452272E+04  0.30693452272E+04  0.25500000920E-02 0.  1.
    10030    2    1    2    0    0  0.00000000000E+00  0.00000000000E+00 -0.19416967107E+04  0.41969937438E+04  0.37208292583E+04 0.  0.
        3    1    3    3  502    0  0.65406157065E+03 -0.17416180103E+04 -0.95887110944E+03  0.20929557202E+04  0.10100000352E+00 0.  1.
       -3    1    3    3    0  502 -0.65406157065E+03  0.17416180103E+04 -0.98282560125E+03  0.21040380236E+04  0.10100000352E+00 0. -1.
</event>
<event>
 5   0  0.1496000E-07  0.3616231E+04  0.7818609E-02  0.8086784E-01
        1   -1    0    0  501    0  0.00000000000E+00  0.00000000000E+00  0.14035546940E+04  0.14035546940E+04  0.50400001928E-02 0. -1.
       -1   -1    0    0    0  501  0.00000000000E+00  0.00000000000E+00 -0.23292875272E+04  0.23292875273E+04  0.50400001928E-02 0.  1.
    10030    2    1    2    0    0  0.00000000000E+00  0.00000000000E+00 -0.92573283329E+03  0.37328422212E+04  0.36162314320E+04 0.  0.
        3    1    3    3  502    0 -0.35782148353E+03  0.14321805773E+04  0.61488247575E+03  0.15991428608E+04  0.10100000352E+00 0. -1.
       -3    1    3    3    0  502  0.35782148353E+03 -0.14321805773E+04 -0.15406153090E+04  0.21336993604E+04  0.10100000352E+00 0.  1.
</event>
<event>
 5   0  0.4687817E-07  0.4083064E+04  0.7818609E-02  0.7987996E-01
        2   -1    0    0  501    0  0.00000000000E+00  0.00000000000E+00  0.21521294601E+04  0.21521294601E+04  0.25500000920E-02 0. -1.
       -2   -1    0    0    0  501  0.00000000000E+00  0.00000000000E+00 -0.19366184320E+04  0.19366184320E+04  0.25500000920E-02 0.  1.
    10030    2    1    2    0    0  0.00000000000E+00  0.00000000000E+00  0.21551102807E+03  0.40887478921E+04  0.40830643299E+04 0.  0.
        4    1    3    3  502    0 -0.47018544020E+03  0.97717468968E+03  0.18398763007E+04  0.21356711210E+04  0.12699999809E+01 0. -1.
       -4    1    3    3    0  502  0.47018544020E+03 -0.97717468968E+03 -0.16243652726E+04  0.19530767712E+04  0.12699999809E+01 0.  1.
</event>
<event>
 5   0  0.1496000E-07  0.3851494E+04  0.7818609E-02  0.8035194E-01
        1   -1    0    0  501    0  0.00000000000E+00  0.00000000000E+00  0.14152541103E+04  0.14152541104E+04  0.50400001928E-02 0.  1.
       -1   -1    0    0    0  501  0.00000000000E+00  0.00000000000E+00 -0.26203785146E+04  0.26203785146E+04  0.50400001928E-02 0. -1.
    10030    2    1    2    0    0  0.00000000000E+00  0.00000000000E+00 -0.12051244042E+04  0.40356326249E+04  0.38514939768E+04 0.  0.
        2    1    3    3  502    0 -0.16853200063E+04 -0.70899632367E+03  0.30927052536E+02  0.18286431563E+04  0.25500000920E-02 0.  1.
       -2    1    3    3    0  502  0.16853200063E+04  0.70899632367E+03 -0.12360514568E+04  0.22069894686E+04  0.25500000920E-02 0. -1.
</event>
<event>
 5   0  0.1496000E-07  0.3569888E+04  0.7818609E-02  0.8097424E-01
       -1   -1    0    0    0  501  0.00000000000E+00  0.00000000000E+00  0.14630891982E+04  0.14630891982E+04  0.50400001928E-02 0.  1.
        1   -1    0    0  501    0  0.00000000000E+00  0.00000000000E+00 -0.21776013555E+04  0.21776013555E+04  0.50400001928E-02 0. -1.
    10030    2    1    2    0    0  0.00000000000E+00  0.00000000000E+00 -0.71451215725E+03  0.36406905537E+04  0.35698879653E+04 0.  0.
        2    1    3    3  502    0 -0.17023096155E+04 -0.48798138385E+03 -0.58539158245E+03  0.18651185385E+04  0.25500000920E-02 0. -1.
       -2    1    3    3    0  502  0.17023096155E+04  0.48798138385E+03 -0.12912057481E+03  0.17755720151E+04  0.25500000920E-02 0.  1.
</event>
<event>
 5   0  0.1522273E-07  0.3264653E+04  0.7818609E-02  0.8171948E-01
        1   -1    0    0  501    0  0.00000000000E+00  0.00000000000E+00  0.17943843833E+04  0.17943843833E+04  0.50400001928E-02 0.  1.
       -1   -1    0    0    0  501  0.00000000000E+00  0.00000000000E+00 -0.14849043841E+04  0.14849043841E+04  0.50400001928E-02 0. -1.
    10030    2    1    2    0    0  0.00000000000E+00  0.00000000000E+00  0.30947999914E+03  0.32792887674E+04  0.32646526539E+04 0.  0.
        4    1    3    3  502    0  0.36165236595E+03  0.35603161520E+03 -0.14036459115E+04  0.14925730812E+04  0.12699999809E+01 0. -1.
       -4    1    3    3    0  502 -0.36165236595E+03 -0.35603161520E+03  0.17131259107E+04  0.17867156863E+04  0.12699999809E+01 0.  1.
</event>
<event>
 5   0  0.1496000E-07  0.3696745E+04  0.7818609E-02  0.8068684E-01
        1   -1    0    0  501    0  0.00000000000E+00  0.00000000000E+00  0.20753146955E+04  0.20753146955E+04  0.50400001928E-02 0. -1.
       -1   -1    0    0    0  501  0.00000000000E+00  0.00000000000E+00 -0.16462468910E+04  0.16462468910E+04  0.50400001928E-02 0.  1.
    10030    2    1    2    0    0  0.00000000000E+00  0.00000000000E+00  0.42906780451E+03  0.37215615864E+04  0.36967447113E+04 0.  0.
        3    1    3    3  502    0 -0.93803651804E+03  0.15888031562E+04  0.32605835221E+03  0.18736387158E+04  0.10100000352E+00 0.  1.
       -3    1    3    3    0  502  0.93803651804E+03 -0.15888031562E+04  0.10300945230E+03  0.18479228706E+04  0.10100000352E+00 0. -1.
</event>
<event>
 5   0  0.1496000E-07  0.3710881E+04  0.7818609E-02  0.8065555E-01
        1   -1    0    0  501    0  0.00000000000E+00  0.00000000000E+00  0.20586533674E+04  0.20586533674E+04  0.50400001928E-02 0. -1.
       -1   -1    0    0    0  501  0.00000000000E+00  0.00000000000E+00 -0.16722869777E+04  0.16722869777E+04  0.50400001928E-02 0.  1.
    10030    2    1    2    0    0  0.00000000000E+00  0.00000000000E+00  0.38636638977E+03  0.37309403451E+04  0.37108808754E+04 0.  0.
        5    1    3    3  502    0  0.12864341576E+04  0.91890597164E+03  0.11696883032E+04  0.19665944786E+04  0.46999998093E+01 0. -1.
       -5    1    3    3    0  502 -0.12864341576E+04 -0.91890597164E+03 -0.78332191345E+03  0.17643458665E+04  0.46999998093E+01 0.  1.
</event>
<event>
 5   0  0.4793557E-07  0.3704814E+04  0.7818609E-02  0.8066896E-01
       -2   -1    0    0    0  501  0.00000000000E+00  0.00000000000E+00  0.15986882657E+04  0.15986882657E+04  0.25500000920E-02 0.  1.
        2   -1    0    0  501    0  0.00000000000E+00  0.00000000000E+00 -0.21463925582E+04  0.21463925582E+04  0.25500000920E-02 0. -1.
    10030    2    1    2    0    0  0.00000000000E+00  0.00000000000E+00 -0.54770429254E+03  0.37450808238E+04  0.37048144873E+04 0.  0.
        3    1    3    3  502    0 -0.55525367320E+03 -0.93715264478E+03  0.12407148037E+04  0.16510405675E+04  0.10100000352E+00 0.  1.
       -3    1    3    3    0  502  0.55525367320E+03  0.93715264478E+03 -0.17884190962E+04  0.20940402563E+04  0.10100000352E+00 0. -1.
</event>
<event>
 5   0  0.1496287E-07  0.3692854E+04  0.7818609E-02  0.8069547E-01
       -1   -1    0    0    0  501  0.00000000000E+00  0.00000000000E+00  0.24840039039E+04  0.24840039039E+04  0.50400001928E-02 0.  1.
        1   -1    0    0  501    0  0.00000000000E+00  0.00000000000E+00 -0.13724988135E+04  0.13724988135E+04  0.50400001928E-02 0. -1.
    10030    2    1    2    0    0  0.00000000000E+00  0.00000000000E+00  0.11115050905E+04  0.38565027174E+04  0.36928538616E+04 0.  0.
        1    1    3    3  502    0  0.13057397342E+04  0.29489527465E+03  0.18838703710E+04  0.23110359260E+04  0.50400001928E-02 0.  1.
       -1    1    3    3    0  502 -0.13057397342E+04 -0.29489527465E+03 -0.77236528056E+03  0.15454667914E+04  0.50400001928E-02 0. -1.
</event>
<event>
 5   0  0.4824268E-07  0.3676020E+04  0.7818609E-02  0.8073297E-01
        2   -1    0    0  501    0  0.00000000000E+00  0.00000000000E+00  0.23685059618E+04  0.23685059618E+04  0.25500000920E-02 0.  1.
       -2   -1    0    0    0  501  0.00000000000E+00  0.00000000000E+00 -0.14263344241E+04  0.14263344241E+04  0.25500000920E-02 0. -1.
    10030    2    1    2    0    0  0.00000000000E+00  0.00000000000E+00  0.94217153776E+03  0.37948403859E+04  0.36760204499E+04 0.  0.
        1    1    3    3  502    0 -0.10918463277E+04 -0.26462743949E+03  0.19727965740E+04  0.22702604272E+04  0.50400001928E-02 0.  1.
       -1    1    3    3    0  502  0.10918463277E+04  0.26462743949E+03 -0.10306250362E+04  0.15245799587E+04  0.50400001928E-02 0. -1.
</event>
<event>
 5   0  0.1496000E-07  0.3675699E+04  0.7818609E-02  0.8073369E-01
       -1   -1    0    0    0  501  0.00000000000E+00  0.00000000000E+00  0.19016312917E+04  0.19016312917E+04  0.50400001928E-02 0.  1.
        1   -1    0    0  501    0  0.00000000000E+00  0.00000000000E+00 -0.17762067871E+04  0.17762067871E+04  0.50400001928E-02 0. -1.
    10030    2    1    2    0    0  0.00000000000E+00  0.00000000000E+00  0.12542450459E+03  0.36778380787E+04  0.36756987944E+04 0.  0.
        3    1    3    3  502    0 -0.14726395912E+03  0.17232356704E+04 -0.55931067852E+03  0.18177063279E+04  0.10100000352E+00 0. -1.
       -3    1    3    3    0  502  0.14726395912E+03 -0.17232356704E+04  0.68473518311E+03  0.18601317508E+04  0.10100000352E+00 0.  1.
</event>
<event>
 5   0  0.1496000E-07  0.3725847E+04  0.7818609E-02  0.8062258E-01
       -1   -1    0    0    0  501  0.00000000000E+00  0.00000000000E+00  0.33868862440E+04  0.33868862440E+04  0.50400001928E-02 0.  1.
        1   -1    0    0  501    0  0.00000000000E+00  0.00000000000E+00 -0.10246826425E+04  0.10246826425E+04  0.50400001928E-02 0. -1.
    10030    2    1    2    0    0  0.00000000000E+00  0.00000000000E+00  0.23622036015E+04  0.44115688864E+04  0.37258467742E+04 0.  0.
        2    1    3    3  502    0 -0.20718623185E+03  0.13322447137E+04 -0.34106641345E+03  0.13907294525E+04  0.25500000920E-02 0. -1.
       -2    1    3    3    0  502  0.20718623185E+03 -0.13322447137E+04  0.27032700150E+04  0.30208394339E+04  0.25500000920E-02 0.  1.
</event>
<event>
 5   0  0.1496000E-07  0.3733611E+04  0.7818609E-02  0.8060554E-01
        1   -1    0    0  501    0  0.00000000000E+00  0.00000000000E+00  0.29292657797E+04  0.29292657797E+04  0.50400001928E-02 0.  1.
       -1   -1    0    0    0  501  0.00000000000E+00  0.00000000000E+00 -0.11897052809E+04  0.11897052809E+04  0.50400001928E-02 0. -1.
    10030    2    1    2    0    0  0.00000000000E+00  0.00000000000E+00  0.17395604988E+04  0.41189710607E+04  0.37336111032E+04 0.  0.
        5    1    3    3  502    0  0.12383851398E+04  0.76085017674E+03 -0.42265248108E+03  0.15136538427E+04  0.46999998093E+01 0. -1.
       -5    1    3    3    0  502 -0.12383851398E+04 -0.76085017674E+03  0.21622129799E+04  0.26053172180E+04  0.46999998093E+01 0.  1.
</event>
<event>
 5   0  0.4857514E-07  0.3709071E+04  0.7818609E-02  0.8065954E-01
        2   -1    0    0  501    0  0.00000000000E+00  0.00000000000E+00  0.30226425985E+04  0.30226425985E+04  0.25500000920E-02 0.  1.
       -2   -1    0    0    0  501  0.00000000000E+00  0.00000000000E+00 -0.11378463334E+04  0.11378463334E+04  0.25500000920E-02 0. -1.
    10030    2    1    2    0    0  0.00000000000E+00  0.00000000000E+00  0.18847962651E+04  0.41604889319E+04  0.37090714729E+04 0.  0.
        5    1    3    3  502    0 -0.10155762997E+04  0.67806597827E+03  0.25080173065E+04  0.27895056177E+04  0.46999998093E+01 0.  1.
       -5    1    3    3    0  502  0.10155762997E+04 -0.67806597827E+03 -0.62322104137E+03  0.13709833142E+04  0.46999998093E+01 0. -1.
</event>
<event>
 5   0  0.4857514E-07  0.3605737E+04  0.7818609E-02  0.8089179E-01
       -2   -1    0    0    0  501  0.00000000000E+00  0.00000000000E+00  0.16193123510E+04  0.16193123510E+04  0.25500000920E-02 0. -1.
        2   -1    0    0  501    0  0.00000000000E+00  0.00000000000E+00 -0.20072318770E+04  0.20072318770E+04  0.25500000920E-02 0.  1.
    10030    2    1    2    0    0  0.00000000000E+00  0.00000000000E+00 -0.38791952592E+03  0.36265442280E+04  0.36057373003E+04 0.  0.
        5    1    3    3  502    0  0.57376102399E+03  0.67226836091E+03  0.13864660406E+04  0.16442191562E+04  0.46999998093E+01 0. -1.
       -5    1    3    3    0  502 -0.57376102399E+03 -0.67226836091E+03 -0.17743855665E+04  0.19823250718E+04  0.46999998093E+01 0.  1.
</event>
<event>
 5   0  0.4857514E-07  0.3696388E+04  0.7818609E-02  0.8068763E-01
       -2   -1    0    0    0  501  0.00000000000E+00  0.00000000000E+00  0.17566264712E+04  0.17566264712E+04  0.25500000920E-02 0. -1.
        2   -1    0    0  501    0  0.00000000000E+00  0.00000000000E+00 -0.19445341691E+04  0.19445341691E+04  0.25500000920E-02 0.  1.
    10030    2    1    2    0    0  0.00000000000E+00  0.00000000000E+00 -0.18790769793E+03  0.37011606404E+04  0.36963875315E+04 0.  0.
        5    1    3    3  502    0  0.44549198360E+03 -0.44142354132E+03  0.16468192819E+04  0.17622013755E+04  0.46999998093E+01 0. -1.
       -5    1    3    3    0  502 -0.44549198360E+03  0.44142354132E+03 -0.18347269799E+04  0.19389592649E+04  0.46999998093E+01 0.  1.
</event>
<event>
 5   0  0.1522273E-07  0.3816405E+04  0.7818609E-02  0.8042644E-01
       -1   -1    0    0    0  501  0.00000000000E+00  0.00000000000E+00  0.13881311459E+04  0.13881311459E+04  0.50400001928E-02 0.  1.
        1   -1    0    0  501    0  0.00000000000E+00  0.00000000000E+00 -0.26231213110E+04  0.26231213110E+04  0.50400001928E-02 0. -1.
    10030    2    1    2    0    0  0.00000000000E+00  0.00000000000E+00 -0.12349901651E+04  0.40112524568E+04  0.38164047957E+04 0.  0.
        4    1    3    3  502    0 -0.91531390703E+03 -0.56934760348E+03  0.10374676690E+04  0.14960939205E+04  0.12699999809E+01 0. -1.
       -4    1    3    3    0  502  0.91531390703E+03  0.56934760348E+03 -0.22724578341E+04  0.25151585363E+04  0.12699999809E+01 0.  1.
</event>
<event>
 5   0  0.4758908E-07  0.3607218E+04  0.7818609E-02  0.8088840E-01
        2   -1    0    0  501    0  0.00000000000E+00  0.00000000000E+00  0.19763625854E+04  0.19763625854E+04  0.25500000920E-02 0.  1.
       -2   -1    0    0    0  501  0.00000000000E+00  0.00000000000E+00 -0.16459562088E+04  0.16459562088E+04  0.25500000920E-02 0. -1.
    10030    2    1    2    0    0  0.00000000000E+00  0.00000000000E+00  0.33040637657E+03  0.36223187942E+04  0.36072184676E+04 0.  0.
        2    1    3    3  502    0  0.13291432006E+04  0.16490613039E+03  0.13782295341E+04  0.19218044459E+04  0.25500000920E-02 0.  1.
       -2    1    3    3    0  502 -0.13291432006E+04 -0.16490613039E+03 -0.10478231575E+04  0.17005143484E+04  0.25500000920E-02 0. -1.
</event>
<event>
 5   0  0.4793557E-07  0.3699094E+04  0.7818609E-02  0.8068163E-01
       -2   -1    0    0    0  501  0.00000000000E+00  0.00000000000E+00  0.19340465994E+04  0.19340465994E+04  0.25500000920E-02 0. -1.
        2   -1    0    0  501    0  0.00000000000E+00  0.00000000000E+00 -0.17687390202E+04  0.17687390202E+04  0.25500000920E-02 0.  1.
    10030    2    1    2    0    0  0.00000000000E+00  0.00000000000E+00  0.16530757928E+03  0.37027856196E+04  0.36990937740E+04 0.  0.
        3    1    3    3  502    0 -0.63770029452E+03  0.13073855929E+04 -0.10608106474E+04  0.18003438544E+04  0.10100000352E+00 0.  1.
       -3    1    3    3    0  502  0.63770029452E+03 -0.13073855929E+04  0.12261182267E+04  0.19024417652E+04  0.10100000352E+00 0. -1.
</event>
<event>
 5   0  0.1496000E-07  0.3718209E+04  0.7818609E-02  0.8063939E-01
        1   -1    0    0  501    0  0.00000000000E+00  0.00000000000E+00  0.12545625193E+04  0.12545625193E+04  0.50400001928E-02 0.  1.
       -1   -1    0    0    0  501  0.00000000000E+00  0.00000000000E+00 -0.27549594155E+04  0.27549594155E+04  0.50400001928E-02 0. -1.
    10030    2    1    2    0    0  0.00000000000E+00  0.00000000000E+00 -0.15003968962E+04  0.40095219348E+04  0.37182086143E+04 0.  0.
        3    1    3    3  502    0  0.36840570547E+03 -0.13664342136E+04 -0.20502242005E+04  0.24912415593E+04  0.10100000352E+00 0. -1.
       -3    1    3    3    0  502 -0.36840570547E+03  0.13664342136E+04  0.54982730434E+03  0.15182803755E+04  0.10100000352E+00 0.  1.
</event>
<event>
 5   0  0.4793557E-07  0.3667269E+04  0.7818609E-02  0.8075254E-01
        2   -1    0    0  501    0  0.00000000000E+00  0.00000000000E+00  0.18652439531E+04  0.18652439531E+04  0.25500000920E-02 0. -1.
       -2   -1    0    0    0  501  0.00000000000E+00  0.00000000000E+00 -0.18025610238E+04  0.18025610238E+04  0.25500000920E-02 0.  1.
    10030    2    1    2    0    0  0.00000000000E+00  0.00000000000E+00  0.62682929362E+02  0.36678049769E+04  0.36672693110E+04 0.  0.
        3    1    3    3  502    0 -0.41629183832E+03 -0.16480602203E+04  0.71905709656E+03  0.18456555753E+04  0.10100000352E+00 0. -1.
       -3    1    3    3    0  502  0.41629183832E+03  0.16480602203E+04 -0.65637416720E+03  0.18221494016E+04  0.10100000352E+00 0.  1.
</event>
<event>
 5   0  0.1496287E-07  0.3441113E+04  0.7818609E-02  0.8127889E-01
       -1   -1    0    0    0  501  0.00000000000E+00  0.00000000000E+00  0.12509847492E+04  0.12509847492E+04  0.50400001928E-02 0. -1.
        1   -1    0    0  501    0  0.00000000000E+00  0.00000000000E+00 -0.23663873111E+04  0.23663873111E+04  0.50400001928E-02 0.  1.
    10030    2    1    2    0    0  0.00000000000E+00  0.00000000000E+00 -0.11154025619E+04  0.36173720603E+04  0.34411128647E+04 0.  0.
        1    1    3    3  502    0 -0.60520512077E+03 -0.11641495477E+04  0.61232156052E+03  0.14479140517E+04  0.50400001928E-02 0. -1.
       -1    1    3    3    0  502  0.60520512077E+03  0.11641495477E+04 -0.17277241224E+04  0.21694580085E+04  0.50400001928E-02 0.  1.
</event>
<event>
 5   0  0.4857514E-07  0.3699218E+04  0.7818609E-02  0.8068135E-01
        2   -1    0    0  501    0  0.00000000000E+00  0.00000000000E+00  0.21605822613E+04  0.21605822613E+04  0.25500000920E-02 0. -1.
       -2   -1    0    0    0  501  0.00000000000E+00  0.00000000000E+00 -0.15833941134E+04  0.15833941134E+04  0.25500000920E-02 0.  1.
    10030    2    1    2    0    0  0.00000000000E+00  0.00000000000E+00  0.57718814795E+03  0.37439763747E+04  0.36992178817E+04 0.  0.
        5    1    3    3  502    0  0.90171794409E+03  0.14730092916E+04  0.95855461635E+03  0.19752723019E+04  0.46999998093E+01 0. -1.
       -5    1    3    3    0  502 -0.90171794409E+03 -0.14730092916E+04 -0.38136646840E+03  0.17687040728E+04  0.46999998093E+01 0.  1.
</event>
<event>
 5   0  0.1496000E-07  0.3002642E+04  0.7818609E-02  0.8242977E-01
       -1   -1    0    0    0  501  0.00000000000E+00  0.00000000000E+00  0.11133778552E+04  0.11133778552E+04  0.50400001928E-02 0.  1.
        1   -1    0    0  501    0  0.00000000000E+00  0.00000000000E+00 -0.20244382029E+04  0.20244382030E+04  0.50400001928E-02 0. -1.
    10030    2    1    2    0    0  0.00000000000E+00  0.00000000000E+00 -0.91106034775E+03  0.31378160582E+04  0.30026419463E+04 0.  0.
        3    1    3    3  502    0  0.34932332153E+03 -0.13310892019E+04  0.17160225270E+03  0.13868210373E+04  0.10100000352E+00 0.  1.
       -3    1    3    3    0  502 -0.34932332153E+03  0.13310892019E+04 -0.10826626004E+04  0.17509950208E+04  0.10100000352E+00 0. -1.
</event>
<event>
 5   0  0.4758908E-07  0.3700950E+04  0.7818609E-02  0.8067751E-01
       -2   -1    0    0    0  501  0.00000000000E+00  0.00000000000E+00  0.33070498264E+04  0.33070498264E+04  0.25500000920E-02 0.  1.
        2   -1    0    0  501    0  0.00000000000E+00  0.00000000000E+00 -0.10354415885E+04  0.10354415885E+04  0.25500000920E-02 0. -1.
    10030    2    1    2    0    0  0.00000000000E+00  0.00000000000E+00  0.22716082378E+04  0.43424914149E+04  0.37009495676E+04 0.  0.
        2    1    3    3  502    0 -0.15898963513E+04 -0.51361289657E+03  0.20691029171E+04  0.26594652653E+04  0.25500000920E-02 0.  1.
       -2    1    3    3    0  502  0.15898963513E+04  0.51361289657E+03  0.20250532072E+03  0.16830261496E+04  0.25500000920E-02 0. -1.
</event>
<event>
 5   0  0.1496000E-07  0.3698912E+04  0.7818609E-02  0.8068203E-01
       -1   -1    0    0    0  501  0.00000000000E+00  0.00000000000E+00  0.16241917426E+04  0.16241917426E+04  0.50400001928E-02 0. -1.
        1   -1    0    0  501    0  0.00000000000E+00  0.00000000000E+00 -0.21059623659E+04  0.21059623659E+04  0.50400001928E-02 0.  1.
    10030    2    1    2    0    0  0.00000000000E+00  0.00000000000E+00 -0.48177062326E+03  0.37301541085E+04  0.36989115615E+04 0.  0.
        5    1    3    3  502    0 -0.10486420728E+04 -0.11542108280E+04  0.76180244901E+03  0.17355742259E+04  0.46999998093E+01 0. -1.
       -5    1    3    3    0  502  0.10486420728E+04  0.11542108280E+04 -0.12435730723E+04  0.19945798827E+04  0.46999998093E+01 0.  1.
</event>
<event>
 5   0  0.1496000E-07  0.3643142E+04  0.7818609E-02  0.8080680E-01
       -1   -1    0    0    0  501  0.00000000000E+00  0.00000000000E+00  0.13052935292E+04  0.13052935292E+04  0.50400001928E-02 0.  1.
        1   -1    0    0  501    0  0.00000000000E+00  0.00000000000E+00 -0.25420500696E+04  0.25420500696E+04  0.50400001928E-02 0. -1.
    10030    2    1    2    0    0  0.00000000000E+00  0.00000000000E+00 -0.12367565403E+04  0.38473435988E+04  0.36431423287E+04 0.  0.
        2    1    3    3  502    0  0.84337678814E+03 -0.79878235693E+03  0.86340215844E+03  0.14473427195E+04  0.25500000920E-02 0.  1.
       -2    1    3    3    0  502 -0.84337678814E+03  0.79878235693E+03 -0.21001586988E+04  0.24000008793E+04  0.25500000920E-02 0. -1.
</event>
<event>
 5   0  0.1496000E-07  0.3632705E+04  0.7818609E-02  0.8083041E-01
        3   -1    0    0  501    0  0.00000000000E+00  0.00000000000E+00  0.14306129785E+04  0.14306129821E+04  0.10100000352E+00 0. -1.
       -3   -1    0    0    0  501  0.00000000000E+00  0.00000000000E+00 -0.23060998983E+04  0.23060999005E+04  0.10100000352E+00 0.  1.
    10030    2    1    2    0    0  0.00000000000E+00  0.00000000000E+00 -0.87548691982E+03  0.37367128826E+04  0.36327050280E+04 0.  0.
        4    1    3    3  502    0  0.14496226096E+04  0.33168955693E+03 -0.15105375897E+04  0.21197049548E+04  0.12699999809E+01 0.  1.
       -4    1    3    3    0  502 -0.14496226096E+04 -0.33168955693E+03  0.63505066984E+03  0.16170079278E+04  0.12699999809E+01 0. -1.
</event>
<event>
 5   0  0.4857514E-07  0.3691112E+04  0.7818609E-02  0.8069934E-01
       -2   -1    0    0    0  501  0.00000000000E+00  0.00000000000E+00  0.15599138261E+04  0.15599138261E+04  0.25500000920E-02 0. -1.
        2   -1    0    0  501    0  0.00000000000E+00  0.00000000000E+00 -0.21835027984E+04  0.21835027984E+04  0.25500000920E-02 0.  1.
    10030    2    1    2    0    0  0.00000000000E+00  0.00000000000E+00 -0.62358897227E+03  0.37434166245E+04  0.36911115966E+04 0.  0.
        5    1    3    3  502    0 -0.11349521401E+04 -0.48985201586E+03  0.10780198562E+04  0.16401890922E+04  0.46999998093E+01 0. -1.
       -5    1    3    3    0  502  0.11349521401E+04  0.48985201586E+03 -0.17016088285E+04  0.21032275324E+04  0.46999998093E+01 0.  1.
</event>
<event>
 5   0  0.1496000E-07  0.3687163E+04  0.7818609E-02  0.8070813E-01
       -1   -1    0    0    0  501  0.00000000000E+00  0.00000000000E+00  0.14954438163E+04  0.14954438163E+04  0.50400001928E-02 0.  1.
        1   -1    0    0  501    0  0.00000000000E+00  0.00000000000E+00 -0.22727652164E+04  0.22727652164E+04  0.50400001928E-02 0. -1.
    10030    2    1    2    0    0  0.00000000000E+00  0.00000000000E+00 -0.77732140013E+03  0.37682090328E+04  0.36871629684E+04 0.  0.
        5    1    3    3  502    0 -0.14432525052E+04  0.50105285616E+03 -0.14432034772E+04  0.21016398656E+04  0.46999998093E+01 0. -1.
       -5    1    3    3    0  502  0.14432525052E+04 -0.50105285616E+03  0.66588207703E+03  0.16665691671E+04  0.46999998093E+01 0.  1.
</event>
<event>
 5   0  0.4824268E-07  0.3894610E+04  0.7818609E-02  0.8026151E-01
       -2   -1    0    0    0  501  0.00000000000E+00  0.00000000000E+00  0.17330187183E+04  0.17330187183E+04  0.25500000920E-02 0.  1.
        2   -1    0    0  501    0  0.00000000000E+00  0.00000000000E+00 -0.21880879275E+04  0.21880879275E+04  0.25500000920E-02 0. -1.
    10030    2    1    2    0    0  0.00000000000E+00  0.00000000000E+00 -0.45506920922E+03  0.39211066459E+04  0.38946102941E+04 0.  0.
        1    1    3    3  502    0  0.12240454790E+04 -0.14620300763E+04  0.17034772737E+03  0.19143765635E+04  0.50400001928E-02 0.  1.
       -1    1    3    3    0  502 -0.12240454790E+04  0.14620300763E+04 -0.62541693659E+03  0.20067300823E+04  0.50400001928E-02 0. -1.
</event>
<event>
 5   0  0.4857514E-07  0.3719422E+04  0.7818609E-02  0.8063671E-01
        2   -1    0    0  501    0  0.00000000000E+00  0.00000000000E+00  0.11641287771E+04  0.11641287771E+04  0.25500000920E-02 0.  1.
       -2   -1    0    0    0  501  0.00000000000E+00  0.00000000000E+00 -0.29709124395E+04  0.29709124395E+04  0.25500000920E-02 0. -1.
    10030    2    1    2    0    0  0.00000000000E+00  0.00000000000E+00 -0.18067836625E+04  0.41350412166E+04  0.37194218180E+04 0.  0.
        5    1    3    3  502    0 -0.27080165340E+01 -0.77536733173E+03 -0.27826324267E+04  0.28886445169E+04  0.46999998093E+01 0. -1.
       -5    1    3    3    0  502  0.27080165340E+01  0.77536733173E+03  0.97584876424E+03  0.12463966997E+04  0.46999998093E+01 0.  1.
</event>
<event>
 5   0  0.4857514E-07  0.3670237E+04  0.7818609E-02  0.8074590E-01
        2   -1    0    0  501    0  0.00000000000E+00  0.00000000000E+00  0.32858455368E+04  0.32858455368E+04  0.25500000920E-02 0.  1.
       -2   -1    0    0    0  501  0.00000000000E+00  0.00000000000E+00 -0.10248992973E+04  0.10248992973E+04  0.25500000920E-02 0. -1.
    10030    2    1    2    0    0  0.00000000000E+00  0.00000000000E+00  0.22609462395E+04  0.43107448341E+04  0.36702374756E+04 0.  0.
        5    1    3    3  502    0  0.12693321038E+04 -0.92715939634E+03  0.22427384746E+04  0.27387454229E+04  0.46999998093E+01 0.  1.
       -5    1    3    3    0  502 -0.12693321038E+04  0.92715939634E+03  0.18207764885E+02  0.15719994112E+04  0.46999998093E+01 0. -1.
</event>
<event>
 5   0  0.1496000E-07  0.3703619E+04  0.7818609E-02  0.8067160E-01
        1   -1    0    0  501    0  0.00000000000E+00  0.00000000000E+00  0.18916334366E+04  0.18916334366E+04  0.50400001928E-02 0.  1.
       -1   -1    0    0    0  501  0.00000000000E+00  0.00000000000E+00 -0.18128237043E+04  0.18128237043E+04  0.50400001928E-02 0. -1.
    10030    2    1    2    0    0  0.00000000000E+00  0.00000000000E+00  0.78809732300E+02  0.37044571408E+04  0.37036187350E+04 0.  0.
        5    1    3    3  502    0  0.84497348555E+03 -0.11964149918E+04 -0.10938947939E+04  0.18281184135E+04  0.46999998093E+01 0. -1.
       -5    1    3    3    0  502 -0.84497348555E+03  0.11964149918E+04  0.11727045262E+04  0.18763387273E+04  0.46999998093E+01 0.  1.
</event>
<event>
 5   0  0.1496000E-07  0.3755317E+04  0.7818609E-02  0.8055812E-01
       -3   -1    0    0    0  501  0.00000000000E+00  0.00000000000E+00  0.19736495331E+04  0.19736495357E+04  0.10100000352E+00 0.  1.
        3   -1    0    0  501    0  0.00000000000E+00  0.00000000000E+00 -0.17863365480E+04  0.17863365509E+04  0.10100000352E+00 0. -1.
    10030    2    1    2    0    0  0.00000000000E+00  0.00000000000E+00  0.18731298504E+03  0.37599860866E+04  0.37553174589E+04 0.  0.
        2    1    3    3  502    0 -0.41493581074E+03 -0.11278401899E+04  0.15381583200E+04  0.19519544663E+04  0.25500000920E-02 0.  1.
       -2    1    3    3    0  502  0.41493581074E+03  0.11278401899E+04 -0.13508453350E+04  0.18080316203E+04  0.25500000920E-02 0. -1.
</event>
<event>
 5   0  0.4857514E-07  0.3705102E+04  0.7818609E-02  0.8066832E-01
        2   -1    0    0  501    0  0.00000000000E+00  0.00000000000E+00  0.23464288738E+04  0.23464288738E+04  0.25500000920E-02 0. -1.
       -2   -1    0    0    0  501  0.00000000000E+00  0.00000000000E+00 -0.14626251081E+04  0.14626251081E+04  0.25500000920E-02 0.  1.
    10030    2    1    2    0    0  0.00000000000E+00  0.00000000000E+00  0.88380376569E+03  0.38090539820E+04  0.37051023119E+04 0.  0.
        5    1    3    3  502    0  0.96820279234E+03 -0.52886949694E+03  0.19718777559E+04  0.22595228625E+04  0.46999998093E+01 0. -1.
       -5    1    3    3    0  502 -0.96820279234E+03  0.52886949694E+03 -0.10880739903E+04  0.15495311195E+04  0.46999998093E+01 0.  1.
</event>
<event>
 5   0  0.1522273E-07  0.3453776E+04  0.7818609E-02  0.8124833E-01
        1   -1    0    0  501    0  0.00000000000E+00  0.00000000000E+00  0.15881841425E+04  0.15881841425E+04  0.50400001928E-02 0.  1.
       -1   -1    0    0    0  501  0.00000000000E+00  0.00000000000E+00 -0.18777056353E+04  0.18777056353E+04  0.50400001928E-02 0. -1.
    10030    2    1    2    0    0  0.00000000000E+00  0.00000000000E+00 -0.28952149278E+03  0.34658897778E+04  0.34537760867E+04 0.  0.
        4    1    3    3  502    0 -0.63113463800E+02 -0.48620421271E+03 -0.18063952941E+04  0.18717487591E+04  0.12699999809E+01 0. -1.
       -4    1    3    3    0  502  0.63113463800E+02  0.48620421271E+03  0.15168738013E+04  0.15941410188E+04  0.12699999809E+01 0.  1.
</event>
<event>
 5   0  0.4824268E-07  0.3695512E+04  0.7818609E-02  0.8068957E-01
       -2   -1    0    0    0  501  0.00000000000E+00  0.00000000000E+00  0.14667083290E+04  0.14667083290E+04  0.25500000920E-02 0. -1.
        2   -1    0    0  501    0  0.00000000000E+00  0.00000000000E+00 -0.23277985818E+04  0.23277985818E+04  0.25500000920E-02 0.  1.
    10030    2    1    2    0    0  0.00000000000E+00  0.00000000000E+00 -0.86109025275E+03  0.37945069108E+04  0.36955116388E+04 0.  0.
        1    1    3    3  502    0  0.14327059510E+04 -0.44619289918E+03  0.67651475618E+03  0.16460275395E+04  0.50400001928E-02 0. -1.
       -1    1    3    3    0  502 -0.14327059510E+04  0.44619289918E+03 -0.15376050089E+04  0.21484793713E+04  0.50400001928E-02 0.  1.
</event>
<event>
 5   0  0.1496000E-07  0.3737824E+04  0.7818609E-02  0.8059631E-01
        1   -1    0    0  501    0  0.00000000000E+00  0.00000000000E+00  0.19591108378E+04  0.19591108378E+04  0.50400001928E-02 0.  1.
       -1   -1    0    0    0  501  0.00000000000E+00  0.00000000000E+00 -0.17828657425E+04  0.17828657425E+04  0.50400001928E-02 0. -1.
    10030    2    1    2    0    0  0.00000000000E+00  0.00000000000E+00  0.17624509528E+03  0.37419765804E+04  0.37378237511E+04 0.  0.
        5    1    3    3  502    0 -0.14977079649E+03  0.55377775221E+03 -0.16925352704E+04  0.17871202595E+04  0.46999998093E+01 0. -1.
       -5    1    3    3    0  502  0.14977079649E+03 -0.55377775221E+03  0.18687803656E+04  0.19548563209E+04  0.46999998093E+01 0.  1.
</event>
<event>
 5   0  0.1496287E-07  0.3029983E+04  0.7818609E-02  0.8235220E-01
        1   -1    0    0  501    0  0.00000000000E+00  0.00000000000E+00  0.18654654631E+04  0.18654654631E+04  0.50400001928E-02 0. -1.
       -1   -1    0    0    0  501  0.00000000000E+00  0.00000000000E+00 -0.12303628534E+04  0.12303628534E+04  0.50400001928E-02 0.  1.
    10030    2    1    2    0    0  0.00000000000E+00  0.00000000000E+00  0.63510260966E+03  0.30958283165E+04  0.30299831090E+04 0.  0.
        1    1    3    3  502    0 -0.85388658038E+03 -0.12225851449E+04  0.59049448114E+03  0.16039078717E+04  0.50400001928E-02 0. -1.
       -1    1    3    3    0  502  0.85388658038E+03  0.12225851449E+04  0.44608128525E+02  0.14919204448E+04  0.50400001928E-02 0.  1.
</event>
<event>
 5   0  0.1496287E-07  0.3711881E+04  0.7818609E-02  0.8065334E-01
       -1   -1    0    0    0  501  0.00000000000E+00  0.00000000000E+00  0.26152297240E+04  0.26152297240E+04  0.50400001928E-02 0. -1.
        1   -1    0    0  501    0  0.00000000000E+00  0.00000000000E+00 -0.13170986332E+04  0.13170986332E+04  0.50400001928E-02 0.  1.
    10030    2    1    2    0    0  0.00000000000E+00  0.00000000000E+00  0.12981310908E+04  0.39323283573E+04  0.37118811916E+04 0.  0.
        1    1    3    3  502    0  0.15628356304E+02  0.90272792408E+03 -0.10687645255E+04  0.13990781113E+04  0.50400001928E-02 0.  1.
       -1    1    3    3    0  502 -0.15628356304E+02 -0.90272792408E+03  0.23668956163E+04  0.25332502460E+04  0.50400001928E-02 0. -1.
</event>
<event>
 5   0  0.1522273E-07  0.3754374E+04  0.7818609E-02  0.8056018E-01
        1   -1    0    0  501    0  0.00000000000E+00  0.00000000000E+00  0.23393210258E+04  0.23393210258E+04  0.50400001928E-02 0.  1.
       -1   -1    0    0    0  501  0.00000000000E+00  0.00000000000E+00 -0.15063474668E+04  0.15063474668E+04  0.50400001928E-02 0. -1.
    10030    2    1    2    0    0  0.00000000000E+00  0.00000000000E+00  0.83297355897E+03  0.38456684926E+04  0.37543736102E+04 0.  0.
        4    1    3    3  502    0  0.17030861511E+03  0.18622816031E+04  0.24901520501E+03  0.18865598265E+04  0.12699999809E+01 0.  1.
       -4    1    3    3    0  502 -0.17030861511E+03 -0.18622816031E+04  0.58395835395E+03  0.19591086661E+04  0.12699999809E+01 0. -1.
</event>
<event>
 5   0  0.4687817E-07  0.3709538E+04  0.7818609E-02  0.8065851E-01
       -2   -1    0    0    0  501  0.00000000000E+00  0.00000000000E+00  0.21013806960E+04  0.21013806960E+04  0.25500000920E-02 0. -1.
        2   -1    0    0  501    0  0.00000000000E+00  0.00000000000E+00 -0.16370993012E+04  0.16370993012E+04  0.25500000920E-02 0.  1.
    10030    2    1    2    0    0  0.00000000000E+00  0.00000000000E+00  0.46428139479E+03  0.37384799972E+04  0.37095384451E+04 0.  0.
        4    1    3    3  502    0 -0.65625548675E+03 -0.57331096883E+03  0.18822330245E+04  0.20741647722E+04  0.12699999809E+01 0. -1.
       -4    1    3    3    0  502  0.65625548675E+03  0.57331096883E+03 -0.14179516297E+04  0.16643152250E+04  0.12699999809E+01 0.  1.
</event>
<event>
 5   0  0.4793557E-07  0.3754461E+04  0.7818609E-02  0.8055999E-01
        2   -1    0    0  501    0  0.00000000000E+00  0.00000000000E+00  0.32660345763E+04  0.32660345763E+04  0.25500000920E-02 0.  1.
       -2   -1    0    0    0  501  0.00000000000E+00  0.00000000000E+00 -0.10789824217E+04  0.10789824217E+04  0.25500000920E-02 0. -1.
    10030    2    1    2    0    0  0.00000000000E+00  0.00000000000E+00  0.21870521547E+04  0.43450169980E+04  0.37544607583E+04 0.  0.
        3    1    3    3  502    0  0.17693653456E+02  0.44997419891E+03  0.32025994524E+04  0.32341046841E+04  0.10100000352E+00 0.  1.
       -3    1    3    3    0  502 -0.17693653456E+02 -0.44997419891E+03 -0.10155472977E+04  0.11109123139E+04  0.10100000352E+00 0. -1.
</event>
<event>
 5   0  0.1496287E-07  0.3717536E+04  0.7818609E-02  0.8064087E-01
        1   -1    0    0  501    0  0.00000000000E+00  0.00000000000E+00  0.27206546937E+04  0.27206546937E+04  0.50400001928E-02 0. -1.
       -1   -1    0    0    0  501  0.00000000000E+00  0.00000000000E+00 -0.12699219201E+04  0.12699219201E+04  0.50400001928E-02 0.  1.
    10030    2    1    2    0    0  0.00000000000E+00  0.00000000000E+00  0.14507327737E+04  0.39905766138E+04  0.37175362984E+04 0.  0.
        1    1    3    3  502    0  0.91047041523E+03  0.44126481493E+03 -0.94843529187E+03  0.13867950522E+04  0.50400001928E-02 0.  1.
       -1    1    3    3    0  502 -0.91047041523E+03 -0.44126481493E+03  0.23991680655E+04  0.26037815616E+04  0.50400001928E-02 0. -1.
</event>
<event>
 5   0  0.4857514E-07  0.3701898E+04  0.7818609E-02  0.8067541E-01
       -2   -1    0    0    0  501  0.00000000000E+00  0.00000000000E+00  0.17390626789E+04  0.17390626789E+04  0.25500000920E-02 0.  1.
        2   -1    0    0  501    0  0.00000000000E+00  0.00000000000E+00 -0.19700342436E+04  0.19700342436E+04  0.25500000920E-02 0. -1.
    10030    2    1    2    0    0  0.00000000000E+00  0.00000000000E+00 -0.23097156470E+03  0.37090969225E+04  0.37018984476E+04 0.  0.
        5    1    3    3  502    0  0.11626492737E+04  0.13638617018E+04  0.34814380817E+03  0.18256774842E+04  0.46999998093E+01 0. -1.
       -5    1    3    3    0  502 -0.11626492737E+04 -0.13638617018E+04 -0.57911537287E+03  0.18834194382E+04  0.46999998093E+01 0.  1.
</event>
<event>
 5   0  0.4793557E-07  0.3506833E+04  0.7818609E-02  0.8112173E-01
       -2   -1    0    0    0  501  0.00000000000E+00  0.00000000000E+00  0.13437760379E+04  0.13437760379E+04  0.25500000920E-02 0. -1.
        2   -1    0    0  501    0  0.00000000000E+00  0.00000000000E+00 -0.22879329292E+04  0.22879329292E+04  0.25500000920E-02 0.  1.
    10030    2    1    2    0    0  0.00000000000E+00  0.00000000000E+00 -0.94415689128E+03  0.36317089671E+04  0.35068330138E+04 0.  0.
        3    1    3    3  502    0 -0.63310404351E+03 -0.22005560027E+03 -0.21500289837E+04  0.22520812237E+04  0.10100000352E+00 0.  1.
       -3    1    3    3    0  502  0.63310404351E+03  0.22005560027E+03  0.12058720924E+04  0.13796277435E+04  0.10100000352E+00 0. -1.
</event>
<event>
 5   0  0.4687817E-07  0.3637393E+04  0.7818609E-02  0.8081980E-01
       -2   -1    0    0    0  501  0.00000000000E+00  0.00000000000E+00  0.15589660372E+04  0.15589660372E+04  0.25500000920E-02 0.  1.
        2   -1    0    0  501    0  0.00000000000E+00  0.00000000000E+00 -0.21216989409E+04  0.21216989409E+04  0.25500000920E-02 0. -1.
    10030    2    1    2    0    0  0.00000000000E+00  0.00000000000E+00 -0.56273290367E+03  0.36806649781E+04  0.36373927971E+04 0.  0.
        4    1    3    3  502    0  0.66349165026E+03  0.11420091399E+04 -0.15465401556E+04  0.20337635338E+04  0.12699999809E+01 0. -1.
       -4    1    3    3    0  502 -0.66349165026E+03 -0.11420091399E+04  0.98380725192E+03  0.16469014444E+04  0.12699999809E+01 0.  1.
</event>
<event>
 5   0  0.4758908E-07  0.3038822E+04  0.7818609E-02  0.8232731E-01
        2   -1    0    0  501    0  0.00000000000E+00  0.00000000000E+00  0.14178970584E+04  0.14178970584E+04  0.25500000920E-02 0.  1.
       -2   -1    0    0    0  501  0.00000000000E+00  0.00000000000E+00 -0.16281923747E+04  0.16281923747E+04  0.25500000920E-02 0. -1.
    10030    2    1    2    0    0  0.00000000000E+00  0.00000000000E+00 -0.21029531627E+03  0.30460894331E+04  0.30388215996E+04 0.  0.
        2    1    3    3  502    0 -0.11514113366E+04  0.89401461995E+03 -0.53465695395E+03  0.15526970939E+04  0.25500000920E-02 0. -1.
       -2    1    3    3    0  502  0.11514113366E+04 -0.89401461995E+03  0.32436163768E+03  0.14933923392E+04  0.25500000920E-02 0.  1.
</event>
<event>
 5   0  0.4758908E-07  0.3644405E+04  0.7818609E-02  0.8080395E-01
        2   -1    0    0  501    0  0.00000000000E+00  0.00000000000E+00  0.19780900508E+04  0.19780900508E+04  0.25500000920E-02 0.  1.
       -2   -1    0    0    0  501  0.00000000000E+00  0.00000000000E+00 -0.16786000087E+04  0.16786000087E+04  0.25500000920E-02 0. -1.
    10030    2    1    2    0    0  0.00000000000E+00  0.00000000000E+00  0.29949004219E+03  0.36566900595E+04  0.36444050140E+04 0.  0.
        2    1    3    3  502    0 -0.13228546277E+04 -0.21421818697E+03 -0.10891593628E+04  0.17268763463E+04  0.25500000920E-02 0. -1.
       -2    1    3    3    0  502  0.13228546277E+04  0.21421818697E+03  0.13886494050E+04  0.19298137132E+04  0.25500000920E-02 0.  1.
</event>
<event>
 5   0  0.4758908E-07  0.3699690E+04  0.7818609E-02  0.8068031E-01
       -2   -1    0    0    0  501  0.00000000000E+00  0.00000000000E+00  0.13954538562E+04  0.13954538562E+04  0.25500000920E-02 0. -1.
        2   -1    0    0  501    0  0.00000000000E+00  0.00000000000E+00 -0.24521960327E+04  0.24521960327E+04  0.25500000920E-02 0.  1.
    10030    2    1    2    0    0  0.00000000000E+00  0.00000000000E+00 -0.10567421765E+04  0.38476498890E+04  0.36996899384E+04 0.  0.
        2    1    3    3  502    0 -0.15496345425E+04  0.37565023692E+03  0.44692129156E+03  0.16559646604E+04  0.25500000920E-02 0. -1.
       -2    1    3    3    0  502  0.15496345425E+04 -0.37565023692E+03 -0.15036634680E+04  0.21916852285E+04  0.25500000920E-02 0.  1.
</event>
<event>
 5   0  0.4793557E-07  0.3697049E+04  0.7818609E-02  0.8068616E-01
       -2   -1    0    0    0  501  0.00000000000E+00  0.00000000000E+00  0.24034251728E+04  0.24034251728E+04  0.25500000920E-02 0.  1.
        2   -1    0    0  501    0  0.00000000000E+00  0.00000000000E+00 -0.14217387687E+04  0.14217387687E+04  0.25500000920E-02 0. -1.
    10030    2    1    2    0    0  0.00000000000E+00  0.00000000000E+00  0.98168640414E+03  0.38251639415E+04  0.36970489561E+04 0.  0.
        3    1    3    3  502    0 -0.68958381577E+03  0.10957895887E+04  0.18559434947E+04  0.22629200002E+04  0.10100000352E+00 0.  1.
       -3    1    3    3    0  502  0.68958381577E+03 -0.10957895887E+04 -0.87425709053E+03  0.15622439413E+04  0.10100000352E+00 0. -1.
</event>
<event>
 5   0  0.4687817E-07  0.3699246E+04  0.7818609E-02  0.8068129E-01
        2   -1    0    0  501    0  0.00000000000E+00  0.00000000000E+00  0.13877943071E+04  0.13877943071E+04  0.25500000920E-02 0.  1.
       -2   -1    0    0    0  501  0.00000000000E+00  0.00000000000E+00 -0.24651378882E+04  0.24651378882E+04  0.25500000920E-02 0. -1.
    10030    2    1    2    0    0  0.00000000000E+00  0.00000000000E+00 -0.10773435811E+04  0.38529321953E+04  0.36992455055E+04 0.  0.
        4    1    3    3  502    0  0.19556453928E+03  0.10867903467E+04 -0.20841454911E+04  0.23586061112E+04  0.12699999809E+01 0. -1.
       -4    1    3    3    0  502 -0.19556453928E+03 -0.10867903467E+04  0.10068019100E+04  0.14943260841E+04  0.12699999809E+01 0.  1.
</event>
<event>
 5   0  0.4824268E-07  0.3631491E+04  0.7818609E-02  0.8083316E-01
        2   -1    0    0  501    0  0.00000000000E+00  0.00000000000E+00  0.27171503810E+04  0.27171503810E+04  0.25500000920E-02 0. -1.
       -2   -1    0    0    0  501  0.00000000000E+00  0.00000000000E+00 -0.12133781324E+04  0.12133781324E+04  0.25500000920E-02 0.  1.
    10030    2    1    2    0    0  0.00000000000E+00  0.00000000000E+00  0.15037722486E+04  0.39305285134E+04  0.36314905231E+04 0.  0.
        1    1    3    3  502    0 -0.17520804462E+04 -0.18702641853E+03  0.27742087930E+03  0.17837396434E+04  0.50400001928E-02 0.  1.
       -1    1    3    3    0  502  0.17520804462E+04  0.18702641853E+03  0.12263513693E+04  0.21467888700E+04  0.50400001928E-02 0. -1.
</event>
<event>
 5   0  0.1496287E-07  0.3697944E+04  0.7818609E-02  0.8068418E-01
        1   -1    0    0  501    0  0.00000000000E+00  0.00000000000E+00  0.30945848593E+04  0.30945848593E+04  0.50400001928E-02 0.  1.
       -1   -1    0    0    0  501  0.00000000000E+00  0.00000000000E+00 -0.11047354923E+04  0.11047354923E+04  0.50400001928E-02 0. -1.
    10030    2    1    2    0    0  0.00000000000E+00  0.00000000000E+00  0.19898493670E+04  0.41993203516E+04  0.36979441466E+04 0.  0.
        1    1    3    3  502    0 -0.12680171573E+04  0.90212952720E+03  0.21287982012E+04  0.26369465251E+04  0.50400001928E-02 0. -1.
       -1    1    3    3    0  502  0.12680171573E+04 -0.90212952720E+03 -0.13894883420E+03  0.15623738264E+04  0.50400001928E-02 0.  1.
</event>
<event>
 5   0  0.1496000E-07  0.3688229E+04  0.7818609E-02  0.8070575E-01
       -1   -1    0    0    0  501  0.00000000000E+00  0.00000000000E+00  0.20988386471E+04  0.20988386471E+04  0.50400001928E-02 0. -1.
        1   -1    0    0  501    0  0.00000000000E+00  0.00000000000E+00 -0.16203048969E+04  0.16203048969E+04  0.50400001928E-02 0.  1.
    10030    2    1    2    0    0  0.00000000000E+00  0.00000000000E+00  0.47853375017E+03  0.37191435440E+04  0.36882291348E+04 0.  0.
        3    1    3    3  502    0  0.17161265515E+04  0.60781210881E+03 -0.56848430098E+02  0.18214712884E+04  0.10100000352E+00 0. -1.
       -3    1    3    3    0  502 -0.17161265515E+04 -0.60781210881E+03  0.53538218027E+03  0.18976722556E+04  0.10100000352E+00 0.  1.
</event>
<event>
 5   0  0.1496287E-07  0.3699128E+04  0.7818609E-02  0.8068155E-01
       -1   -1    0    0    0  501  0.00000000000E+00  0.00000000000E+00  0.10644147718E+04  0.10644147718E+04  0.50400001928E-02 0. -1.
        1   -1    0    0  501    0  0.00000000000E+00  0.00000000000E+00 -0.32138665792E+04  0.32138665792E+04  0.50400001928E-02 0.  1.
    10030    2    1    2    0    0  0.00000000000E+00  0.00000000000E+00 -0.21494518074E+04  0.42782813510E+04  0.36991280386E+04 0.  0.
        1    1    3    3  502    0 -0.14006675126E+04  0.95263968900E+03 -0.19336224323E+04  0.25706589756E+04  0.50400001928E-02 0.  1.
       -1    1    3    3    0  502  0.14006675126E+04 -0.95263968900E+03 -0.21582937507E+03  0.17076223754E+04  0.50400001928E-02 0. -1.
</event>
<event>
 5   0  0.4687817E-07  0.3722806E+04  0.7818609E-02  0.8062926E-01
        2   -1    0    0  501    0  0.00000000000E+00  0.00000000000E+00  0.15730391215E+04  0.15730391215E+04  0.25500000920E-02 0.  1.
       -2   -1    0    0    0  501  0.00000000000E+00  0.00000000000E+00 -0.22026289926E+04  0.22026289926E+04  0.25500000920E-02 0. -1.
    10030    2    1    2    0    0  0.00000000000E+00  0.00000000000E+00 -0.62958987108E+03  0.37756681141E+04  0.37228062402E+04 0.  0.
        4    1    3    3  502    0  0.22537151749E+03  0.13508543512E+04 -0.15933381521E+04  0.21010301947E+04  0.12699999809E+01 0. -1.
       -4    1    3    3    0  502 -0.22537151749E+03 -0.13508543512E+04  0.96374828101E+03  0.16746379194E+04  0.12699999809E+01 0.  1.
</event>
<event>
 5   0  0.4758908E-07  0.3735446E+04  0.7818609E-02  0.8060152E-01
        2   -1    0    0  501    0  0.00000000000E+00  0.00000000000E+00  0.22033987529E+04  0.22033987529E+04  0.25500000920E-02 0.  1.
       -2   -1    0    0    0  501  0.00000000000E+00  0.00000000000E+00 -0.15831852314E+04  0.15831852314E+04  0.25500000920E-02 0. -1.
    10030    2    1    2    0    0  0.00000000000E+00  0.00000000000E+00  0.62021352148E+03  0.37865839844E+04  0.37354455502E+04 0.  0.
        2    1    3    3  502    0 -0.85868292910E+03  0.14178223103E+04 -0.56239239882E+03  0.17503832971E+04  0.25500000920E-02 0. -1.
       -2    1    3    3    0  502  0.85868292910E+03 -0.14178223103E+04  0.11826059203E+04  0.20362006873E+04  0.25500000920E-02 0.  1.
</event>
<event>
 5   0  0.4758908E-07  0.3668579E+04  0.7818609E-02  0.8074961E-01
        2   -1    0    0  501    0  0.00000000000E+00  0.00000000000E+00  0.17442856402E+04  0.17442856402E+04  0.25500000920E-02 0.  1.
       -2   -1    0    0    0  501  0.00000000000E+00  0.00000000000E+00 -0.19289375488E+04  0.19289375488E+04  0.25500000920E-02 0. -1.
    10030    2    1    2    0    0  0.00000000000E+00  0.00000000000E+00 -0.18465190856E+03  0.36732231890E+04  0.36685790531E+04 0.  0.
        2    1    3    3  502    0 -0.16099989050E+04  0.46661535471E+03  0.65346036852E+03  0.17991211234E+04  0.25500000920E-02 0.  1.
       -2    1    3    3    0  502  0.16099989050E+04 -0.46661535471E+03 -0.83811227708E+03  0.18741020656E+04  0.25500000920E-02 0. -1.
</event>
<event>
 5   0  0.4824268E-07  0.3697537E+04  0.7818609E-02  0.8068508E-01
       -2   -1    0    0    0  501  0.00000000000E+00  0.00000000000E+00  0.17382973376E+04  0.17382973377E+04  0.25500000920E-02 0. -1.
        2   -1    0    0  501    0  0.00000000000E+00  0.00000000000E+00 -0.19662603373E+04  0.19662603373E+04  0.25500000920E-02 0.  1.
    10030    2    1    2    0    0  0.00000000000E+00  0.00000000000E+00 -0.22796299968E+03  0.37045576750E+04  0.36975370773E+04 0.  0.
        1    1    3    3  502    0  0.11236948894E+04 -0.11154762401E+04  0.84227698868E+03  0.17934346859E+04  0.50400001928E-02 0. -1.
       -1    1    3    3    0  502 -0.11236948894E+04  0.11154762401E+04 -0.10702399884E+04  0.19111229891E+04  0.50400001928E-02 0.  1.
</event>
<event>
 5   0  0.4857514E-07  0.3697683E+04  0.7818609E-02  0.8068475E-01
        2   -1    0    0  501    0  0.00000000000E+00  0.00000000000E+00  0.14725546302E+04  0.14725546302E+04  0.25500000920E-02 0. -1.
       -2   -1    0    0    0  501  0.00000000000E+00  0.00000000000E+00 -0.23212828081E+04  0.23212828081E+04  0.25500000920E-02 0.  1.
    10030    2    1    2    0    0  0.00000000000E+00  0.00000000000E+00 -0.84872817788E+03  0.37938374383E+04  0.36976834624E+04 0.  0.
        5    1    3    3  502    0 -0.11540619284E+04  0.12492581359E+04 -0.11682620398E+04  0.20633378561E+04  0.46999998093E+01 0.  1.
       -5    1    3    3    0  502  0.11540619284E+04 -0.12492581359E+04  0.31953386194E+03  0.17304995821E+04  0.46999998093E+01 0. -1.
</event>
<event>
 5   0  0.1496000E-07  0.3664375E+04  0.7818609E-02  0.8075903E-01
        1   -1    0    0  501    0  0.00000000000E+00  0.00000000000E+00  0.21961278831E+04  0.21961278831E+04  0.50400001928E-02 0.  1.
       -1   -1    0    0    0  501  0.00000000000E+00  0.00000000000E+00 -0.15285593595E+04  0.15285593595E+04  0.50400001928E-02 0. -1.
    10030    2    1    2    0    0  0.00000000000E+00  0.00000000000E+00  0.66756852355E+03  0.37246872426E+04  0.36643754341E+04 0.  0.
        2    1    3    3  502    0 -0.46273074172E+03  0.13575329280E+04 -0.82511110278E+03  0.16546370363E+04  0.25500000920E-02 0. -1.
       -2    1    3    3    0  502  0.46273074172E+03 -0.13575329280E+04  0.14926796263E+04  0.20700502063E+04  0.25500000920E-02 0.  1.
</event>
<event>
 5   0  0.1496000E-07  0.3665870E+04  0.7818609E-02  0.8075568E-01
        1   -1    0    0  501    0  0.00000000000E+00  0.00000000000E+00  0.28615688039E+04  0.28615688039E+04  0.50400001928E-02 0. -1.
       -1   -1    0    0    0  501  0.00000000000E+00  0.00000000000E+00 -0.11740590152E+04  0.11740590152E+04  0.50400001928E-02 0.  1.
    10030    2    1    2    0    0  0.00000000000E+00  0.00000000000E+00  0.16875097886E+04  0.40356278191E+04  0.36658699660E+04 0.  0.
        3    1    3    3  502    0  0.49224840249E+03  0.49682395748E+02  0.27866720364E+04  0.28302504975E+04  0.10100000352E+00 0. -1.
       -3    1    3    3    0  502 -0.49224840249E+03 -0.49682395748E+02 -0.10991622478E+04  0.12053773216E+04  0.10100000352E+00 0.  1.
</event>
<event>
 5   0  0.1496287E-07  0.3701625E+04  0.7818609E-02  0.8067602E-01
       -1   -1    0    0    0  501  0.00000000000E+00  0.00000000000E+00  0.19852333049E+04  0.19852333049E+04  0.50400001928E-02 0. -1.
        1   -1    0    0  501    0  0.00000000000E+00  0.00000000000E+00 -0.17254930565E+04  0.17254930565E+04  0.50400001928E-02 0.  1.
    10030    2    1    2    0    0  0.00000000000E+00  0.00000000000E+00  0.25974024841E+03  0.37107263615E+04  0.37016246613E+04 0.  0.
        1    1    3    3  502    0  0.59843169746E+03  0.32992595571E+03  0.18541385662E+04  0.19760570476E+04  0.50400001928E-02 0. -1.
       -1    1    3    3    0  502 -0.59843169746E+03 -0.32992595571E+03 -0.15943983178E+04  0.17346693139E+04  0.50400001928E-02 0.  1.
</event>
<event>
 5   0  0.1496000E-07  0.3668712E+04  0.7818609E-02  0.8074931E-01
       -1   -1    0    0    0  501  0.00000000000E+00  0.00000000000E+00  0.13468636281E+04  0.13468636281E+04  0.50400001928E-02 0. -1.
        1   -1    0    0  501    0  0.00000000000E+00  0.00000000000E+00 -0.24982939539E+04  0.24982939539E+04  0.50400001928E-02 0.  1.
    10030    2    1    2    0    0  0.00000000000E+00  0.00000000000E+00 -0.11514303258E+04  0.38451575820E+04  0.36687116315E+04 0.  0.
        2    1    3    3  502    0 -0.10077721495E+04 -0.39054742012E+03 -0.21291349547E+04  0.23877494944E+04  0.25500000920E-02 0.  1.
       -2    1    3    3    0  502  0.10077721495E+04  0.39054742012E+03  0.97770462886E+03  0.14574080877E+04  0.25500000920E-02 0. -1.
</event>
<event>
 5   0  0.4793557E-07  0.3682774E+04  0.7818609E-02  0.8071790E-01
       -2   -1    0    0    0  501  0.00000000000E+00  0.00000000000E+00  0.12703261614E+04  0.12703261614E+04  0.25500000920E-02 0.  1.
        2   -1    0    0  501    0  0.00000000000E+00  0.00000000000E+00 -0.26691625191E+04  0.26691625191E+04  0.25500000920E-02 0. -1.
    10030    2    1    2    0    0  0.00000000000E+00  0.00000000000E+00 -0.13988363577E+04  0.39394886805E+04  0.36827744851E+04 0.  0.
        3    1    3    3  502    0  0.83584037926E+03 -0.15561590933E+04 -0.12557137180E+04  0.21672741439E+04  0.10100000352E+00 0. -1.
       -3    1    3    3    0  502 -0.83584037926E+03  0.15561590933E+04 -0.14312263970E+03  0.17722145365E+04  0.10100000352E+00 0.  1.
</event>
<event>
 5   0  0.1496000E-07  0.3647105E+04  0.7818609E-02  0.8079786E-01
        1   -1    0    0  501    0  0.00000000000E+00  0.00000000000E+00  0.16028391946E+04  0.16028391946E+04  0.50400001928E-02 0. -1.
       -1   -1    0    0    0  501  0.00000000000E+00  0.00000000000E+00 -0.20746586404E+04  0.20746586404E+04  0.50400001928E-02 0.  1.
    10030    2    1    2    0    0  0.00000000000E+00  0.00000000000E+00 -0.47181944586E+03  0.36774978350E+04  0.36471052544E+04 0.  0.
        2    1    3    3  502    0 -0.18202796838E+04  0.76838457108E+02 -0.31415735445E+03  0.18487880136E+04  0.25500000920E-02 0. -1.
       -2    1    3    3    0  502  0.18202796838E+04 -0.76838457108E+02 -0.15766209141E+03  0.18287098214E+04  0.25500000920E-02 0.  1.
</event>
<event>
 5   0  0.4857514E-07  0.3728256E+04  0.7818609E-02  0.8061729E-01
       -2   -1    0    0    0  501  0.00000000000E+00  0.00000000000E+00  0.19561810674E+04  0.19561810674E+04  0.25500000920E-02 0. -1.
        2   -1    0    0  501    0  0.00000000000E+00  0.00000000000E+00 -0.17764071988E+04  0.17764071988E+04  0.25500000920E-02 0.  1.
    10030    2    1    2    0    0  0.00000000000E+00  0.00000000000E+00  0.17977386863E+03  0.37325882662E+04  0.37282564988E+04 0.  0.
        5    1    3    3  502    0 -0.17624782975E+03  0.15854857747E+04  0.10554366383E+04  0.19127982191E+04  0.46999998093E+01 0. -1.
       -5    1    3    3    0  502  0.17624782975E+03 -0.15854857747E+04 -0.87566276969E+03  0.18197900471E+04  0.46999998093E+01 0.  1.
</event>
<event>
 5   0  0.4824268E-07  0.3675299E+04  0.7818609E-02  0.8073458E-01
       -2   -1    0    0    0  501  0.00000000000E+00  0.00000000000E+00  0.97060221745E+03  0.97060221745E+03  0.25500000920E-02 0.  1.
        2   -1    0    0  501    0  0.00000000000E+00  0.00000000000E+00 -0.34792379432E+04  0.34792379432E+04  0.25500000920E-02 0. -1.
    10030    2    1    2    0    0  0.00000000000E+00  0.00000000000E+00 -0.25086357257E+04  0.44498401606E+04  0.36752992056E+04 0.  0.
        1    1    3    3  502    0  0.96874924838E+03  0.32979299959E+02  0.63591156021E+03  0.11592869588E+04  0.50400001928E-02 0.  1.
       -1    1    3    3    0  502 -0.96874924838E+03 -0.32979299959E+02 -0.31445472859E+04  0.32905532018E+04  0.50400001928E-02 0. -1.
</event>
<event>
 5   0  0.1496000E-07  0.3694715E+04  0.7818609E-02  0.8069134E-01
       -1   -1    0    0    0  501  0.00000000000E+00  0.00000000000E+00  0.15381491171E+04  0.15381491171E+04  0.50400001928E-02 0. -1.
        1   -1    0    0  501    0  0.00000000000E+00  0.00000000000E+00 -0.22187245493E+04  0.22187245493E+04  0.50400001928E-02 0.  1.
    10030    2    1    2    0    0  0.00000000000E+00  0.00000000000E+00 -0.68057543223E+03  0.37568736665E+04  0.36947147152E+04 0.  0.
        5    1    3    3  502    0 -0.28598323523E+03  0.57667426227E+03  0.14204234232E+04  0.15594756833E+04  0.46999998093E+01 0. -1.
       -5    1    3    3    0  502  0.28598323523E+03 -0.57667426227E+03 -0.21009988555E+04  0.21973979831E+04  0.46999998093E+01 0.  1.
</event>
<event>
 5   0  0.1496000E-07  0.3710963E+04  0.7818609E-02  0.8065537E-01
       -1   -1    0    0    0  501  0.00000000000E+00  0.00000000000E+00  0.31796333188E+04  0.31796333188E+04  0.50400001928E-02 0. -1.
        1   -1    0    0  501    0  0.00000000000E+00  0.00000000000E+00 -0.10827698152E+04  0.10827698153E+04  0.50400001928E-02 0.  1.
    10030    2    1    2    0    0  0.00000000000E+00  0.00000000000E+00  0.20968635036E+04  0.42624031341E+04  0.37109626682E+04 0.  0.
        3    1    3    3  502    0  0.33734548324E+03 -0.15776183233E+04 -0.43565104108E+01  0.16132887337E+04  0.10100000352E+00 0.  1.
       -3    1    3    3    0  502 -0.33734548324E+03  0.15776183233E+04  0.21012200140E+04  0.26491144004E+04  0.10100000352E+00 0. -1.
</event>
<event>
 5   0  0.1496287E-07  0.3660525E+04  0.7818609E-02  0.8076767E-01
       -1   -1    0    0    0  501  0.00000000000E+00  0.00000000000E+00  0.23846264320E+04  0.23846264320E+04  0.50400001928E-02 0.  1.
        1   -1    0    0  501    0  0.00000000000E+00  0.00000000000E+00 -0.14047740287E+04  0.14047740287E+04  0.50400001928E-02 0. -1.
    10030    2    1    2    0    0  0.00000000000E+00  0.00000000000E+00  0.97985240335E+03  0.37894004607E+04  0.36605252518E+04 0.  0.
        1    1    3    3  502    0 -0.14023518201E+03 -0.89864099768E+03 -0.11542740569E+04  0.14695475996E+04  0.50400001928E-02 0. -1.
       -1    1    3    3    0  502  0.14023518201E+03  0.89864099768E+03  0.21341264602E+04  0.23198528611E+04  0.50400001928E-02 0.  1.
</event>
<event>
 5   0  0.1496000E-07  0.3709354E+04  0.7818609E-02  0.8065892E-01
       -1   -1    0    0    0  501  0.00000000000E+00  0.00000000000E+00  0.14293338899E+04  0.14293338899E+04  0.50400001928E-02 0.  1.
        1   -1    0    0  501    0  0.00000000000E+00  0.00000000000E+00 -0.24065941490E+04  0.24065941490E+04  0.50400001928E-02 0. -1.
    10030    2    1    2    0    0  0.00000000000E+00  0.00000000000E+00 -0.97726025913E+03  0.38359280389E+04  0.37093538933E+04 0.  0.
        5    1    3    3  502    0 -0.70121301065E+03  0.15260607256E+04  0.32514215916E+03  0.17106433112E+04  0.46999998093E+01 0.  1.
       -5    1    3    3    0  502  0.70121301065E+03 -0.15260607256E+04 -0.13024024183E+04  0.21252847277E+04  0.46999998093E+01 0. -1.
</event>
<event>
 5   0  0.4758908E-07  0.3700810E+04  0.7818609E-02  0.8067782E-01
        2   -1    0    0  501    0  0.00000000000E+00  0.00000000000E+00  0.27143904396E+04  0.27143904396E+04  0.25500000920E-02 0. -1.
       -2   -1    0    0    0  501  0.00000000000E+00  0.00000000000E+00 -0.12614247463E+04  0.12614247463E+04  0.25500000920E-02 0.  1.
    10030    2    1    2    0    0  0.00000000000E+00  0.00000000000E+00  0.14529656934E+04  0.39758151859E+04  0.37008103283E+04 0.  0.
        2    1    3    3  502    0  0.56315670815E+03  0.16826630001E+04  0.12903663526E+04  0.21939793923E+04  0.25500000920E-02 0. -1.
       -2    1    3    3    0  502 -0.56315670815E+03 -0.16826630001E+04  0.16259934073E+03  0.17818357936E+04  0.25500000920E-02 0.  1.
</event>
<event>
 5   0  0.1496000E-07  0.3417580E+04  0.7818609E-02  0.8133605E-01
       -1   -1    0    0    0  501  0.00000000000E+00  0.00000000000E+00  0.11799319014E+04  0.11799319014E+04  0.50400001928E-02 0. -1.
        1   -1    0    0  501    0  0.00000000000E+00  0.00000000000E+00 -0.24746879936E+04  0.24746879936E+04  0.50400001928E-02 0.  1.
    10030    2    1    2    0    0  0.00000000000E+00  0.00000000000E+00 -0.12947560922E+04  0.36546198950E+04  0.34175800267E+04 0.  0.
        2    1    3    3  502    0  0.32474617537E+02 -0.81341183677E+03 -0.22540058029E+04  0.23965048668E+04  0.25500000920E-02 0.  1.
       -2    1    3    3    0  502 -0.32474617537E+02  0.81341183677E+03  0.95924971067E+03  0.12581150283E+04  0.25500000920E-02 0. -1.
</event>
<event>
 5   0  0.4857514E-07  0.3617230E+04  0.7818609E-02  0.8086556E-01
       -2   -1    0    0    0  501  0.00000000000E+00  0.00000000000E+00  0.16894030404E+04  0.16894030404E+04  0.25500000920E-02 0. -1.
        2   -1    0    0  501    0  0.00000000000E+00  0.00000000000E+00 -0.19362387886E+04  0.19362387886E+04  0.25500000920E-02 0.  1.
    10030    2    1    2    0    0  0.00000000000E+00  0.00000000000E+00 -0.24683574828E+03  0.36256418290E+04  0.36172297115E+04 0.  0.
        5    1    3    3  502    0 -0.48584361121E+03 -0.17297090911E+04 -0.33157377637E+03  0.18269922862E+04  0.46999998093E+01 0.  1.
       -5    1    3    3    0  502  0.48584361121E+03  0.17297090911E+04  0.84738028090E+02  0.17986495428E+04  0.46999998093E+01 0. -1.
</event>
<event>
 5   0  0.1496000E-07  0.3702832E+04  0.7818609E-02  0.8067335E-01
       -1   -1    0    0    0  501  0.00000000000E+00  0.00000000000E+00  0.14561654932E+04  0.14561654932E+04  0.50400001928E-02 0. -1.
        1   -1    0    0  501    0  0.00000000000E+00  0.00000000000E+00 -0.23539499974E+04  0.23539499974E+04  0.50400001928E-02 0.  1.
    10030    2    1    2    0    0  0.00000000000E+00  0.00000000000E+00 -0.89778450414E+03  0.38101154906E+04  0.37028317591E+04 0.  0.
        3    1    3    3  502    0  0.55667318486E+03 -0.72175998827E+03  0.12092939532E+04  0.15143362872E+04  0.10100000352E+00 0. -1.
       -3    1    3    3    0  502 -0.55667318486E+03  0.72175998827E+03 -0.21070784573E+04  0.22957792034E+04  0.10100000352E+00 0.  1.
</event>
<event>
 5   0  0.4793557E-07  0.3650704E+04  0.7818609E-02  0.8078975E-01
       -2   -1    0    0    0  501  0.00000000000E+00  0.00000000000E+00  0.13130122511E+04  0.13130122511E+04  0.25500000920E-02 0. -1.
        2   -1    0    0  501    0  0.00000000000E+00  0.00000000000E+00 -0.25376077621E+04  0.25376077621E+04  0.25500000920E-02 0.  1.
    10030    2    1    2    0    0  0.00000000000E+00  0.00000000000E+00 -0.12245955110E+04  0.38506200132E+04  0.36507040855E+04 0.  0.
        3    1    3    3  502    0  0.14967955213E+04 -0.10063767389E+04 -0.31636428816E+03  0.18311956057E+04  0.10100000352E+00 0. -1.
       -3    1    3    3    0  502 -0.14967955213E+04  0.10063767389E+04 -0.90823122289E+03  0.20194244075E+04  0.10100000352E+00 0.  1.
</event>
<event>
 5   0  0.4857514E-07  0.3731697E+04  0.7818609E-02  0.8060974E-01
       -2   -1    0    0    0  501  0.00000000000E+00  0.00000000000E+00  0.22156346485E+04  0.22156346485E+04  0.25500000920E-02 0. -1.
        2   -1    0    0  501    0  0.00000000000E+00  0.00000000000E+00 -0.15712834988E+04  0.15712834988E+04  0.25500000920E-02 0.  1.
    10030    2    1    2    0    0  0.00000000000E+00  0.00000000000E+00  0.64435114972E+03  0.37869181472E+04  0.37316967521E+04 0.  0.
        5    1    3    3  502    0  0.95187678744E+03 -0.13992558574E+04  0.11195392546E+04  0.20291319833E+04  0.46999998093E+01 0. -1.
       -5    1    3    3    0  502 -0.95187678744E+03  0.13992558574E+04 -0.47518810490E+03  0.17577861639E+04  0.46999998093E+01 0.  1.
</event>
<event>
 5   0  0.4857514E-07  0.3725696E+04  0.7818609E-02  0.8062291E-01
        2   -1    0    0  501    0  0.00000000000E+00  0.00000000000E+00  0.19673735241E+04  0.19673735241E+04  0.25500000920E-02 0. -1.
       -2   -1    0    0    0  501  0.00000000000E+00  0.00000000000E+00 -0.17638759089E+04  0.17638759089E+04  0.25500000920E-02 0.  1.
    10030    2    1    2    0    0  0.00000000000E+00  0.00000000000E+00  0.20349761522E+03  0.37312494330E+04  0.37256960493E+04 0.  0.
        5    1    3    3  502    0 -0.23297796954E+03 -0.82578827573E+03  0.17576872307E+04  0.19559374994E+04  0.46999998093E+01 0. -1.
       -5    1    3    3    0  502  0.23297796954E+03  0.82578827573E+03 -0.15541896155E+04  0.17753119336E+04  0.46999998093E+01 0.  1.
</event>
<event>
 5   0  0.4793557E-07  0.3701400E+04  0.7818609E-02  0.8067652E-01
       -2   -1    0    0    0  501  0.00000000000E+00  0.00000000000E+00  0.24384105504E+04  0.24384105504E+04  0.25500000920E-02 0.  1.
        2   -1    0    0  501    0  0.00000000000E+00  0.00000000000E+00 -0.14046403453E+04  0.14046403453E+04  0.25500000920E-02 0. -1.
    10030    2    1    2    0    0  0.00000000000E+00  0.00000000000E+00  0.10337702051E+04  0.38430508957E+04  0.37013996474E+04 0.  0.
        3    1    3    3  502    0  0.33165268239E+03  0.76948226365E+03 -0.11964150317E+04  0.14606523865E+04  0.10100000352E+00 0. -1.
       -3    1    3    3    0  502 -0.33165268239E+03 -0.76948226365E+03  0.22301852368E+04  0.23823985092E+04  0.10100000352E+00 0.  1.
</event>
<event>
 5   0  0.1496287E-07  0.3708753E+04  0.7818609E-02  0.8066025E-01
        1   -1    0    0  501    0  0.00000000000E+00  0.00000000000E+00  0.24279113640E+04  0.24279113640E+04  0.50400001928E-02 0. -1.
       -1   -1    0    0    0  501  0.00000000000E+00  0.00000000000E+00 -0.14163256389E+04  0.14163256389E+04  0.50400001928E-02 0.  1.
    10030    2    1    2    0    0  0.00000000000E+00  0.00000000000E+00  0.10115857252E+04  0.38442370029E+04  0.37087534908E+04 0.  0.
        1    1    3    3  502    0  0.18121199235E+04 -0.36871462437E+03  0.64860867822E+03  0.19596995456E+04  0.50400001928E-02 0.  1.
       -1    1    3    3    0  502 -0.18121199235E+04  0.36871462437E+03  0.36297704694E+03  0.18845374573E+04  0.50400001928E-02 0. -1.
</event>
<event>
 5   0  0.1522273E-07  0.3288828E+04  0.7818609E-02  0.8165744E-01
       -1   -1    0    0    0  501  0.00000000000E+00  0.00000000000E+00  0.12522190600E+04  0.12522190600E+04  0.50400001928E-02 0. -1.
        1   -1    0    0  501    0  0.00000000000E+00  0.00000000000E+00 -0.21594438102E+04  0.21594438102E+04  0.50400001928E-02 0.  1.
    10030    2    1    2    0    0  0.00000000000E+00  0.00000000000E+00 -0.90722475025E+03  0.34116628702E+04  0.32888275711E+04 0.  0.
        4    1    3    3  502    0 -0.40419358077E+03  0.15566952358E+04 -0.80908061901E+03  0.18003570671E+04  0.12699999809E+01 0.  1.
       -4    1    3    3    0  502  0.40419358077E+03 -0.15566952358E+04 -0.98144131240E+02  0.16113058032E+04  0.12699999809E+01 0. -1.
</event>
<event>
 5   0  0.1496000E-07  0.3773041E+04  0.7818609E-02  0.8051965E-01
       -1   -1    0    0    0  501  0.00000000000E+00  0.00000000000E+00  0.21789795559E+04  0.21789795559E+04  0.50400001928E-02 0. -1.
        1   -1    0    0  501    0  0.00000000000E+00  0.00000000000E+00 -0.16333147428E+04  0.16333147428E+04  0.50400001928E-02 0.  1.
    10030    2    1    2    0    0  0.00000000000E+00  0.00000000000E+00  0.54566481308E+03  0.38122942988E+04  0.37730409131E+04 0.  0.
        5    1    3    3  502    0 -0.20806470811E+03  0.18672495338E+04  0.44497387382E+03  0.19307862602E+04  0.46999998093E+01 0.  1.
       -5    1    3    3    0  502  0.20806470811E+03 -0.18672495338E+04  0.10069093926E+03  0.18815080386E+04  0.46999998093E+01 0. -1.
</event>
<event>
 5   0  0.4758908E-07  0.3624082E+04  0.7818609E-02  0.8084998E-01
       -2   -1    0    0    0  501  0.00000000000E+00  0.00000000000E+00  0.17148796383E+04  0.17148796383E+04  0.25500000920E-02 0.  1.
        2   -1    0    0  501    0  0.00000000000E+00  0.00000000000E+00 -0.19147072251E+04  0.19147072251E+04  0.25500000920E-02 0. -1.
    10030    2    1    2    0    0  0.00000000000E+00  0.00000000000E+00 -0.19982758686E+03  0.36295868634E+04  0.36240819161E+04 0.  0.
        2    1    3    3  502    0 -0.14068594478E+04  0.34059335471E+03  0.99180396898E+03  0.17546887051E+04  0.25500000920E-02 0.  1.
       -2    1    3    3    0  502  0.14068594478E+04 -0.34059335471E+03 -0.11916315558E+04  0.18748981583E+04  0.25500000920E-02 0. -1.
</event>
<event>
 5   0  0.1496000E-07  0.3723695E+04  0.7818609E-02  0.8062731E-01
       -1   -1    0    0    0  501  0.00000000000E+00  0.00000000000E+00  0.13784359018E+04  0.13784359019E+04  0.50400001928E-02 0.  1.
        1   -1    0    0  501    0  0.00000000000E+00  0.00000000000E+00 -0.25147898887E+04  0.25147898887E+04  0.50400001928E-02 0. -1.
    10030    2    1    2    0    0  0.00000000000E+00  0.00000000000E+00 -0.11363539868E+04  0.38932257905E+04  0.37236952980E+04 0.  0.
        3    1    3    3  502    0 -0.55437062965E+03  0.14776314787E+04 -0.16009523462E+04  0.22480591645E+04  0.10100000352E+00 0. -1.
       -3    1    3    3    0  502  0.55437062965E+03 -0.14776314787E+04  0.46459835940E+03  0.16451666261E+04  0.10100000352E+00 0.  1.
</event>
<event>
 5   0  0.1522273E-07  0.3686736E+04  0.7818609E-02  0.8070908E-01
        1   -1    0    0  501    0  0.00000000000E+00  0.00000000000E+00  0.13322127260E+04  0.13322127260E+04  0.50400001928E-02 0. -1.
       -1   -1    0    0    0  501  0.00000000000E+00  0.00000000000E+00 -0.25506476965E+04  0.25506476965E+04  0.50400001928E-02 0.  1.
    10030    2    1    2    0    0  0.00000000000E+00  0.00000000000E+00 -0.12184349705E+04  0.38828604225E+04  0.36867358575E+04 0.  0.
        4    1    3    3  502    0  0.24717244032E+03  0.80853899845E+03 -0.23343965900E+04  0.24827884685E+04  0.12699999809E+01 0.  1.
       -4    1    3    3    0  502 -0.24717244032E+03 -0.80853899845E+03  0.11159616195E+04  0.14000719540E+04  0.12699999809E+01 0. -1.
</event>
<event>
 5   0  0.4687817E-07  0.3578052E+04  0.7818609E-02  0.8095538E-01
       -2   -1    0    0    0  501  0.00000000000E+00  0.00000000000E+00  0.21368228070E+04  0.21368228070E+04  0.25500000920E-02 0.  1.
        2   -1    0    0  501    0  0.00000000000E+00  0.00000000000E+00 -0.14978382030E+04  0.14978382030E+04  0.25500000920E-02 0. -1.
    10030    2    1    2    0    0  0.00000000000E+00  0.00000000000E+00  0.63898460396E+03  0.36346610100E+04  0.35780524498E+04 0.  0.
        4    1    3    3  502    0 -0.16127454852E+04  0.44598459258E+03  0.96256637369E+03  0.19303849081E+04  0.12699999809E+01 0. -1.
       -4    1    3    3    0  502  0.16127454852E+04 -0.44598459258E+03 -0.32358176972E+03  0.17042761019E+04  0.12699999809E+01 0.  1.
</event>
<event>
 5   0  0.1522273E-07  0.3671090E+04  0.7818609E-02  0.8074399E-01
       -1   -1    0    0    0  501  0.00000000000E+00  0.00000000000E+00  0.18735057473E+04  0.18735057473E+04  0.50400001928E-02 0. -1.
        1   -1    0    0  501    0  0.00000000000E+00  0.00000000000E+00 -0.17983535907E+04  0.17983535907E+04  0.50400001928E-02 0.  1.
    10030    2    1    2    0    0  0.00000000000E+00  0.00000000000E+00  0.75152156634E+02  0.36718593380E+04  0.36710901856E+04 0.  0.
        4    1    3    3  502    0 -0.12194504704E+04 -0.11866087687E+03  0.14046412526E+04  0.18639094707E+04  0.12699999809E+01 0. -1.
       -4    1    3    3    0  502  0.12194504704E+04  0.11866087687E+03 -0.13294890960E+04  0.18079498673E+04  0.12699999809E+01 0.  1.
</event>
<event>
 5   0  0.1522273E-07  0.3725668E+04  0.7818609E-02  0.8062297E-01
       -1   -1    0    0    0  501  0.00000000000E+00  0.00000000000E+00  0.19152435942E+04  0.19152435942E+04  0.50400001928E-02 0. -1.
        1   -1    0    0  501    0  0.00000000000E+00  0.00000000000E+00 -0.18118588747E+04  0.18118588747E+04  0.50400001928E-02 0.  1.
    10030    2    1    2    0    0  0.00000000000E+00  0.00000000000E+00  0.10338471957E+03  0.37271024689E+04  0.37256683177E+04 0.  0.
        4    1    3    3  502    0 -0.46026910891E+03 -0.11542736032E+04  0.14400141230E+04  0.19020613794E+04  0.12699999809E+01 0. -1.
       -4    1    3    3    0  502  0.46026910891E+03  0.11542736032E+04 -0.13366294034E+04  0.18250410895E+04  0.12699999809E+01 0.  1.
</event>
<event>
 5   0  0.1496287E-07  0.3664861E+04  0.7818609E-02  0.8075794E-01
        1   -1    0    0  501    0  0.00000000000E+00  0.00000000000E+00  0.10897065906E+04  0.10897065906E+04  0.50400001928E-02 0. -1.
       -1   -1    0    0    0  501  0.00000000000E+00  0.00000000000E+00 -0.30813819099E+04  0.30813819099E+04  0.50400001928E-02 0.  1.
    10030    2    1    2    0    0  0.00000000000E+00  0.00000000000E+00 -0.19916753193E+04  0.41710885005E+04  0.36648613481E+04 0.  0.
        1    1    3    3  502    0  0.45631054291E+03  0.16956166211E+04 -0.15920995226E+04  0.23702565109E+04  0.50400001928E-02 0.  1.
       -1    1    3    3    0  502 -0.45631054291E+03 -0.16956166211E+04 -0.39957579668E+03  0.18008319896E+04  0.50400001928E-02 0. -1.
</event>
<event>
 5   0  0.4824268E-07  0.3689338E+04  0.7818609E-02  0.8070329E-01
       -2   -1    0    0    0  501  0.00000000000E+00  0.00000000000E+00  0.16363038844E+04  0.16363038844E+04  0.25500000920E-02 0. -1.
        2   -1    0    0  501    0  0.00000000000E+00  0.00000000000E+00 -0.20795674557E+04  0.20795674557E+04  0.25500000920E-02 0.  1.
    10030    2    1    2    0    0  0.00000000000E+00  0.00000000000E+00 -0.44326357125E+03  0.37158713401E+04  0.36893383177E+04 0.  0.
        1    1    3    3  502    0 -0.71220895005E+03  0.16472925495E+04 -0.65130266118E+03  0.19091907942E+04  0.50400001928E-02 0.  1.
       -1    1    3    3    0  502  0.71220895005E+03 -0.16472925495E+04  0.20803908993E+03  0.18066805459E+04  0.50400001928E-02 0. -1.
</event>
<event>
 5   0  0.1496000E-07  0.3713212E+04  0.7818609E-02  0.8065040E-01
       -1   -1    0    0    0  501  0.00000000000E+00  0.00000000000E+00  0.22318435609E+04  0.22318435610E+04  0.50400001928E-02 0.  1.
        1   -1    0    0  501    0  0.00000000000E+00  0.00000000000E+00 -0.15444566630E+04  0.15444566630E+04  0.50400001928E-02 0. -1.
    10030    2    1    2    0    0  0.00000000000E+00  0.00000000000E+00  0.68738689799E+03  0.37763002239E+04  0.37132119026E+04 0.  0.
        3    1    3    3  502    0 -0.85092682271E+03  0.15184755040E+03 -0.13273460671E+04  0.15839765555E+04  0.10100000352E+00 0. -1.
       -3    1    3    3    0  502  0.85092682271E+03 -0.15184755040E+03  0.20147329651E+04  0.21923236684E+04  0.10100000352E+00 0.  1.
</event>
<event>
 5   0  0.4758908E-07  0.3730784E+04  0.7818609E-02  0.8061174E-01
       -2   -1    0    0    0  501  0.00000000000E+00  0.00000000000E+00  0.16058250900E+04  0.16058250900E+04  0.25500000920E-02 0.  1.
        2   -1    0    0  501    0  0.00000000000E+00  0.00000000000E+00 -0.21669158615E+04  0.21669158615E+04  0.25500000920E-02 0. -1.
    10030    2    1    2    0    0  0.00000000000E+00  0.00000000000E+00 -0.56109077152E+03  0.37727409515E+04  0.37307842919E+04 0.  0.
        2    1    3    3  502    0 -0.17765990755E+04  0.44776823250E+03 -0.63504042243E+03  0.19390917986E+04  0.25500000920E-02 0. -1.
       -2    1    3    3    0  502  0.17765990755E+04 -0.44776823250E+03  0.73949650914E+02  0.18336491529E+04  0.25500000920E-02 0.  1.
</event>
<event>
 5   0  0.4793557E-07  0.3653419E+04  0.7818609E-02  0.8078364E-01
       -2   -1    0    0    0  501  0.00000000000E+00  0.00000000000E+00  0.14301985305E+04  0.14301985305E+04  0.25500000920E-02 0.  1.
        2   -1    0    0  501    0  0.00000000000E+00  0.00000000000E+00 -0.23331503814E+04  0.23331503814E+04  0.25500000920E-02 0. -1.
    10030    2    1    2    0    0  0.00000000000E+00  0.00000000000E+00 -0.90295185092E+03  0.37633489118E+04  0.36534193555E+04 0.  0.
        3    1    3    3  502    0 -0.42587115515E+03  0.87415508993E+03  0.11414551127E+04  0.14994776246E+04  0.10100000352E+00 0.  1.
       -3    1    3    3    0  502  0.42587115515E+03 -0.87415508993E+03 -0.20444069637E+04  0.22638712873E+04  0.10100000352E+00 0. -1.
</event>
<event>
 5   0  0.1496000E-07  0.3688821E+04  0.7818609E-02  0.8070444E-01
        1   -1    0    0  501    0  0.00000000000E+00  0.00000000000E+00  0.16962597269E+04  0.16962597269E+04  0.50400001928E-02 0. -1.
       -1   -1    0    0    0  501  0.00000000000E+00  0.00000000000E+00 -0.20055002066E+04  0.20055002066E+04  0.50400001928E-02 0.  1.
    10030    2    1    2    0    0  0.00000000000E+00  0.00000000000E+00 -0.30924047972E+03  0.37017599336E+04  0.36888205339E+04 0.  0.
        5    1    3    3  502    0 -0.55676804488E+03  0.66610367926E+03 -0.17876398094E+04  0.19873004166E+04  0.46999998093E+01 0.  1.
       -5    1    3    3    0  502  0.55676804488E+03 -0.66610367926E+03  0.14783993297E+04  0.17144595170E+04  0.46999998093E+01 0. -1.
</event>
<event>
 5   0  0.4687817E-07  0.3647921E+04  0.7818609E-02  0.8079602E-01
        2   -1    0    0  501    0  0.00000000000E+00  0.00000000000E+00  0.11896911745E+04  0.11896911745E+04  0.25500000920E-02 0. -1.
       -2   -1    0    0    0  501  0.00000000000E+00  0.00000000000E+00 -0.27963831014E+04  0.27963831015E+04  0.25500000920E-02 0.  1.
    10030    2    1    2    0    0  0.00000000000E+00  0.00000000000E+00 -0.16066919269E+04  0.39860742760E+04  0.36479212143E+04 0.  0.
        4    1    3    3  502    0  0.95358829962E+03 -0.12435714570E+04 -0.18231494934E+04  0.24040957348E+04  0.12699999809E+01 0.  1.
       -4    1    3    3    0  502 -0.95358829962E+03  0.12435714570E+04  0.21645756644E+03  0.15819785412E+04  0.12699999809E+01 0. -1.
</event>
<event>
 5   0  0.4687817E-07  0.3710884E+04  0.7818609E-02  0.8065554E-01
        2   -1    0    0  501    0  0.00000000000E+00  0.00000000000E+00  0.13427245382E+04  0.13427245382E+04  0.25500000920E-02 0. -1.
       -2   -1    0    0    0  501  0.00000000000E+00  0.00000000000E+00 -0.25639400287E+04  0.25639400287E+04  0.25500000920E-02 0.  1.
    10030    2    1    2    0    0  0.00000000000E+00  0.00000000000E+00 -0.12212154905E+04  0.39066645670E+04  0.37108840947E+04 0.  0.
        4    1    3    3  502    0  0.18139859610E+04  0.18435202985E+03 -0.97244564801E+03  0.20664420845E+04  0.12699999809E+01 0.  1.
       -4    1    3    3    0  502 -0.18139859610E+04 -0.18435202985E+03 -0.24876984251E+03  0.18402224824E+04  0.12699999809E+01 0. -1.
</event>
<event>
 5   0  0.4758908E-07  0.3688457E+04  0.7818609E-02  0.8070525E-01
        2   -1    0    0  501    0  0.00000000000E+00  0.00000000000E+00  0.14519203333E+04  0.14519203333E+04  0.25500000920E-02 0.  1.
       -2   -1    0    0    0  501  0.00000000000E+00  0.00000000000E+00 -0.23425385740E+04  0.23425385740E+04  0.25500000920E-02 0. -1.
    10030    2    1    2    0    0  0.00000000000E+00  0.00000000000E+00 -0.89061824077E+03  0.37944589073E+04  0.36884573399E+04 0.  0.
        2    1    3    3  502    0  0.66638629150E+03  0.16060437444E+04 -0.10775711290E+04  0.20456311340E+04  0.25500000920E-02 0. -1.
       -2    1    3    3    0  502 -0.66638629150E+03 -0.16060437444E+04  0.18695288823E+03  0.17488277733E+04  0.25500000920E-02 0.  1.
</event>
<event>
 5   0  0.1496000E-07  0.3697392E+04  0.7818609E-02  0.8068540E-01
       -1   -1    0    0    0  501  0.00000000000E+00  0.00000000000E+00  0.21224857894E+04  0.21224857894E+04  0.50400001928E-02 0.  1.
        1   -1    0    0  501    0  0.00000000000E+00  0.00000000000E+00 -0.16102233596E+04  0.16102233596E+04  0.50400001928E-02 0. -1.
    10030    2    1    2    0    0  0.00000000000E+00  0.00000000000E+00  0.51226242982E+03  0.37327091491E+04  0.36973916204E+04 0.  0.
        5    1    3    3  502    0 -0.68451675713E+03  0.70738666984E+03 -0.13236467335E+04  0.16495520169E+04  0.46999998093E+01 0. -1.
       -5    1    3    3    0  502  0.68451675713E+03 -0.70738666984E+03  0.18359091633E+04  0.20831571322E+04  0.46999998093E+01 0.  1.
</event>
<event>
 5   0  0.4793557E-07  0.3670346E+04  0.7818609E-02  0.8074565E-01
       -2   -1    0    0    0  501  0.00000000000E+00  0.00000000000E+00  0.14603201888E+04  0.14603201888E+04  0.25500000920E-02 0. -1.
        2   -1    0    0  501    0  0.00000000000E+00  0.00000000000E+00 -0.23062479102E+04  0.23062479102E+04  0.25500000920E-02 0.  1.
    10030    2    1    2    0    0  0.00000000000E+00  0.00000000000E+00 -0.84592772144E+03  0.37665680990E+04  0.36703462418E+04 0.  0.
        3    1    3    3  502    0  0.48239584742E+03 -0.94626302597E+03 -0.19587745268E+04  0.22282093989E+04  0.10100000352E+00 0.  1.
       -3    1    3    3    0  502 -0.48239584742E+03  0.94626302597E+03  0.11128468054E+04  0.15383587002E+04  0.10100000352E+00 0. -1.
</event>
<event>
 5   0  0.1496000E-07  0.3748197E+04  0.7818609E-02  0.8057364E-01
       -1   -1    0    0    0  501  0.00000000000E+00  0.00000000000E+00  0.18845024685E+04  0.18845024685E+04  0.50400001928E-02 0.  1.
        1   -1    0    0  501    0  0.00000000000E+00  0.00000000000E+00 -0.18637522413E+04  0.18637522414E+04  0.50400001928E-02 0. -1.
    10030    2    1    2    0    0  0.00000000000E+00  0.00000000000E+00  0.20750227124E+02  0.37482547098E+04  0.37481972731E+04 0.  0.
        3    1    3    3  502    0  0.48478623877E+03 -0.17098468227E+04 -0.58432033261E+03  0.18708351385E+04  0.10100000352E+00 0. -1.
       -3    1    3    3    0  502 -0.48478623877E+03  0.17098468227E+04  0.60507055973E+03  0.18774195713E+04  0.10100000352E+00 0.  1.
</event>
<event>
 5   0  0.4687817E-07  0.3673407E+04  0.7818609E-02  0.8073881E-01
        2   -1    0    0  501    0  0.00000000000E+00  0.00000000000E+00  0.18254298927E+04  0.18254298927E+04  0.25500000920E-02 0. -1.
       -2   -1    0    0    0  501  0.00000000000E+00  0.00000000000E+00 -0.18480462759E+04  0.18480462759E+04  0.25500000920E-02 0.  1.
    10030    2    1    2    0    0  0.00000000000E+00  0.00000000000E+00 -0.22616383133E+02  0.36734761686E+04  0.36734065472E+04 0.  0.
        4    1    3    3  502    0 -0.30805778537E+03 -0.17856326995E+04 -0.31146978284E+03  0.18385860804E+04  0.12699999809E+01 0. -1.
       -4    1    3    3    0  502  0.30805778537E+03  0.17856326995E+04  0.28885339970E+03  0.18348900882E+04  0.12699999809E+01 0.  1.
</event>
<event>
 5   0  0.1522273E-07  0.3688390E+04  0.7818609E-02  0.8070540E-01
        1   -1    0    0  501    0  0.00000000000E+00  0.00000000000E+00  0.29288840187E+04  0.29288840187E+04  0.50400001928E-02 0.  1.
       -1   -1    0    0    0  501  0.00000000000E+00  0.00000000000E+00 -0.11612122895E+04  0.11612122895E+04  0.50400001928E-02 0. -1.
    10030    2    1    2    0    0  0.00000000000E+00  0.00000000000E+00  0.17676717292E+04  0.40900963083E+04  0.36883904984E+04 0.  0.
        4    1    3    3  502    0 -0.10382194091E+04  0.51332084141E+03 -0.70761801321E+03  0.13572482061E+04  0.12699999809E+01 0. -1.
       -4    1    3    3    0  502  0.10382194091E+04 -0.51332084141E+03  0.24752897424E+04  0.27328481021E+04  0.12699999809E+01 0.  1.
</event>
<event>
 5   0  0.1496000E-07  0.3687425E+04  0.7818609E-02  0.8070754E-01
        1   -1    0    0  501    0  0.00000000000E+00  0.00000000000E+00  0.21966098106E+04  0.21966098106E+04  0.50400001928E-02 0.  1.
       -1   -1    0    0    0  501  0.00000000000E+00  0.00000000000E+00 -0.15475101967E+04  0.15475101967E+04  0.50400001928E-02 0. -1.
    10030    2    1    2    0    0  0.00000000000E+00  0.00000000000E+00  0.64909961394E+03  0.37441200073E+04  0.36874251613E+04 0.  0.
        3    1    3    3  502    0  0.11020054673E+04 -0.12129629135E+04  0.11822750302E+04  0.20207595940E+04  0.10100000352E+00 0.  1.
       -3    1    3    3    0  502 -0.11020054673E+04  0.12129629135E+04 -0.53317541626E+03  0.17233604133E+04  0.10100000352E+00 0. -1.
</event>
<event>
 5   0  0.4758908E-07  0.3670722E+04  0.7818609E-02  0.8074481E-01
       -2   -1    0    0    0  501  0.00000000000E+00  0.00000000000E+00  0.16723665237E+04  0.16723665237E+04  0.25500000920E-02 0. -1.
        2   -1    0    0  501    0  0.00000000000E+00  0.00000000000E+00 -0.20142410056E+04  0.20142410056E+04  0.25500000920E-02 0.  1.
    10030    2    1    2    0    0  0.00000000000E+00  0.00000000000E+00 -0.34187448191E+03  0.36866075293E+04  0.36707215795E+04 0.  0.
        2    1    3    3  502    0  0.12254543167E+04 -0.22315568997E+02  0.12011056784E+04  0.17160685061E+04  0.25500000920E-02 0. -1.
       -2    1    3    3    0  502 -0.12254543167E+04  0.22315568997E+02 -0.15429801603E+04  0.19705390232E+04  0.25500000920E-02 0.  1.
</event>
<event>
 5   0  0.1496000E-07  0.3685592E+04  0.7818609E-02  0.8071162E-01
        1   -1    0    0  501    0  0.00000000000E+00  0.00000000000E+00  0.20227009591E+04  0.20227009591E+04  0.50400001928E-02 0.  1.
       -1   -1    0    0    0  501  0.00000000000E+00  0.00000000000E+00 -0.16788922926E+04  0.16788922926E+04  0.50400001928E-02 0. -1.
    10030    2    1    2    0    0  0.00000000000E+00  0.00000000000E+00  0.34380866643E+03  0.37015932517E+04  0.36855919744E+04 0.  0.
        3    1    3    3  502    0  0.15942924257E+04 -0.59637679935E+03 -0.53718031893E+03  0.17849359458E+04  0.10100000352E+00 0. -1.
       -3    1    3    3    0  502 -0.15942924257E+04  0.59637679935E+03  0.88098898536E+03  0.19166573058E+04  0.10100000352E+00 0.  1.
</event>
<event>
 5   0  0.4687817E-07  0.3721772E+04  0.7818609E-02  0.8063154E-01
       -2   -1    0    0    0  501  0.00000000000E+00  0.00000000000E+00  0.16202795727E+04  0.16202795727E+04  0.25500000920E-02 0. -1.
        2   -1    0    0  501    0  0.00000000000E+00  0.00000000000E+00 -0.21372219922E+04  0.21372219922E+04  0.25500000920E-02 0.  1.
    10030    2    1    2    0    0  0.00000000000E+00  0.00000000000E+00 -0.51694241951E+03  0.37575015649E+04  0.37217722318E+04 0.  0.
        4    1    3    3  502    0 -0.12599447594E+04  0.80711635467E+03  0.85849418481E+03  0.17250830371E+04  0.12699999809E+01 0. -1.
       -4    1    3    3    0  502  0.12599447594E+04 -0.80711635467E+03 -0.13754366043E+04  0.20324185278E+04  0.12699999809E+01 0.  1.
</event>
<event>
 5   0  0.4824268E-07  0.3703510E+04  0.7818609E-02  0.8067184E-01
        2   -1    0    0  501    0  0.00000000000E+00  0.00000000000E+00  0.12018866329E+04  0.12018866329E+04  0.25500000920E-02 0. -1.
       -2   -1    0    0    0  501  0.00000000000E+00  0.00000000000E+00 -0.28530119721E+04  0.28530119721E+04  0.25500000920E-02 0.  1.
    10030    2    1    2    0    0  0.00000000000E+00  0.00000000000E+00 -0.16511253392E+04  0.40548986050E+04  0.37035102013E+04 0.  0.
        1    1    3    3  502    0  0.58517081839E+03 -0.14692917759E+04  0.22902529647E+03  0.15980287219E+04  0.50400001928E-02 0. -1.
       -1    1    3    3    0  502 -0.58517081839E+03  0.14692917759E+04 -0.18801506357E+04  0.24568698831E+04  0.50400001928E-02 0.  1.
</event>
<event>
 5   0  0.4793557E-07  0.3702507E+04  0.7818609E-02  0.8067406E-01
       -2   -1    0    0    0  501  0.00000000000E+00  0.00000000000E+00  0.17824074444E+04  0.17824074444E+04  0.25500000920E-02 0.  1.
        2   -1    0    0  501    0  0.00000000000E+00  0.00000000000E+00 -0.19227590963E+04  0.19227590963E+04  0.25500000920E-02 0. -1.
    10030    2    1    2    0    0  0.00000000000E+00  0.00000000000E+00 -0.14035165188E+03  0.37051665407E+04  0.37025073272E+04 0.  0.
        3    1    3    3  502    0 -0.32629698373E+03 -0.10043904286E+04  0.14513997772E+04  0.17949460098E+04  0.10100000352E+00 0.  1.
       -3    1    3    3    0  502  0.32629698373E+03  0.10043904286E+04 -0.15917514291E+04  0.19102205309E+04  0.10100000352E+00 0. -1.
</event>
<event>
 5   0  0.4793557E-07  0.3713462E+04  0.7818609E-02  0.8064985E-01
       -2   -1    0    0    0  501  0.00000000000E+00  0.00000000000E+00  0.10971811811E+04  0.10971811811E+04  0.25500000920E-02 0. -1.
        2   -1    0    0  501    0  0.00000000000E+00  0.00000000000E+00 -0.31420973438E+04  0.31420973438E+04  0.25500000920E-02 0.  1.
    10030    2    1    2    0    0  0.00000000000E+00  0.00000000000E+00 -0.20449161627E+04  0.42392785248E+04  0.37134620368E+04 0.  0.
        3    1    3    3  502    0  0.13577158217E+04  0.12612698046E+04 -0.11538970052E+04  0.21830419330E+04  0.10100000352E+00 0.  1.
       -3    1    3    3    0  502 -0.13577158217E+04 -0.12612698046E+04 -0.89101915753E+03  0.20562365919E+04  0.10100000352E+00 0. -1.
</event>
<event>
 5   0  0.4857514E-07  0.3723488E+04  0.7818609E-02  0.8062776E-01
        2   -1    0    0  501    0  0.00000000000E+00  0.00000000000E+00  0.13630226647E+04  0.13630226647E+04  0.25500000920E-02 0.  1.
       -2   -1    0    0    0  501  0.00000000000E+00  0.00000000000E+00 -0.25429446638E+04  0.25429446638E+04  0.25500000920E-02 0. -1.
    10030    2    1    2    0    0  0.00000000000E+00  0.00000000000E+00 -0.11799219991E+04  0.39059673285E+04  0.37234882634E+04 0.  0.
        5    1    3    3  502    0  0.14458035566E+04  0.87734227553E+03  0.22664387011E+03  0.17063021206E+04  0.46999998093E+01 0.  1.
       -5    1    3    3    0  502 -0.14458035566E+04 -0.87734227553E+03 -0.14065658692E+04  0.21996652080E+04  0.46999998093E+01 0. -1.
</event>
<event>
 5   0  0.1496000E-07  0.3710663E+04  0.7818609E-02  0.8065603E-01
        1   -1    0    0  501    0  0.00000000000E+00  0.00000000000E+00  0.22845147867E+04  0.22845147867E+04  0.50400001928E-02 0.  1.
       -1   -1    0    0    0  501  0.00000000000E+00  0.00000000000E+00 -0.15067771839E+04  0.15067771839E+04  0.50400001928E-02 0. -1.
    10030    2    1    2    0    0  0.00000000000E+00  0.00000000000E+00  0.77773760282E+03  0.37912919706E+04  0.37106628825E+04 0.  0.
        3    1    3    3  502    0 -0.70144383092E+03 -0.58946478939E+03  0.20372323670E+04  0.22337877950E+04  0.10100000352E+00 0.  1.
       -3    1    3    3    0  502  0.70144383092E+03  0.58946478939E+03 -0.12594947641E+04  0.15575041756E+04  0.10100000352E+00 0. -1.
</event>
<event>
 5   0  0.1522273E-07  0.3665813E+04  0.7818609E-02  0.8075581E-01
        1   -1    0    0  501    0  0.00000000000E+00  0.00000000000E+00  0.30862019685E+04  0.30862019685E+04  0.50400001928E-02 0.  1.
       -1   -1    0    0    0  501  0.00000000000E+00  0.00000000000E+00 -0.10885695178E+04  0.10885695178E+04  0.50400001928E-02 0. -1.
    10030    2    1    2    0    0  0.00000000000E+00  0.00000000000E+00  0.19976324507E+04  0.41747714863E+04  0.36658125368E+04 0.  0.
        4    1    3    3  502    0 -0.20661062859E+03  0.12366840869E+04 -0.52376906533E+03  0.13588271153E+04  0.12699999809E+01 0.  1.
       -4    1    3    3    0  502  0.20661062859E+03 -0.12366840869E+04  0.25214015160E+04  0.28159443710E+04  0.12699999809E+01 0. -1.
</event>
<event>
 5   0  0.4687817E-07  0.3692324E+04  0.7818609E-02  0.8069665E-01
        2   -1    0    0  501    0  0.00000000000E+00  0.00000000000E+00  0.29813664237E+04  0.29813664237E+04  0.25500000920E-02 0.  1.
       -2   -1    0    0    0  501  0.00000000000E+00  0.00000000000E+00 -0.11432056013E+04  0.11432056013E+04  0.25500000920E-02 0. -1.
    10030    2    1    2    0    0  0.00000000000E+00  0.00000000000E+00  0.18381608224E+04  0.41245720250E+04  0.36923243602E+04 0.  0.
        4    1    3    3  502    0 -0.87059132080E+02  0.17373577771E+04  0.16097870057E+04  0.23701069923E+04  0.12699999809E+01 0.  1.
       -4    1    3    3    0  502  0.87059132080E+02 -0.17373577771E+04  0.22837381662E+03  0.17544650328E+04  0.12699999809E+01 0. -1.
</event>
<event>
 5   0  0.1496000E-07  0.3668096E+04  0.7818609E-02  0.8075069E-01
        1   -1    0    0  501    0  0.00000000000E+00  0.00000000000E+00  0.19803842763E+04  0.19803842763E+04  0.50400001928E-02 0. -1.
       -1   -1    0    0    0  501  0.00000000000E+00  0.00000000000E+00 -0.16985247765E+04  0.16985247766E+04  0.50400001928E-02 0.  1.
    10030    2    1    2    0    0  0.00000000000E+00  0.00000000000E+00  0.28185949976E+03  0.36789090529E+04  0.36680958332E+04 0.  0.
        3    1    3    3  502    0  0.23293476992E+03  0.18190186932E+04  0.16638442226E+03  0.18414047353E+04  0.10100000352E+00 0.  1.
       -3    1    3    3    0  502 -0.23293476992E+03 -0.18190186932E+04  0.11547507750E+03  0.18375043175E+04  0.10100000352E+00 0. -1.
</event>
<event>
 5   0  0.1522273E-07  0.3680371E+04  0.7818609E-02  0.8072326E-01
        1   -1    0    0  501    0  0.00000000000E+00  0.00000000000E+00  0.13429852392E+04  0.13429852392E+04  0.50400001928E-02 0.  1.
       -1   -1    0    0    0  501  0.00000000000E+00  0.00000000000E+00 -0.25214596691E+04  0.25214596691E+04  0.50400001928E-02 0. -1.
    10030    2    1    2    0    0  0.00000000000E+00  0.00000000000E+00 -0.11784744299E+04  0.38644449083E+04  0.36803712404E+04 0.  0.
        4    1    3    3  502    0 -0.10243185145E+04  0.16521684017E+03 -0.21850376869E+04  0.24188667449E+04  0.12699999809E+01 0. -1.
       -4    1    3    3    0  502  0.10243185145E+04 -0.16521684017E+03  0.10065632570E+04  0.14455781634E+04  0.12699999809E+01 0.  1.
</event>
<event>
 5   0  0.1496000E-07  0.3718751E+04  0.7818609E-02  0.8063819E-01
       -1   -1    0    0    0  501  0.00000000000E+00  0.00000000000E+00  0.13137934047E+04  0.13137934047E+04  0.50400001928E-02 0.  1.
        1   -1    0    0  501    0  0.00000000000E+00  0.00000000000E+00 -0.26315220920E+04  0.26315220920E+04  0.50400001928E-02 0. -1.
    10030    2    1    2    0    0  0.00000000000E+00  0.00000000000E+00 -0.13177286873E+04  0.39453154967E+04  0.37187505261E+04 0.  0.
        5    1    3    3  502    0  0.20834170754E+03 -0.17473315660E+04 -0.21708058657E+02  0.17598486294E+04  0.46999998093E+01 0.  1.
       -5    1    3    3    0  502 -0.20834170754E+03  0.17473315660E+04 -0.12960206286E+04  0.21854668674E+04  0.46999998093E+01 0. -1.
</event>
<event>
 5   0  0.1496000E-07  0.3659352E+04  0.7818609E-02  0.8077030E-01
       -1   -1    0    0    0  501  0.00000000000E+00  0.00000000000E+00  0.15196196186E+04  0.15196196186E+04  0.50400001928E-02 0. -1.
        1   -1    0    0  501    0  0.00000000000E+00  0.00000000000E+00 -0.22029943635E+04  0.22029943635E+04  0.50400001928E-02 0.  1.
    10030    2    1    2    0    0  0.00000000000E+00  0.00000000000E+00 -0.68337474485E+03  0.37226139821E+04  0.36593515570E+04 0.  0.
        3    1    3    3  502    0 -0.11208451518E+04 -0.13207156259E+04 -0.94105024142E+03  0.19713343669E+04  0.10100000352E+00 0. -1.
       -3    1    3    3    0  502  0.11208451518E+04  0.13207156259E+04  0.25767549657E+03  0.17512796152E+04  0.10100000352E+00 0.  1.
</event>
<event>
 5   0  0.1496000E-07  0.3688816E+04  0.7818609E-02  0.8070445E-01
        1   -1    0    0  501    0  0.00000000000E+00  0.00000000000E+00  0.13076676772E+04  0.13076676772E+04  0.50400001928E-02 0.  1.
       -1   -1    0    0    0  501  0.00000000000E+00  0.00000000000E+00 -0.26014568074E+04  0.26014568074E+04  0.50400001928E-02 0. -1.
    10030    2    1    2    0    0  0.00000000000E+00  0.00000000000E+00 -0.12937891302E+04  0.39091244846E+04  0.36888160598E+04 0.  0.
        5    1    3    3  502    0 -0.11117503857E+04  0.11475862014E+04 -0.16232649494E+04  0.22777081015E+04  0.46999998093E+01 0. -1.
       -5    1    3    3    0  502  0.11117503857E+04 -0.11475862014E+04  0.32947581921E+03  0.16314163831E+04  0.46999998093E+01 0.  1.
</event>
<event>
 5   0  0.1496000E-07  0.3722158E+04  0.7818609E-02  0.8063069E-01
        1   -1    0    0  501    0  0.00000000000E+00  0.00000000000E+00  0.19854096703E+04  0.19854096703E+04  0.50400001928E-02 0. -1.
       -1   -1    0    0    0  501  0.00000000000E+00  0.00000000000E+00 -0.17445338529E+04  0.17445338529E+04  0.50400001928E-02 0.  1.
    10030    2    1    2    0    0  0.00000000000E+00  0.00000000000E+00  0.24087581738E+03  0.37299435233E+04  0.37221576441E+04 0.  0.
        2    1    3    3  502    0  0.15498802678E+03 -0.18357249479E+04 -0.14413521070E+03  0.18478859087E+04  0.25500000920E-02 0. -1.
       -2    1    3    3    0  502 -0.15498802678E+03  0.18357249479E+04  0.38501102808E+03  0.18820576145E+04  0.25500000920E-02 0.  1.
</event>
<event>
 5   0  0.1496000E-07  0.3055259E+04  0.7818609E-02  0.8228125E-01
        1   -1    0    0  501    0  0.00000000000E+00  0.00000000000E+00  0.19683002113E+04  0.19683002113E+04  0.50400001928E-02 0.  1.
       -1   -1    0    0    0  501  0.00000000000E+00  0.00000000000E+00 -0.11856179899E+04  0.11856179899E+04  0.50400001928E-02 0. -1.
    10030    2    1    2    0    0  0.00000000000E+00  0.00000000000E+00  0.78268222138E+03  0.31539182013E+04  0.30552591642E+04 0.  0.
        2    1    3    3  502    0 -0.46279023819E+03 -0.93179309671E+02  0.18911136362E+04  0.19491454469E+04  0.25500000920E-02 0.  1.
       -2    1    3    3    0  502  0.46279023819E+03  0.93179309671E+02 -0.11084314148E+04  0.12047727543E+04  0.25500000920E-02 0. -1.
</event>
<event>
 5   0  0.4857514E-07  0.3697218E+04  0.7818609E-02  0.8068579E-01
        2   -1    0    0  501    0  0.00000000000E+00  0.00000000000E+00  0.23909802494E+04  0.23909802494E+04  0.25500000920E-02 0. -1.
       -2   -1    0    0    0  501  0.00000000000E+00  0.00000000000E+00 -0.14292694571E+04  0.14292694571E+04  0.25500000920E-02 0.  1.
    10030    2    1    2    0    0  0.00000000000E+00  0.00000000000E+00  0.96171079232E+03  0.38202497066E+04  0.36972178963E+04 0.  0.
        5    1    3    3  502    0 -0.58615584016E+03  0.10544533631E+04  0.19281374898E+04  0.22744640761E+04  0.46999998093E+01 0. -1.
       -5    1    3    3    0  502  0.58615584016E+03 -0.10544533631E+04 -0.96642669744E+03  0.15457856305E+04  0.46999998093E+01 0.  1.
</event>
<event>
 5   0  0.1496000E-07  0.3756289E+04  0.7818609E-02  0.8055601E-01
       -1   -1    0    0    0  501  0.00000000000E+00  0.00000000000E+00  0.29560113234E+04  0.29560113234E+04  0.50400001928E-02 0.  1.
        1   -1    0    0  501    0  0.00000000000E+00  0.00000000000E+00 -0.11933062155E+04  0.11933062155E+04  0.50400001928E-02 0. -1.
    10030    2    1    2    0    0  0.00000000000E+00  0.00000000000E+00  0.17627051078E+04  0.41493175389E+04  0.37562889587E+04 0.  0.
        3    1    3    3  502    0  0.14820612592E+03 -0.16121102772E+04  0.19331120725E+04  0.25214652282E+04  0.10100000352E+00 0.  1.
       -3    1    3    3    0  502 -0.14820612592E+03  0.16121102772E+04 -0.17040696468E+03  0.16278523107E+04  0.10100000352E+00 0. -1.
</event>
<event>
 5   0  0.4857514E-07  0.3658991E+04  0.7818609E-02  0.8077111E-01
       -2   -1    0    0    0  501  0.00000000000E+00  0.00000000000E+00  0.32438832305E+04  0.32438832305E+04  0.25500000920E-02 0. -1.
        2   -1    0    0  501    0  0.00000000000E+00  0.00000000000E+00 -0.10318049187E+04  0.10318049187E+04  0.25500000920E-02 0.  1.
    10030    2    1    2    0    0  0.00000000000E+00  0.00000000000E+00  0.22120783118E+04  0.42756881492E+04  0.36589914856E+04 0.  0.
        5    1    3    3  502    0 -0.66699007883E+03  0.65847648774E+03 -0.72993664897E+03  0.11879800721E+04  0.46999998093E+01 0.  1.
       -5    1    3    3    0  502  0.66699007883E+03 -0.65847648774E+03  0.29420149608E+04  0.30877080771E+04  0.46999998093E+01 0. -1.
</event>
<event>
 5   0  0.1496000E-07  0.3671854E+04  0.7818609E-02  0.8074228E-01
        1   -1    0    0  501    0  0.00000000000E+00  0.00000000000E+00  0.12593761729E+04  0.12593761729E+04  0.50400001928E-02 0. -1.
       -1   -1    0    0    0  501  0.00000000000E+00  0.00000000000E+00 -0.26764267330E+04  0.26764267330E+04  0.50400001928E-02 0.  1.
    10030    2    1    2    0    0  0.00000000000E+00  0.00000000000E+00 -0.14170505601E+04  0.39358029060E+04  0.36718540582E+04 0.  0.
        3    1    3    3  502    0 -0.14467743301E+04 -0.93777873554E+03 -0.32266377551E+02  0.17244204964E+04  0.10100000352E+00 0. -1.
       -3    1    3    3    0  502  0.14467743301E+04  0.93777873554E+03 -0.13847841825E+04  0.22113824096E+04  0.10100000352E+00 0.  1.
</event>
<event>
 5   0  0.4687817E-07  0.3591524E+04  0.7818609E-02  0.8092436E-01
        2   -1    0    0  501    0  0.00000000000E+00  0.00000000000E+00  0.25214436116E+04  0.25214436116E+04  0.25500000920E-02 0.  1.
       -2   -1    0    0    0  501  0.00000000000E+00  0.00000000000E+00 -0.12789347558E+04  0.12789347558E+04  0.25500000920E-02 0. -1.
    10030    2    1    2    0    0  0.00000000000E+00  0.00000000000E+00  0.12425088558E+04  0.38003783673E+04  0.35915243948E+04 0.  0.
        4    1    3    3  502    0 -0.17073702471E+04  0.34954185545E+03  0.10794080364E+04  0.20499795100E+04  0.12699999809E+01 0.  1.
       -4    1    3    3    0  502  0.17073702471E+04 -0.34954185545E+03  0.16310081940E+03  0.17503988573E+04  0.12699999809E+01 0. -1.
</event>
<event>
 5   0  0.1522273E-07  0.3245614E+04  0.7818609E-02  0.8176874E-01
       -1   -1    0    0    0  501  0.00000000000E+00  0.00000000000E+00  0.19644791475E+04  0.19644791475E+04  0.50400001928E-02 0. -1.
        1   -1    0    0  501    0  0.00000000000E+00  0.00000000000E+00 -0.13405598838E+04  0.13405598838E+04  0.50400001928E-02 0.  1.
    10030    2    1    2    0    0  0.00000000000E+00  0.00000000000E+00  0.62391926364E+03  0.33050390313E+04  0.32456136170E+04 0.  0.
        4    1    3    3  502    0 -0.36050200505E+02 -0.11097507090E+04 -0.89320178685E+03  0.14250113326E+04  0.12699999809E+01 0.  1.
       -4    1    3    3    0  502  0.36050200505E+02  0.11097507090E+04  0.15171210505E+04  0.18800276987E+04  0.12699999809E+01 0. -1.
</event>
<event>
 5   0  0.4687817E-07  0.3810893E+04  0.7818609E-02  0.8043821E-01
        2   -1    0    0  501    0  0.00000000000E+00  0.00000000000E+00  0.11567363011E+04  0.11567363011E+04  0.25500000920E-02 0. -1.
       -2   -1    0    0    0  501  0.00000000000E+00  0.00000000000E+00 -0.31387678670E+04  0.31387678670E+04  0.25500000920E-02 0.  1.
    10030    2    1    2    0    0  0.00000000000E+00  0.00000000000E+00 -0.19820315659E+04  0.42955041681E+04  0.38108931932E+04 0.  0.
        4    1    3    3  502    0 -0.43732571432E+03 -0.78607089154E+03 -0.28843719223E+04  0.30213844883E+04  0.12699999809E+01 0.  1.
       -4    1    3    3    0  502  0.43732571432E+03  0.78607089154E+03  0.90234035639E+03  0.12741196799E+04  0.12699999809E+01 0. -1.
</event>
<event>
 5   0  0.4758908E-07  0.3599076E+04  0.7818609E-02  0.8090703E-01
       -2   -1    0    0    0  501  0.00000000000E+00  0.00000000000E+00  0.27233739139E+04  0.27233739139E+04  0.25500000920E-02 0.  1.
        2   -1    0    0  501    0  0.00000000000E+00  0.00000000000E+00 -0.11890901666E+04  0.11890901666E+04  0.25500000920E-02 0. -1.
    10030    2    1    2    0    0  0.00000000000E+00  0.00000000000E+00  0.15342837473E+04  0.39124640805E+04  0.35990760709E+04 0.  0.
        2    1    3    3  502    0  0.10994912741E+04  0.47447350256E+02  0.23149180343E+04  0.25631967967E+04  0.25500000920E-02 0.  1.
       -2    1    3    3    0  502 -0.10994912741E+04 -0.47447350256E+02 -0.78063428706E+03  0.13492672838E+04  0.25500000920E-02 0. -1.
</event>
<event>
 5   0  0.1496287E-07  0.3664041E+04  0.7818609E-02  0.8075978E-01
        1   -1    0    0  501    0  0.00000000000E+00  0.00000000000E+00  0.21314285947E+04  0.21314285947E+04  0.50400001928E-02 0.  1.
       -1   -1    0    0    0  501  0.00000000000E+00  0.00000000000E+00 -0.15746712306E+04  0.15746712306E+04  0.50400001928E-02 0. -1.
    10030    2    1    2    0    0  0.00000000000E+00  0.00000000000E+00  0.55675736418E+03  0.37060998253E+04  0.36640410959E+04 0.  0.
        1    1    3    3  502    0 -0.47875097802E+03  0.17220416367E+04  0.68507540946E+03  0.19141468633E+04  0.50400001928E-02 0.  1.
       -1    1    3    3    0  502  0.47875097802E+03 -0.17220416367E+04 -0.12831804528E+03  0.17919529621E+04  0.50400001928E-02 0. -1.
</event>
<event>
 5   0  0.1496287E-07  0.3716010E+04  0.7818609E-02  0.8064423E-01
       -1   -1    0    0    0  501  0.00000000000E+00  0.00000000000E+00  0.15164955265E+04  0.15164955265E+04  0.50400001928E-02 0.  1.
        1   -1    0    0  501    0  0.00000000000E+00  0.00000000000E+00 -0.22764211805E+04  0.22764211805E+04  0.50400001928E-02 0. -1.
    10030    2    1    2    0    0  0.00000000000E+00  0.00000000000E+00 -0.75992565404E+03  0.37929167070E+04  0.37160099767E+04 0.  0.
        1    1    3    3  502    0  0.16711579572E+04 -0.39723644017E+03  0.34294426215E+03  0.17516210990E+04  0.50400001928E-02 0.  1.
       -1    1    3    3    0  502 -0.16711579572E+04  0.39723644017E+03 -0.11028699162E+04  0.20412956080E+04  0.50400001928E-02 0. -1.
</event>
<event>
 5   0  0.4857514E-07  0.3728430E+04  0.7818609E-02  0.8061690E-01
        2   -1    0    0  501    0  0.00000000000E+00  0.00000000000E+00  0.14093972836E+04  0.14093972836E+04  0.25500000920E-02 0. -1.
       -2   -1    0    0    0  501  0.00000000000E+00  0.00000000000E+00 -0.24658047248E+04  0.24658047248E+04  0.25500000920E-02 0.  1.
    10030    2    1    2    0    0  0.00000000000E+00  0.00000000000E+00 -0.10564074412E+04  0.38752020084E+04  0.37284304907E+04 0.  0.
        5    1    3    3  502    0  0.13457940899E+04  0.16277314888E+03 -0.18582746584E+04  0.23001877372E+04  0.46999998093E+01 0.  1.
       -5    1    3    3    0  502 -0.13457940899E+04 -0.16277314888E+03  0.80186721719E+03  0.15750142712E+04  0.46999998093E+01 0. -1.
</event>
<event>
 5   0  0.4793557E-07  0.3668840E+04  0.7818609E-02  0.8074903E-01
       -2   -1    0    0    0  501  0.00000000000E+00  0.00000000000E+00  0.14487055159E+04  0.14487055159E+04  0.25500000920E-02 0. -1.
        2   -1    0    0  501    0  0.00000000000E+00  0.00000000000E+00 -0.23228295870E+04  0.23228295870E+04  0.25500000920E-02 0.  1.
    10030    2    1    2    0    0  0.00000000000E+00  0.00000000000E+00 -0.87412407113E+03  0.37715351029E+04  0.36688396177E+04 0.  0.
        3    1    3    3  502    0 -0.27839935009E+03  0.18063564188E+04 -0.27561072902E+03  0.18483481799E+04  0.10100000352E+00 0.  1.
       -3    1    3    3    0  502  0.27839935009E+03 -0.18063564188E+04 -0.59851334211E+03  0.19231869230E+04  0.10100000352E+00 0. -1.
</event>
<event>
 5   0  0.4857514E-07  0.3684637E+04  0.7818609E-02  0.8071375E-01
        2   -1    0    0  501    0  0.00000000000E+00  0.00000000000E+00  0.19724674946E+04  0.19724674946E+04  0.25500000920E-02 0.  1.
       -2   -1    0    0    0  501  0.00000000000E+00  0.00000000000E+00 -0.17207573702E+04  0.17207573702E+04  0.25500000920E-02 0. -1.
    10030    2    1    2    0    0  0.00000000000E+00  0.00000000000E+00  0.25171012446E+03  0.36932248648E+04  0.36846372841E+04 0.  0.
        5    1    3    3  502    0  0.17093879497E+04 -0.65172157407E+03  0.34400356244E+03  0.18614802480E+04  0.46999998093E+01 0.  1.
       -5    1    3    3    0  502 -0.17093879497E+04  0.65172157407E+03 -0.92293437974E+02  0.18317446168E+04  0.46999998093E+01 0. -1.
</event>
<event>
 5   0  0.1496000E-07  0.3719841E+04  0.7818609E-02  0.8063579E-01
        1   -1    0    0  501    0  0.00000000000E+00  0.00000000000E+00  0.15891365966E+04  0.15891365966E+04  0.50400001928E-02 0.  1.
       -1   -1    0    0    0  501  0.00000000000E+00  0.00000000000E+00 -0.21768449899E+04  0.21768449899E+04  0.50400001928E-02 0. -1.
    10030    2    1    2    0    0  0.00000000000E+00  0.00000000000E+00 -0.58770839333E+03  0.37659815865E+04  0.37198408775E+04 0.  0.
        2    1    3    3  502    0  0.10607032165E+04 -0.13016988809E+04 -0.11036462046E+04  0.20093646347E+04  0.25500000920E-02 0. -1.
       -2    1    3    3    0  502 -0.10607032165E+04  0.13016988809E+04  0.51593781129E+03  0.17566169518E+04  0.25500000920E-02 0.  1.
</event>
<event>
 5   0  0.4687817E-07  0.3840529E+04  0.7818609E-02  0.8037513E-01
       -2   -1    0    0    0  501  0.00000000000E+00  0.00000000000E+00  0.28128780013E+04  0.28128780013E+04  0.25500000920E-02 0. -1.
        2   -1    0    0  501    0  0.00000000000E+00  0.00000000000E+00 -0.13109048301E+04  0.13109048301E+04  0.25500000920E-02 0.  1.
    10030    2    1    2    0    0  0.00000000000E+00  0.00000000000E+00  0.15019731712E+04  0.41237828314E+04  0.38405287960E+04 0.  0.
        4    1    3    3  502    0 -0.59132285948E+02 -0.51795023829E+03  0.27354408887E+04  0.27846736873E+04  0.12699999809E+01 0. -1.
       -4    1    3    3    0  502  0.59132285948E+02  0.51795023829E+03 -0.12334677175E+04  0.13391091440E+04  0.12699999809E+01 0.  1.
</event>
<event>
 5   0  0.1496000E-07  0.3735613E+04  0.7818609E-02  0.8060115E-01
        1   -1    0    0  501    0  0.00000000000E+00  0.00000000000E+00  0.22004558262E+04  0.22004558262E+04  0.50400001928E-02 0.  1.
       -1   -1    0    0    0  501  0.00000000000E+00  0.00000000000E+00 -0.15854446353E+04  0.15854446353E+04  0.50400001928E-02 0. -1.
    10030    2    1    2    0    0  0.00000000000E+00  0.00000000000E+00  0.61501119095E+03  0.37859004615E+04  0.37356128734E+04 0.  0.
        3    1    3    3  502    0  0.13989967571E+04  0.22637626537E+03 -0.92553317125E+03  0.16926457991E+04  0.10100000352E+00 0. -1.
       -3    1    3    3    0  502 -0.13989967571E+04 -0.22637626537E+03  0.15405443622E+04  0.20932546625E+04  0.10100000352E+00 0.  1.
</event>
<event>
 5   0  0.4793557E-07  0.3578520E+04  0.7818609E-02  0.8095430E-01
        2   -1    0    0  501    0  0.00000000000E+00  0.00000000000E+00  0.16843354853E+04  0.16843354853E+04  0.25500000920E-02 0. -1.
       -2   -1    0    0    0  501  0.00000000000E+00  0.00000000000E+00 -0.19007209753E+04  0.19007209753E+04  0.25500000920E-02 0.  1.
    10030    2    1    2    0    0  0.00000000000E+00  0.00000000000E+00 -0.21638549005E+03  0.35850564606E+04  0.35785202452E+04 0.  0.
        3    1    3    3  502    0  0.63381266778E+03 -0.10019167267E+04  0.12343654845E+04  0.17114946054E+04  0.10100000352E+00 0. -1.
       -3    1    3    3    0  502 -0.63381266778E+03  0.10019167267E+04 -0.14507509745E+04  0.18735618552E+04  0.10100000352E+00 0.  1.
</event>
<event>
 5   0  0.1496287E-07  0.3693803E+04  0.7818609E-02  0.8069336E-01
        1   -1    0    0  501    0  0.00000000000E+00  0.00000000000E+00  0.13568546038E+04  0.13568546038E+04  0.50400001928E-02 0.  1.
       -1   -1    0    0    0  501  0.00000000000E+00  0.00000000000E+00 -0.25139362845E+04  0.25139362845E+04  0.50400001928E-02 0. -1.
    10030    2    1    2    0    0  0.00000000000E+00  0.00000000000E+00 -0.11570816807E+04  0.38707908884E+04  0.36938034714E+04 0.  0.
        1    1    3    3  502    0  0.74481577935E+03  0.68295934812E+03 -0.21985308538E+04  0.24196532668E+04  0.50400001928E-02 0. -1.
       -1    1    3    3    0  502 -0.74481577935E+03 -0.68295934812E+03  0.10414491731E+04  0.14511376215E+04  0.50400001928E-02 0.  1.
</event>
<event>
 5   0  0.4857514E-07  0.3758259E+04  0.7818609E-02  0.8055172E-01
        2   -1    0    0  501    0  0.00000000000E+00  0.00000000000E+00  0.12014643607E+04  0.12014643607E+04  0.25500000920E-02 0.  1.
       -2   -1    0    0    0  501  0.00000000000E+00  0.00000000000E+00 -0.29390204163E+04  0.29390204163E+04  0.25500000920E-02 0. -1.
    10030    2    1    2    0    0  0.00000000000E+00  0.00000000000E+00 -0.17375560555E+04  0.41404847770E+04  0.37582593235E+04 0.  0.
        5    1    3    3  502    0  0.86497982615E+03  0.49271049528E+03  0.88709998631E+03  0.13333874934E+04  0.46999998093E+01 0.  1.
       -5    1    3    3    0  502 -0.86497982615E+03 -0.49271049528E+03 -0.26246560419E+04  0.28070972836E+04  0.46999998093E+01 0. -1.
</event>
<event>
 5   0  0.1522273E-07  0.3695389E+04  0.7818609E-02  0.8068984E-01
       -1   -1    0    0    0  501  0.00000000000E+00  0.00000000000E+00  0.14405230713E+04  0.14405230713E+04  0.50400001928E-02 0. -1.
        1   -1    0    0  501    0  0.00000000000E+00  0.00000000000E+00 -0.23699549326E+04  0.23699549326E+04  0.50400001928E-02 0.  1.
    10030    2    1    2    0    0  0.00000000000E+00  0.00000000000E+00 -0.92943186127E+03  0.38104780039E+04  0.36953888879E+04 0.  0.
        4    1    3    3  502    0 -0.28966561093E+03  0.11718454450E+04 -0.19071552413E+04  0.22570712529E+04  0.12699999809E+01 0.  1.
       -4    1    3    3    0  502  0.28966561093E+03 -0.11718454450E+04  0.97772338005E+03  0.15534067510E+04  0.12699999809E+01 0. -1.
</event>
<event>
 5   0  0.4758908E-07  0.3700109E+04  0.7818609E-02  0.8067938E-01
        2   -1    0    0  501    0  0.00000000000E+00  0.00000000000E+00  0.20813825359E+04  0.20813825359E+04  0.25500000920E-02 0. -1.
       -2   -1    0    0    0  501  0.00000000000E+00  0.00000000000E+00 -0.16444365461E+04  0.16444365461E+04  0.25500000920E-02 0.  1.
    10030    2    1    2    0    0  0.00000000000E+00  0.00000000000E+00  0.43694598985E+03  0.37258190820E+04  0.37001089219E+04 0.  0.
        2    1    3    3  502    0  0.73710085910E+03  0.12542353848E+04 -0.93239355032E+03  0.17279414949E+04  0.25500000920E-02 0.  1.
       -2    1    3    3    0  502 -0.73710085910E+03 -0.12542353848E+04  0.13693395402E+04  0.19978775872E+04  0.25500000920E-02 0. -1.
</event>
<event>
 5   0  0.4793557E-07  0.3716856E+04  0.7818609E-02  0.8064237E-01
        2   -1    0    0  501    0  0.00000000000E+00  0.00000000000E+00  0.15771262124E+04  0.15771262124E+04  0.25500000920E-02 0.  1.
       -2   -1    0    0    0  501  0.00000000000E+00  0.00000000000E+00 -0.21899040008E+04  0.21899040008E+04  0.25500000920E-02 0. -1.
    10030    2    1    2    0    0  0.00000000000E+00  0.00000000000E+00 -0.61277778840E+03  0.37670302132E+04  0.37168561997E+04 0.  0.
        3    1    3    3  502    0  0.83485316181E+03 -0.31833132381E+03 -0.19579384903E+04  0.21521704801E+04  0.10100000352E+00 0. -1.
       -3    1    3    3    0  502 -0.83485316181E+03  0.31833132381E+03  0.13451607019E+04  0.16148597331E+04  0.10100000352E+00 0.  1.
</event>
<event>
 5   0  0.1496000E-07  0.3733507E+04  0.7818609E-02  0.8060576E-01
        1   -1    0    0  501    0  0.00000000000E+00  0.00000000000E+00  0.16841645943E+04  0.16841645943E+04  0.50400001928E-02 0. -1.
       -1   -1    0    0    0  501  0.00000000000E+00  0.00000000000E+00 -0.20691382730E+04  0.20691382730E+04  0.50400001928E-02 0.  1.
    10030    2    1    2    0    0  0.00000000000E+00  0.00000000000E+00 -0.38497367875E+03  0.37533028673E+04  0.37335074234E+04 0.  0.
        5    1    3    3  502    0 -0.11611313904E+04 -0.68348782647E+03  0.11064030115E+04  0.17434252002E+04  0.46999998093E+01 0. -1.
       -5    1    3    3    0  502  0.11611313904E+04  0.68348782647E+03 -0.14913766903E+04  0.20098776672E+04  0.46999998093E+01 0.  1.
</event>
<event>
 5   0  0.1496000E-07  0.3683585E+04  0.7818609E-02  0.8071609E-01
        1   -1    0    0  501    0  0.00000000000E+00  0.00000000000E+00  0.17992998844E+04  0.17992998844E+04  0.50400001928E-02 0. -1.
       -1   -1    0    0    0  501  0.00000000000E+00  0.00000000000E+00 -0.18852882511E+04  0.18852882511E+04  0.50400001928E-02 0.  1.
    10030    2    1    2    0    0  0.00000000000E+00  0.00000000000E+00 -0.85988366716E+02  0.36845881355E+04  0.36835846304E+04 0.  0.
        2    1    3    3  502    0  0.14088840314E+04 -0.84049564544E+03 -0.88036726594E+03  0.18618361010E+04  0.25500000920E-02 0. -1.
       -2    1    3    3    0  502 -0.14088840314E+04  0.84049564544E+03  0.79437889922E+03  0.18227520345E+04  0.25500000920E-02 0.  1.
</event>
<event>
 5   0  0.4687817E-07  0.3693600E+04  0.7818609E-02  0.8069382E-01
        2   -1    0    0  501    0  0.00000000000E+00  0.00000000000E+00  0.97749796603E+03  0.97749796603E+03  0.25500000920E-02 0.  1.
       -2   -1    0    0    0  501  0.00000000000E+00  0.00000000000E+00 -0.34891832642E+04  0.34891832642E+04  0.25500000920E-02 0. -1.
    10030    2    1    2    0    0  0.00000000000E+00  0.00000000000E+00 -0.25116852981E+04  0.44666812302E+04  0.36935996230E+04 0.  0.
        4    1    3    3  502    0  0.27722565706E+03 -0.46784166325E+02 -0.34631520127E+04  0.34745454809E+04  0.12699999809E+01 0. -1.
       -4    1    3    3    0  502 -0.27722565706E+03  0.46784166325E+02  0.95146671456E+03  0.99213574926E+03  0.12699999809E+01 0.  1.
</event>
<event>
 5   0  0.4758908E-07  0.3726137E+04  0.7818609E-02  0.8062194E-01
       -2   -1    0    0    0  501  0.00000000000E+00  0.00000000000E+00  0.13014655581E+04  0.13014655581E+04  0.25500000920E-02 0. -1.
        2   -1    0    0  501    0  0.00000000000E+00  0.00000000000E+00 -0.26670119377E+04  0.26670119377E+04  0.25500000920E-02 0.  1.
    10030    2    1    2    0    0  0.00000000000E+00  0.00000000000E+00 -0.13655463796E+04  0.39684774958E+04  0.37261369701E+04 0.  0.
        2    1    3    3  502    0  0.11893292344E+04  0.55872354914E+03 -0.20894090692E+04  0.24682597697E+04  0.25500000920E-02 0.  1.
       -2    1    3    3    0  502 -0.11893292344E+04 -0.55872354914E+03  0.72386268960E+03  0.15002177261E+04  0.25500000920E-02 0. -1.
</event>
<event>
 5   0  0.1496000E-07  0.3661686E+04  0.7818609E-02  0.8076506E-01
        1   -1    0    0  501    0  0.00000000000E+00  0.00000000000E+00  0.17942338301E+04  0.17942338302E+04  0.50400001928E-02 0. -1.
       -1   -1    0    0    0  501  0.00000000000E+00  0.00000000000E+00 -0.18681987004E+04  0.18681987004E+04  0.50400001928E-02 0.  1.
    10030    2    1    2    0    0  0.00000000000E+00  0.00000000000E+00 -0.73964870229E+02  0.36624325305E+04  0.36616855734E+04 0.  0.
        2    1    3    3  502    0  0.10413265447E+04 -0.63861796565E+02  0.14678330339E+04  0.18008256765E+04  0.25500000920E-02 0. -1.
       -2    1    3    3    0  502 -0.10413265447E+04  0.63861796565E+02 -0.15417979041E+04  0.18616068540E+04  0.25500000920E-02 0.  1.
</event>
<event>
 5   0  0.4758908E-07  0.3697874E+04  0.7818609E-02  0.8068433E-01
       -2   -1    0    0    0  501  0.00000000000E+00  0.00000000000E+00  0.22405579731E+04  0.22405579731E+04  0.25500000920E-02 0.  1.
        2   -1    0    0  501    0  0.00000000000E+00  0.00000000000E+00 -0.15257665277E+04  0.15257665277E+04  0.25500000920E-02 0. -1.
    10030    2    1    2    0    0  0.00000000000E+00  0.00000000000E+00  0.71479144543E+03  0.37663245008E+04  0.36978741778E+04 0.  0.
        2    1    3    3  502    0  0.40520031219E+03  0.15825610851E+04  0.12393821841E+04  0.20505499456E+04  0.25500000920E-02 0.  1.
       -2    1    3    3    0  502 -0.40520031219E+03 -0.15825610851E+04 -0.52459073872E+03  0.17157745552E+04  0.25500000920E-02 0. -1.
</event>
<event>
 5   0  0.4857514E-07  0.3620343E+04  0.7818609E-02  0.8085848E-01
        2   -1    0    0  501    0  0.00000000000E+00  0.00000000000E+00  0.99180387339E+03  0.99180387339E+03  0.25500000920E-02 0. -1.
       -2   -1    0    0    0  501  0.00000000000E+00  0.00000000000E+00 -0.33037991564E+04  0.33037991564E+04  0.25500000920E-02 0.  1.
    10030    2    1    2    0    0  0.00000000000E+00  0.00000000000E+00 -0.23119952831E+04  0.42956030298E+04  0.36203429673E+04 0.  0.
        5    1    3    3  502    0 -0.17760396811E+04  0.30235053608E+03 -0.13647908569E+04  0.22601789683E+04  0.46999998093E+01 0.  1.
       -5    1    3    3    0  502  0.17760396811E+04 -0.30235053608E+03 -0.94720442614E+03  0.20354240616E+04  0.46999998093E+01 0. -1.
</event>
<event>
 5   0  0.4687817E-07  0.3808381E+04  0.7818609E-02  0.8044359E-01
        2   -1    0    0  501    0  0.00000000000E+00  0.00000000000E+00  0.20916740762E+04  0.20916740762E+04  0.25500000920E-02 0. -1.
       -2   -1    0    0    0  501  0.00000000000E+00  0.00000000000E+00 -0.17335114352E+04  0.17335114352E+04  0.25500000920E-02 0.  1.
    10030    2    1    2    0    0  0.00000000000E+00  0.00000000000E+00  0.35816264097E+03  0.38251855114E+04  0.38083807214E+04 0.  0.
        4    1    3    3  502    0  0.61675194094E+03  0.16831842855E+04 -0.46597291299E+03  0.18521945535E+04  0.12699999809E+01 0. -1.
       -4    1    3    3    0  502 -0.61675194094E+03 -0.16831842855E+04  0.82413555395E+03  0.19729909579E+04  0.12699999809E+01 0.  1.
</event>
<event>
 5   0  0.4758908E-07  0.3724908E+04  0.7818609E-02  0.8062464E-01
        2   -1    0    0  501    0  0.00000000000E+00  0.00000000000E+00  0.11880635063E+04  0.11880635063E+04  0.25500000920E-02 0.  1.
       -2   -1    0    0    0  501  0.00000000000E+00  0.00000000000E+00 -0.29196549336E+04  0.29196549336E+04  0.25500000920E-02 0. -1.
    10030    2    1    2    0    0  0.00000000000E+00  0.00000000000E+00 -0.17315914273E+04  0.41077184400E+04  0.37249083091E+04 0.  0.
        2    1    3    3  502    0 -0.18345096440E+03 -0.17722484599E+04 -0.26763390585E+03  0.18017066264E+04  0.25500000920E-02 0.  1.
       -2    1    3    3    0  502  0.18345096440E+03  0.17722484599E+04 -0.14639575214E+04  0.23060118136E+04  0.25500000920E-02 0. -1.
</event>
<event>
 5   0  0.1496000E-07  0.3650178E+04  0.7818609E-02  0.8079093E-01
        4   -1    0    0  501    0  0.00000000000E+00  0.00000000000E+00  0.22610902372E+04  0.22610905939E+04  0.12699999809E+01 0.  1.
       -4   -1    0    0    0  501  0.00000000000E+00  0.00000000000E+00 -0.14731603988E+04  0.14731609463E+04  0.12699999809E+01 0. -1.
    10030    2    1    2    0    0  0.00000000000E+00  0.00000000000E+00  0.78792983840E+03  0.37342515402E+04  0.36501782333E+04 0.  0.
        2    1    3    3  502    0 -0.18052920113E+04 -0.40061422409E+02  0.66514793433E+03  0.19243455870E+04  0.25500000920E-02 0. -1.
       -2    1    3    3    0  502  0.18052920113E+04  0.40061422409E+02  0.12278190407E+03  0.18099059532E+04  0.25500000920E-02 0.  1.
</event>
<event>
 5   0  0.1496287E-07  0.3228712E+04  0.7818609E-02  0.8181275E-01
       -1   -1    0    0    0  501  0.00000000000E+00  0.00000000000E+00  0.14358245259E+04  0.14358245259E+04  0.50400001928E-02 0. -1.
        1   -1    0    0  501    0  0.00000000000E+00  0.00000000000E+00 -0.18150859872E+04  0.18150859872E+04  0.50400001928E-02 0.  1.
    10030    2    1    2    0    0  0.00000000000E+00  0.00000000000E+00 -0.37926146125E+03  0.32509105131E+04  0.32287118033E+04 0.  0.
        1    1    3    3  502    0 -0.41281154784E+03  0.24973169089E+03 -0.17407959671E+04  0.18064190794E+04  0.50400001928E-02 0.  1.
       -1    1    3    3    0  502  0.41281154784E+03 -0.24973169089E+03  0.13615345058E+04  0.14444914337E+04  0.50400001928E-02 0. -1.
</event>
<event>
 5   0  0.4793557E-07  0.3524909E+04  0.7818609E-02  0.8107912E-01
       -2   -1    0    0    0  501  0.00000000000E+00  0.00000000000E+00  0.19849293733E+04  0.19849293733E+04  0.25500000920E-02 0.  1.
        2   -1    0    0  501    0  0.00000000000E+00  0.00000000000E+00 -0.15649148754E+04  0.15649148754E+04  0.25500000920E-02 0. -1.
    10030    2    1    2    0    0  0.00000000000E+00  0.00000000000E+00  0.42001449794E+03  0.35498442487E+04  0.35249087948E+04 0.  0.
        3    1    3    3  502    0  0.33691136599E+03  0.17289504296E+04  0.15071259351E+03  0.17679064320E+04  0.10100000352E+00 0. -1.
       -3    1    3    3    0  502 -0.33691136599E+03 -0.17289504296E+04  0.26930190443E+03  0.17819378166E+04  0.10100000352E+00 0.  1.
</event>
<event>
 5   0  0.1496287E-07  0.3121474E+04  0.7818609E-02  0.8209869E-01
       -1   -1    0    0    0  501  0.00000000000E+00  0.00000000000E+00  0.18874937013E+04  0.18874937013E+04  0.50400001928E-02 0.  1.
        1   -1    0    0  501    0  0.00000000000E+00  0.00000000000E+00 -0.12905473274E+04  0.12905473274E+04  0.50400001928E-02 0. -1.
    10030    2    1    2    0    0  0.00000000000E+00  0.00000000000E+00  0.59694637386E+03  0.31780410287E+04  0.31214739799E+04 0.  0.
        1    1    3    3  502    0  0.10388219843E+04 -0.50817360185E+03 -0.76861786228E+03  0.13885837904E+04  0.50400001928E-02 0. -1.
       -1    1    3    3    0  502 -0.10388219843E+04  0.50817360185E+03  0.13655642361E+04  0.17894572383E+04  0.50400001928E-02 0.  1.
</event>
<event>
 5   0  0.4758908E-07  0.3672544E+04  0.7818609E-02  0.8074074E-01
       -2   -1    0    0    0  501  0.00000000000E+00  0.00000000000E+00  0.15571873633E+04  0.15571873633E+04  0.25500000920E-02 0. -1.
        2   -1    0    0  501    0  0.00000000000E+00  0.00000000000E+00 -0.21653747657E+04  0.21653747657E+04  0.25500000920E-02 0.  1.
    10030    2    1    2    0    0  0.00000000000E+00  0.00000000000E+00 -0.60818740237E+03  0.37225621289E+04  0.36725436536E+04 0.  0.
        2    1    3    3  502    0 -0.11307605872E+04 -0.12043714822E+03 -0.17655242038E+04  0.21000476963E+04  0.25500000920E-02 0.  1.
       -2    1    3    3    0  502  0.11307605872E+04  0.12043714822E+03  0.11573368015E+04  0.16225144327E+04  0.25500000920E-02 0. -1.
</event>
<event>
 5   0  0.4857514E-07  0.3727402E+04  0.7818609E-02  0.8061916E-01
        2   -1    0    0  501    0  0.00000000000E+00  0.00000000000E+00  0.15839624196E+04  0.15839624196E+04  0.25500000920E-02 0.  1.
       -2   -1    0    0    0  501  0.00000000000E+00  0.00000000000E+00 -0.21928428945E+04  0.21928428945E+04  0.25500000920E-02 0. -1.
    10030    2    1    2    0    0  0.00000000000E+00  0.00000000000E+00 -0.60888047488E+03  0.37768053141E+04  0.37274016349E+04 0.  0.
        5    1    3    3  502    0  0.20141812865E+03 -0.11823394787E+04 -0.17498333039E+04  0.21214227742E+04  0.46999998093E+01 0. -1.
       -5    1    3    3    0  502 -0.20141812865E+03  0.11823394787E+04  0.11409528290E+04  0.16553825399E+04  0.46999998093E+01 0.  1.
</event>
<event>
 5   0  0.1496000E-07  0.3742281E+04  0.7818609E-02  0.8058656E-01
       -1   -1    0    0    0  501  0.00000000000E+00  0.00000000000E+00  0.26690274274E+04  0.26690274274E+04  0.50400001928E-02 0. -1.
        1   -1    0    0  501    0  0.00000000000E+00  0.00000000000E+00 -0.13117763138E+04  0.13117763138E+04  0.50400001928E-02 0.  1.
    10030    2    1    2    0    0  0.00000000000E+00  0.00000000000E+00  0.13572511136E+04  0.39808037412E+04  0.37422811013E+04 0.  0.
        3    1    3    3  502    0  0.10236179602E+04 -0.44648773945E+03  0.22756568573E+04  0.25349081191E+04  0.10100000352E+00 0. -1.
       -3    1    3    3    0  502 -0.10236179602E+04  0.44648773945E+03 -0.91840574370E+03  0.14458956222E+04  0.10100000352E+00 0.  1.
</event>
<event>
 5   0  0.1496287E-07  0.3476684E+04  0.7818609E-02  0.8119338E-01
       -1   -1    0    0    0  501  0.00000000000E+00  0.00000000000E+00  0.12088844866E+04  0.12088844866E+04  0.50400001928E-02 0. -1.
        1   -1    0    0  501    0  0.00000000000E+00  0.00000000000E+00 -0.24996871227E+04  0.24996871227E+04  0.50400001928E-02 0.  1.
    10030    2    1    2    0    0  0.00000000000E+00  0.00000000000E+00 -0.12908026362E+04  0.37085716093E+04  0.34766840431E+04 0.  0.
        1    1    3    3  502    0  0.58416143493E+03 -0.67896790321E+03 -0.22345989945E+04  0.24074207488E+04  0.50400001928E-02 0.  1.
       -1    1    3    3    0  502 -0.58416143493E+03  0.67896790321E+03  0.94379635834E+03  0.13011508605E+04  0.50400001928E-02 0. -1.
</event>
<event>
 5   0  0.1496000E-07  0.3686963E+04  0.7818609E-02  0.8070857E-01
       -1   -1    0    0    0  501  0.00000000000E+00  0.00000000000E+00  0.21461047626E+04  0.21461047626E+04  0.50400001928E-02 0.  1.
        1   -1    0    0  501    0  0.00000000000E+00  0.00000000000E+00 -0.15835315502E+04  0.15835315502E+04  0.50400001928E-02 0. -1.
    10030    2    1    2    0    0  0.00000000000E+00  0.00000000000E+00  0.56257321236E+03  0.37296363128E+04  0.36869633042E+04 0.  0.
        5    1    3    3  502    0  0.89037130815E+03  0.11624846777E+02  0.19141269938E+04  0.21111135550E+04  0.46999998093E+01 0.  1.
       -5    1    3    3    0  502 -0.89037130815E+03 -0.11624846777E+02 -0.13515537815E+04  0.16185227578E+04  0.46999998093E+01 0. -1.
</event>
<event>
 5   0  0.1496000E-07  0.3667452E+04  0.7818609E-02  0.8075213E-01
        1   -1    0    0  501    0  0.00000000000E+00  0.00000000000E+00  0.17824317879E+04  0.17824317879E+04  0.50400001928E-02 0. -1.
       -1   -1    0    0    0  501  0.00000000000E+00  0.00000000000E+00 -0.18864959281E+04  0.18864959281E+04  0.50400001928E-02 0.  1.
    10030    2    1    2    0    0  0.00000000000E+00  0.00000000000E+00 -0.10406414022E+03  0.36689277160E+04  0.36674516002E+04 0.  0.
        3    1    3    3  502    0  0.26574862217E+03  0.18143428833E+04 -0.61409809691E+02  0.18347298448E+04  0.10100000352E+00 0. -1.
       -3    1    3    3    0  502 -0.26574862217E+03 -0.18143428833E+04 -0.42654330532E+02  0.18341978712E+04  0.10100000352E+00 0.  1.
</event>
<event>
 5   0  0.4857514E-07  0.3676038E+04  0.7818609E-02  0.8073293E-01
       -2   -1    0    0    0  501  0.00000000000E+00  0.00000000000E+00  0.15847846335E+04  0.15847846335E+04  0.25500000920E-02 0. -1.
        2   -1    0    0  501    0  0.00000000000E+00  0.00000000000E+00 -0.21317183832E+04  0.21317183832E+04  0.25500000920E-02 0.  1.
    10030    2    1    2    0    0  0.00000000000E+00  0.00000000000E+00 -0.54693374974E+03  0.37165030168E+04  0.36760383767E+04 0.  0.
        5    1    3    3  502    0 -0.52245061377E+03 -0.85469777394E+03  0.12845446727E+04  0.16289690098E+04  0.46999998093E+01 0. -1.
       -5    1    3    3    0  502  0.52245061377E+03  0.85469777394E+03 -0.18314784224E+04  0.20875340070E+04  0.46999998093E+01 0.  1.
</event>
<event>
 5   0  0.4857514E-07  0.3622464E+04  0.7818609E-02  0.8085365E-01
       -2   -1    0    0    0  501  0.00000000000E+00  0.00000000000E+00  0.16926148799E+04  0.16926148799E+04  0.25500000920E-02 0.  1.
        2   -1    0    0  501    0  0.00000000000E+00  0.00000000000E+00 -0.19381622170E+04  0.19381622170E+04  0.25500000920E-02 0. -1.
    10030    2    1    2    0    0  0.00000000000E+00  0.00000000000E+00 -0.24554733708E+03  0.36307770968E+04  0.36224644694E+04 0.  0.
        5    1    3    3  502    0  0.54441652445E+03  0.17273211642E+04 -0.10008632210E+03  0.18138542164E+04  0.46999998093E+01 0. -1.
       -5    1    3    3    0  502 -0.54441652445E+03 -0.17273211642E+04 -0.14546101498E+03  0.18169228804E+04  0.46999998093E+01 0.  1.
</event>
<event>
 5   0  0.1496287E-07  0.3672572E+04  0.7818609E-02  0.8074068E-01
       -1   -1    0    0    0  501  0.00000000000E+00  0.00000000000E+00  0.27945028447E+04  0.27945028447E+04  0.50400001928E-02 0.  1.
        1   -1    0    0  501    0  0.00000000000E+00  0.00000000000E+00 -0.12066354060E+04  0.12066354061E+04  0.50400001928E-02 0. -1.
    10030    2    1    2    0    0  0.00000000000E+00  0.00000000000E+00  0.15878674386E+04  0.40011382507E+04  0.36725718916E+04 0.  0.
        1    1    3    3  502    0 -0.64957623895E+03 -0.20012773484E+03  0.26524043073E+04  0.27381104817E+04  0.50400001928E-02 0.  1.
       -1    1    3    3    0  502  0.64957623895E+03  0.20012773484E+03 -0.10645368687E+04  0.12630277690E+04  0.50400001928E-02 0. -1.
</event>
<event>
 5   0  0.1496000E-07  0.3662173E+04  0.7818609E-02  0.8076397E-01
        3   -1    0    0  501    0  0.00000000000E+00  0.00000000000E+00  0.17221918704E+04  0.17221918734E+04  0.10100000352E+00 0.  1.
       -3   -1    0    0    0  501  0.00000000000E+00  0.00000000000E+00 -0.19468668014E+04  0.19468668041E+04  0.10100000352E+00 0. -1.
    10030    2    1    2    0    0  0.00000000000E+00  0.00000000000E+00 -0.22467493103E+03  0.36690586774E+04  0.36621732283E+04 0.  0.
        2    1    3    3  502    0  0.11245300787E+04 -0.20866520724E+02  0.13353273132E+04  0.17458815375E+04  0.25500000920E-02 0.  1.
       -2    1    3    3    0  502 -0.11245300787E+04  0.20866520724E+02 -0.15600022442E+04  0.19231771399E+04  0.25500000920E-02 0. -1.
</event>
<event>
 5   0  0.4793557E-07  0.3734979E+04  0.7818609E-02  0.8060254E-01
        2   -1    0    0  501    0  0.00000000000E+00  0.00000000000E+00  0.19456849831E+04  0.19456849831E+04  0.25500000920E-02 0. -1.
       -2   -1    0    0    0  501  0.00000000000E+00  0.00000000000E+00 -0.17924362397E+04  0.17924362397E+04  0.25500000920E-02 0.  1.
    10030    2    1    2    0    0  0.00000000000E+00  0.00000000000E+00  0.15324874343E+03  0.37381212229E+04  0.37349785943E+04 0.  0.
        3    1    3    3  502    0 -0.13133414237E+03  0.11158388853E+04  0.15695802667E+04  0.19302661212E+04  0.10100000352E+00 0. -1.
       -3    1    3    3    0  502  0.13133414237E+03 -0.11158388853E+04 -0.14163315232E+04  0.18078551017E+04  0.10100000352E+00 0.  1.
</event>
<event>
 5   0  0.4857514E-07  0.3681492E+04  0.7818609E-02  0.8072076E-01
       -2   -1    0    0    0  501  0.00000000000E+00  0.00000000000E+00  0.14122070443E+04  0.14122070443E+04  0.25500000920E-02 0.  1.
        2   -1    0    0  501    0  0.00000000000E+00  0.00000000000E+00 -0.23993269413E+04  0.23993269413E+04  0.25500000920E-02 0. -1.
    10030    2    1    2    0    0  0.00000000000E+00  0.00000000000E+00 -0.98711989697E+03  0.38115339856E+04  0.36814923105E+04 0.  0.
        5    1    3    3  502    0 -0.10544734008E+03  0.11638401952E+04 -0.19660067577E+04  0.22871046768E+04  0.46999998093E+01 0. -1.
       -5    1    3    3    0  502  0.10544734008E+03 -0.11638401952E+04  0.97888686070E+03  0.15244293088E+04  0.46999998093E+01 0.  1.
</event>
<event>
 5   0  0.4687817E-07  0.3717087E+04  0.7818609E-02  0.8064186E-01
       -2   -1    0    0    0  501  0.00000000000E+00  0.00000000000E+00  0.16162204794E+04  0.16162204794E+04  0.25500000920E-02 0.  1.
        2   -1    0    0  501    0  0.00000000000E+00  0.00000000000E+00 -0.21371980708E+04  0.21371980708E+04  0.25500000920E-02 0. -1.
    10030    2    1    2    0    0  0.00000000000E+00  0.00000000000E+00 -0.52097759143E+03  0.37534185502E+04  0.37170866499E+04 0.  0.
        4    1    3    3  502    0  0.12541070001E+04  0.12349938862E+04  0.34215902976E+03  0.17930612597E+04  0.12699999809E+01 0.  1.
       -4    1    3    3    0  502 -0.12541070001E+04 -0.12349938862E+04 -0.86313662119E+03  0.19603572905E+04  0.12699999809E+01 0. -1.
</event>
<event>
 5   0  0.1496000E-07  0.3625006E+04  0.7818609E-02  0.8084788E-01
       -1   -1    0    0    0  501  0.00000000000E+00  0.00000000000E+00  0.24148370855E+04  0.24148370855E+04  0.50400001928E-02 0. -1.
        1   -1    0    0  501    0  0.00000000000E+00  0.00000000000E+00 -0.13604093785E+04  0.13604093785E+04  0.50400001928E-02 0.  1.
    10030    2    1    2    0    0  0.00000000000E+00  0.00000000000E+00  0.10544277070E+04  0.37752464640E+04  0.36250059413E+04 0.  0.
        3    1    3    3  502    0  0.11355374807E+04  0.47514973155E+03 -0.85832153261E+03  0.15006426960E+04  0.10100000352E+00 0.  1.
       -3    1    3    3    0  502 -0.11355374807E+04 -0.47514973155E+03  0.19127492397E+04  0.22746037680E+04  0.10100000352E+00 0. -1.
</event>
<event>
 5   0  0.1522273E-07  0.3781443E+04  0.7818609E-02  0.8050149E-01
       -1   -1    0    0    0  501  0.00000000000E+00  0.00000000000E+00  0.15391139013E+04  0.15391139013E+04  0.50400001928E-02 0. -1.
        1   -1    0    0  501    0  0.00000000000E+00  0.00000000000E+00 -0.23226527852E+04  0.23226527852E+04  0.50400001928E-02 0.  1.
    10030    2    1    2    0    0  0.00000000000E+00  0.00000000000E+00 -0.78353888393E+03  0.38617666865E+04  0.37814426821E+04 0.  0.
        4    1    3    3  502    0 -0.74086116341E+03  0.16249516531E+04 -0.10258301023E+04  0.20595320221E+04  0.12699999809E+01 0.  1.
       -4    1    3    3    0  502  0.74086116341E+03 -0.16249516531E+04  0.24229121833E+03  0.18022346644E+04  0.12699999809E+01 0. -1.
</event>
<event>
 5   0  0.1522273E-07  0.3692584E+04  0.7818609E-02  0.8069607E-01
       -1   -1    0    0    0  501  0.00000000000E+00  0.00000000000E+00  0.15991051311E+04  0.15991051311E+04  0.50400001928E-02 0.  1.
        1   -1    0    0  501    0  0.00000000000E+00  0.00000000000E+00 -0.21316890900E+04  0.21316890900E+04  0.50400001928E-02 0. -1.
    10030    2    1    2    0    0  0.00000000000E+00  0.00000000000E+00 -0.53258395895E+03  0.37307942211E+04  0.36925844400E+04 0.  0.
        4    1    3    3  502    0  0.14419266058E+04  0.76295766600E+03 -0.11398406239E+04  0.19900992431E+04  0.12699999809E+01 0. -1.
       -4    1    3    3    0  502 -0.14419266058E+04 -0.76295766600E+03  0.60725666493E+03  0.17406949780E+04  0.12699999809E+01 0.  1.
</event>
<event>
 5   0  0.1522273E-07  0.3712714E+04  0.7818609E-02  0.8065150E-01
       -1   -1    0    0    0  501  0.00000000000E+00  0.00000000000E+00  0.19375759291E+04  0.19375759291E+04  0.50400001928E-02 0. -1.
        1   -1    0    0  501    0  0.00000000000E+00  0.00000000000E+00 -0.17785428501E+04  0.17785428501E+04  0.50400001928E-02 0.  1.
    10030    2    1    2    0    0  0.00000000000E+00  0.00000000000E+00  0.15903307905E+03  0.37161187792E+04  0.37127142714E+04 0.  0.
        4    1    3    3  502    0 -0.55494534682E+03  0.12897807840E+04  0.12949452451E+04  0.19100742419E+04  0.12699999809E+01 0. -1.
       -4    1    3    3    0  502  0.55494534682E+03 -0.12897807840E+04 -0.11359121661E+04  0.18060445373E+04  0.12699999809E+01 0.  1.
</event>
<event>
 5   0  0.1496287E-07  0.3661534E+04  0.7818609E-02  0.8076540E-01
       -1   -1    0    0    0  501  0.00000000000E+00  0.00000000000E+00  0.16630607221E+04  0.16630607221E+04  0.50400001928E-02 0.  1.
        1   -1    0    0  501    0  0.00000000000E+00  0.00000000000E+00 -0.20153855085E+04  0.20153855085E+04  0.50400001928E-02 0. -1.
    10030    2    1    2    0    0  0.00000000000E+00  0.00000000000E+00 -0.35232478637E+03  0.36784462307E+04  0.36615343665E+04 0.  0.
        1    1    3    3  502    0  0.41432525681E+03 -0.12556822210E+04 -0.14482276783E+04  0.19610626372E+04  0.50400001928E-02 0. -1.
       -1    1    3    3    0  502 -0.41432525681E+03  0.12556822210E+04  0.10959028920E+04  0.17173835935E+04  0.50400001928E-02 0.  1.
</event>
<event>
 5   0  0.1496000E-07  0.3740388E+04  0.7818609E-02  0.8059070E-01
       -1   -1    0    0    0  501  0.00000000000E+00  0.00000000000E+00  0.12854209834E+04  0.12854209834E+04  0.50400001928E-02 0.  1.
        1   -1    0    0  501    0  0.00000000000E+00  0.00000000000E+00 -0.27209958232E+04  0.27209958232E+04  0.50400001928E-02 0. -1.
    10030    2    1    2    0    0  0.00000000000E+00  0.00000000000E+00 -0.14355748397E+04  0.40064168066E+04  0.37403877483E+04 0.  0.
        5    1    3    3  502    0  0.13556341287E+04  0.58749479380E+03  0.51037081178E+03  0.15631361039E+04  0.46999998093E+01 0.  1.
       -5    1    3    3    0  502 -0.13556341287E+04 -0.58749479380E+03 -0.19459456515E+04  0.24432807027E+04  0.46999998093E+01 0. -1.
</event>
<event>
 5   0  0.4687817E-07  0.3695080E+04  0.7818609E-02  0.8069053E-01
        2   -1    0    0  501    0  0.00000000000E+00  0.00000000000E+00  0.21269378669E+04  0.21269378669E+04  0.25500000920E-02 0.  1.
       -2   -1    0    0    0  501  0.00000000000E+00  0.00000000000E+00 -0.16048446185E+04  0.16048446185E+04  0.25500000920E-02 0. -1.
    10030    2    1    2    0    0  0.00000000000E+00  0.00000000000E+00  0.52209324844E+03  0.37317824854E+04  0.36950803994E+04 0.  0.
        4    1    3    3  502    0  0.58104321989E+03 -0.15215852215E+03 -0.15034880880E+04  0.16190248555E+04  0.12699999809E+01 0. -1.
       -4    1    3    3    0  502 -0.58104321989E+03  0.15215852215E+03  0.20255813364E+04  0.21127576299E+04  0.12699999809E+01 0.  1.
</event>
<event>
 5   0  0.1496000E-07  0.3716294E+04  0.7818609E-02  0.8064360E-01
        3   -1    0    0  501    0  0.00000000000E+00  0.00000000000E+00  0.26865352681E+04  0.26865352700E+04  0.10100000352E+00 0. -1.
       -3   -1    0    0    0  501  0.00000000000E+00  0.00000000000E+00 -0.12851910410E+04  0.12851910450E+04  0.10100000352E+00 0.  1.
    10030    2    1    2    0    0  0.00000000000E+00  0.00000000000E+00  0.14013442271E+04  0.39717263150E+04  0.37162944284E+04 0.  0.
        2    1    3    3  502    0  0.16307933661E+04 -0.16853854552E+03 -0.23397675523E+03  0.16560909897E+04  0.25500000920E-02 0.  1.
       -2    1    3    3    0  502 -0.16307933661E+04  0.16853854552E+03  0.16353209824E+04  0.23156353253E+04  0.25500000920E-02 0. -1.
</event>
<event>
 5   0  0.4687817E-07  0.3673104E+04  0.7818609E-02  0.8073949E-01
        2   -1    0    0  501    0  0.00000000000E+00  0.00000000000E+00  0.22190219885E+04  0.22190219885E+04  0.25500000920E-02 0. -1.
       -2   -1    0    0    0  501  0.00000000000E+00  0.00000000000E+00 -0.15200044165E+04  0.15200044165E+04  0.25500000920E-02 0.  1.
    10030    2    1    2    0    0  0.00000000000E+00  0.00000000000E+00  0.69901757202E+03  0.37390264050E+04  0.36731039859E+04 0.  0.
        4    1    3    3  502    0  0.55818126513E+02 -0.81314305456E+03 -0.13258124443E+04  0.15563089477E+04  0.12699999809E+01 0.  1.
       -4    1    3    3    0  502 -0.55818126513E+02  0.81314305456E+03  0.20248300163E+04  0.21827174573E+04  0.12699999809E+01 0. -1.
</event>
<event>
 5   0  0.1496287E-07  0.3684413E+04  0.7818609E-02  0.8071425E-01
       -1   -1    0    0    0  501  0.00000000000E+00  0.00000000000E+00  0.21636358996E+04  0.21636358996E+04  0.50400001928E-02 0. -1.
        1   -1    0    0  501    0  0.00000000000E+00  0.00000000000E+00 -0.15685282039E+04  0.15685282039E+04  0.50400001928E-02 0.  1.
    10030    2    1    2    0    0  0.00000000000E+00  0.00000000000E+00  0.59510769565E+03  0.37321641035E+04  0.36844125347E+04 0.  0.
        1    1    3    3  502    0 -0.53586899982E+03  0.12741613878E+04  0.15311554681E+04  0.20627845003E+04  0.50400001928E-02 0.  1.
       -1    1    3    3    0  502  0.53586899982E+03 -0.12741613878E+04 -0.93604777245E+03  0.16693796032E+04  0.50400001928E-02 0. -1.
</event>
<event>
 5   0  0.4824268E-07  0.3664888E+04  0.7818609E-02  0.8075788E-01
       -2   -1    0    0    0  501  0.00000000000E+00  0.00000000000E+00  0.13077706483E+04  0.13077706483E+04  0.25500000920E-02 0. -1.
        2   -1    0    0  501    0  0.00000000000E+00  0.00000000000E+00 -0.25676143031E+04  0.25676143031E+04  0.25500000920E-02 0.  1.
    10030    2    1    2    0    0  0.00000000000E+00  0.00000000000E+00 -0.12598436548E+04  0.38753849514E+04  0.36648877864E+04 0.  0.
        1    1    3    3  502    0  0.72797457674E+03 -0.29923966302E+03 -0.23797660155E+04  0.25065469572E+04  0.50400001928E-02 0.  1.
       -1    1    3    3    0  502 -0.72797457674E+03  0.29923966302E+03  0.11199223607E+04  0.13688379942E+04  0.50400001928E-02 0. -1.
</event>
<event>
 5   0  0.1496000E-07  0.3704173E+04  0.7818609E-02  0.8067038E-01
       -1   -1    0    0    0  501  0.00000000000E+00  0.00000000000E+00  0.17544327931E+04  0.17544327931E+04  0.50400001928E-02 0.  1.
        1   -1    0    0  501    0  0.00000000000E+00  0.00000000000E+00 -0.19551753805E+04  0.19551753805E+04  0.50400001928E-02 0. -1.
    10030    2    1    2    0    0  0.00000000000E+00  0.00000000000E+00 -0.20074258740E+03  0.37096081737E+04  0.37041726763E+04 0.  0.
        3    1    3    3  502    0 -0.16998760614E+04  0.49514214495E+03  0.44400654787E+03  0.18253454995E+04  0.10100000352E+00 0.  1.
       -3    1    3    3    0  502  0.16998760614E+04 -0.49514214495E+03 -0.64474913527E+03  0.18842626742E+04  0.10100000352E+00 0. -1.
</event>
<event>
 5   0  0.4758908E-07  0.3700087E+04  0.7818609E-02  0.8067942E-01
        2   -1    0    0  501    0  0.00000000000E+00  0.00000000000E+00  0.22397696822E+04  0.22397696822E+04  0.25500000920E-02 0.  1.
       -2   -1    0    0    0  501  0.00000000000E+00  0.00000000000E+00 -0.15281310187E+04  0.15281310187E+04  0.25500000920E-02 0. -1.
    10030    2    1    2    0    0  0.00000000000E+00  0.00000000000E+00  0.71163866352E+03  0.37679007008E+04  0.37000873103E+04 0.  0.
        2    1    3    3  502    0 -0.55893162783E+03  0.10483466974E+04  0.17999880437E+04  0.21567086776E+04  0.25500000920E-02 0.  1.
       -2    1    3    3    0  502  0.55893162783E+03 -0.10483466974E+04 -0.10883493802E+04  0.16111920233E+04  0.25500000920E-02 0. -1.
</event>
<event>
 5   0  0.1496287E-07  0.3693237E+04  0.7818609E-02  0.8069462E-01
        1   -1    0    0  501    0  0.00000000000E+00  0.00000000000E+00  0.17209433961E+04  0.17209433961E+04  0.50400001928E-02 0.  1.
       -1   -1    0    0    0  501  0.00000000000E+00  0.00000000000E+00 -0.19814713163E+04  0.19814713163E+04  0.50400001928E-02 0. -1.
    10030    2    1    2    0    0  0.00000000000E+00  0.00000000000E+00 -0.26052792026E+03  0.37024147124E+04  0.36932370497E+04 0.  0.
        1    1    3    3  502    0  0.81055857628E+03 -0.16878928600E+01  0.15330734215E+04  0.17341632479E+04  0.50400001928E-02 0.  1.
       -1    1    3    3    0  502 -0.81055857628E+03  0.16878928600E+01 -0.17936013418E+04  0.19682514646E+04  0.50400001928E-02 0. -1.
</event>
<event>
 5   0  0.1496000E-07  0.3673545E+04  0.7818609E-02  0.8073850E-01
       -1   -1    0    0    0  501  0.00000000000E+00  0.00000000000E+00  0.14301880902E+04  0.14301880902E+04  0.50400001928E-02 0.  1.
        1   -1    0    0  501    0  0.00000000000E+00  0.00000000000E+00 -0.23589440562E+04  0.23589440562E+04  0.50400001928E-02 0. -1.
    10030    2    1    2    0    0  0.00000000000E+00  0.00000000000E+00 -0.92875596602E+03  0.37891321464E+04  0.36735452601E+04 0.  0.
        5    1    3    3  502    0  0.82796523731E+03  0.84098858080E+03 -0.19161158172E+04  0.22504022178E+04  0.46999998093E+01 0. -1.
       -5    1    3    3    0  502 -0.82796523731E+03 -0.84098858080E+03  0.98735985116E+03  0.15387299285E+04  0.46999998093E+01 0.  1.
</event>
<event>
 5   0  0.1496287E-07  0.3859794E+04  0.7818609E-02  0.8033444E-01
        1   -1    0    0  501    0  0.00000000000E+00  0.00000000000E+00  0.28529163030E+04  0.28529163030E+04  0.50400001928E-02 0. -1.
       -1   -1    0    0    0  501  0.00000000000E+00  0.00000000000E+00 -0.13055070637E+04  0.13055070637E+04  0.50400001928E-02 0.  1.
    10030    2    1    2    0    0  0.00000000000E+00  0.00000000000E+00  0.15474092393E+04  0.41584233667E+04  0.38597939768E+04 0.  0.
        1    1    3    3  502    0 -0.48291650737E+03  0.14210100838E+04 -0.53343530311E+03  0.15928060880E+04  0.50400001928E-02 0.  1.
       -1    1    3    3    0  502  0.48291650737E+03 -0.14210100838E+04  0.20808445424E+04  0.25656172787E+04  0.50400001928E-02 0. -1.
</event>
<event>
 5   0  0.4857514E-07  0.3698925E+04  0.7818609E-02  0.8068200E-01
        2   -1    0    0  501    0  0.00000000000E+00  0.00000000000E+00  0.24974692869E+04  0.24974692869E+04  0.25500000920E-02 0. -1.
       -2   -1    0    0    0  501  0.00000000000E+00  0.00000000000E+00 -0.13695913817E+04  0.13695913817E+04  0.25500000920E-02 0.  1.
    10030    2    1    2    0    0  0.00000000000E+00  0.00000000000E+00  0.11278779052E+04  0.38670606687E+04  0.36989254718E+04 0.  0.
        5    1    3    3  502    0  0.54141372924E+02 -0.13379418298E+04 -0.76977284545E+03  0.15445361608E+04  0.46999998093E+01 0.  1.
       -5    1    3    3    0  502 -0.54141372924E+02  0.13379418298E+04  0.18976507507E+04  0.23225245079E+04  0.46999998093E+01 0. -1.
</event>
<event>
 5   0  0.4793557E-07  0.3733006E+04  0.7818609E-02  0.8060686E-01
        2   -1    0    0  501    0  0.00000000000E+00  0.00000000000E+00  0.13557646791E+04  0.13557646791E+04  0.25500000920E-02 0. -1.
       -2   -1    0    0    0  501  0.00000000000E+00  0.00000000000E+00 -0.25696444190E+04  0.25696444190E+04  0.25500000920E-02 0.  1.
    10030    2    1    2    0    0  0.00000000000E+00  0.00000000000E+00 -0.12138797399E+04  0.39254090982E+04  0.37330058351E+04 0.  0.
        3    1    3    3  502    0  0.86403619711E+03 -0.76657115157E+03  0.93479413593E+03  0.14859441332E+04  0.10100000352E+00 0. -1.
       -3    1    3    3    0  502 -0.86403619711E+03  0.76657115157E+03 -0.21486738758E+04  0.24394649649E+04  0.10100000352E+00 0.  1.
</event>
<event>
 5   0  0.4824268E-07  0.3599043E+04  0.7818609E-02  0.8090711E-01
       -2   -1    0    0    0  501  0.00000000000E+00  0.00000000000E+00  0.24220811498E+04  0.24220811498E+04  0.25500000920E-02 0.  1.
        2   -1    0    0  501    0  0.00000000000E+00  0.00000000000E+00 -0.13369818391E+04  0.13369818391E+04  0.25500000920E-02 0. -1.
    10030    2    1    2    0    0  0.00000000000E+00  0.00000000000E+00  0.10850993107E+04  0.37590629889E+04  0.35990434896E+04 0.  0.
        1    1    3    3  502    0  0.13116234402E+04 -0.14890294611E+03 -0.73483609904E+03  0.15107985400E+04  0.50400001928E-02 0. -1.
       -1    1    3    3    0  502 -0.13116234402E+04  0.14890294611E+03  0.18199354097E+04  0.22482644488E+04  0.50400001928E-02 0.  1.
</event>
<event>
 5   0  0.1496000E-07  0.3672163E+04  0.7818609E-02  0.8074159E-01
       -1   -1    0    0    0  501  0.00000000000E+00  0.00000000000E+00  0.30747467874E+04  0.30747467874E+04  0.50400001928E-02 0. -1.
        1   -1    0    0  501    0  0.00000000000E+00  0.00000000000E+00 -0.10964137992E+04  0.10964137992E+04  0.50400001928E-02 0.  1.
    10030    2    1    2    0    0  0.00000000000E+00  0.00000000000E+00  0.19783329882E+04  0.41711605866E+04  0.36721627452E+04 0.  0.
        2    1    3    3  502    0  0.71007095244E+02 -0.46445328961E+01 -0.10948469260E+04  0.10971569490E+04  0.25500000920E-02 0.  1.
       -2    1    3    3    0  502 -0.71007095244E+02  0.46445328961E+01  0.30731799142E+04  0.30740036376E+04  0.25500000920E-02 0. -1.
</event>
<event>
 5   0  0.1496287E-07  0.3672507E+04  0.7818609E-02  0.8074082E-01
        1   -1    0    0  501    0  0.00000000000E+00  0.00000000000E+00  0.18063942993E+04  0.18063942993E+04  0.50400001928E-02 0.  1.
       -1   -1    0    0    0  501  0.00000000000E+00  0.00000000000E+00 -0.18666061497E+04  0.18666061497E+04  0.50400001928E-02 0. -1.
    10030    2    1    2    0    0  0.00000000000E+00  0.00000000000E+00 -0.60211850391E+02  0.36730004490E+04  0.36725068865E+04 0.  0.
        1    1    3    3  502    0 -0.87234330489E+03 -0.43087622286E+03  0.15274053755E+04  0.18109677916E+04  0.50400001928E-02 0.  1.
       -1    1    3    3    0  502  0.87234330489E+03  0.43087622286E+03 -0.15876172259E+04  0.18620326574E+04  0.50400001928E-02 0. -1.
</event>
<event>
 5   0  0.4857514E-07  0.3735019E+04  0.7818609E-02  0.8060245E-01
       -2   -1    0    0    0  501  0.00000000000E+00  0.00000000000E+00  0.19903899687E+04  0.19903899687E+04  0.25500000920E-02 0.  1.
        2   -1    0    0  501    0  0.00000000000E+00  0.00000000000E+00 -0.17522150989E+04  0.17522150989E+04  0.25500000920E-02 0. -1.
    10030    2    1    2    0    0  0.00000000000E+00  0.00000000000E+00  0.23817486979E+03  0.37426050676E+04  0.37350187983E+04 0.  0.
        5    1    3    3  502    0  0.57882563803E+03  0.72494807650E+03  0.17431756999E+04  0.19746575510E+04  0.46999998093E+01 0.  1.
       -5    1    3    3    0  502 -0.57882563803E+03 -0.72494807650E+03 -0.15050008301E+04  0.17679475166E+04  0.46999998093E+01 0. -1.
</event>
<event>
 5   0  0.1496000E-07  0.3703371E+04  0.7818609E-02  0.8067215E-01
        1   -1    0    0  501    0  0.00000000000E+00  0.00000000000E+00  0.21778597323E+04  0.21778597323E+04  0.50400001928E-02 0. -1.
       -1   -1    0    0    0  501  0.00000000000E+00  0.00000000000E+00 -0.15743620806E+04  0.15743620806E+04  0.50400001928E-02 0.  1.
    10030    2    1    2    0    0  0.00000000000E+00  0.00000000000E+00  0.60349765173E+03  0.37522218129E+04  0.37033713178E+04 0.  0.
        5    1    3    3  502    0 -0.17427892429E+03  0.10772075250E+04  0.18174662016E+04  0.21198949690E+04  0.46999998093E+01 0. -1.
       -5    1    3    3    0  502  0.17427892429E+03 -0.10772075250E+04 -0.12139685499E+04  0.16323268440E+04  0.46999998093E+01 0.  1.
</event>
<event>
 5   0  0.1522273E-07  0.3687042E+04  0.7818609E-02  0.8070840E-01
        1   -1    0    0  501    0  0.00000000000E+00  0.00000000000E+00  0.24972066272E+04  0.24972066273E+04  0.50400001928E-02 0.  1.
       -1   -1    0    0    0  501  0.00000000000E+00  0.00000000000E+00 -0.13609485469E+04  0.13609485469E+04  0.50400001928E-02 0. -1.
    10030    2    1    2    0    0  0.00000000000E+00  0.00000000000E+00  0.11362580804E+04  0.38581551741E+04  0.36870420288E+04 0.  0.
        4    1    3    3  502    0  0.12456678730E+04 -0.76943564831E+03 -0.60405888173E+03  0.15838587097E+04  0.12699999809E+01 0. -1.
       -4    1    3    3    0  502 -0.12456678730E+04  0.76943564831E+03  0.17403169621E+04  0.22742964645E+04  0.12699999809E+01 0.  1.
</event>
<event>
 5   0  0.4857514E-07  0.3207664E+04  0.7818609E-02  0.8186796E-01
       -2   -1    0    0    0  501  0.00000000000E+00  0.00000000000E+00  0.11096045579E+04  0.11096045579E+04  0.25500000920E-02 0.  1.
        2   -1    0    0  501    0  0.00000000000E+00  0.00000000000E+00 -0.23181932350E+04  0.23181932350E+04  0.25500000920E-02 0. -1.
    10030    2    1    2    0    0  0.00000000000E+00  0.00000000000E+00 -0.12085886771E+04  0.34277977930E+04  0.32076644337E+04 0.  0.
        5    1    3    3  502    0  0.77015520232E+03  0.19701088653E+03 -0.20928363093E+04  0.22387358559E+04  0.46999998093E+01 0. -1.
       -5    1    3    3    0  502 -0.77015520232E+03 -0.19701088653E+03  0.88424763221E+03  0.11890619370E+04  0.46999998093E+01 0.  1.
</event>
<event>
 5   0  0.1496000E-07  0.3644838E+04  0.7818609E-02  0.8080297E-01
       -3   -1    0    0    0  501  0.00000000000E+00  0.00000000000E+00  0.19276300966E+04  0.19276300992E+04  0.10100000352E+00 0. -1.
        3   -1    0    0  501    0  0.00000000000E+00  0.00000000000E+00 -0.17229505301E+04  0.17229505331E+04  0.10100000352E+00 0.  1.
    10030    2    1    2    0    0  0.00000000000E+00  0.00000000000E+00  0.20467956645E+03  0.36505806323E+04  0.36448381621E+04 0.  0.
        5    1    3    3  502    0  0.14231379088E+04 -0.28676062114E+02 -0.10374537574E+04  0.17613847430E+04  0.46999998093E+01 0.  1.
       -5    1    3    3    0  502 -0.14231379088E+04  0.28676062114E+02  0.12421333239E+04  0.18891958893E+04  0.46999998093E+01 0. -1.
</event>
<event>
 5   0  0.4857514E-07  0.3680457E+04  0.7818609E-02  0.8072307E-01
        2   -1    0    0  501    0  0.00000000000E+00  0.00000000000E+00  0.22447477746E+04  0.22447477746E+04  0.25500000920E-02 0. -1.
       -2   -1    0    0    0  501  0.00000000000E+00  0.00000000000E+00 -0.15086061223E+04  0.15086061223E+04  0.25500000920E-02 0.  1.
    10030    2    1    2    0    0  0.00000000000E+00  0.00000000000E+00  0.73614165235E+03  0.37533538969E+04  0.36804566216E+04 0.  0.
        5    1    3    3  502    0  0.92314538022E+02 -0.17707307938E+04 -0.13403105481E+03  0.17782001945E+04  0.46999998093E+01 0. -1.
       -5    1    3    3    0  502 -0.92314538022E+02  0.17707307938E+04  0.87017270716E+03  0.19751537025E+04  0.46999998093E+01 0.  1.
</event>
<event>
 5   0  0.4687817E-07  0.3697464E+04  0.7818609E-02  0.8068524E-01
        2   -1    0    0  501    0  0.00000000000E+00  0.00000000000E+00  0.26910758662E+04  0.26910758662E+04  0.25500000920E-02 0. -1.
       -2   -1    0    0    0  501  0.00000000000E+00  0.00000000000E+00 -0.12700535462E+04  0.12700535462E+04  0.25500000920E-02 0.  1.
    10030    2    1    2    0    0  0.00000000000E+00  0.00000000000E+00  0.14210223199E+04  0.39611294124E+04  0.36974642375E+04 0.  0.
        4    1    3    3  502    0  0.84046141913E+03  0.24521720123E+03  0.24549054070E+04  0.26063516729E+04  0.12699999809E+01 0. -1.
       -4    1    3    3    0  502 -0.84046141913E+03 -0.24521720123E+03 -0.10338830870E+04  0.13547777395E+04  0.12699999809E+01 0.  1.
</event>
<event>
 5   0  0.4824268E-07  0.3623177E+04  0.7818609E-02  0.8085203E-01
       -2   -1    0    0    0  501  0.00000000000E+00  0.00000000000E+00  0.16241933004E+04  0.16241933004E+04  0.25500000920E-02 0.  1.
        2   -1    0    0  501    0  0.00000000000E+00  0.00000000000E+00 -0.20206044074E+04  0.20206044074E+04  0.25500000920E-02 0. -1.
    10030    2    1    2    0    0  0.00000000000E+00  0.00000000000E+00 -0.39641110699E+03  0.36447977079E+04  0.36231765849E+04 0.  0.
        1    1    3    3  502    0 -0.13530397792E+04  0.44525185888E+03 -0.13242090909E+04  0.19448638971E+04  0.50400001928E-02 0. -1.
       -1    1    3    3    0  502  0.13530397792E+04 -0.44525185888E+03  0.92779798391E+03  0.16999338107E+04  0.50400001928E-02 0.  1.
</event>
<event>
 5   0  0.4824268E-07  0.3691754E+04  0.7818609E-02  0.8069792E-01
        2   -1    0    0  501    0  0.00000000000E+00  0.00000000000E+00  0.25207676798E+04  0.25207676798E+04  0.25500000920E-02 0. -1.
       -2   -1    0    0    0  501  0.00000000000E+00  0.00000000000E+00 -0.13516762214E+04  0.13516762214E+04  0.25500000920E-02 0.  1.
    10030    2    1    2    0    0  0.00000000000E+00  0.00000000000E+00  0.11690914584E+04  0.38724439011E+04  0.36917539096E+04 0.  0.
        1    1    3    3  502    0  0.49096069144E+03 -0.40136580117E+02 -0.12814574479E+04  0.13728752808E+04  0.50400001928E-02 0.  1.
       -1    1    3    3    0  502 -0.49096069144E+03  0.40136580117E+02  0.24505489063E+04  0.24995686204E+04  0.50400001928E-02 0. -1.
</event>
<event>
 5   0  0.1496000E-07  0.3750481E+04  0.7818609E-02  0.8056866E-01
        1   -1    0    0  501    0  0.00000000000E+00  0.00000000000E+00  0.18580525276E+04  0.18580525276E+04  0.50400001928E-02 0.  1.
       -1   -1    0    0    0  501  0.00000000000E+00  0.00000000000E+00 -0.18925874058E+04  0.18925874058E+04  0.50400001928E-02 0. -1.
    10030    2    1    2    0    0  0.00000000000E+00  0.00000000000E+00 -0.34534878217E+02  0.37506399334E+04  0.37504809361E+04 0.  0.
        2    1    3    3  502    0 -0.33784747944E+03  0.22917125600E+03  0.18130741854E+04  0.18584666760E+04  0.25500000920E-02 0.  1.
       -2    1    3    3    0  502  0.33784747944E+03 -0.22917125600E+03 -0.18476090636E+04  0.18921732574E+04  0.25500000920E-02 0. -1.
</event>
<event>
 5   0  0.4824268E-07  0.3750993E+04  0.7818609E-02  0.8056754E-01
       -2   -1    0    0    0  501  0.00000000000E+00  0.00000000000E+00  0.17259951345E+04  0.17259951345E+04  0.25500000920E-02 0. -1.
        2   -1    0    0  501    0  0.00000000000E+00  0.00000000000E+00 -0.20379469490E+04  0.20379469490E+04  0.25500000920E-02 0.  1.
    10030    2    1    2    0    0  0.00000000000E+00  0.00000000000E+00 -0.31195181452E+03  0.37639420834E+04  0.37509926783E+04 0.  0.
        1    1    3    3  502    0  0.52709245666E+03 -0.61306958590E+03  0.15421445488E+04  0.17412324900E+04  0.50400001928E-02 0. -1.
       -1    1    3    3    0  502 -0.52709245666E+03  0.61306958590E+03 -0.18540963633E+04  0.20227095934E+04  0.50400001928E-02 0.  1.
</event>
<event>
 5   0  0.1496000E-07  0.3704354E+04  0.7818609E-02  0.8066998E-01
        1   -1    0    0  501    0  0.00000000000E+00  0.00000000000E+00  0.16374186984E+04  0.16374186984E+04  0.50400001928E-02 0.  1.
       -1   -1    0    0    0  501  0.00000000000E+00  0.00000000000E+00 -0.20951027180E+04  0.20951027180E+04  0.50400001928E-02 0. -1.
    10030    2    1    2    0    0  0.00000000000E+00  0.00000000000E+00 -0.45768401964E+03  0.37325214164E+04  0.37043543921E+04 0.  0.
        5    1    3    3  502    0 -0.13474860123E+04  0.11010131439E+04  0.41048220238E+03  0.17878663890E+04  0.46999998093E+01 0.  1.
       -5    1    3    3    0  502  0.13474860123E+04 -0.11010131439E+04 -0.86816622202E+03  0.19446550274E+04  0.46999998093E+01 0. -1.
</event>
<event>
 5   0  0.1496000E-07  0.3800207E+04  0.7818609E-02  0.8046110E-01
       -1   -1    0    0    0  501  0.00000000000E+00  0.00000000000E+00  0.23878862147E+04  0.23878862147E+04  0.50400001928E-02 0. -1.
        1   -1    0    0  501    0  0.00000000000E+00  0.00000000000E+00 -0.15119624133E+04  0.15119624133E+04  0.50400001928E-02 0.  1.
    10030    2    1    2    0    0  0.00000000000E+00  0.00000000000E+00  0.87592380138E+03  0.38998486281E+04  0.38002074701E+04 0.  0.
        3    1    3    3  502    0  0.12981750538E+04 -0.12866416337E+04  0.97089425059E+03  0.20696233522E+04  0.10100000352E+00 0. -1.
       -3    1    3    3    0  502 -0.12981750538E+04  0.12866416337E+04 -0.94970449213E+02  0.18302252759E+04  0.10100000352E+00 0.  1.
</event>
<event>
 5   0  0.4687817E-07  0.3562533E+04  0.7818609E-02  0.8099128E-01
        2   -1    0    0  501    0  0.00000000000E+00  0.00000000000E+00  0.15338800791E+04  0.15338800791E+04  0.25500000920E-02 0.  1.
       -2   -1    0    0    0  501  0.00000000000E+00  0.00000000000E+00 -0.20685517188E+04  0.20685517188E+04  0.25500000920E-02 0. -1.
    10030    2    1    2    0    0  0.00000000000E+00  0.00000000000E+00 -0.53467163966E+03  0.36024317979E+04  0.35625329607E+04 0.  0.
        4    1    3    3  502    0  0.16036714921E+04 -0.49905138038E+03 -0.86735656552E+03  0.18902707635E+04  0.12699999809E+01 0. -1.
       -4    1    3    3    0  502 -0.16036714921E+04  0.49905138038E+03  0.33268492586E+03  0.17121610344E+04  0.12699999809E+01 0.  1.
</event>
<event>
 5   0  0.1496287E-07  0.3688280E+04  0.7818609E-02  0.8070564E-01
       -1   -1    0    0    0  501  0.00000000000E+00  0.00000000000E+00  0.16110947591E+04  0.16110947591E+04  0.50400001928E-02 0.  1.
        1   -1    0    0  501    0  0.00000000000E+00  0.00000000000E+00 -0.21108950789E+04  0.21108950789E+04  0.50400001928E-02 0. -1.
    10030    2    1    2    0    0  0.00000000000E+00  0.00000000000E+00 -0.49980031973E+03  0.37219898380E+04  0.36882798151E+04 0.  0.
        1    1    3    3  502    0  0.17542469413E+04 -0.18094286797E+03 -0.79402149749E+03  0.19340612170E+04  0.50400001928E-02 0. -1.
       -1    1    3    3    0  502 -0.17542469413E+04  0.18094286797E+03  0.29422117776E+03  0.17879286210E+04  0.50400001928E-02 0.  1.
</event>
<event>
 5   0  0.4793557E-07  0.3660979E+04  0.7818609E-02  0.8076665E-01
       -2   -1    0    0    0  501  0.00000000000E+00  0.00000000000E+00  0.28571375859E+04  0.28571375859E+04  0.25500000920E-02 0.  1.
        2   -1    0    0  501    0  0.00000000000E+00  0.00000000000E+00 -0.11727441541E+04  0.11727441541E+04  0.25500000920E-02 0. -1.
    10030    2    1    2    0    0  0.00000000000E+00  0.00000000000E+00  0.16843934318E+04  0.40298817400E+04  0.36609787770E+04 0.  0.
        3    1    3    3  502    0 -0.42753279318E+03 -0.19198736691E+03  0.27899769300E+04  0.28290660506E+04  0.10100000352E+00 0.  1.
       -3    1    3    3    0  502  0.42753279318E+03  0.19198736691E+03 -0.11055834982E+04  0.12008156895E+04  0.10100000352E+00 0. -1.
</event>
<event>
 5   0  0.4793557E-07  0.3719134E+04  0.7818609E-02  0.8063735E-01
       -2   -1    0    0    0  501  0.00000000000E+00  0.00000000000E+00  0.15686710734E+04  0.15686710734E+04  0.25500000920E-02 0.  1.
        2   -1    0    0  501    0  0.00000000000E+00  0.00000000000E+00 -0.22044064266E+04  0.22044064266E+04  0.25500000920E-02 0. -1.
    10030    2    1    2    0    0  0.00000000000E+00  0.00000000000E+00 -0.63573535315E+03  0.37730775000E+04  0.37191335525E+04 0.  0.
        3    1    3    3  502    0 -0.63088718382E+03 -0.12081366426E+04 -0.16012762600E+04  0.21027835022E+04  0.10100000352E+00 0. -1.
       -3    1    3    3    0  502  0.63088718382E+03  0.12081366426E+04  0.96554090690E+03  0.16702939978E+04  0.10100000352E+00 0.  1.
</event>
<event>
 5   0  0.4793557E-07  0.3674060E+04  0.7818609E-02  0.8073735E-01
       -2   -1    0    0    0  501  0.00000000000E+00  0.00000000000E+00  0.21647003921E+04  0.21647003921E+04  0.25500000920E-02 0.  1.
        2   -1    0    0  501    0  0.00000000000E+00  0.00000000000E+00 -0.15589591318E+04  0.15589591318E+04  0.25500000920E-02 0. -1.
    10030    2    1    2    0    0  0.00000000000E+00  0.00000000000E+00  0.60574126036E+03  0.37236595239E+04  0.36740601214E+04 0.  0.
        3    1    3    3  502    0 -0.27200291187E+03  0.13920609981E+04  0.14860465772E+04  0.20543013037E+04  0.10100000352E+00 0.  1.
       -3    1    3    3    0  502  0.27200291187E+03 -0.13920609981E+04 -0.88030531681E+03  0.16693582203E+04  0.10100000352E+00 0. -1.
</event>
<event>
 5   0  0.1496000E-07  0.3732500E+04  0.7818609E-02  0.8060797E-01
       -1   -1    0    0    0  501  0.00000000000E+00  0.00000000000E+00  0.16307611152E+04  0.16307611152E+04  0.50400001928E-02 0.  1.
        1   -1    0    0  501    0  0.00000000000E+00  0.00000000000E+00 -0.21357441702E+04  0.21357441702E+04  0.50400001928E-02 0. -1.
    10030    2    1    2    0    0  0.00000000000E+00  0.00000000000E+00 -0.50498305500E+03  0.37665052853E+04  0.37324997225E+04 0.  0.
        2    1    3    3  502    0 -0.62527575192E+03  0.12883569190E+04 -0.14600792270E+04  0.20451563915E+04  0.25500000920E-02 0. -1.
       -2    1    3    3    0  502  0.62527575192E+03 -0.12883569190E+04  0.95509617200E+03  0.17213488938E+04  0.25500000920E-02 0.  1.
</event>
<event>
 5   0  0.4857514E-07  0.3693360E+04  0.7818609E-02  0.8069435E-01
       -2   -1    0    0    0  501  0.00000000000E+00  0.00000000000E+00  0.12510710808E+04  0.12510710808E+04  0.25500000920E-02 0.  1.
        2   -1    0    0  501    0  0.00000000000E+00  0.00000000000E+00 -0.27258458493E+04  0.27258458493E+04  0.25500000920E-02 0. -1.
    10030    2    1    2    0    0  0.00000000000E+00  0.00000000000E+00 -0.14747747685E+04  0.39769169301E+04  0.36933599406E+04 0.  0.
        5    1    3    3  502    0 -0.36396967122E+03  0.17985945737E+04 -0.51465251272E+03  0.19058608714E+04  0.46999998093E+01 0.  1.
       -5    1    3    3    0  502  0.36396967122E+03 -0.17985945737E+04 -0.96012225581E+03  0.20710560587E+04  0.46999998093E+01 0. -1.
</event>
<event>
 5   0  0.4857514E-07  0.3697234E+04  0.7818609E-02  0.8068575E-01
       -2   -1    0    0    0  501  0.00000000000E+00  0.00000000000E+00  0.25931395442E+04  0.25931395442E+04  0.25500000920E-02 0.  1.
        2   -1    0    0  501    0  0.00000000000E+00  0.00000000000E+00 -0.13178559841E+04  0.13178559841E+04  0.25500000920E-02 0. -1.
    10030    2    1    2    0    0  0.00000000000E+00  0.00000000000E+00  0.12752835601E+04  0.39109955282E+04  0.36972338123E+04 0.  0.
        5    1    3    3  502    0  0.12920820187E+04  0.32984002103E+03  0.19919330149E+04  0.23971002500E+04  0.46999998093E+01 0.  1.
       -5    1    3    3    0  502 -0.12920820187E+04 -0.32984002103E+03 -0.71664945474E+03  0.15138952783E+04  0.46999998093E+01 0. -1.
</event>
<event>
 5   0  0.4687817E-07  0.3723511E+04  0.7818609E-02  0.8062771E-01
       -2   -1    0    0    0  501  0.00000000000E+00  0.00000000000E+00  0.23121171220E+04  0.23121171220E+04  0.25500000920E-02 0.  1.
        2   -1    0    0  501    0  0.00000000000E+00  0.00000000000E+00 -0.14991164608E+04  0.14991164608E+04  0.25500000920E-02 0. -1.
    10030    2    1    2    0    0  0.00000000000E+00  0.00000000000E+00  0.81300066124E+03  0.38112335828E+04  0.37235106214E+04 0.  0.
        4    1    3    3  502    0  0.16866909267E+04 -0.56015788989E+03 -0.16102432801E+03  0.17845541715E+04  0.12699999809E+01 0. -1.
       -4    1    3    3    0  502 -0.16866909267E+04  0.56015788989E+03  0.97402498925E+03  0.20266794113E+04  0.12699999809E+01 0.  1.
</event>
<event>
 5   0  0.4687817E-07  0.3696843E+04  0.7818609E-02  0.8068662E-01
       -2   -1    0    0    0  501  0.00000000000E+00  0.00000000000E+00  0.17997958906E+04  0.17997958906E+04  0.25500000920E-02 0.  1.
        2   -1    0    0  501    0  0.00000000000E+00  0.00000000000E+00 -0.18983607511E+04  0.18983607511E+04  0.25500000920E-02 0. -1.
    10030    2    1    2    0    0  0.00000000000E+00  0.00000000000E+00 -0.98564860481E+02  0.36981566417E+04  0.36968429119E+04 0.  0.
        4    1    3    3  502    0  0.10430633138E+04  0.10055672792E+04 -0.11975202975E+04  0.18796816501E+04  0.12699999809E+01 0. -1.
       -4    1    3    3    0  502 -0.10430633138E+04 -0.10055672792E+04  0.10989554370E+04  0.18184749916E+04  0.12699999809E+01 0.  1.
</event>
<event>
 5   0  0.1522273E-07  0.3744892E+04  0.7818609E-02  0.8058085E-01
       -1   -1    0    0    0  501  0.00000000000E+00  0.00000000000E+00  0.25751987110E+04  0.25751987110E+04  0.50400001928E-02 0. -1.
        1   -1    0    0  501    0  0.00000000000E+00  0.00000000000E+00 -0.13614696577E+04  0.13614696577E+04  0.50400001928E-02 0.  1.
    10030    2    1    2    0    0  0.00000000000E+00  0.00000000000E+00  0.12137290533E+04  0.39366683686E+04  0.37448924724E+04 0.  0.
        4    1    3    3  502    0 -0.84200195180E+03  0.10348644732E+03  0.23615908156E+04  0.25093404561E+04  0.12699999809E+01 0. -1.
       -4    1    3    3    0  502  0.84200195180E+03 -0.10348644732E+03 -0.11478617623E+04  0.14273279125E+04  0.12699999809E+01 0.  1.
</event>
<event>
 5   0  0.4793557E-07  0.3696186E+04  0.7818609E-02  0.8068808E-01
        2   -1    0    0  501    0  0.00000000000E+00  0.00000000000E+00  0.13083076083E+04  0.13083076083E+04  0.25500000920E-02 0.  1.
       -2   -1    0    0    0  501  0.00000000000E+00  0.00000000000E+00 -0.26105848233E+04  0.26105848233E+04  0.25500000920E-02 0. -1.
    10030    2    1    2    0    0  0.00000000000E+00  0.00000000000E+00 -0.13022772150E+04  0.39188924317E+04  0.36961861352E+04 0.  0.
        3    1    3    3  502    0  0.17490046124E+04 -0.31472993034E+02 -0.12832488656E+04  0.21695011742E+04  0.10100000352E+00 0. -1.
       -3    1    3    3    0  502 -0.17490046124E+04  0.31472993034E+02 -0.19028349397E+02  0.17493912575E+04  0.10100000352E+00 0.  1.
</event>
<event>
 5   0  0.1522273E-07  0.3643509E+04  0.7818609E-02  0.8080598E-01
        1   -1    0    0  501    0  0.00000000000E+00  0.00000000000E+00  0.13452613657E+04  0.13452613658E+04  0.50400001928E-02 0. -1.
       -1   -1    0    0    0  501  0.00000000000E+00  0.00000000000E+00 -0.24670219289E+04  0.24670219289E+04  0.50400001928E-02 0.  1.
    10030    2    1    2    0    0  0.00000000000E+00  0.00000000000E+00 -0.11217605631E+04  0.38122832947E+04  0.36435089073E+04 0.  0.
        4    1    3    3  502    0 -0.47173286270E+03  0.12544829746E+04 -0.18519449911E+04  0.22860361524E+04  0.12699999809E+01 0.  1.
       -4    1    3    3    0  502  0.47173286270E+03 -0.12544829746E+04  0.73018442793E+03  0.15262471422E+04  0.12699999809E+01 0. -1.
</event>
<event>
 5   0  0.4824268E-07  0.3645306E+04  0.7818609E-02  0.8080192E-01
        2   -1    0    0  501    0  0.00000000000E+00  0.00000000000E+00  0.21213985260E+04  0.21213985260E+04  0.25500000920E-02 0.  1.
       -2   -1    0    0    0  501  0.00000000000E+00  0.00000000000E+00 -0.15659779274E+04  0.15659779274E+04  0.25500000920E-02 0. -1.
    10030    2    1    2    0    0  0.00000000000E+00  0.00000000000E+00  0.55542059863E+03  0.36873764534E+04  0.36453056206E+04 0.  0.
        1    1    3    3  502    0 -0.82242713978E+03 -0.16265525387E+04  0.27576308592E+03  0.18433949227E+04  0.50400001928E-02 0. -1.
       -1    1    3    3    0  502  0.82242713978E+03  0.16265525387E+04  0.27965751271E+03  0.18439815307E+04  0.50400001928E-02 0.  1.
</event>
<event>
 5   0  0.4758908E-07  0.3767244E+04  0.7818609E-02  0.8053221E-01
       -2   -1    0    0    0  501  0.00000000000E+00  0.00000000000E+00  0.18067115378E+04  0.18067115378E+04  0.25500000920E-02 0. -1.
        2   -1    0    0  501    0  0.00000000000E+00  0.00000000000E+00 -0.19638069860E+04  0.19638069860E+04  0.25500000920E-02 0.  1.
    10030    2    1    2    0    0  0.00000000000E+00  0.00000000000E+00 -0.15709544825E+03  0.37705185238E+04  0.37672444782E+04 0.  0.
        2    1    3    3  502    0  0.12689706579E+04  0.54183186902E+03  0.12048164116E+04  0.18317889864E+04  0.25500000920E-02 0. -1.
       -2    1    3    3    0  502 -0.12689706579E+04 -0.54183186902E+03 -0.13619118599E+04  0.19387295374E+04  0.25500000920E-02 0.  1.
</event>
<event>
 5   0  0.1496287E-07  0.3735218E+04  0.7818609E-02  0.8060202E-01
       -1   -1    0    0    0  501  0.00000000000E+00  0.00000000000E+00  0.20625631507E+04  0.20625631507E+04  0.50400001928E-02 0. -1.
        1   -1    0    0  501    0  0.00000000000E+00  0.00000000000E+00 -0.16910823300E+04  0.16910823300E+04  0.50400001928E-02 0.  1.
    10030    2    1    2    0    0  0.00000000000E+00  0.00000000000E+00  0.37148082064E+03  0.37536454807E+04  0.37352183865E+04 0.  0.
        1    1    3    3  502    0  0.10877706023E+04  0.14671245615E+04 -0.20639577635E+03  0.18380148473E+04  0.50400001928E-02 0.  1.
       -1    1    3    3    0  502 -0.10877706023E+04 -0.14671245615E+04  0.57787659699E+03  0.19156306334E+04  0.50400001928E-02 0. -1.
</event>
<event>
 5   0  0.1496000E-07  0.3676531E+04  0.7818609E-02  0.8073183E-01
       -1   -1    0    0    0  501  0.00000000000E+00  0.00000000000E+00  0.15798116488E+04  0.15798116488E+04  0.50400001928E-02 0.  1.
        1   -1    0    0  501    0  0.00000000000E+00  0.00000000000E+00 -0.21390015391E+04  0.21390015391E+04  0.50400001928E-02 0. -1.
    10030    2    1    2    0    0  0.00000000000E+00  0.00000000000E+00 -0.55918989026E+03  0.37188131879E+04  0.36765307279E+04 0.  0.
        2    1    3    3  502    0  0.64100515473E+03  0.85360202906E+03  0.12341776985E+04  0.16317838778E+04  0.25500000920E-02 0.  1.
       -2    1    3    3    0  502 -0.64100515473E+03 -0.85360202906E+03 -0.17933675888E+04  0.20870293100E+04  0.25500000920E-02 0. -1.
</event>
<event>
 5   0  0.4687817E-07  0.3761863E+04  0.7818609E-02  0.8054389E-01
       -2   -1    0    0    0  501  0.00000000000E+00  0.00000000000E+00  0.15130710687E+04  0.15130710687E+04  0.25500000920E-02 0.  1.
        2   -1    0    0  501    0  0.00000000000E+00  0.00000000000E+00 -0.23382264854E+04  0.23382264854E+04  0.25500000920E-02 0. -1.
    10030    2    1    2    0    0  0.00000000000E+00  0.00000000000E+00 -0.82515541668E+03  0.38512975541E+04  0.37618627552E+04 0.  0.
        4    1    3    3  502    0  0.17417011187E+04  0.63861683171E+02  0.31155711987E+03  0.17705000856E+04  0.12699999809E+01 0.  1.
       -4    1    3    3    0  502 -0.17417011187E+04 -0.63861683171E+02 -0.11367125365E+04  0.20807974685E+04  0.12699999809E+01 0. -1.
</event>
<event>
 5   0  0.4687817E-07  0.3706462E+04  0.7818609E-02  0.8066531E-01
       -2   -1    0    0    0  501  0.00000000000E+00  0.00000000000E+00  0.16149405159E+04  0.16149405159E+04  0.25500000920E-02 0.  1.
        2   -1    0    0  501    0  0.00000000000E+00  0.00000000000E+00 -0.21266822534E+04  0.21266822534E+04  0.25500000920E-02 0. -1.
    10030    2    1    2    0    0  0.00000000000E+00  0.00000000000E+00 -0.51174173750E+03  0.37416227692E+04  0.37064621057E+04 0.  0.
        4    1    3    3  502    0 -0.12258751047E+04  0.11871149577E+04  0.47379434963E+03  0.17710150744E+04  0.12699999809E+01 0.  1.
       -4    1    3    3    0  502  0.12258751047E+04 -0.11871149577E+04 -0.98553608712E+03  0.19706076948E+04  0.12699999809E+01 0. -1.
</event>
<event>
 5   0  0.1522273E-07  0.3517170E+04  0.7818609E-02  0.8109733E-01
       -1   -1    0    0    0  501  0.00000000000E+00  0.00000000000E+00  0.10502357453E+04  0.10502357453E+04  0.50400001928E-02 0.  1.
        1   -1    0    0  501    0  0.00000000000E+00  0.00000000000E+00 -0.29446924331E+04  0.29446924331E+04  0.50400001928E-02 0. -1.
    10030    2    1    2    0    0  0.00000000000E+00  0.00000000000E+00 -0.18944566878E+04  0.39949281784E+04  0.35171700283E+04 0.  0.
        4    1    3    3  502    0 -0.10238987358E+04  0.45528972063E+03 -0.24866788564E+04  0.27274953160E+04  0.12699999809E+01 0. -1.
       -4    1    3    3    0  502  0.10238987358E+04 -0.45528972063E+03  0.59222216859E+03  0.12674328624E+04  0.12699999809E+01 0.  1.
</event>
<event>
 5   0  0.1496000E-07  0.3707391E+04  0.7818609E-02  0.8066326E-01
       -1   -1    0    0    0  501  0.00000000000E+00  0.00000000000E+00  0.11934436498E+04  0.11934436498E+04  0.50400001928E-02 0.  1.
        1   -1    0    0  501    0  0.00000000000E+00  0.00000000000E+00 -0.28792202499E+04  0.28792202499E+04  0.50400001928E-02 0. -1.
    10030    2    1    2    0    0  0.00000000000E+00  0.00000000000E+00 -0.16857766001E+04  0.40726638997E+04  0.37073910630E+04 0.  0.
        2    1    3    3  502    0 -0.26380938368E+03 -0.15474290982E+04 -0.19259559234E+04  0.24846405019E+04  0.25500000920E-02 0. -1.
       -2    1    3    3    0  502  0.26380938368E+03  0.15474290982E+04  0.24017932324E+03  0.15880233978E+04  0.25500000920E-02 0.  1.
</event>
<event>
 5   0  0.4857514E-07  0.3675297E+04  0.7818609E-02  0.8073458E-01
       -2   -1    0    0    0  501  0.00000000000E+00  0.00000000000E+00  0.15661186429E+04  0.15661186429E+04  0.25500000920E-02 0.  1.
        2   -1    0    0  501    0  0.00000000000E+00  0.00000000000E+00 -0.21562560431E+04  0.21562560431E+04  0.25500000920E-02 0. -1.
    10030    2    1    2    0    0  0.00000000000E+00  0.00000000000E+00 -0.59013740021E+03  0.37223746860E+04  0.36752974236E+04 0.  0.
        5    1    3    3  502    0  0.10349996215E+04 -0.43586715000E+02 -0.18323403304E+04  0.21049031319E+04  0.46999998093E+01 0. -1.
       -5    1    3    3    0  502 -0.10349996215E+04  0.43586715000E+02  0.12422029302E+04  0.16174715540E+04  0.46999998093E+01 0.  1.
</event>
<event>
 5   0  0.1496000E-07  0.3715259E+04  0.7818609E-02  0.8064589E-01
        4   -1    0    0  501    0  0.00000000000E+00  0.00000000000E+00  0.20276542583E+04  0.20276546561E+04  0.12699999809E+01 0. -1.
       -4   -1    0    0    0  501  0.00000000000E+00  0.00000000000E+00 -0.17018612212E+04  0.17018616951E+04  0.12699999809E+01 0.  1.
    10030    2    1    2    0    0  0.00000000000E+00  0.00000000000E+00  0.32579303712E+03  0.37295163511E+04  0.37152592252E+04 0.  0.
        1    1    3    3  502    0  0.27280053610E+03 -0.15561384838E+04 -0.81799222471E+03  0.17790723406E+04  0.50400001928E-02 0.  1.
       -1    1    3    3    0  502 -0.27280053610E+03  0.15561384838E+04  0.11437852618E+04  0.19504440106E+04  0.50400001928E-02 0. -1.
</event>
<event>
 5   0  0.1496000E-07  0.3786124E+04  0.7818609E-02  0.8049139E-01
        1   -1    0    0  501    0  0.00000000000E+00  0.00000000000E+00  0.19820055368E+04  0.19820055368E+04  0.50400001928E-02 0. -1.
       -1   -1    0    0    0  501  0.00000000000E+00  0.00000000000E+00 -0.18081102713E+04  0.18081102713E+04  0.50400001928E-02 0.  1.
    10030    2    1    2    0    0  0.00000000000E+00  0.00000000000E+00  0.17389526554E+03  0.37901158081E+04  0.37861244400E+04 0.  0.
        5    1    3    3  502    0 -0.17854094509E+04 -0.15494657365E+03  0.69748166675E+03  0.19230699711E+04  0.46999998093E+01 0. -1.
       -5    1    3    3    0  502  0.17854094509E+04  0.15494657365E+03 -0.52358640121E+03  0.18670458370E+04  0.46999998093E+01 0.  1.
</event>
<event>
 5   0  0.4758908E-07  0.3498327E+04  0.7818609E-02  0.8114187E-01
        2   -1    0    0  501    0  0.00000000000E+00  0.00000000000E+00  0.12584539180E+04  0.12584539180E+04  0.25500000920E-02 0. -1.
       -2   -1    0    0    0  501  0.00000000000E+00  0.00000000000E+00 -0.24312155404E+04  0.24312155404E+04  0.25500000920E-02 0.  1.
    10030    2    1    2    0    0  0.00000000000E+00  0.00000000000E+00 -0.11727616224E+04  0.36896694584E+04  0.34983268700E+04 0.  0.
        2    1    3    3  502    0  0.59213719092E+03 -0.64769491822E+03  0.10094670191E+04  0.13375944163E+04  0.25500000920E-02 0. -1.
       -2    1    3    3    0  502 -0.59213719092E+03  0.64769491822E+03 -0.21822286415E+04  0.23520750421E+04  0.25500000920E-02 0.  1.
</event>
<event>
 5   0  0.1522273E-07  0.3722457E+04  0.7818609E-02  0.8063003E-01
        1   -1    0    0  501    0  0.00000000000E+00  0.00000000000E+00  0.14073911714E+04  0.14073911714E+04  0.50400001928E-02 0. -1.
       -1   -1    0    0    0  501  0.00000000000E+00  0.00000000000E+00 -0.24614134562E+04  0.24614134562E+04  0.50400001928E-02 0.  1.
    10030    2    1    2    0    0  0.00000000000E+00  0.00000000000E+00 -0.10540222847E+04  0.38688046276E+04  0.37224570206E+04 0.  0.
        4    1    3    3  502    0 -0.42381106356E+03 -0.14427811395E+04  0.61289343523E+03  0.16238451927E+04  0.12699999809E+01 0. -1.
       -4    1    3    3    0  502  0.42381106356E+03  0.14427811395E+04 -0.16669157200E+04  0.22449594349E+04  0.12699999809E+01 0.  1.
</event>
<event>
 5   0  0.4793557E-07  0.3562465E+04  0.7818609E-02  0.8099144E-01
       -2   -1    0    0    0  501  0.00000000000E+00  0.00000000000E+00  0.18958882740E+04  0.18958882740E+04  0.25500000920E-02 0.  1.
        2   -1    0    0  501    0  0.00000000000E+00  0.00000000000E+00 -0.16735107310E+04  0.16735107310E+04  0.25500000920E-02 0. -1.
    10030    2    1    2    0    0  0.00000000000E+00  0.00000000000E+00  0.22237754298E+03  0.35693990050E+04  0.35624650855E+04 0.  0.
        3    1    3    3  502    0  0.10813701041E+04 -0.19733486245E+03  0.15155184121E+04  0.18721908069E+04  0.10100000352E+00 0.  1.
       -3    1    3    3    0  502 -0.10813701041E+04  0.19733486245E+03 -0.12931408691E+04  0.16972081981E+04  0.10100000352E+00 0. -1.
</event>
<event>
 5   0  0.1496000E-07  0.3744340E+04  0.7818609E-02  0.8058206E-01
        1   -1    0    0  501    0  0.00000000000E+00  0.00000000000E+00  0.15388865003E+04  0.15388865003E+04  0.50400001928E-02 0.  1.
       -1   -1    0    0    0  501  0.00000000000E+00  0.00000000000E+00 -0.22776339143E+04  0.22776339143E+04  0.50400001928E-02 0. -1.
    10030    2    1    2    0    0  0.00000000000E+00  0.00000000000E+00 -0.73874741392E+03  0.38165204146E+04  0.37443397727E+04 0.  0.
        2    1    3    3  502    0  0.61573804892E+03  0.23931866066E+03  0.14161409577E+04  0.15626458262E+04  0.25500000920E-02 0.  1.
       -2    1    3    3    0  502 -0.61573804892E+03 -0.23931866066E+03 -0.21548883716E+04  0.22538745884E+04  0.25500000920E-02 0. -1.
</event>
<event>
 5   0  0.4758908E-07  0.3712229E+04  0.7818609E-02  0.8065257E-01
        2   -1    0    0  501    0  0.00000000000E+00  0.00000000000E+00  0.16381892766E+04  0.16381892766E+04  0.25500000920E-02 0. -1.
       -2   -1    0    0    0  501  0.00000000000E+00  0.00000000000E+00 -0.21030296650E+04  0.21030296650E+04  0.25500000920E-02 0.  1.
    10030    2    1    2    0    0  0.00000000000E+00  0.00000000000E+00 -0.46484038842E+03  0.37412189417E+04  0.37122287891E+04 0.  0.
        2    1    3    3  502    0  0.54263629753E+03 -0.69371375078E+03  0.14141897253E+04  0.16660208577E+04  0.25500000920E-02 0. -1.
       -2    1    3    3    0  502 -0.54263629753E+03  0.69371375078E+03 -0.18790301137E+04  0.20751980839E+04  0.25500000920E-02 0.  1.
</event>
<event>
 5   0  0.1496000E-07  0.3683287E+04  0.7818609E-02  0.8071676E-01
        1   -1    0    0  501    0  0.00000000000E+00  0.00000000000E+00  0.28814956662E+04  0.28814956662E+04  0.50400001928E-02 0. -1.
       -1   -1    0    0    0  501  0.00000000000E+00  0.00000000000E+00 -0.11770450311E+04  0.11770450312E+04  0.50400001928E-02 0.  1.
    10030    2    1    2    0    0  0.00000000000E+00  0.00000000000E+00  0.17044506350E+04  0.40585406973E+04  0.36832866607E+04 0.  0.
        3    1    3    3  502    0 -0.30030983592E+03 -0.18013835171E+04  0.59035409483E+03  0.19192932399E+04  0.10100000352E+00 0.  1.
       -3    1    3    3    0  502  0.30030983592E+03  0.18013835171E+04  0.11140965402E+04  0.21392474575E+04  0.10100000352E+00 0. -1.
</event>
<event>
 5   0  0.4758908E-07  0.3756447E+04  0.7818609E-02  0.8055566E-01
       -2   -1    0    0    0  501  0.00000000000E+00  0.00000000000E+00  0.13546960481E+04  0.13546960481E+04  0.25500000920E-02 0.  1.
        2   -1    0    0  501    0  0.00000000000E+00  0.00000000000E+00 -0.26040698148E+04  0.26040698148E+04  0.25500000920E-02 0. -1.
    10030    2    1    2    0    0  0.00000000000E+00  0.00000000000E+00 -0.12493737667E+04  0.39587658630E+04  0.37564467717E+04 0.  0.
        2    1    3    3  502    0 -0.16174514594E+04 -0.77158087669E+03 -0.32049844524E+02  0.17923485892E+04  0.25500000920E-02 0.  1.
       -2    1    3    3    0  502  0.16174514594E+04  0.77158087669E+03 -0.12173239222E+04  0.21664172738E+04  0.25500000920E-02 0. -1.
</event>
<event>
 5   0  0.1496000E-07  0.3700171E+04  0.7818609E-02  0.8067924E-01
        1   -1    0    0  501    0  0.00000000000E+00  0.00000000000E+00  0.20711509667E+04  0.20711509667E+04  0.50400001928E-02 0. -1.
       -1   -1    0    0    0  501  0.00000000000E+00  0.00000000000E+00 -0.16526159612E+04  0.16526159612E+04  0.50400001928E-02 0.  1.
    10030    2    1    2    0    0  0.00000000000E+00  0.00000000000E+00  0.41853500546E+03  0.37237669279E+04  0.37001714261E+04 0.  0.
        5    1    3    3  502    0  0.80821878173E+03  0.84814712870E+03 -0.12317235753E+04  0.16999224120E+04  0.46999998093E+01 0.  1.
       -5    1    3    3    0  502 -0.80821878173E+03 -0.84814712870E+03  0.16502585807E+04  0.20238445159E+04  0.46999998093E+01 0. -1.
</event>
<event>
 5   0  0.1522273E-07  0.3477402E+04  0.7818609E-02  0.8119166E-01
        1   -1    0    0  501    0  0.00000000000E+00  0.00000000000E+00  0.18018230506E+04  0.18018230506E+04  0.50400001928E-02 0.  1.
       -1   -1    0    0    0  501  0.00000000000E+00  0.00000000000E+00 -0.16777899115E+04  0.16777899115E+04  0.50400001928E-02 0. -1.
    10030    2    1    2    0    0  0.00000000000E+00  0.00000000000E+00  0.12403313907E+03  0.34796129621E+04  0.34774016372E+04 0.  0.
        4    1    3    3  502    0 -0.15408900772E+03 -0.14210687107E+03 -0.16650998980E+04  0.16782422555E+04  0.12699999809E+01 0. -1.
       -4    1    3    3    0  502  0.15408900772E+03  0.14210687107E+03  0.17891330371E+04  0.18013707065E+04  0.12699999809E+01 0.  1.
</event>
<event>
 5   0  0.4793557E-07  0.3389301E+04  0.7818609E-02  0.8140537E-01
       -2   -1    0    0    0  501  0.00000000000E+00  0.00000000000E+00  0.12892048126E+04  0.12892048126E+04  0.25500000920E-02 0. -1.
        2   -1    0    0  501    0  0.00000000000E+00  0.00000000000E+00 -0.22276061308E+04  0.22276061308E+04  0.25500000920E-02 0.  1.
    10030    2    1    2    0    0  0.00000000000E+00  0.00000000000E+00 -0.93840131823E+03  0.35168109435E+04  0.33893011342E+04 0.  0.
        3    1    3    3  502    0 -0.22993592071E+02  0.15920285995E+04 -0.10713400393E+04  0.19190761467E+04  0.10100000352E+00 0.  1.
       -3    1    3    3    0  502  0.22993592071E+02 -0.15920285995E+04  0.13293872104E+03  0.15977347967E+04  0.10100000352E+00 0. -1.
</event>
<event>
 5   0  0.1496000E-07  0.3391483E+04  0.7818609E-02  0.8140000E-01
        1   -1    0    0  501    0  0.00000000000E+00  0.00000000000E+00  0.18294823509E+04  0.18294823509E+04  0.50400001928E-02 0.  1.
       -1   -1    0    0    0  501  0.00000000000E+00  0.00000000000E+00 -0.15717772839E+04  0.15717772839E+04  0.50400001928E-02 0. -1.
    10030    2    1    2    0    0  0.00000000000E+00  0.00000000000E+00  0.25770506695E+03  0.34012596348E+04  0.33914827438E+04 0.  0.
        3    1    3    3  502    0 -0.81561403488E+03  0.28876624749E+03 -0.13337503448E+04  0.15898119990E+04  0.10100000352E+00 0. -1.
       -3    1    3    3    0  502  0.81561403488E+03 -0.28876624749E+03  0.15914554117E+04  0.18114476358E+04  0.10100000352E+00 0.  1.
</event>
<event>
 5   0  0.1496000E-07  0.3863170E+04  0.7818609E-02  0.8032733E-01
       -1   -1    0    0    0  501  0.00000000000E+00  0.00000000000E+00  0.13025441501E+04  0.13025441501E+04  0.50400001928E-02 0. -1.
        1   -1    0    0  501    0  0.00000000000E+00  0.00000000000E+00 -0.28644098716E+04  0.28644098716E+04  0.50400001928E-02 0.  1.
    10030    2    1    2    0    0  0.00000000000E+00  0.00000000000E+00 -0.15618657215E+04  0.41669540217E+04  0.38631698496E+04 0.  0.
        2    1    3    3  502    0 -0.32006790213E+03  0.18767089747E+04 -0.42886058250E+03  0.19515126023E+04  0.25500000920E-02 0. -1.
       -2    1    3    3    0  502  0.32006790213E+03 -0.18767089747E+04 -0.11330051390E+04  0.22154414194E+04  0.25500000920E-02 0.  1.
</event>
<event>
 5   0  0.1496000E-07  0.3703272E+04  0.7818609E-02  0.8067237E-01
       -1   -1    0    0    0  501  0.00000000000E+00  0.00000000000E+00  0.20940699367E+04  0.20940699367E+04  0.50400001928E-02 0.  1.
        1   -1    0    0  501    0  0.00000000000E+00  0.00000000000E+00 -0.16372689858E+04  0.16372689858E+04  0.50400001928E-02 0. -1.
    10030    2    1    2    0    0  0.00000000000E+00  0.00000000000E+00  0.45680095087E+03  0.37313389226E+04  0.37032719379E+04 0.  0.
        2    1    3    3  502    0 -0.11377642441E+02 -0.16045616483E+04  0.11594210144E+04  0.19796476006E+04  0.25500000920E-02 0.  1.
       -2    1    3    3    0  502  0.11377642441E+02  0.16045616483E+04 -0.70262006351E+03  0.17516913220E+04  0.25500000920E-02 0. -1.
</event>
<event>
 5   0  0.4687817E-07  0.3640211E+04  0.7818609E-02  0.8081343E-01
       -2   -1    0    0    0  501  0.00000000000E+00  0.00000000000E+00  0.26045277659E+04  0.26045277659E+04  0.25500000920E-02 0.  1.
        2   -1    0    0  501    0  0.00000000000E+00  0.00000000000E+00 -0.12719323620E+04  0.12719323620E+04  0.25500000920E-02 0. -1.
    10030    2    1    2    0    0  0.00000000000E+00  0.00000000000E+00  0.13325954039E+04  0.38764601278E+04  0.36402105176E+04 0.  0.
        4    1    3    3  502    0  0.12537225938E+04 -0.14569376788E+03  0.20627931554E+04  0.24182977962E+04  0.12699999809E+01 0.  1.
       -4    1    3    3    0  502 -0.12537225938E+04  0.14569376788E+03 -0.73019775156E+03  0.14581623316E+04  0.12699999809E+01 0. -1.
</event>
<event>
 5   0  0.1496287E-07  0.3683962E+04  0.7818609E-02  0.8071525E-01
       -1   -1    0    0    0  501  0.00000000000E+00  0.00000000000E+00  0.17202501701E+04  0.17202501702E+04  0.50400001928E-02 0.  1.
        1   -1    0    0  501    0  0.00000000000E+00  0.00000000000E+00 -0.19723256020E+04  0.19723256020E+04  0.50400001928E-02 0. -1.
    10030    2    1    2    0    0  0.00000000000E+00  0.00000000000E+00 -0.25207543189E+03  0.36925757722E+04  0.36839617004E+04 0.  0.
        1    1    3    3  502    0 -0.85425730283E+03  0.90625696624E+03 -0.14863537417E+04  0.19391505031E+04  0.50400001928E-02 0. -1.
       -1    1    3    3    0  502  0.85425730283E+03 -0.90625696624E+03  0.12342783098E+04  0.17534252691E+04  0.50400001928E-02 0.  1.
</event>
<event>
 5   0  0.1496287E-07  0.3636140E+04  0.7818609E-02  0.8082263E-01
       -1   -1    0    0    0  501  0.00000000000E+00  0.00000000000E+00  0.30761430411E+04  0.30761430411E+04  0.50400001928E-02 0. -1.
        1   -1    0    0  501    0  0.00000000000E+00  0.00000000000E+00 -0.10745205672E+04  0.10745205672E+04  0.50400001928E-02 0.  1.
    10030    2    1    2    0    0  0.00000000000E+00  0.00000000000E+00  0.20016224739E+04  0.41506636082E+04  0.36361402422E+04 0.  0.
        1    1    3    3  502    0  0.38126849059E+03  0.14701486885E+04  0.21415580087E+04  0.26254473015E+04  0.50400001928E-02 0. -1.
       -1    1    3    3    0  502 -0.38126849059E+03 -0.14701486885E+04 -0.13993553484E+03  0.15252163067E+04  0.50400001928E-02 0.  1.
</event>
<event>
 5   0  0.4857514E-07  0.3717003E+04  0.7818609E-02  0.8064204E-01
        2   -1    0    0  501    0  0.00000000000E+00  0.00000000000E+00  0.10164805006E+04  0.10164805006E+04  0.25500000920E-02 0.  1.
       -2   -1    0    0    0  501  0.00000000000E+00  0.00000000000E+00 -0.33980275364E+04  0.33980275364E+04  0.25500000920E-02 0. -1.
    10030    2    1    2    0    0  0.00000000000E+00  0.00000000000E+00 -0.23815470358E+04  0.44145080370E+04  0.37170034873E+04 0.  0.
        5    1    3    3  502    0 -0.17432589998E+04  0.56442143301E+03 -0.82186806663E+03  0.20082362170E+04  0.46999998093E+01 0.  1.
       -5    1    3    3    0  502  0.17432589998E+04 -0.56442143301E+03 -0.15596789692E+04  0.24062718199E+04  0.46999998093E+01 0. -1.
</event>
<event>
 5   0  0.4824268E-07  0.3688466E+04  0.7818609E-02  0.8070523E-01
       -2   -1    0    0    0  501  0.00000000000E+00  0.00000000000E+00  0.20215790983E+04  0.20215790983E+04  0.25500000920E-02 0. -1.
        2   -1    0    0  501    0  0.00000000000E+00  0.00000000000E+00 -0.16824447894E+04  0.16824447894E+04  0.25500000920E-02 0.  1.
    10030    2    1    2    0    0  0.00000000000E+00  0.00000000000E+00  0.33913430887E+03  0.37040238877E+04  0.36884659252E+04 0.  0.
        1    1    3    3  502    0 -0.14983251471E+04  0.85323372557E+03  0.82670426152E+03  0.19121783319E+04  0.50400001928E-02 0. -1.
       -1    1    3    3    0  502  0.14983251471E+04 -0.85323372557E+03 -0.48756995265E+03  0.17918455558E+04  0.50400001928E-02 0.  1.
</event>
<event>
 5   0  0.4824268E-07  0.3719490E+04  0.7818609E-02  0.8063656E-01
       -2   -1    0    0    0  501  0.00000000000E+00  0.00000000000E+00  0.16021805665E+04  0.16021805665E+04  0.25500000920E-02 0.  1.
        2   -1    0    0  501    0  0.00000000000E+00  0.00000000000E+00 -0.21587148190E+04  0.21587148190E+04  0.25500000920E-02 0. -1.
    10030    2    1    2    0    0  0.00000000000E+00  0.00000000000E+00 -0.55653425253E+03  0.37608953854E+04  0.37194897131E+04 0.  0.
        1    1    3    3  502    0 -0.12054368074E+04  0.24609383784E+02 -0.17099985281E+04  0.20923141458E+04  0.50400001928E-02 0. -1.
       -1    1    3    3    0  502  0.12054368074E+04 -0.24609383784E+02  0.11534642756E+04  0.16685812397E+04  0.50400001928E-02 0.  1.
</event>
<event>
 5   0  0.1496000E-07  0.3675932E+04  0.7818609E-02  0.8073317E-01
        1   -1    0    0  501    0  0.00000000000E+00  0.00000000000E+00  0.22549479090E+04  0.22549479090E+04  0.50400001928E-02 0.  1.
       -1   -1    0    0    0  501  0.00000000000E+00  0.00000000000E+00 -0.14980919240E+04  0.14980919240E+04  0.50400001928E-02 0. -1.
    10030    2    1    2    0    0  0.00000000000E+00  0.00000000000E+00  0.75685598499E+03  0.37530398330E+04  0.36759321275E+04 0.  0.
        3    1    3    3  502    0  0.17446117747E+04 -0.34008696651E+03 -0.99133474071E+02  0.17802125842E+04  0.10100000352E+00 0. -1.
       -3    1    3    3    0  502 -0.17446117747E+04  0.34008696651E+03  0.85598945906E+03  0.19728272488E+04  0.10100000352E+00 0.  1.
</event>
<event>
 5   0  0.4857514E-07  0.3697439E+04  0.7818609E-02  0.8068530E-01
       -2   -1    0    0    0  501  0.00000000000E+00  0.00000000000E+00  0.12967385915E+04  0.12967385915E+04  0.25500000920E-02 0. -1.
        2   -1    0    0  501    0  0.00000000000E+00  0.00000000000E+00 -0.26356619951E+04  0.26356619951E+04  0.25500000920E-02 0.  1.
    10030    2    1    2    0    0  0.00000000000E+00  0.00000000000E+00 -0.13389234036E+04  0.39324005866E+04  0.36974394509E+04 0.  0.
        5    1    3    3  502    0 -0.21773868789E+02  0.34021775661E+03  0.12630123364E+04  0.13082218754E+04  0.46999998093E+01 0. -1.
       -5    1    3    3    0  502  0.21773868789E+02 -0.34021775661E+03 -0.26019357400E+04  0.26241787112E+04  0.46999998093E+01 0.  1.
</event>
<event>
 5   0  0.4758908E-07  0.3715050E+04  0.7818609E-02  0.8064635E-01
        2   -1    0    0  501    0  0.00000000000E+00  0.00000000000E+00  0.16861023710E+04  0.16861023710E+04  0.25500000920E-02 0.  1.
       -2   -1    0    0    0  501  0.00000000000E+00  0.00000000000E+00 -0.20463754204E+04  0.20463754204E+04  0.25500000920E-02 0. -1.
    10030    2    1    2    0    0  0.00000000000E+00  0.00000000000E+00 -0.36027304942E+03  0.37324777914E+04  0.37150496353E+04 0.  0.
        2    1    3    3  502    0 -0.93011137235E+03 -0.16042138513E+04 -0.28922398416E+03  0.18767684350E+04  0.25500000920E-02 0.  1.
       -2    1    3    3    0  502  0.93011137235E+03  0.16042138513E+04 -0.71049065264E+02  0.18557093564E+04  0.25500000920E-02 0. -1.
</event>
<event>
 5   0  0.1496000E-07  0.3688723E+04  0.7818609E-02  0.8070465E-01
       -1   -1    0    0    0  501  0.00000000000E+00  0.00000000000E+00  0.14065124627E+04  0.14065124627E+04  0.50400001928E-02 0. -1.
        1   -1    0    0  501    0  0.00000000000E+00  0.00000000000E+00 -0.24185140016E+04  0.24185140017E+04  0.50400001928E-02 0.  1.
    10030    2    1    2    0    0  0.00000000000E+00  0.00000000000E+00 -0.10120015390E+04  0.38250264643E+04  0.36887234022E+04 0.  0.
        5    1    3    3  502    0 -0.37234644623E+03  0.63832837553E+02  0.13659566613E+04  0.14172424625E+04  0.46999998093E+01 0. -1.
       -5    1    3    3    0  502  0.37234644623E+03 -0.63832837553E+02 -0.23779582002E+04  0.24077840018E+04  0.46999998093E+01 0.  1.
</event>
<event>
 5   0  0.4824268E-07  0.3584580E+04  0.7818609E-02  0.8094033E-01
        2   -1    0    0  501    0  0.00000000000E+00  0.00000000000E+00  0.22215265068E+04  0.22215265068E+04  0.25500000920E-02 0.  1.
       -2   -1    0    0    0  501  0.00000000000E+00  0.00000000000E+00 -0.14459889825E+04  0.14459889825E+04  0.25500000920E-02 0. -1.
    10030    2    1    2    0    0  0.00000000000E+00  0.00000000000E+00  0.77553752436E+03  0.36675154893E+04  0.35845796703E+04 0.  0.
        1    1    3    3  502    0  0.14482101372E+04  0.45738369155E+02  0.14671166591E+04  0.20619980338E+04  0.50400001928E-02 0.  1.
       -1    1    3    3    0  502 -0.14482101372E+04 -0.45738369155E+02 -0.69157913477E+03  0.16055174554E+04  0.50400001928E-02 0. -1.
</event>
<event>
 5   0  0.4687817E-07  0.3701097E+04  0.7818609E-02  0.8067719E-01
       -2   -1    0    0    0  501  0.00000000000E+00  0.00000000000E+00  0.26752311178E+04  0.26752311178E+04  0.25500000920E-02 0. -1.
        2   -1    0    0  501    0  0.00000000000E+00  0.00000000000E+00 -0.12800873691E+04  0.12800873691E+04  0.25500000920E-02 0.  1.
    10030    2    1    2    0    0  0.00000000000E+00  0.00000000000E+00  0.13951437487E+04  0.39553184869E+04  0.37010968986E+04 0.  0.
        4    1    3    3  502    0  0.15041142596E+04 -0.10447871162E+04  0.98150550143E+03  0.20778100217E+04  0.12699999809E+01 0.  1.
       -4    1    3    3    0  502 -0.15041142596E+04  0.10447871162E+04  0.41363824724E+03  0.18775084651E+04  0.12699999809E+01 0. -1.
</event>
<event>
 5   0  0.4824268E-07  0.3760199E+04  0.7818609E-02  0.8054750E-01
       -2   -1    0    0    0  501  0.00000000000E+00  0.00000000000E+00  0.26118913591E+04  0.26118913591E+04  0.25500000920E-02 0.  1.
        2   -1    0    0  501    0  0.00000000000E+00  0.00000000000E+00 -0.13533386914E+04  0.13533386914E+04  0.25500000920E-02 0. -1.
    10030    2    1    2    0    0  0.00000000000E+00  0.00000000000E+00  0.12585526677E+04  0.39652300505E+04  0.37601987362E+04 0.  0.
        1    1    3    3  502    0 -0.11635845531E+04 -0.12856095485E+04 -0.13701908252E+03  0.17393950536E+04  0.50400001928E-02 0. -1.
       -1    1    3    3    0  502  0.11635845531E+04  0.12856095485E+04  0.13955717503E+04  0.22258349969E+04  0.50400001928E-02 0.  1.
</event>
<event>
 5   0  0.4758908E-07  0.3743630E+04  0.7818609E-02  0.8058361E-01
       -2   -1    0    0    0  501  0.00000000000E+00  0.00000000000E+00  0.16992406973E+04  0.16992406973E+04  0.25500000920E-02 0.  1.
        2   -1    0    0  501    0  0.00000000000E+00  0.00000000000E+00 -0.20619162198E+04  0.20619162199E+04  0.25500000920E-02 0. -1.
    10030    2    1    2    0    0  0.00000000000E+00  0.00000000000E+00 -0.36267552254E+03  0.37611569172E+04  0.37436302997E+04 0.  0.
        2    1    3    3  502    0 -0.12807234958E+04 -0.58116913378E+03  0.10596299180E+04  0.17609161814E+04  0.25500000920E-02 0.  1.
       -2    1    3    3    0  502  0.12807234958E+04  0.58116913378E+03 -0.14223054406E+04  0.20002407358E+04  0.25500000920E-02 0. -1.
</event>
<event>
 5   0  0.1496000E-07  0.3753518E+04  0.7818609E-02  0.8056204E-01
       -1   -1    0    0    0  501  0.00000000000E+00  0.00000000000E+00  0.11875101281E+04  0.11875101281E+04  0.50400001928E-02 0.  1.
        1   -1    0    0  501    0  0.00000000000E+00  0.00000000000E+00 -0.29660583890E+04  0.29660583890E+04  0.50400001928E-02 0. -1.
    10030    2    1    2    0    0  0.00000000000E+00  0.00000000000E+00 -0.17785482609E+04  0.41535685171E+04  0.37535180178E+04 0.  0.
        2    1    3    3  502    0 -0.61762993589E+03 -0.17478662518E+04 -0.56528755961E+03  0.19380539716E+04  0.25500000920E-02 0.  1.
       -2    1    3    3    0  502  0.61762993589E+03  0.17478662518E+04 -0.12132607013E+04  0.22155145455E+04  0.25500000920E-02 0. -1.
</event>
<event>
 5   0  0.1496000E-07  0.3684653E+04  0.7818609E-02  0.8071372E-01
        1   -1    0    0  501    0  0.00000000000E+00  0.00000000000E+00  0.17224101021E+04  0.17224101022E+04  0.50400001928E-02 0.  1.
       -1   -1    0    0    0  501  0.00000000000E+00  0.00000000000E+00 -0.19705911014E+04  0.19705911014E+04  0.50400001928E-02 0. -1.
    10030    2    1    2    0    0  0.00000000000E+00  0.00000000000E+00 -0.24818099923E+03  0.36930012035E+04  0.36846525048E+04 0.  0.
        2    1    3    3  502    0 -0.68864350092E+03 -0.20699083190E+03 -0.18241327229E+04  0.19607486495E+04  0.25500000920E-02 0. -1.
       -2    1    3    3    0  502  0.68864350092E+03  0.20699083190E+03  0.15759517236E+04  0.17322525541E+04  0.25500000920E-02 0.  1.
</event>
<event>
 5   0  0.4824268E-07  0.3727373E+04  0.7818609E-02  0.8061923E-01
       -2   -1    0    0    0  501  0.00000000000E+00  0.00000000000E+00  0.13130895128E+04  0.13130895128E+04  0.25500000920E-02 0.  1.
        2   -1    0    0  501    0  0.00000000000E+00  0.00000000000E+00 -0.26451560544E+04  0.26451560544E+04  0.25500000920E-02 0. -1.
    10030    2    1    2    0    0  0.00000000000E+00  0.00000000000E+00 -0.13320665416E+04  0.39582455672E+04  0.37273726268E+04 0.  0.
        1    1    3    3  502    0  0.13488668481E+04  0.12318456398E+03  0.69337853126E+03  0.15216405614E+04  0.50400001928E-02 0.  1.
       -1    1    3    3    0  502 -0.13488668481E+04 -0.12318456398E+03 -0.20254450729E+04  0.24366050057E+04  0.50400001928E-02 0. -1.
</event>
<event>
 5   0  0.1496000E-07  0.3529641E+04  0.7818609E-02  0.8106801E-01
        1   -1    0    0  501    0  0.00000000000E+00  0.00000000000E+00  0.19759561549E+04  0.19759561549E+04  0.50400001928E-02 0. -1.
       -1   -1    0    0    0  501  0.00000000000E+00  0.00000000000E+00 -0.15762454278E+04  0.15762454278E+04  0.50400001928E-02 0.  1.
    10030    2    1    2    0    0  0.00000000000E+00  0.00000000000E+00  0.39971072710E+03  0.35522015828E+04  0.35296412593E+04 0.  0.
        3    1    3    3  502    0 -0.14098958590E+04 -0.11318847305E+02  0.12680809395E+04  0.18963026470E+04  0.10100000352E+00 0. -1.
       -3    1    3    3    0  502  0.14098958590E+04  0.11318847305E+02 -0.86837021243E+03  0.16558989358E+04  0.10100000352E+00 0.  1.
</event>
<event>
 5   0  0.1496000E-07  0.3689750E+04  0.7818609E-02  0.8070237E-01
        1   -1    0    0  501    0  0.00000000000E+00  0.00000000000E+00  0.19607075704E+04  0.19607075705E+04  0.50400001928E-02 0. -1.
       -1   -1    0    0    0  501  0.00000000000E+00  0.00000000000E+00 -0.17358854145E+04  0.17358854145E+04  0.50400001928E-02 0.  1.
    10030    2    1    2    0    0  0.00000000000E+00  0.00000000000E+00  0.22482215599E+03  0.36965929849E+04  0.36897499501E+04 0.  0.
        5    1    3    3  502    0  0.17858487051E+04  0.21738515869E+03 -0.29703953190E+03  0.18233942191E+04  0.46999998093E+01 0.  1.
       -5    1    3    3    0  502 -0.17858487051E+04 -0.21738515869E+03  0.52186168789E+03  0.18731987658E+04  0.46999998093E+01 0. -1.
</event>
<event>
 5   0  0.4793557E-07  0.3734761E+04  0.7818609E-02  0.8060302E-01
        2   -1    0    0  501    0  0.00000000000E+00  0.00000000000E+00  0.22544592745E+04  0.22544592745E+04  0.25500000920E-02 0. -1.
       -2   -1    0    0    0  501  0.00000000000E+00  0.00000000000E+00 -0.15467614809E+04  0.15467614809E+04  0.25500000920E-02 0.  1.
    10030    2    1    2    0    0  0.00000000000E+00  0.00000000000E+00  0.70769779356E+03  0.38012207554E+04  0.37347614468E+04 0.  0.
        3    1    3    3  502    0 -0.11998365687E+04  0.13725745876E+04  0.76544839009E+03  0.19772405110E+04  0.10100000352E+00 0.  1.
       -3    1    3    3    0  502  0.11998365687E+04 -0.13725745876E+04 -0.57750596525E+02  0.18239802444E+04  0.10100000352E+00 0. -1.
</event>
<event>
 5   0  0.1522273E-07  0.4005336E+04  0.7818609E-02  0.8003471E-01
       -1   -1    0    0    0  501  0.00000000000E+00  0.00000000000E+00  0.17046260529E+04  0.17046260529E+04  0.50400001928E-02 0. -1.
        1   -1    0    0  501    0  0.00000000000E+00  0.00000000000E+00 -0.23528210375E+04  0.23528210375E+04  0.50400001928E-02 0.  1.
    10030    2    1    2    0    0  0.00000000000E+00  0.00000000000E+00 -0.64819498463E+03  0.40574470905E+04  0.40053364595E+04 0.  0.
        4    1    3    3  502    0 -0.18118276407E+04 -0.83594570243E+03 -0.49706379815E+03  0.20563556719E+04  0.12699999809E+01 0.  1.
       -4    1    3    3    0  502  0.18118276407E+04  0.83594570243E+03 -0.15113118648E+03  0.20010914186E+04  0.12699999809E+01 0. -1.
</event>
<event>
 5   0  0.4758908E-07  0.3582576E+04  0.7818609E-02  0.8094494E-01
        2   -1    0    0  501    0  0.00000000000E+00  0.00000000000E+00  0.21826873306E+04  0.21826873306E+04  0.25500000920E-02 0.  1.
       -2   -1    0    0    0  501  0.00000000000E+00  0.00000000000E+00 -0.14700747703E+04  0.14700747703E+04  0.25500000920E-02 0. -1.
    10030    2    1    2    0    0  0.00000000000E+00  0.00000000000E+00  0.71261256029E+03  0.36527621009E+04  0.35825764897E+04 0.  0.
        2    1    3    3  502    0 -0.25500705029E+02  0.77902298202E+03  0.20007221558E+04  0.21471879837E+04  0.25500000920E-02 0.  1.
       -2    1    3    3    0  502  0.25500705029E+02 -0.77902298202E+03 -0.12881095955E+04  0.15055741172E+04  0.25500000920E-02 0. -1.
</event>
<event>
 5   0  0.1496287E-07  0.3652232E+04  0.7818609E-02  0.8078631E-01
       -1   -1    0    0    0  501  0.00000000000E+00  0.00000000000E+00  0.14372401609E+04  0.14372401609E+04  0.50400001928E-02 0. -1.
        1   -1    0    0  501    0  0.00000000000E+00  0.00000000000E+00 -0.23202110212E+04  0.23202110212E+04  0.50400001928E-02 0.  1.
    10030    2    1    2    0    0  0.00000000000E+00  0.00000000000E+00 -0.88297086032E+03  0.37574511821E+04  0.36522324468E+04 0.  0.
        1    1    3    3  502    0  0.11477480268E+04 -0.59554720403E+03  0.88511973260E+03  0.15669840287E+04  0.50400001928E-02 0. -1.
       -1    1    3    3    0  502 -0.11477480268E+04  0.59554720403E+03 -0.17680905929E+04  0.21904671534E+04  0.50400001928E-02 0.  1.
</event>
<event>
 5   0  0.1496287E-07  0.3625067E+04  0.7818609E-02  0.8084774E-01
        1   -1    0    0  501    0  0.00000000000E+00  0.00000000000E+00  0.23265832782E+04  0.23265832782E+04  0.50400001928E-02 0.  1.
       -1   -1    0    0    0  501  0.00000000000E+00  0.00000000000E+00 -0.14120608919E+04  0.14120608919E+04  0.50400001928E-02 0. -1.
    10030    2    1    2    0    0  0.00000000000E+00  0.00000000000E+00  0.91452238634E+03  0.37386441701E+04  0.36250667629E+04 0.  0.
        1    1    3    3  502    0  0.17612840779E+04  0.33191385458E+03  0.17863215159E+03  0.18011656935E+04  0.50400001928E-02 0. -1.
       -1    1    3    3    0  502 -0.17612840779E+04 -0.33191385458E+03  0.73589023474E+03  0.19374784766E+04  0.50400001928E-02 0.  1.
</event>
<event>
 5   0  0.4857514E-07  0.3679994E+04  0.7818609E-02  0.8072410E-01
       -2   -1    0    0    0  501  0.00000000000E+00  0.00000000000E+00  0.17164147227E+04  0.17164147227E+04  0.25500000920E-02 0. -1.
        2   -1    0    0  501    0  0.00000000000E+00  0.00000000000E+00 -0.19724770532E+04  0.19724770532E+04  0.25500000920E-02 0.  1.
    10030    2    1    2    0    0  0.00000000000E+00  0.00000000000E+00 -0.25606233054E+03  0.36888917760E+04  0.36799938339E+04 0.  0.
        5    1    3    3  502    0 -0.18134711148E+04 -0.25995426115E+03 -0.29965513245E+03  0.18563590683E+04  0.46999998093E+01 0.  1.
       -5    1    3    3    0  502  0.18134711148E+04  0.25995426115E+03  0.43592801916E+02  0.18325327076E+04  0.46999998093E+01 0. -1.
</event>
<event>
 5   0  0.1496000E-07  0.3683964E+04  0.7818609E-02  0.8071525E-01
        1   -1    0    0  501    0  0.00000000000E+00  0.00000000000E+00  0.13752557199E+04  0.13752557199E+04  0.50400001928E-02 0.  1.
       -1   -1    0    0    0  501  0.00000000000E+00  0.00000000000E+00 -0.24671029057E+04  0.24671029057E+04  0.50400001928E-02 0. -1.
    10030    2    1    2    0    0  0.00000000000E+00  0.00000000000E+00 -0.10918471858E+04  0.38423586256E+04  0.36839638340E+04 0.  0.
        3    1    3    3  502    0  0.70506124063E+03  0.84598616594E+03  0.99407417676E+03  0.14835725210E+04  0.10100000352E+00 0. -1.
       -3    1    3    3    0  502 -0.70506124063E+03 -0.84598616594E+03 -0.20859213626E+04  0.23587861046E+04  0.10100000352E+00 0.  1.
</event>
<event>
 5   0  0.1496000E-07  0.3688028E+04  0.7818609E-02  0.8070620E-01
        1   -1    0    0  501    0  0.00000000000E+00  0.00000000000E+00  0.26554510780E+04  0.26554510780E+04  0.50400001928E-02 0. -1.
       -1   -1    0    0    0  501  0.00000000000E+00  0.00000000000E+00 -0.12805311436E+04  0.12805311436E+04  0.50400001928E-02 0.  1.
    10030    2    1    2    0    0  0.00000000000E+00  0.00000000000E+00  0.13749199345E+04  0.39359822216E+04  0.36880280941E+04 0.  0.
        5    1    3    3  502    0  0.14096667702E+03  0.30701493465E+03  0.26221361179E+04  0.26438134740E+04  0.46999998093E+01 0. -1.
       -5    1    3    3    0  502 -0.14096667702E+03 -0.30701493465E+03 -0.12472161835E+04  0.12921687477E+04  0.46999998093E+01 0.  1.
</event>
<event>
 5   0  0.4758908E-07  0.3658057E+04  0.7818609E-02  0.8077321E-01
       -2   -1    0    0    0  501  0.00000000000E+00  0.00000000000E+00  0.16759973391E+04  0.16759973391E+04  0.25500000920E-02 0.  1.
        2   -1    0    0  501    0  0.00000000000E+00  0.00000000000E+00 -0.19960322509E+04  0.19960322509E+04  0.25500000920E-02 0. -1.
    10030    2    1    2    0    0  0.00000000000E+00  0.00000000000E+00 -0.32003491183E+03  0.36720295900E+04  0.36580567198E+04 0.  0.
        2    1    3    3  502    0  0.15711327903E+03 -0.11246886949E+02 -0.19892110887E+04  0.19954377541E+04  0.25500000920E-02 0. -1.
       -2    1    3    3    0  502 -0.15711327903E+03  0.11246886949E+02  0.16691761769E+04  0.16765918360E+04  0.25500000920E-02 0.  1.
</event>
<event>
 5   0  0.4687817E-07  0.3238459E+04  0.7818609E-02  0.8178734E-01
       -2   -1    0    0    0  501  0.00000000000E+00  0.00000000000E+00  0.10599265654E+04  0.10599265654E+04  0.25500000920E-02 0. -1.
        2   -1    0    0  501    0  0.00000000000E+00  0.00000000000E+00 -0.24736654259E+04  0.24736654259E+04  0.25500000920E-02 0.  1.
    10030    2    1    2    0    0  0.00000000000E+00  0.00000000000E+00 -0.14137388605E+04  0.35335919913E+04  0.32384587068E+04 0.  0.
        4    1    3    3  502    0  0.26828510856E+03  0.13741556242E+04 -0.15943990284E+04  0.21218837041E+04  0.12699999809E+01 0.  1.
       -4    1    3    3    0  502 -0.26828510856E+03 -0.13741556242E+04  0.18066016785E+03  0.14117082872E+04  0.12699999809E+01 0. -1.
</event>
<event>
 5   0  0.1496000E-07  0.3778806E+04  0.7818609E-02  0.8050718E-01
        1   -1    0    0  501    0  0.00000000000E+00  0.00000000000E+00  0.31646719494E+04  0.31646719494E+04  0.50400001928E-02 0.  1.
       -1   -1    0    0    0  501  0.00000000000E+00  0.00000000000E+00 -0.11280297603E+04  0.11280297603E+04  0.50400001928E-02 0. -1.
    10030    2    1    2    0    0  0.00000000000E+00  0.00000000000E+00  0.20366421892E+04  0.42927017097E+04  0.37788062351E+04 0.  0.
        3    1    3    3  502    0 -0.14902703349E+04 -0.37525383549E+03  0.22669450637E+04  0.27387517310E+04  0.10100000352E+00 0.  1.
       -3    1    3    3    0  502  0.14902703349E+04  0.37525383549E+03 -0.23030287452E+03  0.15539499787E+04  0.10100000352E+00 0. -1.
</event>
<event>
 5   0  0.4758908E-07  0.3674230E+04  0.7818609E-02  0.8073697E-01
        2   -1    0    0  501    0  0.00000000000E+00  0.00000000000E+00  0.28700787787E+04  0.28700787787E+04  0.25500000920E-02 0.  1.
       -2   -1    0    0    0  501  0.00000000000E+00  0.00000000000E+00 -0.11759227104E+04  0.11759227104E+04  0.25500000920E-02 0. -1.
    10030    2    1    2    0    0  0.00000000000E+00  0.00000000000E+00  0.16941560683E+04  0.40460014891E+04  0.36742296152E+04 0.  0.
        2    1    3    3  502    0 -0.86213916598E+03  0.15114685703E+04  0.19824849782E+03  0.17513205439E+04  0.25500000920E-02 0. -1.
       -2    1    3    3    0  502  0.86213916598E+03 -0.15114685703E+04  0.14959075705E+04  0.22946809452E+04  0.25500000920E-02 0.  1.
</event>
<event>
 5   0  0.4687817E-07  0.3674231E+04  0.7818609E-02  0.8073697E-01
       -2   -1    0    0    0  501  0.00000000000E+00  0.00000000000E+00  0.14831968261E+04  0.14831968261E+04  0.25500000920E-02 0.  1.
        2   -1    0    0  501    0  0.00000000000E+00  0.00000000000E+00 -0.22754852262E+04  0.22754852262E+04  0.25500000920E-02 0. -1.
    10030    2    1    2    0    0  0.00000000000E+00  0.00000000000E+00 -0.79228840014E+03  0.37586820523E+04  0.36742305128E+04 0.  0.
        4    1    3    3  502    0 -0.17420128731E+04  0.38895632786E+03  0.48701285479E+02  0.17855725421E+04  0.12699999809E+01 0. -1.
       -4    1    3    3    0  502  0.17420128731E+04 -0.38895632786E+03 -0.84098968562E+03  0.19731095102E+04  0.12699999809E+01 0.  1.
</event>
<event>
 5   0  0.4793557E-07  0.3795179E+04  0.7818609E-02  0.8047190E-01
       -2   -1    0    0    0  501  0.00000000000E+00  0.00000000000E+00  0.12751910827E+04  0.12751910827E+04  0.25500000920E-02 0. -1.
        2   -1    0    0  501    0  0.00000000000E+00  0.00000000000E+00 -0.28237693773E+04  0.28237693773E+04  0.25500000920E-02 0.  1.
    10030    2    1    2    0    0  0.00000000000E+00  0.00000000000E+00 -0.15485782946E+04  0.40989604600E+04  0.37951787992E+04 0.  0.
        3    1    3    3  502    0  0.18750257313E+04 -0.27449149581E+03 -0.88109040878E+03  0.20898295129E+04  0.10100000352E+00 0. -1.
       -3    1    3    3    0  502 -0.18750257313E+04  0.27449149581E+03 -0.66748788582E+03  0.20091309470E+04  0.10100000352E+00 0.  1.
</event>
<event>
 5   0  0.1496000E-07  0.3444305E+04  0.7818609E-02  0.8127117E-01
       -1   -1    0    0    0  501  0.00000000000E+00  0.00000000000E+00  0.10998464085E+04  0.10998464086E+04  0.50400001928E-02 0.  1.
        1   -1    0    0  501    0  0.00000000000E+00  0.00000000000E+00 -0.26965666211E+04  0.26965666211E+04  0.50400001928E-02 0. -1.
    10030    2    1    2    0    0  0.00000000000E+00  0.00000000000E+00 -0.15967202125E+04  0.37964130296E+04  0.34443049305E+04 0.  0.
        5    1    3    3  502    0 -0.16543541736E+03  0.11092851119E+04  0.64210810000E+03  0.12923649790E+04  0.46999998093E+01 0.  1.
       -5    1    3    3    0  502  0.16543541736E+03 -0.11092851119E+04 -0.22388283125E+04  0.25040480506E+04  0.46999998093E+01 0. -1.
</event>
<event>
 5   0  0.4758908E-07  0.3709363E+04  0.7818609E-02  0.8065890E-01
       -2   -1    0    0    0  501  0.00000000000E+00  0.00000000000E+00  0.17489811346E+04  0.17489811346E+04  0.25500000920E-02 0. -1.
        2   -1    0    0  501    0  0.00000000000E+00  0.00000000000E+00 -0.19667695960E+04  0.19667695960E+04  0.25500000920E-02 0.  1.
    10030    2    1    2    0    0  0.00000000000E+00  0.00000000000E+00 -0.21778846144E+03  0.37157507306E+04  0.37093627051E+04 0.  0.
        2    1    3    3  502    0  0.95366058696E+03  0.80757078159E+03 -0.14817301461E+04  0.19383403489E+04  0.25500000920E-02 0.  1.
       -2    1    3    3    0  502 -0.95366058696E+03 -0.80757078159E+03  0.12639416847E+04  0.17774103816E+04  0.25500000920E-02 0. -1.
</event>
<event>
 5   0  0.1522273E-07  0.3671539E+04  0.7818609E-02  0.8074299E-01
        1   -1    0    0  501    0  0.00000000000E+00  0.00000000000E+00  0.10744887245E+04  0.10744887245E+04  0.50400001928E-02 0. -1.
       -1   -1    0    0    0  501  0.00000000000E+00  0.00000000000E+00 -0.31364218488E+04  0.31364218489E+04  0.50400001928E-02 0.  1.
    10030    2    1    2    0    0  0.00000000000E+00  0.00000000000E+00 -0.20619331243E+04  0.42109105734E+04  0.36715391388E+04 0.  0.
        4    1    3    3  502    0 -0.17304649055E+04  0.35858937966E+03 -0.46101866455E+03  0.18263720745E+04  0.12699999809E+01 0.  1.
       -4    1    3    3    0  502  0.17304649055E+04 -0.35858937966E+03 -0.16009144598E+04  0.23845384989E+04  0.12699999809E+01 0. -1.
</event>
<event>
 5   0  0.4758908E-07  0.3709331E+04  0.7818609E-02  0.8065897E-01
        2   -1    0    0  501    0  0.00000000000E+00  0.00000000000E+00  0.23525994535E+04  0.23525994535E+04  0.25500000920E-02 0.  1.
       -2   -1    0    0    0  501  0.00000000000E+00  0.00000000000E+00 -0.14621205175E+04  0.14621205175E+04  0.25500000920E-02 0. -1.
    10030    2    1    2    0    0  0.00000000000E+00  0.00000000000E+00  0.89047893606E+03  0.38147199710E+04  0.37093308994E+04 0.  0.
        2    1    3    3  502    0  0.58508737183E+03  0.83926084769E+02  0.22531434214E+04  0.23293832011E+04  0.25500000920E-02 0.  1.
       -2    1    3    3    0  502 -0.58508737183E+03 -0.83926084769E+02 -0.13626644853E+04  0.14853367699E+04  0.25500000920E-02 0. -1.
</event>
<event>
 5   0  0.1496000E-07  0.3690879E+04  0.7818609E-02  0.8069986E-01
       -1   -1    0    0    0  501  0.00000000000E+00  0.00000000000E+00  0.20739717485E+04  0.20739717485E+04  0.50400001928E-02 0.  1.
        1   -1    0    0  501    0  0.00000000000E+00  0.00000000000E+00 -0.16420892224E+04  0.16420892224E+04  0.50400001928E-02 0. -1.
    10030    2    1    2    0    0  0.00000000000E+00  0.00000000000E+00  0.43188252608E+03  0.37160609709E+04  0.36908788416E+04 0.  0.
        5    1    3    3  502    0  0.11897611691E+04 -0.12115620134E+04  0.94351297633E+03  0.19425892459E+04  0.46999998093E+01 0.  1.
       -5    1    3    3    0  502 -0.11897611691E+04  0.12115620134E+04 -0.51163045025E+03  0.17734717250E+04  0.46999998093E+01 0. -1.
</event>
<event>
 5   0  0.1496000E-07  0.3677519E+04  0.7818609E-02  0.8072962E-01
        1   -1    0    0  501    0  0.00000000000E+00  0.00000000000E+00  0.32204674797E+04  0.32204674798E+04  0.50400001928E-02 0. -1.
       -1   -1    0    0    0  501  0.00000000000E+00  0.00000000000E+00 -0.10498587270E+04  0.10498587270E+04  0.50400001928E-02 0.  1.
    10030    2    1    2    0    0  0.00000000000E+00  0.00000000000E+00  0.21706087527E+04  0.42703262068E+04  0.36775186682E+04 0.  0.
        5    1    3    3  502    0  0.16963303775E+04  0.55268787649E+03  0.16020219039E+04  0.23978108576E+04  0.46999998093E+01 0.  1.
       -5    1    3    3    0  502 -0.16963303775E+04 -0.55268787649E+03  0.56858684885E+03  0.18725153492E+04  0.46999998093E+01 0. -1.
</event>
<event>
 5   0  0.1496000E-07  0.3701331E+04  0.7818609E-02  0.8067667E-01
       -1   -1    0    0    0  501  0.00000000000E+00  0.00000000000E+00  0.16827353829E+04  0.16827353829E+04  0.50400001928E-02 0.  1.
        1   -1    0    0  501    0  0.00000000000E+00  0.00000000000E+00 -0.20353540912E+04  0.20353540913E+04  0.50400001928E-02 0. -1.
    10030    2    1    2    0    0  0.00000000000E+00  0.00000000000E+00 -0.35261870837E+03  0.37180894741E+04  0.37013307586E+04 0.  0.
        3    1    3    3  502    0  0.29091164758E+03 -0.17173220117E+04  0.45193250034E+03  0.17994631071E+04  0.10100000352E+00 0. -1.
       -3    1    3    3    0  502 -0.29091164758E+03  0.17173220117E+04 -0.80455120871E+03  0.19186263671E+04  0.10100000352E+00 0.  1.
</event>
<event>
 5   0  0.1496000E-07  0.3688464E+04  0.7818609E-02  0.8070523E-01
       -1   -1    0    0    0  501  0.00000000000E+00  0.00000000000E+00  0.19595797257E+04  0.19595797257E+04  0.50400001928E-02 0.  1.
        1   -1    0    0  501    0  0.00000000000E+00  0.00000000000E+00 -0.17356743913E+04  0.17356743913E+04  0.50400001928E-02 0. -1.
    10030    2    1    2    0    0  0.00000000000E+00  0.00000000000E+00  0.22390533444E+03  0.36952541170E+04  0.36884643675E+04 0.  0.
        2    1    3    3  502    0 -0.11703299653E+04 -0.12020126665E+04 -0.65541139703E+03  0.18011304166E+04  0.25500000920E-02 0. -1.
       -2    1    3    3    0  502  0.11703299653E+04  0.12020126665E+04  0.87931673147E+03  0.18941237004E+04  0.25500000920E-02 0.  1.
</event>
<event>
 5   0  0.4857514E-07  0.4326863E+04  0.7818609E-02  0.7941670E-01
        2   -1    0    0  501    0  0.00000000000E+00  0.00000000000E+00  0.25675187514E+04  0.25675187514E+04  0.25500000920E-02 0. -1.
       -2   -1    0    0    0  501  0.00000000000E+00  0.00000000000E+00 -0.18229408769E+04  0.18229408769E+04  0.25500000920E-02 0.  1.
    10030    2    1    2    0    0  0.00000000000E+00  0.00000000000E+00  0.74457787448E+03  0.43904596284E+04  0.43268625512E+04 0.  0.
        5    1    3    3  502    0 -0.14597130511E+04 -0.59753946026E+03 -0.11302174116E+04  0.19404198220E+04  0.46999998093E+01 0.  1.
       -5    1    3    3    0  502  0.14597130511E+04  0.59753946026E+03  0.18747952861E+04  0.24500398064E+04  0.46999998093E+01 0. -1.
</event>
<event>
 5   0  0.1522273E-07  0.3708933E+04  0.7818609E-02  0.8065985E-01
       -1   -1    0    0    0  501  0.00000000000E+00  0.00000000000E+00  0.16680016264E+04  0.16680016264E+04  0.50400001928E-02 0. -1.
        1   -1    0    0  501    0  0.00000000000E+00  0.00000000000E+00 -0.20617761601E+04  0.20617761601E+04  0.50400001928E-02 0.  1.
    10030    2    1    2    0    0  0.00000000000E+00  0.00000000000E+00 -0.39377453371E+03  0.37297777865E+04  0.37089329939E+04 0.  0.
        4    1    3    3  502    0  0.10011060047E+04  0.37692495379E+03 -0.17202470476E+04  0.20257189270E+04  0.12699999809E+01 0.  1.
       -4    1    3    3    0  502 -0.10011060047E+04 -0.37692495379E+03  0.13264725139E+04  0.17040588595E+04  0.12699999809E+01 0. -1.
</event>
<event>
 5   0  0.1496000E-07  0.3708741E+04  0.7818609E-02  0.8066027E-01
       -1   -1    0    0    0  501  0.00000000000E+00  0.00000000000E+00  0.12294079703E+04  0.12294079703E+04  0.50400001928E-02 0. -1.
        1   -1    0    0  501    0  0.00000000000E+00  0.00000000000E+00 -0.27970295125E+04  0.27970295125E+04  0.50400001928E-02 0.  1.
    10030    2    1    2    0    0  0.00000000000E+00  0.00000000000E+00 -0.15676215421E+04  0.40264374828E+04  0.37087412290E+04 0.  0.
        5    1    3    3  502    0  0.11369379315E+04 -0.11132875043E+03 -0.23696371772E+04  0.26306319378E+04  0.46999998093E+01 0.  1.
       -5    1    3    3    0  502 -0.11369379315E+04  0.11132875043E+03  0.80201563503E+03  0.13958055450E+04  0.46999998093E+01 0. -1.
</event>
<event>
 5   0  0.4758908E-07  0.3707948E+04  0.7818609E-02  0.8066203E-01
        2   -1    0    0  501    0  0.00000000000E+00  0.00000000000E+00  0.13730619644E+04  0.13730619644E+04  0.25500000920E-02 0. -1.
       -2   -1    0    0    0  501  0.00000000000E+00  0.00000000000E+00 -0.25033243636E+04  0.25033243636E+04  0.25500000920E-02 0.  1.
    10030    2    1    2    0    0  0.00000000000E+00  0.00000000000E+00 -0.11302623992E+04  0.38763863280E+04  0.37079479329E+04 0.  0.
        2    1    3    3  502    0 -0.74195909510E+02 -0.13696786890E+04  0.73880281784E+03  0.15579969023E+04  0.25500000920E-02 0. -1.
       -2    1    3    3    0  502  0.74195909510E+02  0.13696786890E+04 -0.18690652170E+04  0.23183894257E+04  0.25500000920E-02 0.  1.
</event>
<event>
 5   0  0.1496000E-07  0.3664788E+04  0.7818609E-02  0.8075810E-01
       -1   -1    0    0    0  501  0.00000000000E+00  0.00000000000E+00  0.14870774749E+04  0.14870774749E+04  0.50400001928E-02 0. -1.
        1   -1    0    0  501    0  0.00000000000E+00  0.00000000000E+00 -0.22578964710E+04  0.22578964710E+04  0.50400001928E-02 0.  1.
    10030    2    1    2    0    0  0.00000000000E+00  0.00000000000E+00 -0.77081899605E+03  0.37449739459E+04  0.36647875697E+04 0.  0.
        2    1    3    3  502    0 -0.29976527452E+02  0.16179831267E+04  0.49299091649E+03  0.16916879246E+04  0.25500000920E-02 0. -1.
       -2    1    3    3    0  502  0.29976527452E+02 -0.16179831267E+04 -0.12638099125E+04  0.20532860213E+04  0.25500000920E-02 0.  1.
</event>
<event>
 5   0  0.4857514E-07  0.3678424E+04  0.7818609E-02  0.8072760E-01
       -2   -1    0    0    0  501  0.00000000000E+00  0.00000000000E+00  0.22656909024E+04  0.22656909024E+04  0.25500000920E-02 0.  1.
        2   -1    0    0  501    0  0.00000000000E+00  0.00000000000E+00 -0.14930108688E+04  0.14930108688E+04  0.25500000920E-02 0. -1.
    10030    2    1    2    0    0  0.00000000000E+00  0.00000000000E+00  0.77268003355E+03  0.37587017712E+04  0.36784241966E+04 0.  0.
        5    1    3    3  502    0  0.99944005488E+03 -0.58300771349E+03 -0.10745110674E+04  0.15790422861E+04  0.46999998093E+01 0. -1.
       -5    1    3    3    0  502 -0.99944005488E+03  0.58300771349E+03  0.18471911010E+04  0.21796594851E+04  0.46999998093E+01 0.  1.
</event>
<event>
 5   0  0.1496287E-07  0.3732089E+04  0.7818609E-02  0.8060888E-01
       -1   -1    0    0    0  501  0.00000000000E+00  0.00000000000E+00  0.14636438792E+04  0.14636438792E+04  0.50400001928E-02 0. -1.
        1   -1    0    0  501    0  0.00000000000E+00  0.00000000000E+00 -0.23790772893E+04  0.23790772893E+04  0.50400001928E-02 0.  1.
    10030    2    1    2    0    0  0.00000000000E+00  0.00000000000E+00 -0.91543341008E+03  0.38427211684E+04  0.37320889124E+04 0.  0.
        1    1    3    3  502    0 -0.12739261514E+04 -0.13582142266E+04 -0.33378171750E+03  0.18918361344E+04  0.50400001928E-02 0. -1.
       -1    1    3    3    0  502  0.12739261514E+04  0.13582142266E+04 -0.58165169258E+03  0.19508850340E+04  0.50400001928E-02 0.  1.
</event>
<event>
 5   0  0.4793557E-07  0.3661586E+04  0.7818609E-02  0.8076529E-01
       -2   -1    0    0    0  501  0.00000000000E+00  0.00000000000E+00  0.21605601924E+04  0.21605601924E+04  0.25500000920E-02 0.  1.
        2   -1    0    0  501    0  0.00000000000E+00  0.00000000000E+00 -0.15513580949E+04  0.15513580949E+04  0.25500000920E-02 0. -1.
    10030    2    1    2    0    0  0.00000000000E+00  0.00000000000E+00  0.60920209743E+03  0.37119182873E+04  0.36615857461E+04 0.  0.
        3    1    3    3  502    0  0.74781538740E+03 -0.11273150738E+04  0.15551444559E+04  0.20611990244E+04  0.10100000352E+00 0.  1.
       -3    1    3    3    0  502 -0.74781538740E+03  0.11273150738E+04 -0.94594235844E+03  0.16507192629E+04  0.10100000352E+00 0. -1.
</event>
<event>
 5   0  0.4857514E-07  0.3740915E+04  0.7818609E-02  0.8058955E-01
       -2   -1    0    0    0  501  0.00000000000E+00  0.00000000000E+00  0.20330108033E+04  0.20330108033E+04  0.25500000920E-02 0.  1.
        2   -1    0    0  501    0  0.00000000000E+00  0.00000000000E+00 -0.17209017040E+04  0.17209017040E+04  0.25500000920E-02 0. -1.
    10030    2    1    2    0    0  0.00000000000E+00  0.00000000000E+00  0.31210909926E+03  0.37539125073E+04  0.37409152654E+04 0.  0.
        5    1    3    3  502    0 -0.10639949022E+04 -0.16041001109E+03 -0.13792196016E+04  0.17493099562E+04  0.46999998093E+01 0. -1.
       -5    1    3    3    0  502  0.10639949022E+04  0.16041001109E+03  0.16913287009E+04  0.20046025511E+04  0.46999998093E+01 0.  1.
</event>
<event>
 5   0  0.1496287E-07  0.3701760E+04  0.7818609E-02  0.8067572E-01
        1   -1    0    0  501    0  0.00000000000E+00  0.00000000000E+00  0.27418646001E+04  0.27418646001E+04  0.50400001928E-02 0. -1.
       -1   -1    0    0    0  501  0.00000000000E+00  0.00000000000E+00 -0.12494262154E+04  0.12494262154E+04  0.50400001928E-02 0.  1.
    10030    2    1    2    0    0  0.00000000000E+00  0.00000000000E+00  0.14924383846E+04  0.39912908155E+04  0.37017603977E+04 0.  0.
        1    1    3    3  502    0 -0.14165834961E+04  0.43083229351E+03  0.19436838835E+04  0.24434058822E+04  0.50400001928E-02 0. -1.
       -1    1    3    3    0  502  0.14165834961E+04 -0.43083229351E+03 -0.45124549884E+03  0.15478849333E+04  0.50400001928E-02 0.  1.
</event>
<event>
 5   0  0.4758908E-07  0.3602000E+04  0.7818609E-02  0.8090034E-01
        2   -1    0    0  501    0  0.00000000000E+00  0.00000000000E+00  0.19715829323E+04  0.19715829323E+04  0.25500000920E-02 0.  1.
       -2   -1    0    0    0  501  0.00000000000E+00  0.00000000000E+00 -0.16451756227E+04  0.16451756227E+04  0.25500000920E-02 0. -1.
    10030    2    1    2    0    0  0.00000000000E+00  0.00000000000E+00  0.32640730959E+03  0.36167585551E+04  0.36019995439E+04 0.  0.
        2    1    3    3  502    0  0.75906735012E+03 -0.15674779377E+04 -0.29740228929E+03  0.17668102470E+04  0.25500000920E-02 0. -1.
       -2    1    3    3    0  502 -0.75906735012E+03  0.15674779377E+04  0.62380959888E+03  0.18499483081E+04  0.25500000920E-02 0.  1.
</event>
<event>
 5   0  0.4857514E-07  0.3696246E+04  0.7818609E-02  0.8068794E-01
       -2   -1    0    0    0  501  0.00000000000E+00  0.00000000000E+00  0.25387819558E+04  0.25387819558E+04  0.25500000920E-02 0.  1.
        2   -1    0    0  501    0  0.00000000000E+00  0.00000000000E+00 -0.13453535055E+04  0.13453535055E+04  0.25500000920E-02 0. -1.
    10030    2    1    2    0    0  0.00000000000E+00  0.00000000000E+00  0.11934284504E+04  0.38841354613E+04  0.36962463143E+04 0.  0.
        5    1    3    3  502    0 -0.28466427439E+03  0.17904901478E+04  0.97362248065E+03  0.20578754927E+04  0.46999998093E+01 0. -1.
       -5    1    3    3    0  502  0.28466427439E+03 -0.17904901478E+04  0.21980596971E+03  0.18262599686E+04  0.46999998093E+01 0.  1.
</event>
<event>
 5   0  0.1522273E-07  0.3683073E+04  0.7818609E-02  0.8071723E-01
        1   -1    0    0  501    0  0.00000000000E+00  0.00000000000E+00  0.19877910072E+04  0.19877910072E+04  0.50400001928E-02 0.  1.
       -1   -1    0    0    0  501  0.00000000000E+00  0.00000000000E+00 -0.17060429888E+04  0.17060429888E+04  0.50400001928E-02 0. -1.
    10030    2    1    2    0    0  0.00000000000E+00  0.00000000000E+00  0.28174801836E+03  0.36938339960E+04  0.36830731250E+04 0.  0.
        4    1    3    3  502    0 -0.91394551353E+03  0.15773228391E+04  0.40242621892E+03  0.18668669516E+04  0.12699999809E+01 0.  1.
       -4    1    3    3    0  502  0.91394551353E+03 -0.15773228391E+04 -0.12067820056E+03  0.18269670444E+04  0.12699999809E+01 0. -1.
</event>
<event>
 5   0  0.4857514E-07  0.3706111E+04  0.7818609E-02  0.8066609E-01
        2   -1    0    0  501    0  0.00000000000E+00  0.00000000000E+00  0.15987049740E+04  0.15987049740E+04  0.25500000920E-02 0.  1.
       -2   -1    0    0    0  501  0.00000000000E+00  0.00000000000E+00 -0.21478728761E+04  0.21478728761E+04  0.25500000920E-02 0. -1.
    10030    2    1    2    0    0  0.00000000000E+00  0.00000000000E+00 -0.54916790210E+03  0.37465778501E+04  0.37061111966E+04 0.  0.
        5    1    3    3  502    0  0.77228291007E+03  0.11585395820E+04 -0.15107017937E+04  0.20544772707E+04  0.46999998093E+01 0. -1.
       -5    1    3    3    0  502 -0.77228291007E+03 -0.11585395820E+04  0.96153389156E+03  0.16921005794E+04  0.46999998093E+01 0.  1.
</event>
<event>
 5   0  0.1522273E-07  0.3714961E+04  0.7818609E-02  0.8064654E-01
        1   -1    0    0  501    0  0.00000000000E+00  0.00000000000E+00  0.18425554448E+04  0.18425554448E+04  0.50400001928E-02 0.  1.
       -1   -1    0    0    0  501  0.00000000000E+00  0.00000000000E+00 -0.18725259661E+04  0.18725259661E+04  0.50400001928E-02 0. -1.
    10030    2    1    2    0    0  0.00000000000E+00  0.00000000000E+00 -0.29970521258E+02  0.37150814109E+04  0.37149605189E+04 0.  0.
        4    1    3    3  502    0  0.94606104959E+03 -0.13588850215E+04 -0.85681506015E+03  0.18643319639E+04  0.12699999809E+01 0. -1.
       -4    1    3    3    0  502 -0.94606104959E+03  0.13588850215E+04  0.82684453889E+03  0.18507494470E+04  0.12699999809E+01 0.  1.
</event>
<event>
 5   0  0.1496000E-07  0.3631291E+04  0.7818609E-02  0.8083361E-01
        1   -1    0    0  501    0  0.00000000000E+00  0.00000000000E+00  0.19982231453E+04  0.19982231453E+04  0.50400001928E-02 0. -1.
       -1   -1    0    0    0  501  0.00000000000E+00  0.00000000000E+00 -0.16497501321E+04  0.16497501321E+04  0.50400001928E-02 0.  1.
    10030    2    1    2    0    0  0.00000000000E+00  0.00000000000E+00  0.34847301318E+03  0.36479732774E+04  0.36312911742E+04 0.  0.
        5    1    3    3  502    0 -0.13826629397E+04 -0.66241171449E+03 -0.80285740807E+03  0.17306496445E+04  0.46999998093E+01 0.  1.
       -5    1    3    3    0  502  0.13826629397E+04  0.66241171449E+03  0.11513304213E+04  0.19173236329E+04  0.46999998093E+01 0. -1.
</event>
<event>
 5   0  0.1496000E-07  0.3695830E+04  0.7818609E-02  0.8068886E-01
        1   -1    0    0  501    0  0.00000000000E+00  0.00000000000E+00  0.22200675326E+04  0.22200675326E+04  0.50400001928E-02 0. -1.
       -1   -1    0    0    0  501  0.00000000000E+00  0.00000000000E+00 -0.15381472270E+04  0.15381472271E+04  0.50400001928E-02 0.  1.
    10030    2    1    2    0    0  0.00000000000E+00  0.00000000000E+00  0.68192030551E+03  0.37582147596E+04  0.36958304718E+04 0.  0.
        5    1    3    3  502    0 -0.37721629865E+03  0.95670219542E+03  0.19021924569E+04  0.21623897567E+04  0.46999998093E+01 0. -1.
       -5    1    3    3    0  502  0.37721629865E+03 -0.95670219542E+03 -0.12202721514E+04  0.15958250030E+04  0.46999998093E+01 0.  1.
</event>
<event>
 5   0  0.4793557E-07  0.3688098E+04  0.7818609E-02  0.8070605E-01
        2   -1    0    0  501    0  0.00000000000E+00  0.00000000000E+00  0.24855595507E+04  0.24855595507E+04  0.25500000920E-02 0.  1.
       -2   -1    0    0    0  501  0.00000000000E+00  0.00000000000E+00 -0.13681091625E+04  0.13681091625E+04  0.25500000920E-02 0. -1.
    10030    2    1    2    0    0  0.00000000000E+00  0.00000000000E+00  0.11174503882E+04  0.38536687132E+04  0.36880980438E+04 0.  0.
        3    1    3    3  502    0 -0.14489612643E+04  0.35747976953E+03 -0.57306168974E+03  0.15986495055E+04  0.10100000352E+00 0. -1.
       -3    1    3    3    0  502  0.14489612643E+04 -0.35747976953E+03  0.16905120779E+04  0.22550192077E+04  0.10100000352E+00 0.  1.
</event>
<event>
 5   0  0.1496000E-07  0.3690600E+04  0.7818609E-02  0.8070048E-01
        1   -1    0    0  501    0  0.00000000000E+00  0.00000000000E+00  0.19766491267E+04  0.19766491267E+04  0.50400001928E-02 0.  1.
       -1   -1    0    0    0  501  0.00000000000E+00  0.00000000000E+00 -0.17226794864E+04  0.17226794864E+04  0.50400001928E-02 0. -1.
    10030    2    1    2    0    0  0.00000000000E+00  0.00000000000E+00  0.25396964027E+03  0.36993286131E+04  0.36906004403E+04 0.  0.
        5    1    3    3  502    0 -0.57653894470E+02  0.14960603809E+03 -0.17156785194E+04  0.17231601231E+04  0.46999998093E+01 0. -1.
       -5    1    3    3    0  502  0.57653894470E+02 -0.14960603809E+03  0.19696481596E+04  0.19761684900E+04  0.46999998093E+01 0.  1.
</event>
<event>
 5   0  0.1496000E-07  0.3691316E+04  0.7818609E-02  0.8069889E-01
       -1   -1    0    0    0  501  0.00000000000E+00  0.00000000000E+00  0.12231147290E+04  0.12231147290E+04  0.50400001928E-02 0. -1.
        1   -1    0    0  501    0  0.00000000000E+00  0.00000000000E+00 -0.27850651590E+04  0.27850651590E+04  0.50400001928E-02 0.  1.
    10030    2    1    2    0    0  0.00000000000E+00  0.00000000000E+00 -0.15619504300E+04  0.40081798879E+04  0.36913164140E+04 0.  0.
        5    1    3    3  502    0  0.21941215016E+03 -0.18255996718E+04 -0.60766111931E+03  0.19365510525E+04  0.46999998093E+01 0.  1.
       -5    1    3    3    0  502 -0.21941215016E+03  0.18255996718E+04 -0.95428931071E+03  0.20716288354E+04  0.46999998093E+01 0. -1.
</event>
<event>
 5   0  0.4793557E-07  0.3796903E+04  0.7818609E-02  0.8046820E-01
        2   -1    0    0  501    0  0.00000000000E+00  0.00000000000E+00  0.27321304956E+04  0.27321304956E+04  0.25500000920E-02 0.  1.
       -2   -1    0    0    0  501  0.00000000000E+00  0.00000000000E+00 -0.13191601754E+04  0.13191601754E+04  0.25500000920E-02 0. -1.
    10030    2    1    2    0    0  0.00000000000E+00  0.00000000000E+00  0.14129703202E+04  0.40512906710E+04  0.37969028134E+04 0.  0.
        3    1    3    3  502    0 -0.17583438848E+04  0.21030975796E+03  0.14365137813E+04  0.22802577191E+04  0.10100000352E+00 0.  1.
       -3    1    3    3    0  502  0.17583438848E+04 -0.21030975796E+03 -0.23543461089E+02  0.17710329518E+04  0.10100000352E+00 0. -1.
</event>
<event>
 5   0  0.4824268E-07  0.3600078E+04  0.7818609E-02  0.8090474E-01
        2   -1    0    0  501    0  0.00000000000E+00  0.00000000000E+00  0.25279485681E+04  0.25279485681E+04  0.25500000920E-02 0. -1.
       -2   -1    0    0    0  501  0.00000000000E+00  0.00000000000E+00 -0.12817274716E+04  0.12817274716E+04  0.25500000920E-02 0.  1.
    10030    2    1    2    0    0  0.00000000000E+00  0.00000000000E+00  0.12462210965E+04  0.38096760398E+04  0.36000784028E+04 0.  0.
        1    1    3    3  502    0 -0.81690215962E+03 -0.51044368321E+03 -0.98603137161E+03  0.13784555698E+04  0.50400001928E-02 0.  1.
       -1    1    3    3    0  502  0.81690215962E+03  0.51044368321E+03  0.22322524681E+04  0.24312204700E+04  0.50400001928E-02 0. -1.
</event>
<event>
 5   0  0.4687817E-07  0.3713941E+04  0.7818609E-02  0.8064879E-01
       -2   -1    0    0    0  501  0.00000000000E+00  0.00000000000E+00  0.14370940520E+04  0.14370940520E+04  0.25500000920E-02 0.  1.
        2   -1    0    0  501    0  0.00000000000E+00  0.00000000000E+00 -0.23995228259E+04  0.23995228259E+04  0.25500000920E-02 0. -1.
    10030    2    1    2    0    0  0.00000000000E+00  0.00000000000E+00 -0.96242877382E+03  0.38366168779E+04  0.37139412924E+04 0.  0.
        4    1    3    3  502    0  0.17520821749E+04  0.22179748651E+03  0.11163414089E+03  0.17695903105E+04  0.12699999809E+01 0.  1.
       -4    1    3    3    0  502 -0.17520821749E+04 -0.22179748651E+03 -0.10740629147E+04  0.20670265674E+04  0.12699999809E+01 0. -1.
</event>
<event>
 5   0  0.1496000E-07  0.3702833E+04  0.7818609E-02  0.8067334E-01
       -1   -1    0    0    0  501  0.00000000000E+00  0.00000000000E+00  0.21130985753E+04  0.21130985753E+04  0.50400001928E-02 0.  1.
        1   -1    0    0  501    0  0.00000000000E+00  0.00000000000E+00 -0.16221408763E+04  0.16221408763E+04  0.50400001928E-02 0. -1.
    10030    2    1    2    0    0  0.00000000000E+00  0.00000000000E+00  0.49095769903E+03  0.37352394516E+04  0.37028332799E+04 0.  0.
        2    1    3    3  502    0  0.18016228414E+04  0.42411370795E+03  0.29088696022E+03  0.18735881414E+04  0.25500000920E-02 0.  1.
       -2    1    3    3    0  502 -0.18016228414E+04 -0.42411370795E+03  0.20007073881E+03  0.18616513102E+04  0.25500000920E-02 0. -1.
</event>
<event>
 5   0  0.4857514E-07  0.3616820E+04  0.7818609E-02  0.8086650E-01
        2   -1    0    0  501    0  0.00000000000E+00  0.00000000000E+00  0.16342829925E+04  0.16342829925E+04  0.25500000920E-02 0.  1.
       -2   -1    0    0    0  501  0.00000000000E+00  0.00000000000E+00 -0.20010895725E+04  0.20010895725E+04  0.25500000920E-02 0. -1.
    10030    2    1    2    0    0  0.00000000000E+00  0.00000000000E+00 -0.36680657999E+03  0.36353725651E+04  0.36168199595E+04 0.  0.
        5    1    3    3  502    0 -0.13148575083E+04 -0.98653029505E+02  0.10605808051E+04  0.16921691469E+04  0.46999998093E+01 0. -1.
       -5    1    3    3    0  502  0.13148575083E+04  0.98653029505E+02 -0.14273873851E+04  0.19432034182E+04  0.46999998093E+01 0.  1.
</event>
<event>
 5   0  0.1522273E-07  0.3169364E+04  0.7818609E-02  0.8196955E-01
       -1   -1    0    0    0  501  0.00000000000E+00  0.00000000000E+00  0.18630695974E+04  0.18630695974E+04  0.50400001928E-02 0.  1.
        1   -1    0    0  501    0  0.00000000000E+00  0.00000000000E+00 -0.13478924965E+04  0.13478924965E+04  0.50400001928E-02 0. -1.
    10030    2    1    2    0    0  0.00000000000E+00  0.00000000000E+00  0.51517710098E+03  0.32109620939E+04  0.31693643090E+04 0.  0.
        4    1    3    3  502    0 -0.52477047363E+03 -0.69152069359E+03  0.16007458215E+04  0.18209815259E+04  0.12699999809E+01 0.  1.
       -4    1    3    3    0  502  0.52477047363E+03  0.69152069359E+03 -0.10855687205E+04  0.13899805680E+04  0.12699999809E+01 0. -1.
</event>
<event>
 5   0  0.4824268E-07  0.3357475E+04  0.7818609E-02  0.8148423E-01
       -2   -1    0    0    0  501  0.00000000000E+00  0.00000000000E+00  0.17998024979E+04  0.17998024979E+04  0.25500000920E-02 0.  1.
        2   -1    0    0  501    0  0.00000000000E+00  0.00000000000E+00 -0.15658159740E+04  0.15658159740E+04  0.25500000920E-02 0. -1.
    10030    2    1    2    0    0  0.00000000000E+00  0.00000000000E+00  0.23398652393E+03  0.33656184719E+04  0.33574749448E+04 0.  0.
        1    1    3    3  502    0 -0.16719789613E+04  0.44537273953E+02 -0.27099205993E+02  0.16727915539E+04  0.50400001928E-02 0. -1.
       -1    1    3    3    0  502  0.16719789613E+04 -0.44537273953E+02  0.26108572992E+03  0.16928269180E+04  0.50400001928E-02 0.  1.
</event>
<event>
 5   0  0.4857514E-07  0.3692084E+04  0.7818609E-02  0.8069718E-01
        2   -1    0    0  501    0  0.00000000000E+00  0.00000000000E+00  0.16765145192E+04  0.16765145192E+04  0.25500000920E-02 0.  1.
       -2   -1    0    0    0  501  0.00000000000E+00  0.00000000000E+00 -0.20327118973E+04  0.20327118973E+04  0.25500000920E-02 0. -1.
    10030    2    1    2    0    0  0.00000000000E+00  0.00000000000E+00 -0.35619737808E+03  0.37092264164E+04  0.36920839693E+04 0.  0.
        5    1    3    3  502    0 -0.16367837813E+04 -0.78566448004E+03 -0.51359395507E+03  0.18868308517E+04  0.46999998093E+01 0. -1.
       -5    1    3    3    0  502  0.16367837813E+04  0.78566448004E+03  0.15739657700E+03  0.18223955648E+04  0.46999998093E+01 0.  1.
</event>
<event>
 5   0  0.4758908E-07  0.3709916E+04  0.7818609E-02  0.8065768E-01
        2   -1    0    0  501    0  0.00000000000E+00  0.00000000000E+00  0.17579928671E+04  0.17579928671E+04  0.25500000920E-02 0. -1.
       -2   -1    0    0    0  501  0.00000000000E+00  0.00000000000E+00 -0.19572717768E+04  0.19572717768E+04  0.25500000920E-02 0.  1.
    10030    2    1    2    0    0  0.00000000000E+00  0.00000000000E+00 -0.19927890969E+03  0.37152646439E+04  0.37099163455E+04 0.  0.
        2    1    3    3  502    0 -0.20985686336E+03 -0.16592989872E+04 -0.90301586714E+03  0.19007237275E+04  0.25500000920E-02 0.  1.
       -2    1    3    3    0  502  0.20985686336E+03  0.16592989872E+04  0.70373695745E+03  0.18145409164E+04  0.25500000920E-02 0. -1.
</event>
<event>
 5   0  0.1496287E-07  0.3695855E+04  0.7818609E-02  0.8068881E-01
        1   -1    0    0  501    0  0.00000000000E+00  0.00000000000E+00  0.12091373234E+04  0.12091373234E+04  0.50400001928E-02 0. -1.
       -1   -1    0    0    0  501  0.00000000000E+00  0.00000000000E+00 -0.28241919411E+04  0.28241919411E+04  0.50400001928E-02 0.  1.
    10030    2    1    2    0    0  0.00000000000E+00  0.00000000000E+00 -0.16150546177E+04  0.40333292645E+04  0.36958549130E+04 0.  0.
        1    1    3    3  502    0  0.71996973474E+03  0.15552460708E+04 -0.53266676896E+02  0.17146381830E+04  0.50400001928E-02 0. -1.
       -1    1    3    3    0  502 -0.71996973474E+03 -0.15552460708E+04 -0.15617879408E+04  0.23186910815E+04  0.50400001928E-02 0.  1.
</event>
<event>
 5   0  0.1522273E-07  0.3717163E+04  0.7818609E-02  0.8064169E-01
       -1   -1    0    0    0  501  0.00000000000E+00  0.00000000000E+00  0.19728470019E+04  0.19728470019E+04  0.50400001928E-02 0.  1.
        1   -1    0    0  501    0  0.00000000000E+00  0.00000000000E+00 -0.17509343516E+04  0.17509343516E+04  0.50400001928E-02 0. -1.
    10030    2    1    2    0    0  0.00000000000E+00  0.00000000000E+00  0.22191265026E+03  0.37237813535E+04  0.37171632120E+04 0.  0.
        4    1    3    3  502    0 -0.16193198584E+04 -0.85349087582E+03 -0.21161151920E+03  0.18426677744E+04  0.12699999809E+01 0. -1.
       -4    1    3    3    0  502  0.16193198584E+04  0.85349087582E+03  0.43352416946E+03  0.18811135791E+04  0.12699999809E+01 0.  1.
</event>
<event>
 5   0  0.4758908E-07  0.3695029E+04  0.7818609E-02  0.8069064E-01
        2   -1    0    0  501    0  0.00000000000E+00  0.00000000000E+00  0.21344698787E+04  0.21344698787E+04  0.25500000920E-02 0. -1.
       -2   -1    0    0    0  501  0.00000000000E+00  0.00000000000E+00 -0.15991370164E+04  0.15991370164E+04  0.25500000920E-02 0.  1.
    10030    2    1    2    0    0  0.00000000000E+00  0.00000000000E+00  0.53533286230E+03  0.37336068952E+04  0.36950289815E+04 0.  0.
        2    1    3    3  502    0  0.92844805377E+03  0.17722893294E+02  0.18815204926E+04  0.20982014331E+04  0.25500000920E-02 0. -1.
       -2    1    3    3    0  502 -0.92844805377E+03 -0.17722893294E+02 -0.13461876303E+04  0.16354054621E+04  0.25500000920E-02 0.  1.
</event>
<event>
 5   0  0.4857514E-07  0.3506460E+04  0.7818609E-02  0.8112261E-01
       -2   -1    0    0    0  501  0.00000000000E+00  0.00000000000E+00  0.14678620355E+04  0.14678620355E+04  0.25500000920E-02 0.  1.
        2   -1    0    0  501    0  0.00000000000E+00  0.00000000000E+00 -0.20940769715E+04  0.20940769715E+04  0.25500000920E-02 0. -1.
    10030    2    1    2    0    0  0.00000000000E+00  0.00000000000E+00 -0.62621493599E+03  0.35619390070E+04  0.35064603725E+04 0.  0.
        5    1    3    3  502    0 -0.14049853807E+04  0.10464974009E+03 -0.13731011282E+04  0.19673241437E+04  0.46999998093E+01 0. -1.
       -5    1    3    3    0  502  0.14049853807E+04 -0.10464974009E+03  0.74688619222E+03  0.15946148633E+04  0.46999998093E+01 0.  1.
</event>
<event>
 5   0  0.1496287E-07  0.3683850E+04  0.7818609E-02  0.8071550E-01
        1   -1    0    0  501    0  0.00000000000E+00  0.00000000000E+00  0.19794196816E+04  0.19794196816E+04  0.50400001928E-02 0.  1.
       -1   -1    0    0    0  501  0.00000000000E+00  0.00000000000E+00 -0.17139813411E+04  0.17139813412E+04  0.50400001928E-02 0. -1.
    10030    2    1    2    0    0  0.00000000000E+00  0.00000000000E+00  0.26543834048E+03  0.36934010228E+04  0.36838503773E+04 0.  0.
        1    1    3    3  502    0 -0.10018400388E+04  0.93781982845E+02 -0.14140735127E+04  0.17355351978E+04  0.50400001928E-02 0. -1.
       -1    1    3    3    0  502  0.10018400388E+04 -0.93781982845E+02  0.16795118531E+04  0.19578658250E+04  0.50400001928E-02 0.  1.
</event>
<event>
 5   0  0.1496000E-07  0.3679484E+04  0.7818609E-02  0.8072524E-01
        1   -1    0    0  501    0  0.00000000000E+00  0.00000000000E+00  0.20619441866E+04  0.20619441866E+04  0.50400001928E-02 0.  1.
       -1   -1    0    0    0  501  0.00000000000E+00  0.00000000000E+00 -0.16414853937E+04  0.16414853937E+04  0.50400001928E-02 0. -1.
    10030    2    1    2    0    0  0.00000000000E+00  0.00000000000E+00  0.42045879283E+03  0.37034295803E+04  0.36794843470E+04 0.  0.
        2    1    3    3  502    0  0.14333388042E+04  0.12537120656E+03  0.13641953589E+04  0.19827271734E+04  0.25500000920E-02 0.  1.
       -2    1    3    3    0  502 -0.14333388042E+04 -0.12537120656E+03 -0.94373656607E+03  0.17207024069E+04  0.25500000920E-02 0. -1.
</event>
<event>
 5   0  0.4687817E-07  0.3687397E+04  0.7818609E-02  0.8070761E-01
        2   -1    0    0  501    0  0.00000000000E+00  0.00000000000E+00  0.15953906895E+04  0.15953906895E+04  0.25500000920E-02 0.  1.
       -2   -1    0    0    0  501  0.00000000000E+00  0.00000000000E+00 -0.21306530298E+04  0.21306530298E+04  0.25500000920E-02 0. -1.
    10030    2    1    2    0    0  0.00000000000E+00  0.00000000000E+00 -0.53526234026E+03  0.37260437193E+04  0.36873969172E+04 0.  0.
        4    1    3    3  502    0  0.12355290415E+04  0.46865879234E+03 -0.15668160675E+04  0.20496554048E+04  0.12699999809E+01 0. -1.
       -4    1    3    3    0  502 -0.12355290415E+04 -0.46865879234E+03  0.10315537272E+04  0.16763883145E+04  0.12699999809E+01 0.  1.
</event>
<event>
 5   0  0.1496000E-07  0.3684084E+04  0.7818609E-02  0.8071498E-01
       -3   -1    0    0    0  501  0.00000000000E+00  0.00000000000E+00  0.27478640382E+04  0.27478640401E+04  0.10100000352E+00 0.  1.
        3   -1    0    0  501    0  0.00000000000E+00  0.00000000000E+00 -0.12348206435E+04  0.12348206477E+04  0.10100000352E+00 0. -1.
    10030    2    1    2    0    0  0.00000000000E+00  0.00000000000E+00  0.15130433947E+04  0.39826846878E+04  0.36840842835E+04 0.  0.
        5    1    3    3  502    0  0.10154419927E+04 -0.15003246689E+04  0.11166929517E+04  0.21281733461E+04  0.46999998093E+01 0.  1.
       -5    1    3    3    0  502 -0.10154419927E+04  0.15003246689E+04  0.39635044296E+03  0.18545113416E+04  0.46999998093E+01 0. -1.
</event>
<event>
 5   0  0.4687817E-07  0.3800838E+04  0.7818609E-02  0.8045975E-01
        2   -1    0    0  501    0  0.00000000000E+00  0.00000000000E+00  0.22056297439E+04  0.22056297439E+04  0.25500000920E-02 0.  1.
       -2   -1    0    0    0  501  0.00000000000E+00  0.00000000000E+00 -0.16374430800E+04  0.16374430800E+04  0.25500000920E-02 0. -1.
    10030    2    1    2    0    0  0.00000000000E+00  0.00000000000E+00  0.56818666393E+03  0.38430728239E+04  0.38008384134E+04 0.  0.
        4    1    3    3  502    0  0.12095974252E+03 -0.16759131369E+04  0.11818077640E+04  0.20542607686E+04  0.12699999809E+01 0.  1.
       -4    1    3    3    0  502 -0.12095974252E+03  0.16759131369E+04 -0.61362110002E+03  0.17888120552E+04  0.12699999809E+01 0. -1.
</event>
<event>
 5   0  0.4687817E-07  0.3726315E+04  0.7818609E-02  0.8062155E-01
        2   -1    0    0  501    0  0.00000000000E+00  0.00000000000E+00  0.21989530540E+04  0.21989530540E+04  0.25500000920E-02 0. -1.
       -2   -1    0    0    0  501  0.00000000000E+00  0.00000000000E+00 -0.15786404729E+04  0.15786404729E+04  0.25500000920E-02 0.  1.
    10030    2    1    2    0    0  0.00000000000E+00  0.00000000000E+00  0.62031258111E+03  0.37775935269E+04  0.37263152250E+04 0.  0.
        4    1    3    3  502    0  0.49283166165E+03 -0.10187799764E+04  0.18105772111E+04  0.21351784790E+04  0.12699999809E+01 0. -1.
       -4    1    3    3    0  502 -0.49283166165E+03  0.10187799764E+04 -0.11902646300E+04  0.16424150478E+04  0.12699999809E+01 0.  1.
</event>
<event>
 5   0  0.4793557E-07  0.3653210E+04  0.7818609E-02  0.8078411E-01
       -2   -1    0    0    0  501  0.00000000000E+00  0.00000000000E+00  0.10926470750E+04  0.10926470750E+04  0.25500000920E-02 0.  1.
        2   -1    0    0  501    0  0.00000000000E+00  0.00000000000E+00 -0.30535809116E+04  0.30535809116E+04  0.25500000920E-02 0. -1.
    10030    2    1    2    0    0  0.00000000000E+00  0.00000000000E+00 -0.19609338366E+04  0.41462279866E+04  0.36532102329E+04 0.  0.
        3    1    3    3  502    0  0.17244325453E+02 -0.17608717231E+04 -0.15312645781E+04  0.23336104667E+04  0.10100000352E+00 0. -1.
       -3    1    3    3    0  502 -0.17244325453E+02  0.17608717231E+04 -0.42966925854E+03  0.18126175200E+04  0.10100000352E+00 0.  1.
</event>
<event>
 5   0  0.1496000E-07  0.3533213E+04  0.7818609E-02  0.8105964E-01
        1   -1    0    0  501    0  0.00000000000E+00  0.00000000000E+00  0.21659219422E+04  0.21659219422E+04  0.50400001928E-02 0. -1.
       -1   -1    0    0    0  501  0.00000000000E+00  0.00000000000E+00 -0.14409102332E+04  0.14409102332E+04  0.50400001928E-02 0.  1.
    10030    2    1    2    0    0  0.00000000000E+00  0.00000000000E+00  0.72501170903E+03  0.36068321754E+04  0.35332133198E+04 0.  0.
        2    1    3    3  502    0  0.12225200651E+04 -0.12689455852E+04  0.23289227949E+03  0.17773623777E+04  0.25500000920E-02 0.  1.
       -2    1    3    3    0  502 -0.12225200651E+04  0.12689455852E+04  0.49211942954E+03  0.18294697977E+04  0.25500000920E-02 0. -1.
</event>
<event>
 5   0  0.1496287E-07  0.3696408E+04  0.7818609E-02  0.8068758E-01
       -1   -1    0    0    0  501  0.00000000000E+00  0.00000000000E+00  0.23560301554E+04  0.23560301554E+04  0.50400001928E-02 0. -1.
        1   -1    0    0  501    0  0.00000000000E+00  0.00000000000E+00 -0.14498362173E+04  0.14498362173E+04  0.50400001928E-02 0.  1.
    10030    2    1    2    0    0  0.00000000000E+00  0.00000000000E+00  0.90619393814E+03  0.38058663728E+04  0.36964079041E+04 0.  0.
        1    1    3    3  502    0 -0.18253650155E+03 -0.10759218246E+04  0.19888870928E+04  0.22686117373E+04  0.50400001928E-02 0. -1.
       -1    1    3    3    0  502  0.18253650155E+03  0.10759218246E+04 -0.10826931546E+04  0.15372546354E+04  0.50400001928E-02 0.  1.
</event>
<event>
 5   0  0.1496000E-07  0.3716485E+04  0.7818609E-02  0.8064318E-01
        3   -1    0    0  501    0  0.00000000000E+00  0.00000000000E+00  0.12752358172E+04  0.12752358212E+04  0.10100000352E+00 0. -1.
       -3   -1    0    0    0  501  0.00000000000E+00  0.00000000000E+00 -0.27077851909E+04  0.27077851928E+04  0.10100000352E+00 0.  1.
    10030    2    1    2    0    0  0.00000000000E+00  0.00000000000E+00 -0.14325493737E+04  0.39830210140E+04  0.37164847221E+04 0.  0.
        4    1    3    3  502    0  0.92348877998E+03 -0.10510203540E+04 -0.20269230676E+04  0.24629035803E+04  0.12699999809E+01 0.  1.
       -4    1    3    3    0  502 -0.92348877998E+03  0.10510203540E+04  0.59437369382E+03  0.15201174336E+04  0.12699999809E+01 0. -1.
</event>
<event>
 5   0  0.4824268E-07  0.3566104E+04  0.7818609E-02  0.8098300E-01
       -2   -1    0    0    0  501  0.00000000000E+00  0.00000000000E+00  0.15319002336E+04  0.15319002336E+04  0.25500000920E-02 0.  1.
        2   -1    0    0  501    0  0.00000000000E+00  0.00000000000E+00 -0.20753792183E+04  0.20753792183E+04  0.25500000920E-02 0. -1.
    10030    2    1    2    0    0  0.00000000000E+00  0.00000000000E+00 -0.54347898467E+03  0.36072794519E+04  0.35661037054E+04 0.  0.
        1    1    3    3  502    0  0.10755987528E+04  0.36748662049E+03 -0.16613976906E+04  0.20130080426E+04  0.50400001928E-02 0. -1.
       -1    1    3    3    0  502 -0.10755987528E+04 -0.36748662049E+03  0.11179187059E+04  0.15942714093E+04  0.50400001928E-02 0.  1.
</event>
<event>
 5   0  0.4857514E-07  0.3735146E+04  0.7818609E-02  0.8060217E-01
       -2   -1    0    0    0  501  0.00000000000E+00  0.00000000000E+00  0.14130864298E+04  0.14130864298E+04  0.25500000920E-02 0. -1.
        2   -1    0    0  501    0  0.00000000000E+00  0.00000000000E+00 -0.24682345074E+04  0.24682345074E+04  0.25500000920E-02 0.  1.
    10030    2    1    2    0    0  0.00000000000E+00  0.00000000000E+00 -0.10551480777E+04  0.38813209372E+04  0.37351458809E+04 0.  0.
        5    1    3    3  502    0  0.83982603303E+02  0.14557133704E+03  0.14052066486E+04  0.14152285706E+04  0.46999998093E+01 0. -1.
       -5    1    3    3    0  502 -0.83982603303E+02 -0.14557133704E+03 -0.24603547262E+04  0.24660923666E+04  0.46999998093E+01 0.  1.
</event>
<event>
 5   0  0.4687817E-07  0.3734200E+04  0.7818609E-02  0.8060425E-01
       -2   -1    0    0    0  501  0.00000000000E+00  0.00000000000E+00  0.19304652045E+04  0.19304652045E+04  0.25500000920E-02 0. -1.
        2   -1    0    0  501    0  0.00000000000E+00  0.00000000000E+00 -0.18058151331E+04  0.18058151331E+04  0.25500000920E-02 0.  1.
    10030    2    1    2    0    0  0.00000000000E+00  0.00000000000E+00  0.12465007132E+03  0.37362803376E+04  0.37342004661E+04 0.  0.
        4    1    3    3  502    0  0.75070076602E+03  0.84966932409E+03 -0.14219337338E+04  0.18186222138E+04  0.12699999809E+01 0.  1.
       -4    1    3    3    0  502 -0.75070076602E+03 -0.84966932409E+03  0.15465838051E+04  0.19176581238E+04  0.12699999809E+01 0. -1.
</event>
<event>
 5   0  0.1496000E-07  0.3277721E+04  0.7818609E-02  0.8168588E-01
        1   -1    0    0  501    0  0.00000000000E+00  0.00000000000E+00  0.15291471449E+04  0.15291471449E+04  0.50400001928E-02 0. -1.
       -1   -1    0    0    0  501  0.00000000000E+00  0.00000000000E+00 -0.17564453739E+04  0.17564453739E+04  0.50400001928E-02 0.  1.
    10030    2    1    2    0    0  0.00000000000E+00  0.00000000000E+00 -0.22729822905E+03  0.32855925188E+04  0.32777208110E+04 0.  0.
        5    1    3    3  502    0 -0.43486052088E+03 -0.82695477083E+02 -0.16953800864E+04  0.17522208599E+04  0.46999998093E+01 0.  1.
       -5    1    3    3    0  502  0.43486052088E+03  0.82695477083E+02  0.14680818573E+04  0.15333716589E+04  0.46999998093E+01 0. -1.
</event>
<event>
 5   0  0.1496000E-07  0.3694700E+04  0.7818609E-02  0.8069137E-01
        1   -1    0    0  501    0  0.00000000000E+00  0.00000000000E+00  0.24474552091E+04  0.24474552091E+04  0.50400001928E-02 0. -1.
       -1   -1    0    0    0  501  0.00000000000E+00  0.00000000000E+00 -0.13943875620E+04  0.13943875620E+04  0.50400001928E-02 0.  1.
    10030    2    1    2    0    0  0.00000000000E+00  0.00000000000E+00  0.10530676472E+04  0.38418427711E+04  0.36946995018E+04 0.  0.
        3    1    3    3  502    0  0.21588930681E+03 -0.10361428103E+04 -0.10478667155E+04  0.14893705985E+04  0.10100000352E+00 0.  1.
       -3    1    3    3    0  502 -0.21588930681E+03  0.10361428103E+04  0.21009343627E+04  0.23524721726E+04  0.10100000352E+00 0. -1.
</event>
<event>
 5   0  0.1496000E-07  0.3630783E+04  0.7818609E-02  0.8083477E-01
       -1   -1    0    0    0  501  0.00000000000E+00  0.00000000000E+00  0.16745400092E+04  0.16745400092E+04  0.50400001928E-02 0.  1.
        1   -1    0    0  501    0  0.00000000000E+00  0.00000000000E+00 -0.19680900151E+04  0.19680900151E+04  0.50400001928E-02 0. -1.
    10030    2    1    2    0    0  0.00000000000E+00  0.00000000000E+00 -0.29355000586E+03  0.36426300243E+04  0.36307825449E+04 0.  0.
        2    1    3    3  502    0  0.16468448799E+03  0.14405406318E+04 -0.12427530846E+04  0.19096370131E+04  0.25500000920E-02 0. -1.
       -2    1    3    3    0  502 -0.16468448799E+03 -0.14405406318E+04  0.94920307874E+03  0.17329930113E+04  0.25500000920E-02 0.  1.
</event>
<event>
 5   0  0.1496000E-07  0.3704112E+04  0.7818609E-02  0.8067051E-01
       -1   -1    0    0    0  501  0.00000000000E+00  0.00000000000E+00  0.27835500918E+04  0.27835500918E+04  0.50400001928E-02 0. -1.
        1   -1    0    0  501    0  0.00000000000E+00  0.00000000000E+00 -0.12322792049E+04  0.12322792049E+04  0.50400001928E-02 0.  1.
    10030    2    1    2    0    0  0.00000000000E+00  0.00000000000E+00  0.15512708870E+04  0.40158292967E+04  0.37041117121E+04 0.  0.
        2    1    3    3  502    0  0.15517535922E+03 -0.18120498849E+04  0.39617097422E+03  0.18613316787E+04  0.25500000920E-02 0. -1.
       -2    1    3    3    0  502 -0.15517535922E+03  0.18120498849E+04  0.11550999128E+04  0.21544976180E+04  0.25500000920E-02 0.  1.
</event>
<event>
 5   0  0.1496000E-07  0.3751768E+04  0.7818609E-02  0.8056585E-01
       -1   -1    0    0    0  501  0.00000000000E+00  0.00000000000E+00  0.30034991549E+04  0.30034991549E+04  0.50400001928E-02 0.  1.
        1   -1    0    0  501    0  0.00000000000E+00  0.00000000000E+00 -0.11716137210E+04  0.11716137210E+04  0.50400001928E-02 0. -1.
    10030    2    1    2    0    0  0.00000000000E+00  0.00000000000E+00  0.18318854340E+04  0.41751128759E+04  0.37517680210E+04 0.  0.
        5    1    3    3  502    0  0.80261390344E+03  0.13531893168E+04 -0.22090164314E+03  0.15887510916E+04  0.46999998093E+01 0. -1.
       -5    1    3    3    0  502 -0.80261390344E+03 -0.13531893168E+04  0.20527870771E+04  0.25863617843E+04  0.46999998093E+01 0.  1.
</event>
<event>
 5   0  0.4824268E-07  0.3727346E+04  0.7818609E-02  0.8061928E-01
        2   -1    0    0  501    0  0.00000000000E+00  0.00000000000E+00  0.21347133888E+04  0.21347133888E+04  0.25500000920E-02 0. -1.
       -2   -1    0    0    0  501  0.00000000000E+00  0.00000000000E+00 -0.16270462729E+04  0.16270462729E+04  0.25500000920E-02 0.  1.
    10030    2    1    2    0    0  0.00000000000E+00  0.00000000000E+00  0.50766711589E+03  0.37617596617E+04  0.37273462211E+04 0.  0.
        1    1    3    3  502    0  0.12626104621E+04  0.10379559535E+04  0.11574997004E+04  0.20028338166E+04  0.50400001928E-02 0.  1.
       -1    1    3    3    0  502 -0.12626104621E+04 -0.10379559535E+04 -0.64983258453E+03  0.17589258451E+04  0.50400001928E-02 0. -1.
</event>
<event>
 5   0  0.1522273E-07  0.3500626E+04  0.7818609E-02  0.8113642E-01
        1   -1    0    0  501    0  0.00000000000E+00  0.00000000000E+00  0.13817018749E+04  0.13817018749E+04  0.50400001928E-02 0.  1.
       -1   -1    0    0    0  501  0.00000000000E+00  0.00000000000E+00 -0.22172622150E+04  0.22172622150E+04  0.50400001928E-02 0. -1.
    10030    2    1    2    0    0  0.00000000000E+00  0.00000000000E+00 -0.83556034011E+03  0.35989640898E+04  0.35006258638E+04 0.  0.
        4    1    3    3  502    0 -0.13238945535E+04  0.18135225189E+03  0.74446742568E+03  0.15296466222E+04  0.12699999809E+01 0.  1.
       -4    1    3    3    0  502  0.13238945535E+04 -0.18135225189E+03 -0.15800277658E+04  0.20693174676E+04  0.12699999809E+01 0. -1.
</event>
<event>
 5   0  0.1496287E-07  0.3707749E+04  0.7818609E-02  0.8066247E-01
        1   -1    0    0  501    0  0.00000000000E+00  0.00000000000E+00  0.23393529717E+04  0.23393529717E+04  0.50400001928E-02 0. -1.
       -1   -1    0    0    0  501  0.00000000000E+00  0.00000000000E+00 -0.14691456515E+04  0.14691456515E+04  0.50400001928E-02 0.  1.
    10030    2    1    2    0    0  0.00000000000E+00  0.00000000000E+00  0.87020732024E+03  0.38084986232E+04  0.37077487756E+04 0.  0.
        1    1    3    3  502    0  0.54618816839E+03  0.94114118646E+03  0.19768150689E+04  0.22565163560E+04  0.50400001928E-02 0. -1.
       -1    1    3    3    0  502 -0.54618816839E+03 -0.94114118646E+03 -0.11066077487E+04  0.15519822672E+04  0.50400001928E-02 0.  1.
</event>
<event>
 5   0  0.4687817E-07  0.3305764E+04  0.7818609E-02  0.8161430E-01
       -2   -1    0    0    0  501  0.00000000000E+00  0.00000000000E+00  0.10952507598E+04  0.10952507598E+04  0.25500000920E-02 0.  1.
        2   -1    0    0  501    0  0.00000000000E+00  0.00000000000E+00 -0.24944235653E+04  0.24944235653E+04  0.25500000920E-02 0. -1.
    10030    2    1    2    0    0  0.00000000000E+00  0.00000000000E+00 -0.13991728054E+04  0.35896743251E+04  0.33057642416E+04 0.  0.
        4    1    3    3  502    0 -0.14337841903E+03  0.48839337117E+03 -0.24071987215E+04  0.24604253196E+04  0.12699999809E+01 0. -1.
       -4    1    3    3    0  502  0.14337841903E+03 -0.48839337117E+03  0.10080259160E+04  0.11292490055E+04  0.12699999809E+01 0.  1.
</event>
<event>
 5   0  0.1496000E-07  0.3047396E+04  0.7818609E-02  0.8230325E-01
        1   -1    0    0  501    0  0.00000000000E+00  0.00000000000E+00  0.13760583230E+04  0.13760583230E+04  0.50400001928E-02 0. -1.
       -1   -1    0    0    0  501  0.00000000000E+00  0.00000000000E+00 -0.16871778851E+04  0.16871778851E+04  0.50400001928E-02 0.  1.
    10030    2    1    2    0    0  0.00000000000E+00  0.00000000000E+00 -0.31111956214E+03  0.30632362082E+04  0.30473957218E+04 0.  0.
        5    1    3    3  502    0 -0.22158933454E+03  0.13399749543E+04  0.53868093505E+03  0.14611070978E+04  0.46999998093E+01 0. -1.
       -5    1    3    3    0  502  0.22158933454E+03 -0.13399749543E+04 -0.84980049719E+03  0.16021291104E+04  0.46999998093E+01 0.  1.
</event>
<event>
 5   0  0.1496000E-07  0.3689445E+04  0.7818609E-02  0.8070305E-01
        3   -1    0    0  501    0  0.00000000000E+00  0.00000000000E+00  0.18185797747E+04  0.18185797775E+04  0.10100000352E+00 0. -1.
       -3   -1    0    0    0  501  0.00000000000E+00  0.00000000000E+00 -0.18712412299E+04  0.18712412327E+04  0.10100000352E+00 0.  1.
    10030    2    1    2    0    0  0.00000000000E+00  0.00000000000E+00 -0.52661455244E+02  0.36898210101E+04  0.36894451965E+04 0.  0.
        4    1    3    3  502    0 -0.46552172158E+02  0.13470082447E+04 -0.12859833541E+04  0.18628883799E+04  0.12699999809E+01 0.  1.
       -4    1    3    3    0  502  0.46552172158E+02 -0.13470082447E+04  0.12333218989E+04  0.18269326302E+04  0.12699999809E+01 0. -1.
</event>
<event>
 5   0  0.1522273E-07  0.3584898E+04  0.7818609E-02  0.8093960E-01
        1   -1    0    0  501    0  0.00000000000E+00  0.00000000000E+00  0.20912556232E+04  0.20912556232E+04  0.50400001928E-02 0. -1.
       -1   -1    0    0    0  501  0.00000000000E+00  0.00000000000E+00 -0.15363366473E+04  0.15363366473E+04  0.50400001928E-02 0.  1.
    10030    2    1    2    0    0  0.00000000000E+00  0.00000000000E+00  0.55491897591E+03  0.36275922705E+04  0.35848975734E+04 0.  0.
        4    1    3    3  502    0 -0.16936834958E+04 -0.47448842906E+03 -0.71858956301E+02  0.17603602971E+04  0.12699999809E+01 0. -1.
       -4    1    3    3    0  502  0.16936834958E+04  0.47448842906E+03  0.62677793221E+03  0.18672319734E+04  0.12699999809E+01 0.  1.
</event>
<event>
 5   0  0.4824268E-07  0.3565316E+04  0.7818609E-02  0.8098483E-01
       -2   -1    0    0    0  501  0.00000000000E+00  0.00000000000E+00  0.11208157385E+04  0.11208157385E+04  0.25500000920E-02 0.  1.
        2   -1    0    0  501    0  0.00000000000E+00  0.00000000000E+00 -0.28353185866E+04  0.28353185866E+04  0.25500000920E-02 0. -1.
    10030    2    1    2    0    0  0.00000000000E+00  0.00000000000E+00 -0.17145028481E+04  0.39561343250E+04  0.35653160844E+04 0.  0.
        1    1    3    3  502    0 -0.15856610824E+04 -0.80576274004E+03 -0.72458360653E+03  0.19205718066E+04  0.50400001928E-02 0.  1.
       -1    1    3    3    0  502  0.15856610824E+04  0.80576274004E+03 -0.98991924157E+03  0.20355625184E+04  0.50400001928E-02 0. -1.
</event>
<event>
 5   0  0.1522273E-07  0.3712195E+04  0.7818609E-02  0.8065265E-01
       -1   -1    0    0    0  501  0.00000000000E+00  0.00000000000E+00  0.13976117133E+04  0.13976117133E+04  0.50400001928E-02 0.  1.
        1   -1    0    0  501    0  0.00000000000E+00  0.00000000000E+00 -0.24649889634E+04  0.24649889634E+04  0.50400001928E-02 0. -1.
    10030    2    1    2    0    0  0.00000000000E+00  0.00000000000E+00 -0.10673772501E+04  0.38626006768E+04  0.37121947409E+04 0.  0.
        4    1    3    3  502    0 -0.17715015843E+04 -0.37361162729E+03 -0.10810288377E+03  0.18136954974E+04  0.12699999809E+01 0.  1.
       -4    1    3    3    0  502  0.17715015843E+04  0.37361162729E+03 -0.95927436635E+03  0.20489051793E+04  0.12699999809E+01 0. -1.
</event>
<event>
 5   0  0.4824268E-07  0.3700530E+04  0.7818609E-02  0.8067844E-01
       -2   -1    0    0    0  501  0.00000000000E+00  0.00000000000E+00  0.12628750401E+04  0.12628750401E+04  0.25500000920E-02 0.  1.
        2   -1    0    0  501    0  0.00000000000E+00  0.00000000000E+00 -0.27108622327E+04  0.27108622327E+04  0.25500000920E-02 0. -1.
    10030    2    1    2    0    0  0.00000000000E+00  0.00000000000E+00 -0.14479871926E+04  0.39737372728E+04  0.37005298274E+04 0.  0.
        1    1    3    3  502    0 -0.15522794014E+03 -0.14897510387E+04 -0.18904838084E+04  0.24119251440E+04  0.50400001928E-02 0. -1.
       -1    1    3    3    0  502  0.15522794014E+03  0.14897510387E+04  0.44249661577E+03  0.15618121288E+04  0.50400001928E-02 0.  1.
</event>
<event>
 5   0  0.4793557E-07  0.3638883E+04  0.7818609E-02  0.8081643E-01
       -2   -1    0    0    0  501  0.00000000000E+00  0.00000000000E+00  0.14124816169E+04  0.14124816169E+04  0.25500000920E-02 0.  1.
        2   -1    0    0  501    0  0.00000000000E+00  0.00000000000E+00 -0.23436539794E+04  0.23436539794E+04  0.25500000920E-02 0. -1.
    10030    2    1    2    0    0  0.00000000000E+00  0.00000000000E+00 -0.93117236259E+03  0.37561355963E+04  0.36388834344E+04 0.  0.
        3    1    3    3  502    0  0.15882791719E+04  0.37322740924E+03  0.36561775192E+03  0.16720065124E+04  0.10100000352E+00 0.  1.
       -3    1    3    3    0  502 -0.15882791719E+04 -0.37322740924E+03 -0.12967901145E+04  0.20841290839E+04  0.10100000352E+00 0. -1.
</event>
<event>
 5   0  0.4793557E-07  0.3641981E+04  0.7818609E-02  0.8080943E-01
       -2   -1    0    0    0  501  0.00000000000E+00  0.00000000000E+00  0.16318531717E+04  0.16318531717E+04  0.25500000920E-02 0.  1.
        2   -1    0    0  501    0  0.00000000000E+00  0.00000000000E+00 -0.20320491260E+04  0.20320491260E+04  0.25500000920E-02 0. -1.
    10030    2    1    2    0    0  0.00000000000E+00  0.00000000000E+00 -0.40019595424E+03  0.36639022977E+04  0.36419806762E+04 0.  0.
        3    1    3    3  502    0  0.18634915753E+03  0.11614128934E+04 -0.15985731101E+04  0.19847019716E+04  0.10100000352E+00 0. -1.
       -3    1    3    3    0  502 -0.18634915753E+03 -0.11614128934E+04  0.11983771558E+04  0.16792003262E+04  0.10100000352E+00 0.  1.
</event>
<event>
 5   0  0.1496287E-07  0.3469923E+04  0.7818609E-02  0.8120955E-01
       -1   -1    0    0    0  501  0.00000000000E+00  0.00000000000E+00  0.25593147840E+04  0.25593147840E+04  0.50400001928E-02 0. -1.
        1   -1    0    0  501    0  0.00000000000E+00  0.00000000000E+00 -0.11761319974E+04  0.11761319974E+04  0.50400001928E-02 0.  1.
    10030    2    1    2    0    0  0.00000000000E+00  0.00000000000E+00  0.13831827866E+04  0.37354467814E+04  0.34699233472E+04 0.  0.
        1    1    3    3  502    0 -0.14662844548E+04  0.72029676504E+03  0.62701555484E+02  0.16348544330E+04  0.50400001928E-02 0.  1.
       -1    1    3    3    0  502  0.14662844548E+04 -0.72029676504E+03  0.13204812311E+04  0.21005923483E+04  0.50400001928E-02 0. -1.
</event>
<event>
 5   0  0.1496000E-07  0.3681467E+04  0.7818609E-02  0.8072081E-01
       -1   -1    0    0    0  501  0.00000000000E+00  0.00000000000E+00  0.20684140251E+04  0.20684140251E+04  0.50400001928E-02 0. -1.
        1   -1    0    0  501    0  0.00000000000E+00  0.00000000000E+00 -0.16381149593E+04  0.16381149593E+04  0.50400001928E-02 0.  1.
    10030    2    1    2    0    0  0.00000000000E+00  0.00000000000E+00  0.43029906584E+03  0.37065289844E+04  0.36814670753E+04 0.  0.
        5    1    3    3  502    0 -0.23191071608E+03  0.10474951267E+03  0.20506132873E+04  0.20663474985E+04  0.46999998093E+01 0. -1.
       -5    1    3    3    0  502  0.23191071608E+03 -0.10474951267E+03 -0.16203142214E+04  0.16401814859E+04  0.46999998093E+01 0.  1.
</event>
<event>
 5   0  0.4793557E-07  0.3622145E+04  0.7818609E-02  0.8085438E-01
        2   -1    0    0  501    0  0.00000000000E+00  0.00000000000E+00  0.22737284463E+04  0.22737284463E+04  0.25500000920E-02 0. -1.
       -2   -1    0    0    0  501  0.00000000000E+00  0.00000000000E+00 -0.14425573512E+04  0.14425573512E+04  0.25500000920E-02 0.  1.
    10030    2    1    2    0    0  0.00000000000E+00  0.00000000000E+00  0.83117109505E+03  0.37162857975E+04  0.36221450467E+04 0.  0.
        3    1    3    3  502    0 -0.14937004953E+04 -0.88939022249E+03 -0.10537869822E+03  0.17416259121E+04  0.10100000352E+00 0.  1.
       -3    1    3    3    0  502  0.14937004953E+04  0.88939022249E+03  0.93654979327E+03  0.19746598854E+04  0.10100000352E+00 0. -1.
</event>
<event>
 5   0  0.1496000E-07  0.3715277E+04  0.7818609E-02  0.8064585E-01
        1   -1    0    0  501    0  0.00000000000E+00  0.00000000000E+00  0.13816830568E+04  0.13816830568E+04  0.50400001928E-02 0.  1.
       -1   -1    0    0    0  501  0.00000000000E+00  0.00000000000E+00 -0.24975488246E+04  0.24975488246E+04  0.50400001928E-02 0. -1.
    10030    2    1    2    0    0  0.00000000000E+00  0.00000000000E+00 -0.11158657678E+04  0.38792318814E+04  0.37152770526E+04 0.  0.
        5    1    3    3  502    0 -0.16275798963E+04 -0.88264389649E+02  0.37245183046E+03  0.16719896463E+04  0.46999998093E+01 0.  1.
       -5    1    3    3    0  502  0.16275798963E+04  0.88264389649E+02 -0.14883175982E+04  0.22072422351E+04  0.46999998093E+01 0. -1.
</event>
<event>
 5   0  0.4758908E-07  0.3697997E+04  0.7818609E-02  0.8068406E-01
        2   -1    0    0  501    0  0.00000000000E+00  0.00000000000E+00  0.19758344351E+04  0.19758344351E+04  0.25500000920E-02 0.  1.
       -2   -1    0    0    0  501  0.00000000000E+00  0.00000000000E+00 -0.17303044161E+04  0.17303044161E+04  0.25500000920E-02 0. -1.
    10030    2    1    2    0    0  0.00000000000E+00  0.00000000000E+00  0.24553001900E+03  0.37061388512E+04  0.36979967813E+04 0.  0.
        2    1    3    3  502    0  0.52999885062E+03  0.22454690159E+03 -0.16382249474E+04  0.17364046392E+04  0.25500000920E-02 0. -1.
       -2    1    3    3    0  502 -0.52999885062E+03 -0.22454690159E+03  0.18837549664E+04  0.19697342120E+04  0.25500000920E-02 0.  1.
</event>
<event>
 5   0  0.1496000E-07  0.3697306E+04  0.7818609E-02  0.8068559E-01
        1   -1    0    0  501    0  0.00000000000E+00  0.00000000000E+00  0.16378626184E+04  0.16378626184E+04  0.50400001928E-02 0.  1.
       -1   -1    0    0    0  501  0.00000000000E+00  0.00000000000E+00 -0.20865721109E+04  0.20865721110E+04  0.50400001928E-02 0. -1.
    10030    2    1    2    0    0  0.00000000000E+00  0.00000000000E+00 -0.44870949253E+03  0.37244347294E+04  0.36973062958E+04 0.  0.
        3    1    3    3  502    0 -0.74322374528E+03  0.31086576399E+03  0.14517345539E+04  0.16602868077E+04  0.10100000352E+00 0.  1.
       -3    1    3    3    0  502  0.74322374528E+03 -0.31086576399E+03 -0.19004440464E+04  0.20641479217E+04  0.10100000352E+00 0. -1.
</event>
<event>
 5   0  0.1496000E-07  0.3709492E+04  0.7818609E-02  0.8065862E-01
       -1   -1    0    0    0  501  0.00000000000E+00  0.00000000000E+00  0.14713291534E+04  0.14713291534E+04  0.50400001928E-02 0. -1.
        1   -1    0    0  501    0  0.00000000000E+00  0.00000000000E+00 -0.23380780733E+04  0.23380780733E+04  0.50400001928E-02 0.  1.
    10030    2    1    2    0    0  0.00000000000E+00  0.00000000000E+00 -0.86674891989E+03  0.38094072267E+04  0.37094918424E+04 0.  0.
        3    1    3    3  502    0  0.14784548482E+04 -0.10141685590E+04  0.54517856006E+02  0.17936941799E+04  0.10100000352E+00 0. -1.
       -3    1    3    3    0  502 -0.14784548482E+04  0.10141685590E+04 -0.92126677590E+03  0.20157130468E+04  0.10100000352E+00 0.  1.
</event>
<event>
 5   0  0.1522273E-07  0.3720134E+04  0.7818609E-02  0.8063515E-01
        1   -1    0    0  501    0  0.00000000000E+00  0.00000000000E+00  0.12110501301E+04  0.12110501301E+04  0.50400001928E-02 0. -1.
       -1   -1    0    0    0  501  0.00000000000E+00  0.00000000000E+00 -0.28568996265E+04  0.28568996265E+04  0.50400001928E-02 0.  1.
    10030    2    1    2    0    0  0.00000000000E+00  0.00000000000E+00 -0.16458494965E+04  0.40679497566E+04  0.37201336881E+04 0.  0.
        4    1    3    3  502    0 -0.13600751412E+04  0.12586508701E+04 -0.99870445732E+03  0.21050934916E+04  0.12699999809E+01 0. -1.
       -4    1    3    3    0  502  0.13600751412E+04 -0.12586508701E+04 -0.64714503914E+03  0.19628562650E+04  0.12699999809E+01 0.  1.
</event>
<event>
 5   0  0.4687817E-07  0.3747014E+04  0.7818609E-02  0.8057622E-01
       -2   -1    0    0    0  501  0.00000000000E+00  0.00000000000E+00  0.16627145506E+04  0.16627145506E+04  0.25500000920E-02 0.  1.
        2   -1    0    0  501    0  0.00000000000E+00  0.00000000000E+00 -0.21110226052E+04  0.21110226052E+04  0.25500000920E-02 0. -1.
    10030    2    1    2    0    0  0.00000000000E+00  0.00000000000E+00 -0.44830805463E+03  0.37737371558E+04  0.37470137455E+04 0.  0.
        4    1    3    3  502    0  0.10308726395E+03  0.18371845344E+04  0.13071157708E+03  0.18447116649E+04  0.12699999809E+01 0. -1.
       -4    1    3    3    0  502 -0.10308726395E+03 -0.18371845344E+04 -0.57901963170E+03  0.19290254908E+04  0.12699999809E+01 0.  1.
</event>
<event>
 5   0  0.1496000E-07  0.3674653E+04  0.7818609E-02  0.8073602E-01
       -1   -1    0    0    0  501  0.00000000000E+00  0.00000000000E+00  0.10569534297E+04  0.10569534298E+04  0.50400001928E-02 0.  1.
        1   -1    0    0  501    0  0.00000000000E+00  0.00000000000E+00 -0.31938677192E+04  0.31938677192E+04  0.50400001928E-02 0. -1.
    10030    2    1    2    0    0  0.00000000000E+00  0.00000000000E+00 -0.21369142895E+04  0.42508211490E+04  0.36746534204E+04 0.  0.
        3    1    3    3  502    0 -0.40962936597E+03 -0.11440472109E+04 -0.26626237345E+04  0.29268080565E+04  0.10100000352E+00 0. -1.
       -3    1    3    3    0  502  0.40962936597E+03  0.11440472109E+04  0.52570944504E+03  0.13240130924E+04  0.10100000352E+00 0.  1.
</event>
<event>
 5   0  0.1496000E-07  0.3603811E+04  0.7818609E-02  0.8089619E-01
       -1   -1    0    0    0  501  0.00000000000E+00  0.00000000000E+00  0.26421628298E+04  0.26421628298E+04  0.50400001928E-02 0. -1.
        1   -1    0    0  501    0  0.00000000000E+00  0.00000000000E+00 -0.12288658826E+04  0.12288658826E+04  0.50400001928E-02 0.  1.
    10030    2    1    2    0    0  0.00000000000E+00  0.00000000000E+00  0.14132969472E+04  0.38710287124E+04  0.36038111814E+04 0.  0.
        5    1    3    3  502    0  0.11594973310E+04 -0.13751097086E+04  0.59155458418E+03  0.18934940421E+04  0.46999998093E+01 0. -1.
       -5    1    3    3    0  502 -0.11594973310E+04  0.13751097086E+04  0.82174236297E+03  0.19775346703E+04  0.46999998093E+01 0.  1.
</event>
<event>
 5   0  0.1522273E-07  0.3550672E+04  0.7818609E-02  0.8101885E-01
        1   -1    0    0  501    0  0.00000000000E+00  0.00000000000E+00  0.11427264790E+04  0.11427264790E+04  0.50400001928E-02 0. -1.
       -1   -1    0    0    0  501  0.00000000000E+00  0.00000000000E+00 -0.27581560003E+04  0.27581560003E+04  0.50400001928E-02 0.  1.
    10030    2    1    2    0    0  0.00000000000E+00  0.00000000000E+00 -0.16154295213E+04  0.39008824793E+04  0.35506719898E+04 0.  0.
        4    1    3    3  502    0 -0.15087427804E+04  0.68102639548E+03 -0.15126519487E+04  0.22423691176E+04  0.12699999809E+01 0.  1.
       -4    1    3    3    0  502  0.15087427804E+04 -0.68102639548E+03 -0.10277757268E+03  0.16585133617E+04  0.12699999809E+01 0. -1.
</event>
<event>
 5   0  0.4758908E-07  0.3716442E+04  0.7818609E-02  0.8064328E-01
        2   -1    0    0  501    0  0.00000000000E+00  0.00000000000E+00  0.20159004511E+04  0.20159004511E+04  0.25500000920E-02 0.  1.
       -2   -1    0    0    0  501  0.00000000000E+00  0.00000000000E+00 -0.17128751815E+04  0.17128751815E+04  0.25500000920E-02 0. -1.
    10030    2    1    2    0    0  0.00000000000E+00  0.00000000000E+00  0.30302526958E+03  0.37287756326E+04  0.37164423047E+04 0.  0.
        2    1    3    3  502    0  0.79330128026E+03  0.11610602886E+04 -0.10672605106E+04  0.17653421516E+04  0.25500000920E-02 0. -1.
       -2    1    3    3    0  502 -0.79330128026E+03 -0.11610602886E+04  0.13702857801E+04  0.19634334810E+04  0.25500000920E-02 0.  1.
</event>
<event>
 5   0  0.4687817E-07  0.3674320E+04  0.7818609E-02  0.8073677E-01
       -2   -1    0    0    0  501  0.00000000000E+00  0.00000000000E+00  0.28148554821E+04  0.28148554821E+04  0.25500000920E-02 0. -1.
        2   -1    0    0  501    0  0.00000000000E+00  0.00000000000E+00 -0.11990518004E+04  0.11990518004E+04  0.25500000920E-02 0.  1.
    10030    2    1    2    0    0  0.00000000000E+00  0.00000000000E+00  0.16158036818E+04  0.40139072825E+04  0.36743203636E+04 0.  0.
        4    1    3    3  502    0  0.16388884591E+02 -0.28857114171E+03  0.27898613082E+04  0.28047940444E+04  0.12699999809E+01 0. -1.
       -4    1    3    3    0  502 -0.16388884591E+02  0.28857114171E+03 -0.11740576265E+04  0.12091132381E+04  0.12699999809E+01 0.  1.
</event>
<event>
 5   0  0.4687817E-07  0.3693074E+04  0.7818609E-02  0.8069498E-01
       -2   -1    0    0    0  501  0.00000000000E+00  0.00000000000E+00  0.27966286135E+04  0.27966286135E+04  0.25500000920E-02 0. -1.
        2   -1    0    0  501    0  0.00000000000E+00  0.00000000000E+00 -0.12192178925E+04  0.12192178925E+04  0.25500000920E-02 0.  1.
    10030    2    1    2    0    0  0.00000000000E+00  0.00000000000E+00  0.15774107209E+04  0.40158465060E+04  0.36930744073E+04 0.  0.
        4    1    3    3  502    0  0.41189163592E+03  0.17985156138E+04  0.70890996760E+03  0.19765798966E+04  0.12699999809E+01 0. -1.
       -4    1    3    3    0  502 -0.41189163592E+03 -0.17985156138E+04  0.86850075334E+03  0.20392666094E+04  0.12699999809E+01 0.  1.
</event>
<event>
 5   0  0.1522273E-07  0.3943212E+04  0.7818609E-02  0.8016101E-01
        1   -1    0    0  501    0  0.00000000000E+00  0.00000000000E+00  0.25256868697E+04  0.25256868697E+04  0.50400001928E-02 0. -1.
       -1   -1    0    0    0  501  0.00000000000E+00  0.00000000000E+00 -0.15390787435E+04  0.15390787435E+04  0.50400001928E-02 0.  1.
    10030    2    1    2    0    0  0.00000000000E+00  0.00000000000E+00  0.98660812617E+03  0.40647656132E+04  0.39432123827E+04 0.  0.
        4    1    3    3  502    0  0.96994561549E+03  0.21154356588E+03  0.22492470474E+04  0.24585888372E+04  0.12699999809E+01 0. -1.
       -4    1    3    3    0  502 -0.96994561549E+03 -0.21154356588E+03 -0.12626389212E+04  0.16061767759E+04  0.12699999809E+01 0.  1.
</event>
<event>
 5   0  0.4758908E-07  0.3714226E+04  0.7818609E-02  0.8064816E-01
        2   -1    0    0  501    0  0.00000000000E+00  0.00000000000E+00  0.17439086596E+04  0.17439086596E+04  0.25500000920E-02 0.  1.
       -2   -1    0    0    0  501  0.00000000000E+00  0.00000000000E+00 -0.19776663247E+04  0.19776663247E+04  0.25500000920E-02 0. -1.
    10030    2    1    2    0    0  0.00000000000E+00  0.00000000000E+00 -0.23375766510E+03  0.37215749843E+04  0.37142263956E+04 0.  0.
        2    1    3    3  502    0  0.82962529228E+03 -0.19162677113E+03 -0.17705594215E+04  0.19646576318E+04  0.25500000920E-02 0. -1.
       -2    1    3    3    0  502 -0.82962529228E+03  0.19162677113E+03  0.15368017564E+04  0.17569173525E+04  0.25500000920E-02 0.  1.
</event>
<event>
 5   0  0.4687817E-07  0.2996292E+04  0.7818609E-02  0.8244791E-01
        2   -1    0    0  501    0  0.00000000000E+00  0.00000000000E+00  0.17787984936E+04  0.17787984936E+04  0.25500000920E-02 0. -1.
       -2   -1    0    0    0  501  0.00000000000E+00  0.00000000000E+00 -0.12617735839E+04  0.12617735839E+04  0.25500000920E-02 0.  1.
    10030    2    1    2    0    0  0.00000000000E+00  0.00000000000E+00  0.51702490967E+03  0.30405720775E+04  0.29962916749E+04 0.  0.
        4    1    3    3  502    0  0.38481706895E+03  0.10895679133E+04  0.12261221116E+04  0.16848203049E+04  0.12699999809E+01 0. -1.
       -4    1    3    3    0  502 -0.38481706895E+03 -0.10895679133E+04 -0.70909720195E+03  0.13557517726E+04  0.12699999809E+01 0.  1.
</event>
<event>
 5   0  0.4857514E-07  0.3698155E+04  0.7818609E-02  0.8068371E-01
        2   -1    0    0  501    0  0.00000000000E+00  0.00000000000E+00  0.23922614715E+04  0.23922614715E+04  0.25500000920E-02 0.  1.
       -2   -1    0    0    0  501  0.00000000000E+00  0.00000000000E+00 -0.14292285020E+04  0.14292285020E+04  0.25500000920E-02 0. -1.
    10030    2    1    2    0    0  0.00000000000E+00  0.00000000000E+00  0.96303296951E+03  0.38214899735E+04  0.36981553668E+04 0.  0.
        5    1    3    3  502    0 -0.97037804805E+03  0.15184119594E+04  0.53133573180E+02  0.18027905317E+04  0.46999998093E+01 0. -1.
       -5    1    3    3    0  502  0.97037804805E+03 -0.15184119594E+04  0.90989939633E+03  0.20186994418E+04  0.46999998093E+01 0.  1.
</event>
<event>
 5   0  0.1496000E-07  0.3150622E+04  0.7818609E-02  0.8201981E-01
        1   -1    0    0  501    0  0.00000000000E+00  0.00000000000E+00  0.20950117522E+04  0.20950117522E+04  0.50400001928E-02 0. -1.
       -1   -1    0    0    0  501  0.00000000000E+00  0.00000000000E+00 -0.11845299790E+04  0.11845299790E+04  0.50400001928E-02 0.  1.
    10030    2    1    2    0    0  0.00000000000E+00  0.00000000000E+00  0.91048177323E+03  0.32795417312E+04  0.31506216700E+04 0.  0.
        2    1    3    3  502    0  0.12702627044E+04 -0.93124266716E+03  0.42536119289E+03  0.16314755247E+04  0.25500000920E-02 0. -1.
       -2    1    3    3    0  502 -0.12702627044E+04  0.93124266716E+03  0.48512058034E+03  0.16480662065E+04  0.25500000920E-02 0.  1.
</event>
<event>
 5   0  0.4857514E-07  0.3580161E+04  0.7818609E-02  0.8095051E-01
        2   -1    0    0  501    0  0.00000000000E+00  0.00000000000E+00  0.26563844462E+04  0.26563844462E+04  0.25500000920E-02 0. -1.
       -2   -1    0    0    0  501  0.00000000000E+00  0.00000000000E+00 -0.12062969737E+04  0.12062969737E+04  0.25500000920E-02 0.  1.
    10030    2    1    2    0    0  0.00000000000E+00  0.00000000000E+00  0.14500874725E+04  0.38626814198E+04  0.35801611798E+04 0.  0.
        5    1    3    3  502    0  0.45124401467E+03  0.35635524698E+03  0.25540334898E+04  0.26179609203E+04  0.46999998093E+01 0. -1.
       -5    1    3    3    0  502 -0.45124401467E+03 -0.35635524698E+03 -0.11039460174E+04  0.12447204996E+04  0.46999998093E+01 0.  1.
</event>
<event>
 5   0  0.1496000E-07  0.3592320E+04  0.7818609E-02  0.8092253E-01
       -3   -1    0    0    0  501  0.00000000000E+00  0.00000000000E+00  0.18094266120E+04  0.18094266148E+04  0.10100000352E+00 0. -1.
        3   -1    0    0  501    0  0.00000000000E+00  0.00000000000E+00 -0.17829904386E+04  0.17829904414E+04  0.10100000352E+00 0.  1.
    10030    2    1    2    0    0  0.00000000000E+00  0.00000000000E+00  0.26436173424E+02  0.35924170562E+04  0.35923197846E+04 0.  0.
        1    1    3    3  502    0 -0.10234782062E+04  0.35182549914E+03  0.14467496781E+04  0.18067577180E+04  0.50400001928E-02 0. -1.
       -1    1    3    3    0  502  0.10234782062E+04 -0.35182549914E+03 -0.14203135047E+04  0.17856593382E+04  0.50400001928E-02 0.  1.
</event>
<event>
 5   0  0.1496000E-07  0.3913554E+04  0.7818609E-02  0.8022216E-01
       -1   -1    0    0    0  501  0.00000000000E+00  0.00000000000E+00  0.27508236578E+04  0.27508236578E+04  0.50400001928E-02 0. -1.
        1   -1    0    0  501    0  0.00000000000E+00  0.00000000000E+00 -0.13919380813E+04  0.13919380814E+04  0.50400001928E-02 0.  1.
    10030    2    1    2    0    0  0.00000000000E+00  0.00000000000E+00  0.13588855764E+04  0.41427617391E+04  0.39135539881E+04 0.  0.
        2    1    3    3  502    0 -0.11514253531E+04 -0.61541303834E+03 -0.86347639139E+03  0.15652811345E+04  0.25500000920E-02 0.  1.
       -2    1    3    3    0  502  0.11514253531E+04  0.61541303834E+03  0.22223619678E+04  0.25774806047E+04  0.25500000920E-02 0. -1.
</event>
<event>
 5   0  0.4824268E-07  0.3618939E+04  0.7818609E-02  0.8086167E-01
       -2   -1    0    0    0  501  0.00000000000E+00  0.00000000000E+00  0.19678635622E+04  0.19678635622E+04  0.25500000920E-02 0.  1.
        2   -1    0    0  501    0  0.00000000000E+00  0.00000000000E+00 -0.16638241971E+04  0.16638241971E+04  0.25500000920E-02 0. -1.
    10030    2    1    2    0    0  0.00000000000E+00  0.00000000000E+00  0.30403936506E+03  0.36316877593E+04  0.36189385247E+04 0.  0.
        1    1    3    3  502    0 -0.88290605635E+02 -0.17888524595E+04  0.41059125971E+03  0.18374910981E+04  0.50400001928E-02 0.  1.
       -1    1    3    3    0  502  0.88290605635E+02  0.17888524595E+04 -0.10655189465E+03  0.17941966612E+04  0.50400001928E-02 0. -1.
</event>
<event>
 5   0  0.1522273E-07  0.3712908E+04  0.7818609E-02  0.8065107E-01
       -1   -1    0    0    0  501  0.00000000000E+00  0.00000000000E+00  0.13968931121E+04  0.13968931121E+04  0.50400001928E-02 0. -1.
        1   -1    0    0  501    0  0.00000000000E+00  0.00000000000E+00 -0.24672051624E+04  0.24672051624E+04  0.50400001928E-02 0.  1.
    10030    2    1    2    0    0  0.00000000000E+00  0.00000000000E+00 -0.10703120503E+04  0.38640982745E+04  0.37129082388E+04 0.  0.
        4    1    3    3  502    0  0.97997118920E+03  0.74157645722E+03 -0.19832690186E+04  0.23331602573E+04  0.12699999809E+01 0.  1.
       -4    1    3    3    0  502 -0.97997118920E+03 -0.74157645722E+03  0.91295696824E+03  0.15309380171E+04  0.12699999809E+01 0. -1.
</event>
<event>
 5   0  0.4793557E-07  0.3702664E+04  0.7818609E-02  0.8067372E-01
       -2   -1    0    0    0  501  0.00000000000E+00  0.00000000000E+00  0.23034190659E+04  0.23034190659E+04  0.25500000920E-02 0. -1.
        2   -1    0    0  501    0  0.00000000000E+00  0.00000000000E+00 -0.14879749509E+04  0.14879749509E+04  0.25500000920E-02 0.  1.
    10030    2    1    2    0    0  0.00000000000E+00  0.00000000000E+00  0.81544411500E+03  0.37913940167E+04  0.37026638364E+04 0.  0.
        3    1    3    3  502    0  0.18320327070E+03  0.10873722246E+04  0.19304661952E+04  0.22232052389E+04  0.10100000352E+00 0. -1.
       -3    1    3    3    0  502 -0.18320327070E+03 -0.10873722246E+04 -0.11150220802E+04  0.15681887778E+04  0.10100000352E+00 0.  1.
</event>
<event>
 5   0  0.1496000E-07  0.3706360E+04  0.7818609E-02  0.8066554E-01
        1   -1    0    0  501    0  0.00000000000E+00  0.00000000000E+00  0.21163808026E+04  0.21163808026E+04  0.50400001928E-02 0. -1.
       -1   -1    0    0    0  501  0.00000000000E+00  0.00000000000E+00 -0.16227117275E+04  0.16227117275E+04  0.50400001928E-02 0.  1.
    10030    2    1    2    0    0  0.00000000000E+00  0.00000000000E+00  0.49366907511E+03  0.37390925301E+04  0.37063599114E+04 0.  0.
        5    1    3    3  502    0 -0.13903559146E+04  0.43327934532E+03 -0.90933795879E+03  0.17168978343E+04  0.46999998093E+01 0.  1.
       -5    1    3    3    0  502  0.13903559146E+04 -0.43327934532E+03  0.14030070339E+04  0.20221946957E+04  0.46999998093E+01 0. -1.
</event>
<event>
 5   0  0.1496000E-07  0.3718485E+04  0.7818609E-02  0.8063878E-01
       -1   -1    0    0    0  501  0.00000000000E+00  0.00000000000E+00  0.19777696579E+04  0.19777696579E+04  0.50400001928E-02 0. -1.
        1   -1    0    0  501    0  0.00000000000E+00  0.00000000000E+00 -0.17478187035E+04  0.17478187035E+04  0.50400001928E-02 0.  1.
    10030    2    1    2    0    0  0.00000000000E+00  0.00000000000E+00  0.22995095436E+03  0.37255883614E+04  0.37184850675E+04 0.  0.
        3    1    3    3  502    0 -0.39227092620E+03  0.11124645923E+04  0.15548459679E+04  0.19516659404E+04  0.10100000352E+00 0. -1.
       -3    1    3    3    0  502  0.39227092620E+03 -0.11124645923E+04 -0.13248950136E+04  0.17739224210E+04  0.10100000352E+00 0.  1.
</event>
<event>
 5   0  0.4758908E-07  0.3720323E+04  0.7818609E-02  0.8063473E-01
        2   -1    0    0  501    0  0.00000000000E+00  0.00000000000E+00  0.23232494383E+04  0.23232494383E+04  0.25500000920E-02 0. -1.
       -2   -1    0    0    0  501  0.00000000000E+00  0.00000000000E+00 -0.14893795948E+04  0.14893795948E+04  0.25500000920E-02 0.  1.
    10030    2    1    2    0    0  0.00000000000E+00  0.00000000000E+00  0.83386984352E+03  0.38126290330E+04  0.37203227317E+04 0.  0.
        2    1    3    3  502    0 -0.15201109241E+04 -0.97707827186E+03 -0.35355490996E+02  0.18073929240E+04  0.25500000920E-02 0.  1.
       -2    1    3    3    0  502  0.15201109241E+04  0.97707827186E+03  0.86922533451E+03  0.20052361091E+04  0.25500000920E-02 0. -1.
</event>
<event>
 5   0  0.4857514E-07  0.4083055E+04  0.7818609E-02  0.7987998E-01
       -2   -1    0    0    0  501  0.00000000000E+00  0.00000000000E+00  0.18117107087E+04  0.18117107087E+04  0.25500000920E-02 0.  1.
        2   -1    0    0  501    0  0.00000000000E+00  0.00000000000E+00 -0.23004965164E+04  0.23004965164E+04  0.25500000920E-02 0. -1.
    10030    2    1    2    0    0  0.00000000000E+00  0.00000000000E+00 -0.48878580763E+03  0.41122072251E+04  0.40830548241E+04 0.  0.
        5    1    3    3  502    0  0.20148086458E+04 -0.31920101887E+03 -0.32539672013E+03  0.20657319006E+04  0.46999998093E+01 0.  1.
       -5    1    3    3    0  502 -0.20148086458E+04  0.31920101887E+03 -0.16338908750E+03  0.20464753245E+04  0.46999998093E+01 0. -1.
</event>
<event>
 5   0  0.1522273E-07  0.3690663E+04  0.7818609E-02  0.8070034E-01
        1   -1    0    0  501    0  0.00000000000E+00  0.00000000000E+00  0.28148231752E+04  0.28148231752E+04  0.50400001928E-02 0.  1.
       -1   -1    0    0    0  501  0.00000000000E+00  0.00000000000E+00 -0.12097555051E+04  0.12097555051E+04  0.50400001928E-02 0. -1.
    10030    2    1    2    0    0  0.00000000000E+00  0.00000000000E+00  0.16050676701E+04  0.40245786803E+04  0.36906627221E+04 0.  0.
        4    1    3    3  502    0  0.60736831833E+03  0.10198979959E+04  0.23432176609E+04  0.26267391982E+04  0.12699999809E+01 0.  1.
       -4    1    3    3    0  502 -0.60736831833E+03 -0.10198979959E+04 -0.73814999078E+03  0.13978394822E+04  0.12699999809E+01 0. -1.
</event>
<event>
 5   0  0.4687817E-07  0.3721825E+04  0.7818609E-02  0.8063142E-01
       -2   -1    0    0    0  501  0.00000000000E+00  0.00000000000E+00  0.25747220843E+04  0.25747220843E+04  0.25500000920E-02 0. -1.
        2   -1    0    0  501    0  0.00000000000E+00  0.00000000000E+00 -0.13449974410E+04  0.13449974410E+04  0.25500000920E-02 0.  1.
    10030    2    1    2    0    0  0.00000000000E+00  0.00000000000E+00  0.12297246433E+04  0.39197195253E+04  0.37218246142E+04 0.  0.
        4    1    3    3  502    0  0.86013694352E+03  0.44649936250E+03  0.22879788583E+04  0.24847627877E+04  0.12699999809E+01 0. -1.
       -4    1    3    3    0  502 -0.86013694352E+03 -0.44649936250E+03 -0.10582542150E+04  0.14349567376E+04  0.12699999809E+01 0.  1.
</event>
<event>
 5   0  0.1496000E-07  0.3666645E+04  0.7818609E-02  0.8075394E-01
        1   -1    0    0  501    0  0.00000000000E+00  0.00000000000E+00  0.19078629073E+04  0.19078629073E+04  0.50400001928E-02 0.  1.
       -1   -1    0    0    0  501  0.00000000000E+00  0.00000000000E+00 -0.17616943978E+04  0.17616943978E+04  0.50400001928E-02 0. -1.
    10030    2    1    2    0    0  0.00000000000E+00  0.00000000000E+00  0.14616850955E+03  0.36695573051E+04  0.36666450036E+04 0.  0.
        5    1    3    3  502    0 -0.40157416211E+02  0.10363404379E+04 -0.14398820785E+04  0.17745130631E+04  0.46999998093E+01 0. -1.
       -5    1    3    3    0  502  0.40157416211E+02 -0.10363404379E+04  0.15860505881E+04  0.18950442420E+04  0.46999998093E+01 0.  1.
</event>
<event>
 5   0  0.4758908E-07  0.3908830E+04  0.7818609E-02  0.8023195E-01
       -2   -1    0    0    0  501  0.00000000000E+00  0.00000000000E+00  0.15607743882E+04  0.15607743882E+04  0.25500000920E-02 0. -1.
        2   -1    0    0  501    0  0.00000000000E+00  0.00000000000E+00 -0.24473349054E+04  0.24473349055E+04  0.25500000920E-02 0.  1.
    10030    2    1    2    0    0  0.00000000000E+00  0.00000000000E+00 -0.88656051721E+03  0.40081092937E+04  0.39088298197E+04 0.  0.
        2    1    3    3  502    0 -0.33827347593E+03  0.14827285087E+04  0.81542539157E+03  0.17256394015E+04  0.25500000920E-02 0. -1.
       -2    1    3    3    0  502  0.33827347593E+03 -0.14827285087E+04 -0.17019859088E+04  0.22824698922E+04  0.25500000920E-02 0.  1.
</event>
<event>
 5   0  0.4793557E-07  0.3625938E+04  0.7818609E-02  0.8084576E-01
       -2   -1    0    0    0  501  0.00000000000E+00  0.00000000000E+00  0.21692027766E+04  0.21692027766E+04  0.25500000920E-02 0. -1.
        2   -1    0    0  501    0  0.00000000000E+00  0.00000000000E+00 -0.15152371557E+04  0.15152371558E+04  0.25500000920E-02 0.  1.
    10030    2    1    2    0    0  0.00000000000E+00  0.00000000000E+00  0.65396562083E+03  0.36844399323E+04  0.36259380278E+04 0.  0.
        3    1    3    3  502    0 -0.71707366755E+03  0.15919571186E+04  0.82305465759E+03  0.19302696941E+04  0.10100000352E+00 0. -1.
       -3    1    3    3    0  502  0.71707366755E+03 -0.15919571186E+04 -0.16908903676E+03  0.17541702383E+04  0.10100000352E+00 0.  1.
</event>
<event>
 5   0  0.1522273E-07  0.3546664E+04  0.7818609E-02  0.8102819E-01
        1   -1    0    0  501    0  0.00000000000E+00  0.00000000000E+00  0.11203757521E+04  0.11203757521E+04  0.50400001928E-02 0.  1.
       -1   -1    0    0    0  501  0.00000000000E+00  0.00000000000E+00 -0.28068317129E+04  0.28068317130E+04  0.50400001928E-02 0. -1.
    10030    2    1    2    0    0  0.00000000000E+00  0.00000000000E+00 -0.16864559609E+04  0.39272074650E+04  0.35466638924E+04 0.  0.
        4    1    3    3  502    0 -0.17238066075E+04  0.87685725263E+02 -0.39275221408E+03  0.17701564680E+04  0.12699999809E+01 0.  1.
       -4    1    3    3    0  502  0.17238066075E+04 -0.87685725263E+02 -0.12937037468E+04  0.21570509971E+04  0.12699999809E+01 0. -1.
</event>
<event>
 5   0  0.1496000E-07  0.3695094E+04  0.7818609E-02  0.8069050E-01
       -1   -1    0    0    0  501  0.00000000000E+00  0.00000000000E+00  0.17072956041E+04  0.17072956041E+04  0.50400001928E-02 0. -1.
        1   -1    0    0  501    0  0.00000000000E+00  0.00000000000E+00 -0.19993193357E+04  0.19993193357E+04  0.50400001928E-02 0.  1.
    10030    2    1    2    0    0  0.00000000000E+00  0.00000000000E+00 -0.29202373162E+03  0.37066149397E+04  0.36950935647E+04 0.  0.
        5    1    3    3  502    0  0.99355152469E+03  0.10674517737E+04 -0.12839249577E+04  0.19429573614E+04  0.46999998093E+01 0.  1.
       -5    1    3    3    0  502 -0.99355152469E+03 -0.10674517737E+04  0.99190122606E+03  0.17636575783E+04  0.46999998093E+01 0. -1.
</event>
<event>
 5   0  0.4793557E-07  0.3688969E+04  0.7818609E-02  0.8070411E-01
        2   -1    0    0  501    0  0.00000000000E+00  0.00000000000E+00  0.17785548098E+04  0.17785548098E+04  0.25500000920E-02 0. -1.
       -2   -1    0    0    0  501  0.00000000000E+00  0.00000000000E+00 -0.19128580292E+04  0.19128580292E+04  0.25500000920E-02 0.  1.
    10030    2    1    2    0    0  0.00000000000E+00  0.00000000000E+00 -0.13430321938E+03  0.36914128390E+04  0.36889688794E+04 0.  0.
        3    1    3    3  502    0  0.57801430477E+03 -0.16387593349E+04  0.55171599703E+03  0.18231904031E+04  0.10100000352E+00 0. -1.
       -3    1    3    3    0  502 -0.57801430477E+03  0.16387593349E+04 -0.68601921641E+03  0.18682224359E+04  0.10100000352E+00 0.  1.
</event>
<event>
 5   0  0.4793557E-07  0.3739085E+04  0.7818609E-02  0.8059355E-01
       -2   -1    0    0    0  501  0.00000000000E+00  0.00000000000E+00  0.13444548915E+04  0.13444548915E+04  0.25500000920E-02 0.  1.
        2   -1    0    0  501    0  0.00000000000E+00  0.00000000000E+00 -0.25997075428E+04  0.25997075428E+04  0.25500000920E-02 0. -1.
    10030    2    1    2    0    0  0.00000000000E+00  0.00000000000E+00 -0.12552526512E+04  0.39441624343E+04  0.37390851942E+04 0.  0.
        3    1    3    3  502    0 -0.17363511907E+04  0.59391893495E+03 -0.25091990347E+03  0.18521922057E+04  0.10100000352E+00 0. -1.
       -3    1    3    3    0  502  0.17363511907E+04 -0.59391893495E+03 -0.10043327478E+04  0.20919702286E+04  0.10100000352E+00 0.  1.
</event>
<event>
 5   0  0.4758908E-07  0.3664810E+04  0.7818609E-02  0.8075805E-01
       -2   -1    0    0    0  501  0.00000000000E+00  0.00000000000E+00  0.17301653574E+04  0.17301653574E+04  0.25500000920E-02 0.  1.
        2   -1    0    0  501    0  0.00000000000E+00  0.00000000000E+00 -0.19406863987E+04  0.19406863987E+04  0.25500000920E-02 0. -1.
    10030    2    1    2    0    0  0.00000000000E+00  0.00000000000E+00 -0.21052104128E+03  0.36708517561E+04  0.36648101597E+04 0.  0.
        2    1    3    3  502    0  0.62773457069E+02  0.83836864218E+03 -0.17361048901E+04  0.19289537777E+04  0.25500000920E-02 0. -1.
       -2    1    3    3    0  502 -0.62773457069E+02 -0.83836864218E+03  0.15255838489E+04  0.17418979784E+04  0.25500000920E-02 0.  1.
</event>
<event>
 5   0  0.1496287E-07  0.3678070E+04  0.7818609E-02  0.8072839E-01
        1   -1    0    0  501    0  0.00000000000E+00  0.00000000000E+00  0.14928348207E+04  0.14928348207E+04  0.50400001928E-02 0. -1.
       -1   -1    0    0    0  501  0.00000000000E+00  0.00000000000E+00 -0.22655221728E+04  0.22655221728E+04  0.50400001928E-02 0.  1.
    10030    2    1    2    0    0  0.00000000000E+00  0.00000000000E+00 -0.77268735212E+03  0.37583569935E+04  0.36780703564E+04 0.  0.
        1    1    3    3  502    0  0.16314166921E+03 -0.36491426070E+03  0.14479089425E+04  0.15020712126E+04  0.50400001928E-02 0. -1.
       -1    1    3    3    0  502 -0.16314166921E+03  0.36491426070E+03 -0.22205962946E+04  0.22562857810E+04  0.50400001928E-02 0.  1.
</event>
<event>
 5   0  0.4687817E-07  0.3684464E+04  0.7818609E-02  0.8071414E-01
        2   -1    0    0  501    0  0.00000000000E+00  0.00000000000E+00  0.27056402522E+04  0.27056402522E+04  0.25500000920E-02 0.  1.
       -2   -1    0    0    0  501  0.00000000000E+00  0.00000000000E+00 -0.12543496254E+04  0.12543496254E+04  0.25500000920E-02 0. -1.
    10030    2    1    2    0    0  0.00000000000E+00  0.00000000000E+00  0.14512906268E+04  0.39599898776E+04  0.36844640516E+04 0.  0.
        4    1    3    3  502    0  0.59423659139E+02 -0.15146117430E+04  0.18509549652E+04  0.23924079501E+04  0.12699999809E+01 0.  1.
       -4    1    3    3    0  502 -0.59423659139E+02  0.15146117430E+04 -0.39966433846E+03  0.15675819276E+04  0.12699999809E+01 0. -1.
</event>
<event>
 5   0  0.4793557E-07  0.3703774E+04  0.7818609E-02  0.8067126E-01
       -2   -1    0    0    0  501  0.00000000000E+00  0.00000000000E+00  0.18626928017E+04  0.18626928017E+04  0.25500000920E-02 0.  1.
        2   -1    0    0  501    0  0.00000000000E+00  0.00000000000E+00 -0.18411441014E+04  0.18411441014E+04  0.25500000920E-02 0. -1.
    10030    2    1    2    0    0  0.00000000000E+00  0.00000000000E+00  0.21548700314E+02  0.37038369032E+04  0.37037742181E+04 0.  0.
        3    1    3    3  502    0 -0.14583449444E+04 -0.15847529375E+03  0.11411038177E+04  0.18584946404E+04  0.10100000352E+00 0.  1.
       -3    1    3    3    0  502  0.14583449444E+04  0.15847529375E+03 -0.11195551174E+04  0.18453422627E+04  0.10100000352E+00 0. -1.
</event>
<event>
 5   0  0.1496000E-07  0.3699765E+04  0.7818609E-02  0.8068014E-01
        1   -1    0    0  501    0  0.00000000000E+00  0.00000000000E+00  0.21622044801E+04  0.21622044802E+04  0.50400001928E-02 0. -1.
       -1   -1    0    0    0  501  0.00000000000E+00  0.00000000000E+00 -0.15826739877E+04  0.15826739877E+04  0.50400001928E-02 0.  1.
    10030    2    1    2    0    0  0.00000000000E+00  0.00000000000E+00  0.57953049248E+03  0.37448784678E+04  0.36997647421E+04 0.  0.
        2    1    3    3  502    0 -0.12916081893E+04 -0.30768180869E+03 -0.10140191739E+04  0.16706749220E+04  0.25500000920E-02 0.  1.
       -2    1    3    3    0  502  0.12916081893E+04  0.30768180869E+03  0.15935496664E+04  0.20742035458E+04  0.25500000920E-02 0. -1.
</event>
<event>
 5   0  0.1496287E-07  0.3719023E+04  0.7818609E-02  0.8063759E-01
       -1   -1    0    0    0  501  0.00000000000E+00  0.00000000000E+00  0.15292811184E+04  0.15292811184E+04  0.50400001928E-02 0. -1.
        1   -1    0    0  501    0  0.00000000000E+00  0.00000000000E+00 -0.22610507690E+04  0.22610507690E+04  0.50400001928E-02 0.  1.
    10030    2    1    2    0    0  0.00000000000E+00  0.00000000000E+00 -0.73176965060E+03  0.37903318875E+04  0.37190225861E+04 0.  0.
        1    1    3    3  502    0  0.11306695019E+04  0.12928393469E+04 -0.10922458906E+04  0.20353987779E+04  0.50400001928E-02 0.  1.
       -1    1    3    3    0  502 -0.11306695019E+04 -0.12928393469E+04  0.36047624002E+03  0.17549331096E+04  0.50400001928E-02 0. -1.
</event>
<event>
 5   0  0.4824268E-07  0.3595233E+04  0.7818609E-02  0.8091585E-01
        2   -1    0    0  501    0  0.00000000000E+00  0.00000000000E+00  0.31627679461E+04  0.31627679461E+04  0.25500000920E-02 0. -1.
       -2   -1    0    0    0  501  0.00000000000E+00  0.00000000000E+00 -0.10217076978E+04  0.10217076978E+04  0.25500000920E-02 0.  1.
    10030    2    1    2    0    0  0.00000000000E+00  0.00000000000E+00  0.21410602483E+04  0.41844756438E+04  0.35952325970E+04 0.  0.
        1    1    3    3  502    0  0.13519525733E+04  0.11323442304E+04  0.14761358914E+04  0.22997731164E+04  0.50400001928E-02 0. -1.
       -1    1    3    3    0  502 -0.13519525733E+04 -0.11323442304E+04  0.66492435687E+03  0.18847025275E+04  0.50400001928E-02 0.  1.
</event>
<event>
 5   0  0.1496000E-07  0.3697530E+04  0.7818609E-02  0.8068510E-01
       -1   -1    0    0    0  501  0.00000000000E+00  0.00000000000E+00  0.19003968397E+04  0.19003968397E+04  0.50400001928E-02 0. -1.
        1   -1    0    0  501    0  0.00000000000E+00  0.00000000000E+00 -0.17985354591E+04  0.17985354591E+04  0.50400001928E-02 0.  1.
    10030    2    1    2    0    0  0.00000000000E+00  0.00000000000E+00  0.10186138058E+03  0.36989322988E+04  0.36975295009E+04 0.  0.
        5    1    3    3  502    0  0.17488116998E+03 -0.11494465092E+04  0.14888689067E+04  0.18890641631E+04  0.46999998093E+01 0. -1.
       -5    1    3    3    0  502 -0.17488116998E+03  0.11494465092E+04 -0.13870075261E+04  0.18098681357E+04  0.46999998093E+01 0.  1.
</event>
<event>
 5   0  0.1496287E-07  0.3683523E+04  0.7818609E-02  0.8071623E-01
       -1   -1    0    0    0  501  0.00000000000E+00  0.00000000000E+00  0.29947858885E+04  0.29947858885E+04  0.50400001928E-02 0.  1.
        1   -1    0    0  501    0  0.00000000000E+00  0.00000000000E+00 -0.11326635779E+04  0.11326635779E+04  0.50400001928E-02 0. -1.
    10030    2    1    2    0    0  0.00000000000E+00  0.00000000000E+00  0.18621223106E+04  0.41274494665E+04  0.36835227159E+04 0.  0.
        1    1    3    3  502    0  0.13939333561E+04  0.10560300039E+04  0.15784788425E+04  0.23558109064E+04  0.50400001928E-02 0.  1.
       -1    1    3    3    0  502 -0.13939333561E+04 -0.10560300039E+04  0.28364346812E+03  0.17716385601E+04  0.50400001928E-02 0. -1.
</event>
<event>
 5   0  0.4793557E-07  0.3370650E+04  0.7818609E-02  0.8145148E-01
        2   -1    0    0  501    0  0.00000000000E+00  0.00000000000E+00  0.28374862649E+04  0.28374862649E+04  0.25500000920E-02 0. -1.
       -2   -1    0    0    0  501  0.00000000000E+00  0.00000000000E+00 -0.10009988678E+04  0.10009988678E+04  0.25500000920E-02 0.  1.
    10030    2    1    2    0    0  0.00000000000E+00  0.00000000000E+00  0.18364873971E+04  0.38384851327E+04  0.33706501085E+04 0.  0.
        3    1    3    3  502    0  0.87092157169E+03  0.13307618026E+04  0.28327986972E+03  0.16154500469E+04  0.10100000352E+00 0.  1.
       -3    1    3    3    0  502 -0.87092157169E+03 -0.13307618026E+04  0.15532075274E+04  0.22230350858E+04  0.10100000352E+00 0. -1.
</event>
<event>
 5   0  0.1496287E-07  0.3688603E+04  0.7818609E-02  0.8070492E-01
        1   -1    0    0  501    0  0.00000000000E+00  0.00000000000E+00  0.19876459108E+04  0.19876459108E+04  0.50400001928E-02 0. -1.
       -1   -1    0    0    0  501  0.00000000000E+00  0.00000000000E+00 -0.17112949443E+04  0.17112949443E+04  0.50400001928E-02 0.  1.
    10030    2    1    2    0    0  0.00000000000E+00  0.00000000000E+00  0.27635096648E+03  0.36989408551E+04  0.36886032035E+04 0.  0.
        1    1    3    3  502    0  0.16216285716E+03 -0.37188157976E+03 -0.16659931052E+04  0.17146794826E+04  0.50400001928E-02 0.  1.
       -1    1    3    3    0  502 -0.16216285716E+03  0.37188157976E+03  0.19423440717E+04  0.19842613725E+04  0.50400001928E-02 0. -1.
</event>
<event>
 5   0  0.1496287E-07  0.3715572E+04  0.7818609E-02  0.8064520E-01
       -1   -1    0    0    0  501  0.00000000000E+00  0.00000000000E+00  0.13293431543E+04  0.13293431543E+04  0.50400001928E-02 0.  1.
        1   -1    0    0  501    0  0.00000000000E+00  0.00000000000E+00 -0.25962962643E+04  0.25962962643E+04  0.50400001928E-02 0. -1.
    10030    2    1    2    0    0  0.00000000000E+00  0.00000000000E+00 -0.12669531100E+04  0.39256394186E+04  0.37155719159E+04 0.  0.
        1    1    3    3  502    0 -0.64741624030E+03  0.15890049527E+04 -0.13859832628E+04  0.22056822374E+04  0.50400001928E-02 0. -1.
       -1    1    3    3    0  502  0.64741624030E+03 -0.15890049527E+04  0.11903015276E+03  0.17199571812E+04  0.50400001928E-02 0.  1.
</event>
<event>
 5   0  0.1496000E-07  0.3698802E+04  0.7818609E-02  0.8068227E-01
        1   -1    0    0  501    0  0.00000000000E+00  0.00000000000E+00  0.14395486667E+04  0.14395486667E+04  0.50400001928E-02 0.  1.
       -1   -1    0    0    0  501  0.00000000000E+00  0.00000000000E+00 -0.23759417977E+04  0.23759417977E+04  0.50400001928E-02 0. -1.
    10030    2    1    2    0    0  0.00000000000E+00  0.00000000000E+00 -0.93639313103E+03  0.38154904644E+04  0.36988018855E+04 0.  0.
        2    1    3    3  502    0  0.14668609006E+02  0.18014227699E+04 -0.36737422748E+02  0.18018570426E+04  0.25500000920E-02 0.  1.
       -2    1    3    3    0  502 -0.14668609006E+02 -0.18014227699E+04 -0.89965570828E+03  0.20136334218E+04  0.25500000920E-02 0. -1.
</event>
<event>
 5   0  0.4824268E-07  0.3681245E+04  0.7818609E-02  0.8072131E-01
       -2   -1    0    0    0  501  0.00000000000E+00  0.00000000000E+00  0.21596489735E+04  0.21596489735E+04  0.25500000920E-02 0.  1.
        2   -1    0    0  501    0  0.00000000000E+00  0.00000000000E+00 -0.15687227298E+04  0.15687227298E+04  0.25500000920E-02 0. -1.
    10030    2    1    2    0    0  0.00000000000E+00  0.00000000000E+00  0.59092624368E+03  0.37283717034E+04  0.36812445902E+04 0.  0.
        1    1    3    3  502    0  0.34641157647E+03 -0.15806992949E+04  0.11837771531E+04  0.20049787005E+04  0.50400001928E-02 0.  1.
       -1    1    3    3    0  502 -0.34641157647E+03  0.15806992949E+04 -0.59285090946E+03  0.17233930028E+04  0.50400001928E-02 0. -1.
</event>
<event>
 5   0  0.4793557E-07  0.3710099E+04  0.7818609E-02  0.8065727E-01
       -2   -1    0    0    0  501  0.00000000000E+00  0.00000000000E+00  0.18504038808E+04  0.18504038808E+04  0.25500000920E-02 0.  1.
        2   -1    0    0  501    0  0.00000000000E+00  0.00000000000E+00 -0.18597066656E+04  0.18597066656E+04  0.25500000920E-02 0. -1.
    10030    2    1    2    0    0  0.00000000000E+00  0.00000000000E+00 -0.93027847949E+01  0.37101105464E+04  0.37100988834E+04 0.  0.
        3    1    3    3  502    0 -0.81037156363E+03  0.11468073846E+03  0.16600924624E+04  0.18508810704E+04  0.10100000352E+00 0.  1.
       -3    1    3    3    0  502  0.81037156363E+03 -0.11468073846E+03 -0.16693952472E+04  0.18592294760E+04  0.10100000352E+00 0. -1.
</event>
<event>
 5   0  0.4758908E-07  0.3710249E+04  0.7818609E-02  0.8065694E-01
        2   -1    0    0  501    0  0.00000000000E+00  0.00000000000E+00  0.21729655879E+04  0.21729655879E+04  0.25500000920E-02 0. -1.
       -2   -1    0    0    0  501  0.00000000000E+00  0.00000000000E+00 -0.15837745361E+04  0.15837745361E+04  0.25500000920E-02 0.  1.
    10030    2    1    2    0    0  0.00000000000E+00  0.00000000000E+00  0.58919105178E+03  0.37567401239E+04  0.37102493533E+04 0.  0.
        2    1    3    3  502    0 -0.50154225231E+03  0.12317584126E+04 -0.10149449321E+04  0.16729873380E+04  0.25500000920E-02 0.  1.
       -2    1    3    3    0  502  0.50154225231E+03 -0.12317584126E+04  0.16041359839E+04  0.20837527859E+04  0.25500000920E-02 0. -1.
</event>
<event>
 5   0  0.4687817E-07  0.3688445E+04  0.7818609E-02  0.8070527E-01
        2   -1    0    0  501    0  0.00000000000E+00  0.00000000000E+00  0.21775848956E+04  0.21775848956E+04  0.25500000920E-02 0.  1.
       -2   -1    0    0    0  501  0.00000000000E+00  0.00000000000E+00 -0.15618938885E+04  0.15618938885E+04  0.25500000920E-02 0. -1.
    10030    2    1    2    0    0  0.00000000000E+00  0.00000000000E+00  0.61569100715E+03  0.37394787842E+04  0.36884449516E+04 0.  0.
        4    1    3    3  502    0  0.26014275909E+03 -0.17572491559E+04  0.81023796054E+03  0.19524564058E+04  0.12699999809E+01 0.  1.
       -4    1    3    3    0  502 -0.26014275909E+03  0.17572491559E+04 -0.19454695340E+03  0.17870223784E+04  0.12699999809E+01 0. -1.
</event>
<event>
 5   0  0.4793557E-07  0.3095926E+04  0.7818609E-02  0.8216857E-01
       -2   -1    0    0    0  501  0.00000000000E+00  0.00000000000E+00  0.24311085255E+04  0.24311085255E+04  0.25500000920E-02 0.  1.
        2   -1    0    0  501    0  0.00000000000E+00  0.00000000000E+00 -0.98563668709E+03  0.98563668709E+03  0.25500000920E-02 0. -1.
    10030    2    1    2    0    0  0.00000000000E+00  0.00000000000E+00  0.14454718384E+04  0.34167452126E+04  0.30959261961E+04 0.  0.
        3    1    3    3  502    0  0.77827465444E+03  0.99936163027E+03  0.17047490691E+04  0.21238183784E+04  0.10100000352E+00 0.  1.
       -3    1    3    3    0  502 -0.77827465444E+03 -0.99936163027E+03 -0.25927723073E+03  0.12929268341E+04  0.10100000352E+00 0. -1.
</event>
<event>
 5   0  0.1496000E-07  0.3670008E+04  0.7818609E-02  0.8074641E-01
        1   -1    0    0  501    0  0.00000000000E+00  0.00000000000E+00  0.27239385449E+04  0.27239385449E+04  0.50400001928E-02 0.  1.
       -1   -1    0    0    0  501  0.00000000000E+00  0.00000000000E+00 -0.12361658677E+04  0.12361658677E+04  0.50400001928E-02 0. -1.
    10030    2    1    2    0    0  0.00000000000E+00  0.00000000000E+00  0.14877726772E+04  0.39601044127E+04  0.36700080954E+04 0.  0.
        3    1    3    3  502    0 -0.10078379515E+03 -0.26648455194E+03 -0.12121544994E+04  0.12451867050E+04  0.10100000352E+00 0. -1.
       -3    1    3    3    0  502  0.10078379515E+03  0.26648455194E+03  0.26999271766E+04  0.27149177076E+04  0.10100000352E+00 0.  1.
</event>
<event>
 5   0  0.4687817E-07  0.3699417E+04  0.7818609E-02  0.8068091E-01
       -2   -1    0    0    0  501  0.00000000000E+00  0.00000000000E+00  0.12553559160E+04  0.12553559160E+04  0.25500000920E-02 0.  1.
        2   -1    0    0  501    0  0.00000000000E+00  0.00000000000E+00 -0.27254589594E+04  0.27254589594E+04  0.25500000920E-02 0. -1.
    10030    2    1    2    0    0  0.00000000000E+00  0.00000000000E+00 -0.14701030435E+04  0.39808148754E+04  0.36994167262E+04 0.  0.
        4    1    3    3  502    0 -0.51224422440E+03 -0.47558032921E+03 -0.25778742054E+04  0.26709563506E+04  0.12699999809E+01 0. -1.
       -4    1    3    3    0  502  0.51224422440E+03  0.47558032921E+03  0.11077711619E+04  0.13098585248E+04  0.12699999809E+01 0.  1.
</event>
<event>
 5   0  0.4758908E-07  0.3682307E+04  0.7818609E-02  0.8071894E-01
       -2   -1    0    0    0  501  0.00000000000E+00  0.00000000000E+00  0.14207692060E+04  0.14207692060E+04  0.25500000920E-02 0.  1.
        2   -1    0    0  501    0  0.00000000000E+00  0.00000000000E+00 -0.23859233824E+04  0.23859233824E+04  0.25500000920E-02 0. -1.
    10030    2    1    2    0    0  0.00000000000E+00  0.00000000000E+00 -0.96515417644E+03  0.38066925884E+04  0.36823071407E+04 0.  0.
        2    1    3    3  502    0 -0.12449067733E+04  0.10324753941E+04  0.42694193406E+03  0.16727455660E+04  0.25500000920E-02 0.  1.
       -2    1    3    3    0  502  0.12449067733E+04 -0.10324753941E+04 -0.13920961105E+04  0.21339470224E+04  0.25500000920E-02 0. -1.
</event>
<event>
 5   0  0.1496000E-07  0.3614548E+04  0.7818609E-02  0.8087167E-01
        1   -1    0    0  501    0  0.00000000000E+00  0.00000000000E+00  0.19576427387E+04  0.19576427387E+04  0.50400001928E-02 0. -1.
       -1   -1    0    0    0  501  0.00000000000E+00  0.00000000000E+00 -0.16684556542E+04  0.16684556542E+04  0.50400001928E-02 0.  1.
    10030    2    1    2    0    0  0.00000000000E+00  0.00000000000E+00  0.28918708454E+03  0.36260983929E+04  0.36145484345E+04 0.  0.
        2    1    3    3  502    0 -0.66161911256E+03 -0.10805865930E+04 -0.11482575312E+04  0.17099422776E+04  0.25500000920E-02 0.  1.
       -2    1    3    3    0  502  0.66161911256E+03  0.10805865930E+04  0.14374446157E+04  0.19161561153E+04  0.25500000920E-02 0. -1.
</event>
<event>
 5   0  0.1496000E-07  0.3090815E+04  0.7818609E-02  0.8218263E-01
       -1   -1    0    0    0  501  0.00000000000E+00  0.00000000000E+00  0.11007063218E+04  0.11007063218E+04  0.50400001928E-02 0. -1.
        1   -1    0    0  501    0  0.00000000000E+00  0.00000000000E+00 -0.21697740626E+04  0.21697740626E+04  0.50400001928E-02 0.  1.
    10030    2    1    2    0    0  0.00000000000E+00  0.00000000000E+00 -0.10690677408E+04  0.32704803844E+04  0.30908147972E+04 0.  0.
        2    1    3    3  502    0 -0.84508872819E+03 -0.12870112129E+04 -0.67535332108E+03  0.16812718189E+04  0.25500000920E-02 0. -1.
       -2    1    3    3    0  502  0.84508872819E+03  0.12870112129E+04 -0.39371441976E+03  0.15892085656E+04  0.25500000920E-02 0.  1.
</event>
<event>
 5   0  0.4824268E-07  0.3717960E+04  0.7818609E-02  0.8063993E-01
       -2   -1    0    0    0  501  0.00000000000E+00  0.00000000000E+00  0.14666696194E+04  0.14666696194E+04  0.25500000920E-02 0. -1.
        2   -1    0    0  501    0  0.00000000000E+00  0.00000000000E+00 -0.23562273285E+04  0.23562273285E+04  0.25500000920E-02 0.  1.
    10030    2    1    2    0    0  0.00000000000E+00  0.00000000000E+00 -0.88955770908E+03  0.38228969479E+04  0.37179602145E+04 0.  0.
        1    1    3    3  502    0 -0.63832960317E+03  0.14115415311E+04  0.61178994086E+03  0.16655933201E+04  0.50400001928E-02 0. -1.
       -1    1    3    3    0  502  0.63832960317E+03 -0.14115415311E+04 -0.15013476499E+04  0.21573036278E+04  0.50400001928E-02 0.  1.
</event>
<event>
 5   0  0.1496287E-07  0.3704058E+04  0.7818609E-02  0.8067063E-01
        1   -1    0    0  501    0  0.00000000000E+00  0.00000000000E+00  0.25434082509E+04  0.25434082509E+04  0.50400001928E-02 0. -1.
       -1   -1    0    0    0  501  0.00000000000E+00  0.00000000000E+00 -0.13485885438E+04  0.13485885438E+04  0.50400001928E-02 0.  1.
    10030    2    1    2    0    0  0.00000000000E+00  0.00000000000E+00  0.11948197071E+04  0.38919967947E+04  0.37040578988E+04 0.  0.
        1    1    3    3  502    0  0.80663193088E+03  0.23953453990E+03 -0.11361431362E+04  0.14138080116E+04  0.50400001928E-02 0.  1.
       -1    1    3    3    0  502 -0.80663193088E+03 -0.23953453990E+03  0.23309628433E+04  0.24781887831E+04  0.50400001928E-02 0. -1.
</event>
<event>
 5   0  0.1496000E-07  0.3702347E+04  0.7818609E-02  0.8067442E-01
       -1   -1    0    0    0  501  0.00000000000E+00  0.00000000000E+00  0.19970420340E+04  0.19970420340E+04  0.50400001928E-02 0.  1.
        1   -1    0    0  501    0  0.00000000000E+00  0.00000000000E+00 -0.17159593838E+04  0.17159593838E+04  0.50400001928E-02 0. -1.
    10030    2    1    2    0    0  0.00000000000E+00  0.00000000000E+00  0.28108265020E+03  0.37130014178E+04  0.37023468330E+04 0.  0.
        5    1    3    3  502    0  0.82594559657E+02  0.83941974215E+03  0.17931225221E+04  0.19816048632E+04  0.46999998093E+01 0.  1.
       -5    1    3    3    0  502 -0.82594559657E+02 -0.83941974215E+03 -0.15120398719E+04  0.17313965545E+04  0.46999998093E+01 0. -1.
</event>
<event>
 5   0  0.1496287E-07  0.3698818E+04  0.7818609E-02  0.8068224E-01
        1   -1    0    0  501    0  0.00000000000E+00  0.00000000000E+00  0.20048697972E+04  0.20048697972E+04  0.50400001928E-02 0. -1.
       -1   -1    0    0    0  501  0.00000000000E+00  0.00000000000E+00 -0.17060025933E+04  0.17060025934E+04  0.50400001928E-02 0.  1.
    10030    2    1    2    0    0  0.00000000000E+00  0.00000000000E+00  0.29886720383E+03  0.37108723905E+04  0.36988176886E+04 0.  0.
        1    1    3    3  502    0 -0.10898354061E+03  0.56546237347E+03 -0.16137604504E+04  0.17134316150E+04  0.50400001928E-02 0.  1.
       -1    1    3    3    0  502  0.10898354061E+03 -0.56546237347E+03  0.19126276543E+04  0.19974407755E+04  0.50400001928E-02 0. -1.
</event>
<event>
 5   0  0.1496000E-07  0.3680994E+04  0.7818609E-02  0.8072187E-01
       -1   -1    0    0    0  501  0.00000000000E+00  0.00000000000E+00  0.21763830511E+04  0.21763830511E+04  0.50400001928E-02 0.  1.
        1   -1    0    0  501    0  0.00000000000E+00  0.00000000000E+00 -0.15564490967E+04  0.15564490967E+04  0.50400001928E-02 0. -1.
    10030    2    1    2    0    0  0.00000000000E+00  0.00000000000E+00  0.61993395438E+03  0.37328321479E+04  0.36809941234E+04 0.  0.
        3    1    3    3  502    0 -0.13980075140E+04  0.90079041837E+03  0.11094738765E+04  0.19991950080E+04  0.10100000352E+00 0.  1.
       -3    1    3    3    0  502  0.13980075140E+04 -0.90079041837E+03 -0.48953992214E+03  0.17336371399E+04  0.10100000352E+00 0. -1.
</event>
<event>
 5   0  0.4793557E-07  0.3720809E+04  0.7818609E-02  0.8063366E-01
        2   -1    0    0  501    0  0.00000000000E+00  0.00000000000E+00  0.31164989928E+04  0.31164989928E+04  0.25500000920E-02 0.  1.
       -2   -1    0    0    0  501  0.00000000000E+00  0.00000000000E+00 -0.11105746618E+04  0.11105746618E+04  0.25500000920E-02 0. -1.
    10030    2    1    2    0    0  0.00000000000E+00  0.00000000000E+00  0.20059243310E+04  0.42270736546E+04  0.37208089523E+04 0.  0.
        3    1    3    3  502    0 -0.12180219166E+04 -0.14061048285E+04  0.98033691581E+03  0.21028001942E+04  0.10100000352E+00 0. -1.
       -3    1    3    3    0  502  0.12180219166E+04  0.14061048285E+04  0.10255874152E+04  0.21242734604E+04  0.10100000352E+00 0.  1.
</event>
<event>
 5   0  0.4824268E-07  0.3721084E+04  0.7818609E-02  0.8063305E-01
       -2   -1    0    0    0  501  0.00000000000E+00  0.00000000000E+00  0.14854445934E+04  0.14854445934E+04  0.25500000920E-02 0.  1.
        2   -1    0    0  501    0  0.00000000000E+00  0.00000000000E+00 -0.23303573103E+04  0.23303573103E+04  0.25500000920E-02 0. -1.
    10030    2    1    2    0    0  0.00000000000E+00  0.00000000000E+00 -0.84491271686E+03  0.38158019037E+04  0.37210840718E+04 0.  0.
        1    1    3    3  502    0 -0.10661310860E+04  0.58627320117E+03 -0.18658593855E+04  0.22275060058E+04  0.50400001928E-02 0. -1.
       -1    1    3    3    0  502  0.10661310860E+04 -0.58627320117E+03  0.10209466687E+04  0.15882958979E+04  0.50400001928E-02 0.  1.
</event>
<event>
 5   0  0.4687817E-07  0.3731723E+04  0.7818609E-02  0.8060968E-01
        2   -1    0    0  501    0  0.00000000000E+00  0.00000000000E+00  0.21448713233E+04  0.21448713233E+04  0.25500000920E-02 0. -1.
       -2   -1    0    0    0  501  0.00000000000E+00  0.00000000000E+00 -0.16231459508E+04  0.16231459508E+04  0.25500000920E-02 0.  1.
    10030    2    1    2    0    0  0.00000000000E+00  0.00000000000E+00  0.52172537250E+03  0.37680172740E+04  0.37317230354E+04 0.  0.
        4    1    3    3  502    0 -0.14361130518E+04 -0.11068318645E+04 -0.18380677865E+03  0.18224390302E+04  0.12699999809E+01 0. -1.
       -4    1    3    3    0  502  0.14361130518E+04  0.11068318645E+04  0.70553215116E+03  0.19455782439E+04  0.12699999809E+01 0.  1.
</event>
<event>
 5   0  0.1496000E-07  0.3717087E+04  0.7818609E-02  0.8064186E-01
        1   -1    0    0  501    0  0.00000000000E+00  0.00000000000E+00  0.13026654319E+04  0.13026654319E+04  0.50400001928E-02 0. -1.
       -1   -1    0    0    0  501  0.00000000000E+00  0.00000000000E+00 -0.26516272028E+04  0.26516272028E+04  0.50400001928E-02 0.  1.
    10030    2    1    2    0    0  0.00000000000E+00  0.00000000000E+00 -0.13489617710E+04  0.39542926347E+04  0.37170865448E+04 0.  0.
        2    1    3    3  502    0 -0.74673298615E+02 -0.72926427848E+03 -0.24913264575E+04  0.25969424343E+04  0.25500000920E-02 0.  1.
       -2    1    3    3    0  502  0.74673298615E+02  0.72926427848E+03  0.11423646865E+04  0.13573502004E+04  0.25500000920E-02 0. -1.
</event>
<event>
 5   0  0.4857514E-07  0.3648616E+04  0.7818609E-02  0.8079445E-01
        2   -1    0    0  501    0  0.00000000000E+00  0.00000000000E+00  0.27724854331E+04  0.27724854331E+04  0.25500000920E-02 0.  1.
       -2   -1    0    0    0  501  0.00000000000E+00  0.00000000000E+00 -0.12004032007E+04  0.12004032007E+04  0.25500000920E-02 0. -1.
    10030    2    1    2    0    0  0.00000000000E+00  0.00000000000E+00  0.15720822324E+04  0.39728886338E+04  0.36486163886E+04 0.  0.
        5    1    3    3  502    0  0.13119992826E+04 -0.12526845809E+04  0.99695018483E+03  0.20699015768E+04  0.46999998093E+01 0.  1.
       -5    1    3    3    0  502 -0.13119992826E+04  0.12526845809E+04  0.57513204759E+03  0.19029870569E+04  0.46999998093E+01 0. -1.
</event>
<event>
 5   0  0.4857514E-07  0.3325673E+04  0.7818609E-02  0.8156394E-01
        2   -1    0    0  501    0  0.00000000000E+00  0.00000000000E+00  0.26305424099E+04  0.26305424099E+04  0.25500000920E-02 0. -1.
       -2   -1    0    0    0  501  0.00000000000E+00  0.00000000000E+00 -0.10511234259E+04  0.10511234259E+04  0.25500000920E-02 0.  1.
    10030    2    1    2    0    0  0.00000000000E+00  0.00000000000E+00  0.15794189840E+04  0.36816658358E+04  0.33256727138E+04 0.  0.
        5    1    3    3  502    0  0.48249308400E+03 -0.10037698626E+04 -0.57723165869E+03  0.12544209784E+04  0.46999998093E+01 0.  1.
       -5    1    3    3    0  502 -0.48249308400E+03  0.10037698626E+04  0.21566506427E+04  0.24272448574E+04  0.46999998093E+01 0. -1.
</event>
<event>
 5   0  0.4793557E-07  0.3631116E+04  0.7818609E-02  0.8083401E-01
        2   -1    0    0  501    0  0.00000000000E+00  0.00000000000E+00  0.11383604857E+04  0.11383604857E+04  0.25500000920E-02 0.  1.
       -2   -1    0    0    0  501  0.00000000000E+00  0.00000000000E+00 -0.28956121147E+04  0.28956121147E+04  0.25500000920E-02 0. -1.
    10030    2    1    2    0    0  0.00000000000E+00  0.00000000000E+00 -0.17572516289E+04  0.40339726004E+04  0.36311157587E+04 0.  0.
        3    1    3    3  502    0  0.91822874289E+03 -0.33659660363E+03  0.82072507476E+03  0.12767266569E+04  0.10100000352E+00 0.  1.
       -3    1    3    3    0  502 -0.91822874289E+03  0.33659660363E+03 -0.25779767037E+04  0.27572459435E+04  0.10100000352E+00 0. -1.
</event>
<event>
 5   0  0.4857514E-07  0.3896866E+04  0.7818609E-02  0.8025681E-01
       -2   -1    0    0    0  501  0.00000000000E+00  0.00000000000E+00  0.15155031663E+04  0.15155031663E+04  0.25500000920E-02 0.  1.
        2   -1    0    0  501    0  0.00000000000E+00  0.00000000000E+00 -0.25050363860E+04  0.25050363860E+04  0.25500000920E-02 0. -1.
    10030    2    1    2    0    0  0.00000000000E+00  0.00000000000E+00 -0.98953321966E+03  0.40205395523E+04  0.38968657019E+04 0.  0.
        5    1    3    3  502    0 -0.77605572180E+03  0.17814833593E+04 -0.34732192743E+03  0.19739807633E+04  0.46999998093E+01 0.  1.
       -5    1    3    3    0  502  0.77605572180E+03 -0.17814833593E+04 -0.64221129223E+03  0.20465587890E+04  0.46999998093E+01 0. -1.
</event>
<event>
 5   0  0.4758908E-07  0.3743278E+04  0.7818609E-02  0.8058438E-01
        2   -1    0    0  501    0  0.00000000000E+00  0.00000000000E+00  0.16721068511E+04  0.16721068511E+04  0.25500000920E-02 0. -1.
       -2   -1    0    0    0  501  0.00000000000E+00  0.00000000000E+00 -0.20949811483E+04  0.20949811483E+04  0.25500000920E-02 0.  1.
    10030    2    1    2    0    0  0.00000000000E+00  0.00000000000E+00 -0.42287429724E+03  0.37670879994E+04  0.37432778850E+04 0.  0.
        2    1    3    3  502    0  0.68213668755E+03  0.15438539394E+04  0.60255686226E+03  0.17921691379E+04  0.25500000920E-02 0.  1.
       -2    1    3    3    0  502 -0.68213668755E+03 -0.15438539394E+04 -0.10254311595E+04  0.19749188615E+04  0.25500000920E-02 0. -1.
</event>
<event>
 5   0  0.4857514E-07  0.3671748E+04  0.7818609E-02  0.8074252E-01
        2   -1    0    0  501    0  0.00000000000E+00  0.00000000000E+00  0.22087491079E+04  0.22087491079E+04  0.25500000920E-02 0.  1.
       -2   -1    0    0    0  501  0.00000000000E+00  0.00000000000E+00 -0.15259467786E+04  0.15259467786E+04  0.25500000920E-02 0. -1.
    10030    2    1    2    0    0  0.00000000000E+00  0.00000000000E+00  0.68280232938E+03  0.37346958865E+04  0.36717481318E+04 0.  0.
        5    1    3    3  502    0  0.13426431715E+04 -0.57241662497E+03  0.14740719871E+04  0.20744304741E+04  0.46999998093E+01 0.  1.
       -5    1    3    3    0  502 -0.13426431715E+04  0.57241662497E+03 -0.79126965776E+03  0.16602654124E+04  0.46999998093E+01 0. -1.
</event>
<event>
 5   0  0.4758908E-07  0.3504007E+04  0.7818609E-02  0.8112841E-01
        2   -1    0    0  501    0  0.00000000000E+00  0.00000000000E+00  0.17896499560E+04  0.17896499560E+04  0.25500000920E-02 0.  1.
       -2   -1    0    0    0  501  0.00000000000E+00  0.00000000000E+00 -0.17151488211E+04  0.17151488211E+04  0.25500000920E-02 0. -1.
    10030    2    1    2    0    0  0.00000000000E+00  0.00000000000E+00  0.74501134863E+02  0.35047987771E+04  0.35040068563E+04 0.  0.
        2    1    3    3  502    0 -0.14859831749E+04 -0.23993737264E+02  0.96525026955E+03  0.17721257795E+04  0.25500000920E-02 0. -1.
       -2    1    3    3    0  502  0.14859831749E+04  0.23993737264E+02 -0.89074913468E+03  0.17326729976E+04  0.25500000920E-02 0.  1.
</event>
<event>
 5   0  0.4687817E-07  0.3676064E+04  0.7818609E-02  0.8073287E-01
        2   -1    0    0  501    0  0.00000000000E+00  0.00000000000E+00  0.25594711956E+04  0.25594711956E+04  0.25500000920E-02 0. -1.
       -2   -1    0    0    0  501  0.00000000000E+00  0.00000000000E+00 -0.13199449878E+04  0.13199449878E+04  0.25500000920E-02 0.  1.
    10030    2    1    2    0    0  0.00000000000E+00  0.00000000000E+00  0.12395262078E+04  0.38794161833E+04  0.36760637513E+04 0.  0.
        4    1    3    3  502    0 -0.14346148093E+04 -0.11458781404E+04  0.70932969658E+03  0.19683258356E+04  0.12699999809E+01 0. -1.
       -4    1    3    3    0  502  0.14346148093E+04  0.11458781404E+04  0.53019651122E+03  0.19110903477E+04  0.12699999809E+01 0.  1.
</event>
<event>
 5   0  0.4824268E-07  0.3722936E+04  0.7818609E-02  0.8062898E-01
        2   -1    0    0  501    0  0.00000000000E+00  0.00000000000E+00  0.22148904100E+04  0.22148904100E+04  0.25500000920E-02 0.  1.
       -2   -1    0    0    0  501  0.00000000000E+00  0.00000000000E+00 -0.15644401616E+04  0.15644401616E+04  0.25500000920E-02 0. -1.
    10030    2    1    2    0    0  0.00000000000E+00  0.00000000000E+00  0.65045024844E+03  0.37793305716E+04  0.37229362127E+04 0.  0.
        1    1    3    3  502    0 -0.47123423387E+03 -0.52532089858E+03 -0.14233768665E+04  0.15887181795E+04  0.50400001928E-02 0. -1.
       -1    1    3    3    0  502  0.47123423387E+03  0.52532089858E+03  0.20738271150E+04  0.21906123921E+04  0.50400001928E-02 0.  1.
</event>
<event>
 5   0  0.1496287E-07  0.3599743E+04  0.7818609E-02  0.8090551E-01
        1   -1    0    0  501    0  0.00000000000E+00  0.00000000000E+00  0.18962734948E+04  0.18962734948E+04  0.50400001928E-02 0.  1.
       -1   -1    0    0    0  501  0.00000000000E+00  0.00000000000E+00 -0.17083705319E+04  0.17083705319E+04  0.50400001928E-02 0. -1.
    10030    2    1    2    0    0  0.00000000000E+00  0.00000000000E+00  0.18790296290E+03  0.36046440267E+04  0.35997431903E+04 0.  0.
        1    1    3    3  502    0 -0.38382844877E+03 -0.15873663372E+04 -0.66370375193E+03  0.17628269447E+04  0.50400001928E-02 0. -1.
       -1    1    3    3    0  502  0.38382844877E+03  0.15873663372E+04  0.85160671483E+03  0.18418170820E+04  0.50400001928E-02 0.  1.
</event>
<event>
 5   0  0.1496000E-07  0.3675520E+04  0.7818609E-02  0.8073409E-01
        1   -1    0    0  501    0  0.00000000000E+00  0.00000000000E+00  0.27998673080E+04  0.27998673080E+04  0.50400001928E-02 0. -1.
       -1   -1    0    0    0  501  0.00000000000E+00  0.00000000000E+00 -0.12062575138E+04  0.12062575138E+04  0.50400001928E-02 0.  1.
    10030    2    1    2    0    0  0.00000000000E+00  0.00000000000E+00  0.15936097942E+04  0.40061248218E+04  0.36755195431E+04 0.  0.
        5    1    3    3  502    0  0.15399965780E+04  0.97261359473E+03  0.53033052671E+03  0.18970606797E+04  0.46999998093E+01 0.  1.
       -5    1    3    3    0  502 -0.15399965780E+04 -0.97261359473E+03  0.10632792675E+04  0.21090641421E+04  0.46999998093E+01 0. -1.
</event>
<event>
 5   0  0.1496000E-07  0.3743769E+04  0.7818609E-02  0.8058331E-01
       -1   -1    0    0    0  501  0.00000000000E+00  0.00000000000E+00  0.32253872813E+04  0.32253872813E+04  0.50400001928E-02 0. -1.
        1   -1    0    0  501    0  0.00000000000E+00  0.00000000000E+00 -0.10863660954E+04  0.10863660954E+04  0.50400001928E-02 0.  1.
    10030    2    1    2    0    0  0.00000000000E+00  0.00000000000E+00  0.21390211859E+04  0.43117533768E+04  0.37437688962E+04 0.  0.
        2    1    3    3  502    0 -0.18050702673E+04 -0.45587103470E+03  0.84543085572E+03  0.20447127921E+04  0.25500000920E-02 0.  1.
       -2    1    3    3    0  502  0.18050702673E+04  0.45587103470E+03  0.12935903302E+04  0.22670405847E+04  0.25500000920E-02 0. -1.
</event>
<event>
 5   0  0.1496000E-07  0.3649865E+04  0.7818609E-02  0.8079164E-01
       -3   -1    0    0    0  501  0.00000000000E+00  0.00000000000E+00  0.24273095410E+04  0.24273095431E+04  0.10100000352E+00 0. -1.
        3   -1    0    0  501    0  0.00000000000E+00  0.00000000000E+00 -0.13720449874E+04  0.13720449911E+04  0.10100000352E+00 0.  1.
    10030    2    1    2    0    0  0.00000000000E+00  0.00000000000E+00  0.10552645536E+04  0.37993545342E+04  0.36498646001E+04 0.  0.
        2    1    3    3  502    0  0.77953413162E+03  0.14576280407E+04 -0.27736185218E+03  0.16760914547E+04  0.25500000920E-02 0. -1.
       -2    1    3    3    0  502 -0.77953413162E+03 -0.14576280407E+04  0.13326264057E+04  0.21232630795E+04  0.25500000920E-02 0.  1.
</event>
<event>
 5   0  0.4824268E-07  0.3745573E+04  0.7818609E-02  0.8057937E-01
        2   -1    0    0  501    0  0.00000000000E+00  0.00000000000E+00  0.24947534312E+04  0.24947534312E+04  0.25500000920E-02 0. -1.
       -2   -1    0    0    0  501  0.00000000000E+00  0.00000000000E+00 -0.14058824749E+04  0.14058824749E+04  0.25500000920E-02 0.  1.
    10030    2    1    2    0    0  0.00000000000E+00  0.00000000000E+00  0.10888709563E+04  0.39006359061E+04  0.37455734558E+04 0.  0.
        1    1    3    3  502    0 -0.80114141994E+03 -0.12245228736E+04  0.17616014516E+04  0.22900924692E+04  0.50400001928E-02 0.  1.
       -1    1    3    3    0  502  0.80114141994E+03  0.12245228736E+04 -0.67273049538E+03  0.16105434369E+04  0.50400001928E-02 0. -1.
</event>
<event>
 5   0  0.4687817E-07  0.3695190E+04  0.7818609E-02  0.8069029E-01
        2   -1    0    0  501    0  0.00000000000E+00  0.00000000000E+00  0.15268146862E+04  0.15268146862E+04  0.25500000920E-02 0.  1.
       -2   -1    0    0    0  501  0.00000000000E+00  0.00000000000E+00 -0.22357702749E+04  0.22357702749E+04  0.25500000920E-02 0. -1.
    10030    2    1    2    0    0  0.00000000000E+00  0.00000000000E+00 -0.70895558867E+03  0.37625849611E+04  0.36951897872E+04 0.  0.
        4    1    3    3  502    0 -0.65237459947E+03  0.12484000097E+02  0.14055902444E+04  0.15496560962E+04  0.12699999809E+01 0.  1.
       -4    1    3    3    0  502  0.65237459947E+03 -0.12484000097E+02 -0.21145458331E+04  0.22129288650E+04  0.12699999809E+01 0. -1.
</event>
<event>
 5   0  0.1522273E-07  0.3504041E+04  0.7818609E-02  0.8112833E-01
        1   -1    0    0  501    0  0.00000000000E+00  0.00000000000E+00  0.17570503414E+04  0.17570503414E+04  0.50400001928E-02 0.  1.
       -1   -1    0    0    0  501  0.00000000000E+00  0.00000000000E+00 -0.17470050572E+04  0.17470050572E+04  0.50400001928E-02 0. -1.
    10030    2    1    2    0    0  0.00000000000E+00  0.00000000000E+00  0.10045284210E+02  0.35040553985E+04  0.35040409998E+04 0.  0.
        4    1    3    3  502    0 -0.11652005218E+04 -0.47418385415E+03 -0.12144214348E+04  0.17485318463E+04  0.12699999809E+01 0. -1.
       -4    1    3    3    0  502  0.11652005218E+04  0.47418385415E+03  0.12244667190E+04  0.17555235522E+04  0.12699999809E+01 0.  1.
</event>
<event>
 5   0  0.1496000E-07  0.3668797E+04  0.7818609E-02  0.8074912E-01
        1   -1    0    0  501    0  0.00000000000E+00  0.00000000000E+00  0.20545307447E+04  0.20545307447E+04  0.50400001928E-02 0.  1.
       -1   -1    0    0    0  501  0.00000000000E+00  0.00000000000E+00 -0.16378519994E+04  0.16378519994E+04  0.50400001928E-02 0. -1.
    10030    2    1    2    0    0  0.00000000000E+00  0.00000000000E+00  0.41667874534E+03  0.36923827441E+04  0.36687966900E+04 0.  0.
        2    1    3    3  502    0 -0.50646177512E+03 -0.12689431276E+04 -0.10235792948E+04  0.17071715682E+04  0.25500000920E-02 0. -1.
       -2    1    3    3    0  502  0.50646177512E+03  0.12689431276E+04  0.14402580401E+04  0.19852111759E+04  0.25500000920E-02 0.  1.
</event>
<event>
 5   0  0.1496000E-07  0.3700178E+04  0.7818609E-02  0.8067922E-01
       -1   -1    0    0    0  501  0.00000000000E+00  0.00000000000E+00  0.28246414834E+04  0.28246414834E+04  0.50400001928E-02 0.  1.
        1   -1    0    0  501    0  0.00000000000E+00  0.00000000000E+00 -0.12117745758E+04  0.12117745758E+04  0.50400001928E-02 0. -1.
    10030    2    1    2    0    0  0.00000000000E+00  0.00000000000E+00  0.16128669076E+04  0.40364160592E+04  0.37001776905E+04 0.  0.
        2    1    3    3  502    0  0.91884888832E+03  0.11075205140E+04  0.20748230144E+04  0.25250298037E+04  0.25500000920E-02 0.  1.
       -2    1    3    3    0  502 -0.91884888832E+03 -0.11075205140E+04 -0.46195610677E+03  0.15113862555E+04  0.25500000920E-02 0. -1.
</event>
<event>
 5   0  0.4758908E-07  0.3697172E+04  0.7818609E-02  0.8068589E-01
        2   -1    0    0  501    0  0.00000000000E+00  0.00000000000E+00  0.15054612260E+04  0.15054612260E+04  0.25500000920E-02 0.  1.
       -2   -1    0    0    0  501  0.00000000000E+00  0.00000000000E+00 -0.22699155717E+04  0.22699155717E+04  0.25500000920E-02 0. -1.
    10030    2    1    2    0    0  0.00000000000E+00  0.00000000000E+00 -0.76445434577E+03  0.37753767977E+04  0.36971718270E+04 0.  0.
        2    1    3    3  502    0  0.10729440045E+04 -0.11996973404E+04 -0.13107392885E+04  0.20756974798E+04  0.25500000920E-02 0. -1.
       -2    1    3    3    0  502 -0.10729440045E+04  0.11996973404E+04  0.54628494268E+03  0.16996793179E+04  0.25500000920E-02 0.  1.
</event>
<event>
 5   0  0.1496287E-07  0.3687317E+04  0.7818609E-02  0.8070778E-01
       -1   -1    0    0    0  501  0.00000000000E+00  0.00000000000E+00  0.19942366034E+04  0.19942366034E+04  0.50400001928E-02 0. -1.
        1   -1    0    0  501    0  0.00000000000E+00  0.00000000000E+00 -0.17044504253E+04  0.17044504253E+04  0.50400001928E-02 0.  1.
    10030    2    1    2    0    0  0.00000000000E+00  0.00000000000E+00  0.28978617806E+03  0.36986870287E+04  0.36873174134E+04 0.  0.
        1    1    3    3  502    0  0.14683243586E+04 -0.11123937505E+04  0.22049889215E+03  0.18552671074E+04  0.50400001928E-02 0.  1.
       -1    1    3    3    0  502 -0.14683243586E+04  0.11123937505E+04  0.69287285907E+02  0.18434199213E+04  0.50400001928E-02 0. -1.
</event>
<event>
 5   0  0.1522273E-07  0.3640278E+04  0.7818609E-02  0.8081327E-01
        1   -1    0    0  501    0  0.00000000000E+00  0.00000000000E+00  0.16736001426E+04  0.16736001426E+04  0.50400001928E-02 0. -1.
       -1   -1    0    0    0  501  0.00000000000E+00  0.00000000000E+00 -0.19795088233E+04  0.19795088233E+04  0.50400001928E-02 0.  1.
    10030    2    1    2    0    0  0.00000000000E+00  0.00000000000E+00 -0.30590868074E+03  0.36531089659E+04  0.36402781481E+04 0.  0.
        4    1    3    3  502    0 -0.93840680712E+02 -0.18041120837E+04  0.69814920907E+02  0.18078999474E+04  0.12699999809E+01 0.  1.
       -4    1    3    3    0  502  0.93840680712E+02  0.18041120837E+04 -0.37572360165E+03  0.18452090184E+04  0.12699999809E+01 0. -1.
</event>
<event>
 5   0  0.1496000E-07  0.3669566E+04  0.7818609E-02  0.8074740E-01
        1   -1    0    0  501    0  0.00000000000E+00  0.00000000000E+00  0.26150179066E+04  0.26150179066E+04  0.50400001928E-02 0.  1.
       -1   -1    0    0    0  501  0.00000000000E+00  0.00000000000E+00 -0.12873444943E+04  0.12873444943E+04  0.50400001928E-02 0. -1.
    10030    2    1    2    0    0  0.00000000000E+00  0.00000000000E+00  0.13276734123E+04  0.39023624009E+04  0.36695661349E+04 0.  0.
        3    1    3    3  502    0 -0.16887147960E+04  0.18089076508E+03  0.14021042311E+04  0.22023567868E+04  0.10100000352E+00 0. -1.
       -3    1    3    3    0  502  0.16887147960E+04 -0.18089076508E+03 -0.74430818811E+02  0.17000056142E+04  0.10100000352E+00 0.  1.
</event>
<event>
 5   0  0.1522273E-07  0.3678771E+04  0.7818609E-02  0.8072683E-01
       -1   -1    0    0    0  501  0.00000000000E+00  0.00000000000E+00  0.18016815650E+04  0.18016815650E+04  0.50400001928E-02 0. -1.
        1   -1    0    0  501    0  0.00000000000E+00  0.00000000000E+00 -0.18778780035E+04  0.18778780035E+04  0.50400001928E-02 0.  1.
    10030    2    1    2    0    0  0.00000000000E+00  0.00000000000E+00 -0.76196438511E+02  0.36795595686E+04  0.36787705448E+04 0.  0.
        4    1    3    3  502    0 -0.31061111598E+02  0.77560223564E+03  0.16298364119E+04  0.18052401400E+04  0.12699999809E+01 0. -1.
       -4    1    3    3    0  502  0.31061111598E+02 -0.77560223564E+03 -0.17060328504E+04  0.18743194286E+04  0.12699999809E+01 0.  1.
</event>
<event>
 5   0  0.4687817E-07  0.3733727E+04  0.7818609E-02  0.8060528E-01
       -2   -1    0    0    0  501  0.00000000000E+00  0.00000000000E+00  0.14273719925E+04  0.14273719925E+04  0.25500000920E-02 0. -1.
        2   -1    0    0  501    0  0.00000000000E+00  0.00000000000E+00 -0.24416760549E+04  0.24416760549E+04  0.25500000920E-02 0.  1.
    10030    2    1    2    0    0  0.00000000000E+00  0.00000000000E+00 -0.10143040624E+04  0.38690480474E+04  0.37337273685E+04 0.  0.
        4    1    3    3  502    0  0.20960908867E+03  0.10561695301E+04  0.10731601262E+04  0.15202316651E+04  0.12699999809E+01 0. -1.
       -4    1    3    3    0  502 -0.20960908867E+03 -0.10561695301E+04 -0.20874641885E+04  0.23488163823E+04  0.12699999809E+01 0.  1.
</event>
<event>
 5   0  0.4758908E-07  0.3887757E+04  0.7818609E-02  0.8027580E-01
        2   -1    0    0  501    0  0.00000000000E+00  0.00000000000E+00  0.22040544081E+04  0.22040544081E+04  0.25500000920E-02 0. -1.
       -2   -1    0    0    0  501  0.00000000000E+00  0.00000000000E+00 -0.17144145636E+04  0.17144145636E+04  0.25500000920E-02 0.  1.
    10030    2    1    2    0    0  0.00000000000E+00  0.00000000000E+00  0.48963984457E+03  0.39184689717E+04  0.38877566674E+04 0.  0.
        2    1    3    3  502    0  0.74457316891E+03 -0.99372074202E+03  0.17522258583E+04  0.21475953006E+04  0.25500000920E-02 0. -1.
       -2    1    3    3    0  502 -0.74457316891E+03  0.99372074202E+03 -0.12625860137E+04  0.17708736711E+04  0.25500000920E-02 0.  1.
</event>
<event>
 5   0  0.4857514E-07  0.3700113E+04  0.7818609E-02  0.8067937E-01
       -2   -1    0    0    0  501  0.00000000000E+00  0.00000000000E+00  0.19919240921E+04  0.19919240921E+04  0.25500000920E-02 0.  1.
        2   -1    0    0  501    0  0.00000000000E+00  0.00000000000E+00 -0.17182927354E+04  0.17182927354E+04  0.25500000920E-02 0. -1.
    10030    2    1    2    0    0  0.00000000000E+00  0.00000000000E+00  0.27363135665E+03  0.37102168275E+04  0.37001128075E+04 0.  0.
        5    1    3    3  502    0  0.42693333504E+03  0.17321256598E+04  0.62821024829E+03  0.18913491428E+04  0.46999998093E+01 0. -1.
       -5    1    3    3    0  502 -0.42693333504E+03 -0.17321256598E+04 -0.35457889164E+03  0.18188676847E+04  0.46999998093E+01 0.  1.
</event>
<event>
 5   0  0.4793557E-07  0.3771171E+04  0.7818609E-02  0.8052370E-01
       -2   -1    0    0    0  501  0.00000000000E+00  0.00000000000E+00  0.19232700705E+04  0.19232700705E+04  0.25500000920E-02 0.  1.
        2   -1    0    0  501    0  0.00000000000E+00  0.00000000000E+00 -0.18486396260E+04  0.18486396260E+04  0.25500000920E-02 0. -1.
    10030    2    1    2    0    0  0.00000000000E+00  0.00000000000E+00  0.74630444520E+02  0.37719096965E+04  0.37711713108E+04 0.  0.
        3    1    3    3  502    0 -0.33604370382E+02  0.18365746798E+04  0.46318896832E+03  0.18943811229E+04  0.10100000352E+00 0.  1.
       -3    1    3    3    0  502  0.33604370382E+02 -0.18365746798E+04 -0.38855852380E+03  0.18775285736E+04  0.10100000352E+00 0. -1.
</event>
<event>
 5   0  0.4824268E-07  0.3712849E+04  0.7818609E-02  0.8065120E-01
        2   -1    0    0  501    0  0.00000000000E+00  0.00000000000E+00  0.19017530993E+04  0.19017530993E+04  0.25500000920E-02 0.  1.
       -2   -1    0    0    0  501  0.00000000000E+00  0.00000000000E+00 -0.18121759503E+04  0.18121759503E+04  0.25500000920E-02 0. -1.
    10030    2    1    2    0    0  0.00000000000E+00  0.00000000000E+00  0.89577149005E+02  0.37139290496E+04  0.37128486260E+04 0.  0.
        1    1    3    3  502    0 -0.11598957609E+04 -0.10528617758E+04  0.10412888545E+04  0.18809993550E+04  0.50400001928E-02 0.  1.
       -1    1    3    3    0  502  0.11598957609E+04  0.10528617758E+04 -0.95171170545E+03  0.18329296946E+04  0.50400001928E-02 0. -1.
</event>
<event>
 5   0  0.1496000E-07  0.3779736E+04  0.7818609E-02  0.8050518E-01
       -1   -1    0    0    0  501  0.00000000000E+00  0.00000000000E+00  0.18958168916E+04  0.18958168916E+04  0.50400001928E-02 0.  1.
        1   -1    0    0  501    0  0.00000000000E+00  0.00000000000E+00 -0.18839376088E+04  0.18839376088E+04  0.50400001928E-02 0. -1.
    10030    2    1    2    0    0  0.00000000000E+00  0.00000000000E+00  0.11879282848E+02  0.37797545004E+04  0.37797358328E+04 0.  0.
        3    1    3    3  502    0 -0.77327492984E+03 -0.96235364690E+03  0.14368632234E+04  0.18943744592E+04  0.10100000352E+00 0.  1.
       -3    1    3    3    0  502  0.77327492984E+03  0.96235364690E+03 -0.14249839405E+04  0.18853800412E+04  0.10100000352E+00 0. -1.
</event>
<event>
 5   0  0.1496000E-07  0.3815103E+04  0.7818609E-02  0.8042922E-01
        1   -1    0    0  501    0  0.00000000000E+00  0.00000000000E+00  0.22092470484E+04  0.22092470484E+04  0.50400001928E-02 0. -1.
       -1   -1    0    0    0  501  0.00000000000E+00  0.00000000000E+00 -0.16470553293E+04  0.16470553293E+04  0.50400001928E-02 0.  1.
    10030    2    1    2    0    0  0.00000000000E+00  0.00000000000E+00  0.56219171917E+03  0.38563023777E+04  0.38151026853E+04 0.  0.
        3    1    3    3  502    0  0.17841490523E+04 -0.53806787692E+03 -0.13079359278E+03  0.18681038127E+04  0.10100000352E+00 0. -1.
       -3    1    3    3    0  502 -0.17841490523E+04  0.53806787692E+03  0.69298531194E+03  0.19881985650E+04  0.10100000352E+00 0.  1.
</event>
<event>
 5   0  0.4857514E-07  0.3689948E+04  0.7818609E-02  0.8070193E-01
        2   -1    0    0  501    0  0.00000000000E+00  0.00000000000E+00  0.14773945703E+04  0.14773945703E+04  0.25500000920E-02 0.  1.
       -2   -1    0    0    0  501  0.00000000000E+00  0.00000000000E+00 -0.23040078540E+04  0.23040078540E+04  0.25500000920E-02 0. -1.
    10030    2    1    2    0    0  0.00000000000E+00  0.00000000000E+00 -0.82661328368E+03  0.37814024243E+04  0.36899478010E+04 0.  0.
        5    1    3    3  502    0 -0.16745756808E+03 -0.17555760045E+04 -0.96879054031E+03  0.20121298034E+04  0.46999998093E+01 0. -1.
       -5    1    3    3    0  502  0.16745756808E+03  0.17555760045E+04  0.14217725663E+03  0.17692726209E+04  0.46999998093E+01 0.  1.
</event>
<event>
 5   0  0.1522273E-07  0.3683761E+04  0.7818609E-02  0.8071570E-01
       -1   -1    0    0    0  501  0.00000000000E+00  0.00000000000E+00  0.21955852291E+04  0.21955852291E+04  0.50400001928E-02 0. -1.
        1   -1    0    0  501    0  0.00000000000E+00  0.00000000000E+00 -0.15451565671E+04  0.15451565671E+04  0.50400001928E-02 0.  1.
    10030    2    1    2    0    0  0.00000000000E+00  0.00000000000E+00  0.65042866205E+03  0.37407417962E+04  0.36837605434E+04 0.  0.
        4    1    3    3  502    0 -0.18271101874E+04  0.58452300690E+02  0.55402844711E+03  0.19101563919E+04  0.12699999809E+01 0. -1.
       -4    1    3    3    0  502  0.18271101874E+04 -0.58452300690E+02  0.96400214941E+02  0.18305854043E+04  0.12699999809E+01 0.  1.
</event>
<event>
 5   0  0.4824268E-07  0.3729720E+04  0.7818609E-02  0.8061407E-01
       -2   -1    0    0    0  501  0.00000000000E+00  0.00000000000E+00  0.17314368780E+04  0.17314368780E+04  0.25500000920E-02 0.  1.
        2   -1    0    0  501    0  0.00000000000E+00  0.00000000000E+00 -0.20085649748E+04  0.20085649748E+04  0.25500000920E-02 0. -1.
    10030    2    1    2    0    0  0.00000000000E+00  0.00000000000E+00 -0.27712809687E+03  0.37400018528E+04  0.37297203483E+04 0.  0.
        1    1    3    3  502    0  0.81681666965E+03  0.97740394396E+03  0.12272462773E+04  0.17687965872E+04  0.50400001928E-02 0.  1.
       -1    1    3    3    0  502 -0.81681666965E+03 -0.97740394396E+03 -0.15043743742E+04  0.19712052656E+04  0.50400001928E-02 0. -1.
</event>
<event>
 5   0  0.4793557E-07  0.3675649E+04  0.7818609E-02  0.8073380E-01
       -2   -1    0    0    0  501  0.00000000000E+00  0.00000000000E+00  0.18959296037E+04  0.18959296037E+04  0.25500000920E-02 0.  1.
        2   -1    0    0  501    0  0.00000000000E+00  0.00000000000E+00 -0.17815002029E+04  0.17815002030E+04  0.25500000920E-02 0. -1.
    10030    2    1    2    0    0  0.00000000000E+00  0.00000000000E+00  0.11442940078E+03  0.36774298067E+04  0.36756490441E+04 0.  0.
        3    1    3    3  502    0 -0.15007785381E+04 -0.97502216442E+03  0.47526222955E+03  0.18517231539E+04  0.10100000352E+00 0. -1.
       -3    1    3    3    0  502  0.15007785381E+04  0.97502216442E+03 -0.36083282877E+03  0.18257066528E+04  0.10100000352E+00 0.  1.
</event>
<event>
 5   0  0.1496000E-07  0.3736849E+04  0.7818609E-02  0.8059844E-01
       -1   -1    0    0    0  501  0.00000000000E+00  0.00000000000E+00  0.18288657523E+04  0.18288657523E+04  0.50400001928E-02 0. -1.
        1   -1    0    0  501    0  0.00000000000E+00  0.00000000000E+00 -0.19088389726E+04  0.19088389726E+04  0.50400001928E-02 0.  1.
    10030    2    1    2    0    0  0.00000000000E+00  0.00000000000E+00 -0.79973220312E+02  0.37377047249E+04  0.37368490597E+04 0.  0.
        3    1    3    3  502    0 -0.16491912417E+03  0.10033267693E+04 -0.16078745832E+04  0.19023994347E+04  0.10100000352E+00 0.  1.
       -3    1    3    3    0  502  0.16491912417E+03 -0.10033267693E+04  0.15279013629E+04  0.18353052903E+04  0.10100000352E+00 0. -1.
</event>
<event>
 5   0  0.4793557E-07  0.3685185E+04  0.7818609E-02  0.8071253E-01
        2   -1    0    0  501    0  0.00000000000E+00  0.00000000000E+00  0.22770992318E+04  0.22770992318E+04  0.25500000920E-02 0. -1.
       -2   -1    0    0    0  501  0.00000000000E+00  0.00000000000E+00 -0.14909969049E+04  0.14909969050E+04  0.25500000920E-02 0.  1.
    10030    2    1    2    0    0  0.00000000000E+00  0.00000000000E+00  0.78610232683E+03  0.37680961367E+04  0.36851854265E+04 0.  0.
        3    1    3    3  502    0  0.10487658047E+04 -0.13954626359E+04 -0.21006880768E+03  0.17582248421E+04  0.10100000352E+00 0.  1.
       -3    1    3    3    0  502 -0.10487658047E+04  0.13954626359E+04  0.99617113451E+03  0.20098712946E+04  0.10100000352E+00 0. -1.
</event>
<event>
 5   0  0.4824268E-07  0.3699892E+04  0.7818609E-02  0.8067986E-01
        2   -1    0    0  501    0  0.00000000000E+00  0.00000000000E+00  0.28391369943E+04  0.28391369943E+04  0.25500000920E-02 0.  1.
       -2   -1    0    0    0  501  0.00000000000E+00  0.00000000000E+00 -0.12054015201E+04  0.12054015201E+04  0.25500000920E-02 0. -1.
    10030    2    1    2    0    0  0.00000000000E+00  0.00000000000E+00  0.16337354742E+04  0.40445385144E+04  0.36998919166E+04 0.  0.
        1    1    3    3  502    0 -0.12732854851E+03  0.17415630031E+04  0.14845364303E+04  0.22919648047E+04  0.50400001928E-02 0.  1.
       -1    1    3    3    0  502  0.12732854851E+03 -0.17415630031E+04  0.14919904390E+03  0.17525737097E+04  0.50400001928E-02 0. -1.
</event>
<event>
 5   0  0.1522273E-07  0.3670605E+04  0.7818609E-02  0.8074507E-01
        1   -1    0    0  501    0  0.00000000000E+00  0.00000000000E+00  0.24578193011E+04  0.24578193012E+04  0.50400001928E-02 0. -1.
       -1   -1    0    0    0  501  0.00000000000E+00  0.00000000000E+00 -0.13704568790E+04  0.13704568790E+04  0.50400001928E-02 0.  1.
    10030    2    1    2    0    0  0.00000000000E+00  0.00000000000E+00  0.10873624222E+04  0.38282761801E+04  0.36706050556E+04 0.  0.
        4    1    3    3  502    0 -0.17736037697E+04  0.43252437735E+03  0.34693529763E+03  0.18582554675E+04  0.12699999809E+01 0.  1.
       -4    1    3    3    0  502  0.17736037697E+04 -0.43252437735E+03  0.74042712453E+03  0.19700207127E+04  0.12699999809E+01 0. -1.
</event>
<event>
 5   0  0.4687817E-07  0.3703137E+04  0.7818609E-02  0.8067267E-01
       -2   -1    0    0    0  501  0.00000000000E+00  0.00000000000E+00  0.16702185475E+04  0.16702185475E+04  0.25500000920E-02 0.  1.
        2   -1    0    0  501    0  0.00000000000E+00  0.00000000000E+00 -0.20526096639E+04  0.20526096639E+04  0.25500000920E-02 0. -1.
    10030    2    1    2    0    0  0.00000000000E+00  0.00000000000E+00 -0.38239111643E+03  0.37228282114E+04  0.37031374435E+04 0.  0.
        4    1    3    3  502    0 -0.12839538927E+04 -0.56079450077E+03 -0.14081183871E+04  0.19864106010E+04  0.12699999809E+01 0. -1.
       -4    1    3    3    0  502  0.12839538927E+04  0.56079450077E+03  0.10257272707E+04  0.17364176104E+04  0.12699999809E+01 0.  1.
</event>
<event>
 5   0  0.4758908E-07  0.3741650E+04  0.7818609E-02  0.8058794E-01
       -2   -1    0    0    0  501  0.00000000000E+00  0.00000000000E+00  0.11757588109E+04  0.11757588109E+04  0.25500000920E-02 0.  1.
        2   -1    0    0  501    0  0.00000000000E+00  0.00000000000E+00 -0.29767887394E+04  0.29767887394E+04  0.25500000920E-02 0. -1.
    10030    2    1    2    0    0  0.00000000000E+00  0.00000000000E+00 -0.18010299285E+04  0.41525475503E+04  0.37416496835E+04 0.  0.
        2    1    3    3  502    0  0.47373873474E+03 -0.12885181616E+04 -0.23110216508E+04  0.26880343212E+04  0.25500000920E-02 0. -1.
       -2    1    3    3    0  502 -0.47373873474E+03  0.12885181616E+04  0.50999172227E+03  0.14645132291E+04  0.25500000920E-02 0.  1.
</event>
<event>
 5   0  0.1496000E-07  0.3727082E+04  0.7818609E-02  0.8061987E-01
        1   -1    0    0  501    0  0.00000000000E+00  0.00000000000E+00  0.27135549544E+04  0.27135549544E+04  0.50400001928E-02 0.  1.
       -1   -1    0    0    0  501  0.00000000000E+00  0.00000000000E+00 -0.12797913925E+04  0.12797913925E+04  0.50400001928E-02 0. -1.
    10030    2    1    2    0    0  0.00000000000E+00  0.00000000000E+00  0.14337635619E+04  0.39933463469E+04  0.37270815788E+04 0.  0.
        3    1    3    3  502    0 -0.93713280708E+03 -0.11040957673E+04 -0.53973981330E+03  0.15454981196E+04  0.10100000352E+00 0. -1.
       -3    1    3    3    0  502  0.93713280708E+03  0.11040957673E+04  0.19735033752E+04  0.24478482273E+04  0.10100000352E+00 0.  1.
</event>
<event>
 5   0  0.1522273E-07  0.3670190E+04  0.7818609E-02  0.8074600E-01
       -1   -1    0    0    0  501  0.00000000000E+00  0.00000000000E+00  0.17850735427E+04  0.17850735427E+04  0.50400001928E-02 0. -1.
        1   -1    0    0  501    0  0.00000000000E+00  0.00000000000E+00 -0.18865186147E+04  0.18865186147E+04  0.50400001928E-02 0.  1.
    10030    2    1    2    0    0  0.00000000000E+00  0.00000000000E+00 -0.10144507199E+03  0.36715921575E+04  0.36701904403E+04 0.  0.
        4    1    3    3  502    0 -0.53234978022E+03  0.15650906898E+04 -0.84768713674E+03  0.18578159894E+04  0.12699999809E+01 0.  1.
       -4    1    3    3    0  502  0.53234978022E+03 -0.15650906898E+04  0.74624206475E+03  0.18137761681E+04  0.12699999809E+01 0. -1.
</event>
<event>
 5   0  0.1496000E-07  0.3703607E+04  0.7818609E-02  0.8067163E-01
        1   -1    0    0  501    0  0.00000000000E+00  0.00000000000E+00  0.22347409823E+04  0.22347409823E+04  0.50400001928E-02 0.  1.
       -1   -1    0    0    0  501  0.00000000000E+00  0.00000000000E+00 -0.15344852445E+04  0.15344852445E+04  0.50400001928E-02 0. -1.
    10030    2    1    2    0    0  0.00000000000E+00  0.00000000000E+00  0.70025573772E+03  0.37692262268E+04  0.37036074644E+04 0.  0.
        5    1    3    3  502    0 -0.29510726428E+03  0.13271707828E+04  0.16296559914E+04  0.21223268656E+04  0.46999998093E+01 0.  1.
       -5    1    3    3    0  502  0.29510726428E+03 -0.13271707828E+04 -0.92940025370E+03  0.16468993612E+04  0.46999998093E+01 0. -1.
</event>
<event>
 5   0  0.1522273E-07  0.3679178E+04  0.7818609E-02  0.8072592E-01
       -1   -1    0    0    0  501  0.00000000000E+00  0.00000000000E+00  0.14087655388E+04  0.14087655388E+04  0.50400001928E-02 0. -1.
        1   -1    0    0  501    0  0.00000000000E+00  0.00000000000E+00 -0.24021652388E+04  0.24021652388E+04  0.50400001928E-02 0.  1.
    10030    2    1    2    0    0  0.00000000000E+00  0.00000000000E+00 -0.99339970000E+03  0.38109307776E+04  0.36791779555E+04 0.  0.
        4    1    3    3  502    0 -0.37917532872E+03 -0.14394938169E+04 -0.16162233614E+04  0.21972928675E+04  0.12699999809E+01 0.  1.
       -4    1    3    3    0  502  0.37917532872E+03  0.14394938169E+04  0.62282366139E+03  0.16136379101E+04  0.12699999809E+01 0. -1.
</event>
<event>
 5   0  0.1496287E-07  0.3769056E+04  0.7818609E-02  0.8052828E-01
        1   -1    0    0  501    0  0.00000000000E+00  0.00000000000E+00  0.12126592174E+04  0.12126592174E+04  0.50400001928E-02 0. -1.
       -1   -1    0    0    0  501  0.00000000000E+00  0.00000000000E+00 -0.29286433608E+04  0.29286433608E+04  0.50400001928E-02 0.  1.
    10030    2    1    2    0    0  0.00000000000E+00  0.00000000000E+00 -0.17159841435E+04  0.41413025782E+04  0.37690563095E+04 0.  0.
        1    1    3    3  502    0 -0.16951935624E+02  0.37856740533E+03 -0.28863486241E+04  0.29111181749E+04  0.50400001928E-02 0.  1.
       -1    1    3    3    0  502  0.16951935624E+02 -0.37856740533E+03  0.11703644807E+04  0.12301844033E+04  0.50400001928E-02 0. -1.
</event>
<event>
 5   0  0.4857514E-07  0.3645635E+04  0.7818609E-02  0.8080118E-01
       -2   -1    0    0    0  501  0.00000000000E+00  0.00000000000E+00  0.12392689763E+04  0.12392689763E+04  0.25500000920E-02 0. -1.
        2   -1    0    0  501    0  0.00000000000E+00  0.00000000000E+00 -0.26811475573E+04  0.26811475573E+04  0.25500000920E-02 0.  1.
    10030    2    1    2    0    0  0.00000000000E+00  0.00000000000E+00 -0.14418785810E+04  0.39204165336E+04  0.36456346436E+04 0.  0.
        5    1    3    3  502    0 -0.17504836430E+04 -0.49021692284E+03 -0.86575685407E+03  0.20134702968E+04  0.46999998093E+01 0. -1.
       -5    1    3    3    0  502  0.17504836430E+04  0.49021692284E+03 -0.57612172696E+03  0.19069462368E+04  0.46999998093E+01 0.  1.
</event>
<event>
 5   0  0.1522273E-07  0.3226550E+04  0.7818609E-02  0.8181840E-01
       -1   -1    0    0    0  501  0.00000000000E+00  0.00000000000E+00  0.12444135707E+04  0.12444135708E+04  0.50400001928E-02 0.  1.
        1   -1    0    0  501    0  0.00000000000E+00  0.00000000000E+00 -0.20914717335E+04  0.20914717335E+04  0.50400001928E-02 0. -1.
    10030    2    1    2    0    0  0.00000000000E+00  0.00000000000E+00 -0.84705816272E+03  0.33358853042E+04  0.32265497411E+04 0.  0.
        4    1    3    3  502    0 -0.23902523393E+03  0.77442002052E+03  0.10186568701E+04  0.13017384002E+04  0.12699999809E+01 0.  1.
       -4    1    3    3    0  502  0.23902523393E+03 -0.77442002052E+03 -0.18657150328E+04  0.20341469040E+04  0.12699999809E+01 0. -1.
</event>
<event>
 5   0  0.1496000E-07  0.3717650E+04  0.7818609E-02  0.8064062E-01
       -1   -1    0    0    0  501  0.00000000000E+00  0.00000000000E+00  0.16413237947E+04  0.16413237947E+04  0.50400001928E-02 0. -1.
        1   -1    0    0  501    0  0.00000000000E+00  0.00000000000E+00 -0.21051485728E+04  0.21051485728E+04  0.50400001928E-02 0.  1.
    10030    2    1    2    0    0  0.00000000000E+00  0.00000000000E+00 -0.46382477806E+03  0.37464723675E+04  0.37176500341E+04 0.  0.
        2    1    3    3  502    0 -0.86823610855E+03  0.15322189181E+04 -0.83125146953E+03  0.19474362015E+04  0.25500000920E-02 0.  1.
       -2    1    3    3    0  502  0.86823610855E+03 -0.15322189181E+04  0.36742669146E+03  0.17990361661E+04  0.25500000920E-02 0. -1.
</event>
<event>
 5   0  0.4793557E-07  0.3689025E+04  0.7818609E-02  0.8070398E-01
        2   -1    0    0  501    0  0.00000000000E+00  0.00000000000E+00  0.11637118996E+04  0.11637118996E+04  0.25500000920E-02 0.  1.
       -2   -1    0    0    0  501  0.00000000000E+00  0.00000000000E+00 -0.29235988365E+04  0.29235988365E+04  0.25500000920E-02 0. -1.
    10030    2    1    2    0    0  0.00000000000E+00  0.00000000000E+00 -0.17598869369E+04  0.40873107362E+04  0.36890252132E+04 0.  0.
        3    1    3    3  502    0  0.49738128061E+03 -0.81513815200E+02 -0.28458224675E+04  0.28901104074E+04  0.10100000352E+00 0. -1.
       -3    1    3    3    0  502 -0.49738128061E+03  0.81513815200E+02  0.10859355306E+04  0.11972003288E+04  0.10100000352E+00 0.  1.
</event>
<event>
 5   0  0.4793557E-07  0.3688662E+04  0.7818609E-02  0.8070479E-01
       -2   -1    0    0    0  501  0.00000000000E+00  0.00000000000E+00  0.18119723704E+04  0.18119723704E+04  0.25500000920E-02 0.  1.
        2   -1    0    0  501    0  0.00000000000E+00  0.00000000000E+00 -0.18772678406E+04  0.18772678406E+04  0.25500000920E-02 0. -1.
    10030    2    1    2    0    0  0.00000000000E+00  0.00000000000E+00 -0.65295470177E+02  0.36892402110E+04  0.36886623369E+04 0.  0.
        3    1    3    3  502    0  0.35667951125E+03 -0.17888910451E+04 -0.30509820052E+03  0.18494421773E+04  0.10100000352E+00 0.  1.
       -3    1    3    3    0  502 -0.35667951125E+03  0.17888910451E+04  0.23980273034E+03  0.18397980337E+04  0.10100000352E+00 0. -1.
</event>
<event>
 5   0  0.1496000E-07  0.3662090E+04  0.7818609E-02  0.8076415E-01
        1   -1    0    0  501    0  0.00000000000E+00  0.00000000000E+00  0.12836528986E+04  0.12836528986E+04  0.50400001928E-02 0.  1.
       -1   -1    0    0    0  501  0.00000000000E+00  0.00000000000E+00 -0.26118631290E+04  0.26118631290E+04  0.50400001928E-02 0. -1.
    10030    2    1    2    0    0  0.00000000000E+00  0.00000000000E+00 -0.13282102304E+04  0.38955160276E+04  0.36620899368E+04 0.  0.
        5    1    3    3  502    0  0.37341321708E+03  0.12820330780E+04 -0.19968235883E+04  0.24021600231E+04  0.46999998093E+01 0. -1.
       -5    1    3    3    0  502 -0.37341321708E+03 -0.12820330780E+04  0.66861335796E+03  0.14933560045E+04  0.46999998093E+01 0.  1.
</event>
<event>
 5   0  0.4857514E-07  0.3691729E+04  0.7818609E-02  0.8069797E-01
        2   -1    0    0  501    0  0.00000000000E+00  0.00000000000E+00  0.18883494689E+04  0.18883494689E+04  0.25500000920E-02 0.  1.
       -2   -1    0    0    0  501  0.00000000000E+00  0.00000000000E+00 -0.18043354094E+04  0.18043354094E+04  0.25500000920E-02 0. -1.
    10030    2    1    2    0    0  0.00000000000E+00  0.00000000000E+00  0.84014059465E+02  0.36926848783E+04  0.36917290323E+04 0.  0.
        5    1    3    3  502    0 -0.68572141478E+03 -0.17094638245E+04 -0.79322752169E+02  0.18435820066E+04  0.46999998093E+01 0. -1.
       -5    1    3    3    0  502  0.68572141478E+03  0.17094638245E+04  0.16333681163E+03  0.18491028717E+04  0.46999998093E+01 0.  1.
</event>
<event>
 5   0  0.4793557E-07  0.3705350E+04  0.7818609E-02  0.8066777E-01
        2   -1    0    0  501    0  0.00000000000E+00  0.00000000000E+00  0.15562962619E+04  0.15562962619E+04  0.25500000920E-02 0.  1.
       -2   -1    0    0    0  501  0.00000000000E+00  0.00000000000E+00 -0.22054959899E+04  0.22054959899E+04  0.25500000920E-02 0. -1.
    10030    2    1    2    0    0  0.00000000000E+00  0.00000000000E+00 -0.64919972804E+03  0.37617922518E+04  0.37053502747E+04 0.  0.
        3    1    3    3  502    0 -0.14941768988E+04 -0.15116131588E+03 -0.14260176208E+04  0.20709757635E+04  0.10100000352E+00 0. -1.
       -3    1    3    3    0  502  0.14941768988E+04  0.15116131588E+03  0.77681789273E+03  0.16908164882E+04  0.10100000352E+00 0.  1.
</event>
<event>
 5   0  0.1496000E-07  0.3644327E+04  0.7818609E-02  0.8080413E-01
       -1   -1    0    0    0  501  0.00000000000E+00  0.00000000000E+00  0.15051822883E+04  0.15051822883E+04  0.50400001928E-02 0. -1.
        1   -1    0    0  501    0  0.00000000000E+00  0.00000000000E+00 -0.22058983492E+04  0.22058983492E+04  0.50400001928E-02 0.  1.
    10030    2    1    2    0    0  0.00000000000E+00  0.00000000000E+00 -0.70071606089E+03  0.37110806376E+04  0.36443266182E+04 0.  0.
        3    1    3    3  502    0  0.41153352312E+03 -0.16508495077E+04 -0.10146999411E+04  0.19809795351E+04  0.10100000352E+00 0.  1.
       -3    1    3    3    0  502 -0.41153352312E+03  0.16508495077E+04  0.31398388023E+03  0.17301011025E+04  0.10100000352E+00 0. -1.
</event>
<event>
 5   0  0.1496000E-07  0.3557425E+04  0.7818609E-02  0.8100314E-01
        1   -1    0    0  501    0  0.00000000000E+00  0.00000000000E+00  0.15700602551E+04  0.15700602551E+04  0.50400001928E-02 0. -1.
       -1   -1    0    0    0  501  0.00000000000E+00  0.00000000000E+00 -0.20150938664E+04  0.20150938664E+04  0.50400001928E-02 0.  1.
    10030    2    1    2    0    0  0.00000000000E+00  0.00000000000E+00 -0.44503361125E+03  0.35851541215E+04  0.35574253555E+04 0.  0.
        3    1    3    3  502    0  0.57232614900E+03  0.26883242841E+03  0.14529673357E+04  0.15845952746E+04  0.10100000352E+00 0. -1.
       -3    1    3    3    0  502 -0.57232614900E+03 -0.26883242841E+03 -0.18980009469E+04  0.20005588470E+04  0.10100000352E+00 0.  1.
</event>
<event>
 5   0  0.1522273E-07  0.3728016E+04  0.7818609E-02  0.8061781E-01
        1   -1    0    0  501    0  0.00000000000E+00  0.00000000000E+00  0.21137377472E+04  0.21137377472E+04  0.50400001928E-02 0.  1.
       -1   -1    0    0    0  501  0.00000000000E+00  0.00000000000E+00 -0.16437823997E+04  0.16437823997E+04  0.50400001928E-02 0. -1.
    10030    2    1    2    0    0  0.00000000000E+00  0.00000000000E+00  0.46995534753E+03  0.37575201469E+04  0.37280155077E+04 0.  0.
        4    1    3    3  502    0 -0.37277375448E+03  0.49664326754E+03  0.20064163746E+04  0.21003149974E+04  0.12699999809E+01 0.  1.
       -4    1    3    3    0  502  0.37277375448E+03 -0.49664326754E+03 -0.15364610270E+04  0.16572051495E+04  0.12699999809E+01 0. -1.
</event>
<event>
 5   0  0.4824268E-07  0.3687998E+04  0.7818609E-02  0.8070627E-01
        2   -1    0    0  501    0  0.00000000000E+00  0.00000000000E+00  0.25997763418E+04  0.25997763418E+04  0.25500000920E-02 0.  1.
       -2   -1    0    0    0  501  0.00000000000E+00  0.00000000000E+00 -0.13079324359E+04  0.13079324359E+04  0.25500000920E-02 0. -1.
    10030    2    1    2    0    0  0.00000000000E+00  0.00000000000E+00  0.12918439059E+04  0.39077087777E+04  0.36879977243E+04 0.  0.
        1    1    3    3  502    0 -0.17724371560E+04 -0.10809565055E+03  0.11920181323E+03  0.17797267245E+04  0.50400001928E-02 0. -1.
       -1    1    3    3    0  502  0.17724371560E+04  0.10809565055E+03  0.11726420927E+04  0.21279820533E+04  0.50400001928E-02 0.  1.
</event>
<event>
 5   0  0.1496000E-07  0.4072944E+04  0.7818609E-02  0.7989991E-01
       -1   -1    0    0    0  501  0.00000000000E+00  0.00000000000E+00  0.33206197959E+04  0.33206197959E+04  0.50400001928E-02 0. -1.
        1   -1    0    0  501    0  0.00000000000E+00  0.00000000000E+00 -0.12489289868E+04  0.12489289869E+04  0.50400001928E-02 0.  1.
    10030    2    1    2    0    0  0.00000000000E+00  0.00000000000E+00  0.20716908090E+04  0.45695487828E+04  0.40729440543E+04 0.  0.
        2    1    3    3  502    0  0.12561988464E+04 -0.13521928860E+04  0.70233065585E+02  0.18469958923E+04  0.25500000920E-02 0.  1.
       -2    1    3    3    0  502 -0.12561988464E+04  0.13521928860E+04  0.20014577435E+04  0.27225528905E+04  0.25500000920E-02 0. -1.
</event>
<event>
 5   0  0.4758908E-07  0.3693192E+04  0.7818609E-02  0.8069472E-01
        2   -1    0    0  501    0  0.00000000000E+00  0.00000000000E+00  0.11886910299E+04  0.11886910299E+04  0.25500000920E-02 0. -1.
       -2   -1    0    0    0  501  0.00000000000E+00  0.00000000000E+00 -0.28686314873E+04  0.28686314873E+04  0.25500000920E-02 0.  1.
    10030    2    1    2    0    0  0.00000000000E+00  0.00000000000E+00 -0.16799404575E+04  0.40573225172E+04  0.36931918536E+04 0.  0.
        2    1    3    3  502    0  0.12075249575E+04  0.93041682065E+03 -0.19848963773E+04  0.25027196430E+04  0.25500000920E-02 0.  1.
       -2    1    3    3    0  502 -0.12075249575E+04 -0.93041682065E+03  0.30495591980E+03  0.15546028741E+04  0.25500000920E-02 0. -1.
</event>
<event>
 5   0  0.4793557E-07  0.3687344E+04  0.7818609E-02  0.8070772E-01
       -2   -1    0    0    0  501  0.00000000000E+00  0.00000000000E+00  0.15281089857E+04  0.15281089857E+04  0.25500000920E-02 0.  1.
        2   -1    0    0  501    0  0.00000000000E+00  0.00000000000E+00 -0.22244002478E+04  0.22244002478E+04  0.25500000920E-02 0. -1.
    10030    2    1    2    0    0  0.00000000000E+00  0.00000000000E+00 -0.69629126211E+03  0.37525092336E+04  0.36873437630E+04 0.  0.
        3    1    3    3  502    0 -0.66408574005E+03 -0.12490492826E+04 -0.15514084228E+04  0.20995242521E+04  0.10100000352E+00 0. -1.
       -3    1    3    3    0  502  0.66408574005E+03  0.12490492826E+04  0.85511716068E+03  0.16529849815E+04  0.10100000352E+00 0.  1.
</event>
<event>
 5   0  0.1522273E-07  0.3740397E+04  0.7818609E-02  0.8059068E-01
        1   -1    0    0  501    0  0.00000000000E+00  0.00000000000E+00  0.15757825608E+04  0.15757825608E+04  0.50400001928E-02 0. -1.
       -1   -1    0    0    0  501  0.00000000000E+00  0.00000000000E+00 -0.22196226549E+04  0.22196226549E+04  0.50400001928E-02 0.  1.
    10030    2    1    2    0    0  0.00000000000E+00  0.00000000000E+00 -0.64384009409E+03  0.37954052156E+04  0.37403971292E+04 0.  0.
        4    1    3    3  502    0  0.54885920150E+03  0.76456952307E+03  0.13179624418E+04  0.16195183202E+04  0.12699999809E+01 0. -1.
       -4    1    3    3    0  502 -0.54885920150E+03 -0.76456952307E+03 -0.19618025359E+04  0.21758868954E+04  0.12699999809E+01 0.  1.
</event>
<event>
 5   0  0.1496287E-07  0.3551971E+04  0.7818609E-02  0.8101583E-01
        1   -1    0    0  501    0  0.00000000000E+00  0.00000000000E+00  0.10364566602E+04  0.10364566603E+04  0.50400001928E-02 0.  1.
       -1   -1    0    0    0  501  0.00000000000E+00  0.00000000000E+00 -0.30431798024E+04  0.30431798024E+04  0.50400001928E-02 0. -1.
    10030    2    1    2    0    0  0.00000000000E+00  0.00000000000E+00 -0.20067231422E+04  0.40796364627E+04  0.35519707063E+04 0.  0.
        1    1    3    3  502    0  0.52482885157E+03 -0.14227821548E+04  0.58272824217E+02  0.15176132925E+04  0.50400001928E-02 0. -1.
       -1    1    3    3    0  502 -0.52482885157E+03  0.14227821548E+04 -0.20649959664E+04  0.25620231702E+04  0.50400001928E-02 0.  1.
</event>
<event>
 5   0  0.4793557E-07  0.3705287E+04  0.7818609E-02  0.8066791E-01
       -2   -1    0    0    0  501  0.00000000000E+00  0.00000000000E+00  0.11616881740E+04  0.11616881740E+04  0.25500000920E-02 0. -1.
        2   -1    0    0  501    0  0.00000000000E+00  0.00000000000E+00 -0.29545690209E+04  0.29545690209E+04  0.25500000920E-02 0.  1.
    10030    2    1    2    0    0  0.00000000000E+00  0.00000000000E+00 -0.17928808469E+04  0.41162571948E+04  0.37052869744E+04 0.  0.
        3    1    3    3  502    0 -0.68906191788E+03 -0.38465714132E+03  0.96563278254E+03  0.12470822443E+04  0.10100000352E+00 0.  1.
       -3    1    3    3    0  502  0.68906191788E+03  0.38465714132E+03 -0.27585136294E+04  0.28691749506E+04  0.10100000352E+00 0. -1.
</event>
<event>
 5   0  0.4857514E-07  0.3491068E+04  0.7818609E-02  0.8115910E-01
       -2   -1    0    0    0  501  0.00000000000E+00  0.00000000000E+00  0.31506255187E+04  0.31506255187E+04  0.25500000920E-02 0.  1.
        2   -1    0    0  501    0  0.00000000000E+00  0.00000000000E+00 -0.96707435606E+03  0.96707435606E+03  0.25500000920E-02 0. -1.
    10030    2    1    2    0    0  0.00000000000E+00  0.00000000000E+00  0.21835511627E+04  0.41176998748E+04  0.34910681143E+04 0.  0.
        5    1    3    3  502    0 -0.71660830089E+03  0.15912645495E+04  0.10506327955E+04  0.20370325683E+04  0.46999998093E+01 0. -1.
       -5    1    3    3    0  502  0.71660830089E+03 -0.15912645495E+04  0.11329183672E+04  0.20806673065E+04  0.46999998093E+01 0.  1.
</event>
<event>
 5   0  0.1496000E-07  0.3727638E+04  0.7818609E-02  0.8061864E-01
       -1   -1    0    0    0  501  0.00000000000E+00  0.00000000000E+00  0.15210667820E+04  0.15210667820E+04  0.50400001928E-02 0. -1.
        1   -1    0    0  501    0  0.00000000000E+00  0.00000000000E+00 -0.22838062427E+04  0.22838062427E+04  0.50400001928E-02 0.  1.
    10030    2    1    2    0    0  0.00000000000E+00  0.00000000000E+00 -0.76273946064E+03  0.38048730247E+04  0.37276382938E+04 0.  0.
        3    1    3    3  502    0  0.39820458756E+03  0.15267803400E+04 -0.13939917251E+04  0.21054306068E+04  0.10100000352E+00 0.  1.
       -3    1    3    3    0  502 -0.39820458756E+03 -0.15267803400E+04  0.63125226449E+03  0.16994424179E+04  0.10100000352E+00 0. -1.
</event>
<event>
 5   0  0.1522273E-07  0.3833897E+04  0.7818609E-02  0.8038920E-01
       -1   -1    0    0    0  501  0.00000000000E+00  0.00000000000E+00  0.15387897132E+04  0.15387897132E+04  0.50400001928E-02 0.  1.
        1   -1    0    0  501    0  0.00000000000E+00  0.00000000000E+00 -0.23880401077E+04  0.23880401078E+04  0.50400001928E-02 0. -1.
    10030    2    1    2    0    0  0.00000000000E+00  0.00000000000E+00 -0.84925039459E+03  0.39268298209E+04  0.38338970004E+04 0.  0.
        4    1    3    3  502    0 -0.14524736981E+04  0.11899444436E+04 -0.82004319808E+03  0.20489314489E+04  0.12699999809E+01 0.  1.
       -4    1    3    3    0  502  0.14524736981E+04 -0.11899444436E+04 -0.29207196514E+02  0.18778983721E+04  0.12699999809E+01 0. -1.
</event>
<event>
 5   0  0.1496000E-07  0.3697971E+04  0.7818609E-02  0.8068412E-01
       -1   -1    0    0    0  501  0.00000000000E+00  0.00000000000E+00  0.19200641038E+04  0.19200641038E+04  0.50400001928E-02 0. -1.
        1   -1    0    0  501    0  0.00000000000E+00  0.00000000000E+00 -0.17805379471E+04  0.17805379471E+04  0.50400001928E-02 0.  1.
    10030    2    1    2    0    0  0.00000000000E+00  0.00000000000E+00  0.13952615668E+03  0.37006020509E+04  0.36979707937E+04 0.  0.
        2    1    3    3  502    0  0.66140291399E+03  0.12667736264E+04 -0.11043482631E+04  0.18060327576E+04  0.25500000920E-02 0.  1.
       -2    1    3    3    0  502 -0.66140291399E+03 -0.12667736264E+04  0.12438744198E+04  0.18945692934E+04  0.25500000920E-02 0. -1.
</event>
<event>
 5   0  0.4687817E-07  0.3487183E+04  0.7818609E-02  0.8116834E-01
       -2   -1    0    0    0  501  0.00000000000E+00  0.00000000000E+00  0.20674856439E+04  0.20674856439E+04  0.25500000920E-02 0.  1.
        2   -1    0    0  501    0  0.00000000000E+00  0.00000000000E+00 -0.14704392091E+04  0.14704392091E+04  0.25500000920E-02 0. -1.
    10030    2    1    2    0    0  0.00000000000E+00  0.00000000000E+00  0.59704643483E+03  0.35379248530E+04  0.34871833649E+04 0.  0.
        4    1    3    3  502    0  0.17423493741E+04 -0.57637115405E+02  0.33071764810E+03  0.17743954334E+04  0.12699999809E+01 0.  1.
       -4    1    3    3    0  502 -0.17423493741E+04  0.57637115405E+02  0.26632878673E+03  0.17635294196E+04  0.12699999809E+01 0. -1.
</event>
<event>
 5   0  0.1496000E-07  0.3368151E+04  0.7818609E-02  0.8145768E-01
        1   -1    0    0  501    0  0.00000000000E+00  0.00000000000E+00  0.25665130739E+04  0.25665130739E+04  0.50400001928E-02 0. -1.
       -1   -1    0    0    0  501  0.00000000000E+00  0.00000000000E+00 -0.11050440233E+04  0.11050440233E+04  0.50400001928E-02 0.  1.
    10030    2    1    2    0    0  0.00000000000E+00  0.00000000000E+00  0.14614690506E+04  0.36715570972E+04  0.33681507882E+04 0.  0.
        5    1    3    3  502    0 -0.12893322364E+04  0.56510040789E+03 -0.27685165404E+03  0.14347072925E+04  0.46999998093E+01 0.  1.
       -5    1    3    3    0  502  0.12893322364E+04 -0.56510040789E+03  0.17383207046E+04  0.22368498047E+04  0.46999998093E+01 0. -1.
</event>
<event>
 5   0  0.4857514E-07  0.3747533E+04  0.7818609E-02  0.8057509E-01
        2   -1    0    0  501    0  0.00000000000E+00  0.00000000000E+00  0.23874652367E+04  0.23874652367E+04  0.25500000920E-02 0. -1.
       -2   -1    0    0    0  501  0.00000000000E+00  0.00000000000E+00 -0.14705978140E+04  0.14705978140E+04  0.25500000920E-02 0.  1.
    10030    2    1    2    0    0  0.00000000000E+00  0.00000000000E+00  0.91686742268E+03  0.38580630507E+04  0.37475331396E+04 0.  0.
        5    1    3    3  502    0  0.16745499886E+04  0.82976484917E+03  0.31896975709E+03  0.18958879622E+04  0.46999998093E+01 0.  1.
       -5    1    3    3    0  502 -0.16745499886E+04 -0.82976484917E+03  0.59789766559E+03  0.19621750885E+04  0.46999998093E+01 0. -1.
</event>
<event>
 5   0  0.1496000E-07  0.3680342E+04  0.7818609E-02  0.8072332E-01
        1   -1    0    0  501    0  0.00000000000E+00  0.00000000000E+00  0.28912803397E+04  0.28912803397E+04  0.50400001928E-02 0.  1.
       -1   -1    0    0    0  501  0.00000000000E+00  0.00000000000E+00 -0.11711867326E+04  0.11711867326E+04  0.50400001928E-02 0. -1.
    10030    2    1    2    0    0  0.00000000000E+00  0.00000000000E+00  0.17200936072E+04  0.40624670723E+04  0.36803419265E+04 0.  0.
        2    1    3    3  502    0  0.15019420106E+04  0.44056784275E+03 -0.20804613756E+03  0.15789911408E+04  0.25500000920E-02 0. -1.
       -2    1    3    3    0  502 -0.15019420106E+04 -0.44056784275E+03  0.19281397447E+04  0.24834759315E+04  0.25500000920E-02 0.  1.
</event>
<event>
 5   0  0.4824268E-07  0.3716856E+04  0.7818609E-02  0.8064237E-01
       -2   -1    0    0    0  501  0.00000000000E+00  0.00000000000E+00  0.14789237854E+04  0.14789237854E+04  0.25500000920E-02 0. -1.
        2   -1    0    0  501    0  0.00000000000E+00  0.00000000000E+00 -0.23353158001E+04  0.23353158001E+04  0.25500000920E-02 0.  1.
    10030    2    1    2    0    0  0.00000000000E+00  0.00000000000E+00 -0.85639201466E+03  0.38142395855E+04  0.37168557051E+04 0.  0.
        1    1    3    3  502    0  0.98905583145E+03  0.14950292719E+04 -0.93135894225E+03  0.20200924338E+04  0.50400001928E-02 0. -1.
       -1    1    3    3    0  502 -0.98905583145E+03 -0.14950292719E+04  0.74966927587E+02  0.17941471517E+04  0.50400001928E-02 0.  1.
</event>
<event>
 5   0  0.1496000E-07  0.3726639E+04  0.7818609E-02  0.8062084E-01
       -1   -1    0    0    0  501  0.00000000000E+00  0.00000000000E+00  0.14569599175E+04  0.14569599175E+04  0.50400001928E-02 0.  1.
        1   -1    0    0  501    0  0.00000000000E+00  0.00000000000E+00 -0.23830169649E+04  0.23830169649E+04  0.50400001928E-02 0. -1.
    10030    2    1    2    0    0  0.00000000000E+00  0.00000000000E+00 -0.92605704743E+03  0.38399768825E+04  0.37266393443E+04 0.  0.
        5    1    3    3  502    0  0.11008146635E+04  0.90276417213E+03 -0.17017381634E+04  0.22187183104E+04  0.46999998093E+01 0. -1.
       -5    1    3    3    0  502 -0.11008146635E+04 -0.90276417213E+03  0.77568111600E+03  0.16212585721E+04  0.46999998093E+01 0.  1.
</event>
<event>
 5   0  0.1496000E-07  0.3473865E+04  0.7818609E-02  0.8120012E-01
        1   -1    0    0  501    0  0.00000000000E+00  0.00000000000E+00  0.22582839222E+04  0.22582839222E+04  0.50400001928E-02 0. -1.
       -1   -1    0    0    0  501  0.00000000000E+00  0.00000000000E+00 -0.13359408301E+04  0.13359408301E+04  0.50400001928E-02 0.  1.
    10030    2    1    2    0    0  0.00000000000E+00  0.00000000000E+00  0.92234309210E+03  0.35942247524E+04  0.34738645326E+04 0.  0.
        2    1    3    3  502    0  0.35664547379E+03  0.81976042920E+03 -0.10796301254E+04  0.14017147937E+04  0.25500000920E-02 0.  1.
       -2    1    3    3    0  502 -0.35664547379E+03 -0.81976042920E+03  0.20019732175E+04  0.21925099587E+04  0.25500000920E-02 0. -1.
</event>
<event>
 5   0  0.4758908E-07  0.3700731E+04  0.7818609E-02  0.8067800E-01
        2   -1    0    0  501    0  0.00000000000E+00  0.00000000000E+00  0.20838131599E+04  0.20838131599E+04  0.25500000920E-02 0. -1.
       -2   -1    0    0    0  501  0.00000000000E+00  0.00000000000E+00 -0.16430705303E+04  0.16430705303E+04  0.25500000920E-02 0.  1.
    10030    2    1    2    0    0  0.00000000000E+00  0.00000000000E+00  0.44074262968E+03  0.37268836902E+04  0.37007307352E+04 0.  0.
        2    1    3    3  502    0  0.38325918099E+03  0.54991142161E+03 -0.15165088363E+04  0.16580377625E+04  0.25500000920E-02 0.  1.
       -2    1    3    3    0  502 -0.38325918099E+03 -0.54991142161E+03  0.19572514660E+04  0.20688459277E+04  0.25500000920E-02 0. -1.
</event>
<event>
 5   0  0.4758908E-07  0.3668128E+04  0.7818609E-02  0.8075062E-01
       -2   -1    0    0    0  501  0.00000000000E+00  0.00000000000E+00  0.12472853431E+04  0.12472853431E+04  0.25500000920E-02 0.  1.
        2   -1    0    0  501    0  0.00000000000E+00  0.00000000000E+00 -0.26968889375E+04  0.26968889375E+04  0.25500000920E-02 0. -1.
    10030    2    1    2    0    0  0.00000000000E+00  0.00000000000E+00 -0.14496035943E+04  0.39441742806E+04  0.36681276116E+04 0.  0.
        2    1    3    3  502    0  0.18086954188E+04  0.14920501253E+03 -0.44001375308E+03  0.18674189023E+04  0.25500000920E-02 0. -1.
       -2    1    3    3    0  502 -0.18086954188E+04 -0.14920501253E+03 -0.10095898412E+04  0.20767553783E+04  0.25500000920E-02 0.  1.
</event>
<event>
 5   0  0.4687817E-07  0.3713617E+04  0.7818609E-02  0.8064951E-01
       -2   -1    0    0    0  501  0.00000000000E+00  0.00000000000E+00  0.18618531088E+04  0.18618531088E+04  0.25500000920E-02 0.  1.
        2   -1    0    0  501    0  0.00000000000E+00  0.00000000000E+00 -0.18517780407E+04  0.18517780407E+04  0.25500000920E-02 0. -1.
    10030    2    1    2    0    0  0.00000000000E+00  0.00000000000E+00  0.10075068083E+02  0.37136311496E+04  0.37136174827E+04 0.  0.
        4    1    3    3  502    0 -0.14594661370E+04 -0.10787117340E+04  0.39756500202E+03  0.18578805004E+04  0.12699999809E+01 0. -1.
       -4    1    3    3    0  502  0.14594661370E+04  0.10787117340E+04 -0.38748993394E+03  0.18557506492E+04  0.12699999809E+01 0.  1.
</event>
<event>
 5   0  0.4758908E-07  0.3614258E+04  0.7818609E-02  0.8087234E-01
       -2   -1    0    0    0  501  0.00000000000E+00  0.00000000000E+00  0.11154807349E+04  0.11154807349E+04  0.25500000920E-02 0.  1.
        2   -1    0    0  501    0  0.00000000000E+00  0.00000000000E+00 -0.29276303037E+04  0.29276303037E+04  0.25500000920E-02 0. -1.
    10030    2    1    2    0    0  0.00000000000E+00  0.00000000000E+00 -0.18121495688E+04  0.40431110385E+04  0.36142579889E+04 0.  0.
        2    1    3    3  502    0 -0.13172851920E+04 -0.14013542390E+03  0.46893352765E+03  0.14052675430E+04  0.25500000920E-02 0.  1.
       -2    1    3    3    0  502  0.13172851920E+04  0.14013542390E+03 -0.22810830964E+04  0.26378434955E+04  0.25500000920E-02 0. -1.
</event>
<event>
 5   0  0.4758908E-07  0.3697389E+04  0.7818609E-02  0.8068541E-01
       -2   -1    0    0    0  501  0.00000000000E+00  0.00000000000E+00  0.21258801732E+04  0.21258801732E+04  0.25500000920E-02 0.  1.
        2   -1    0    0  501    0  0.00000000000E+00  0.00000000000E+00 -0.16076498270E+04  0.16076498270E+04  0.25500000920E-02 0. -1.
    10030    2    1    2    0    0  0.00000000000E+00  0.00000000000E+00  0.51823034623E+03  0.37335300002E+04  0.36973887503E+04 0.  0.
        2    1    3    3  502    0  0.82080209247E+03 -0.69076508271E+03  0.17794210711E+04  0.20777901296E+04  0.25500000920E-02 0.  1.
       -2    1    3    3    0  502 -0.82080209247E+03  0.69076508271E+03 -0.12611907249E+04  0.16557398706E+04  0.25500000920E-02 0. -1.
</event>
<event>
 5   0  0.4793557E-07  0.3685021E+04  0.7818609E-02  0.8071290E-01
        2   -1    0    0  501    0  0.00000000000E+00  0.00000000000E+00  0.19757936597E+04  0.19757936597E+04  0.25500000920E-02 0.  1.
       -2   -1    0    0    0  501  0.00000000000E+00  0.00000000000E+00 -0.17182179448E+04  0.17182179448E+04  0.25500000920E-02 0. -1.
    10030    2    1    2    0    0  0.00000000000E+00  0.00000000000E+00  0.25757571490E+03  0.36940116045E+04  0.36850205543E+04 0.  0.
        3    1    3    3  502    0  0.93264972444E+03  0.15711047471E+04 -0.10978120340E+03  0.18303708799E+04  0.10100000352E+00 0. -1.
       -3    1    3    3    0  502 -0.93264972444E+03 -0.15711047471E+04  0.36735691830E+03  0.18636407247E+04  0.10100000352E+00 0.  1.
</event>
<event>
 5   0  0.1522273E-07  0.3703865E+04  0.7818609E-02  0.8067106E-01
       -1   -1    0    0    0  501  0.00000000000E+00  0.00000000000E+00  0.30012935755E+04  0.30012935755E+04  0.50400001928E-02 0.  1.
        1   -1    0    0  501    0  0.00000000000E+00  0.00000000000E+00 -0.11427251737E+04  0.11427251737E+04  0.50400001928E-02 0. -1.
    10030    2    1    2    0    0  0.00000000000E+00  0.00000000000E+00  0.18585684019E+04  0.41440187492E+04  0.37038648585E+04 0.  0.
        4    1    3    3  502    0  0.26471411166E+03 -0.98625930075E+03  0.26578306967E+04  0.28472524642E+04  0.12699999809E+01 0.  1.
       -4    1    3    3    0  502 -0.26471411166E+03  0.98625930075E+03 -0.79926229488E+03  0.12967662851E+04  0.12699999809E+01 0. -1.
</event>
<event>
 5   0  0.1496287E-07  0.3650763E+04  0.7818609E-02  0.8078962E-01
       -1   -1    0    0    0  501  0.00000000000E+00  0.00000000000E+00  0.12694899588E+04  0.12694899588E+04  0.50400001928E-02 0.  1.
        1   -1    0    0  501    0  0.00000000000E+00  0.00000000000E+00 -0.26246900361E+04  0.26246900361E+04  0.50400001928E-02 0. -1.
    10030    2    1    2    0    0  0.00000000000E+00  0.00000000000E+00 -0.13552000773E+04  0.38941799949E+04  0.36507630139E+04 0.  0.
        1    1    3    3  502    0 -0.63215122950E+03  0.16782124129E+04 -0.10409053885E+04  0.20735226326E+04  0.50400001928E-02 0.  1.
       -1    1    3    3    0  502  0.63215122950E+03 -0.16782124129E+04 -0.31429468872E+03  0.18206573624E+04  0.50400001928E-02 0. -1.
</event>
<event>
 5   0  0.1496000E-07  0.3759346E+04  0.7818609E-02  0.8054936E-01
        1   -1    0    0  501    0  0.00000000000E+00  0.00000000000E+00  0.12097883432E+04  0.12097883432E+04  0.50400001928E-02 0.  1.
       -1   -1    0    0    0  501  0.00000000000E+00  0.00000000000E+00 -0.29204873097E+04  0.29204873097E+04  0.50400001928E-02 0. -1.
    10030    2    1    2    0    0  0.00000000000E+00  0.00000000000E+00 -0.17106989666E+04  0.41302756529E+04  0.37593464877E+04 0.  0.
        3    1    3    3  502    0 -0.90145899638E+03 -0.16490741602E+04 -0.81895078675E+03  0.20500620258E+04  0.10100000352E+00 0.  1.
       -3    1    3    3    0  502  0.90145899638E+03  0.16490741602E+04 -0.89174817983E+03  0.20802136271E+04  0.10100000352E+00 0. -1.
</event>
<event>
 5   0  0.1496000E-07  0.3686086E+04  0.7818609E-02  0.8071052E-01
       -1   -1    0    0    0  501  0.00000000000E+00  0.00000000000E+00  0.13348580674E+04  0.13348580674E+04  0.50400001928E-02 0.  1.
        1   -1    0    0  501    0  0.00000000000E+00  0.00000000000E+00 -0.25446956408E+04  0.25446956408E+04  0.50400001928E-02 0. -1.
    10030    2    1    2    0    0  0.00000000000E+00  0.00000000000E+00 -0.12098375734E+04  0.38795537082E+04  0.36860860029E+04 0.  0.
        2    1    3    3  502    0  0.84062777904E+03 -0.15059957979E+03  0.11140431354E+04  0.14037191328E+04  0.25500000920E-02 0.  1.
       -2    1    3    3    0  502 -0.84062777904E+03  0.15059957979E+03 -0.23238807087E+04  0.24758345754E+04  0.25500000920E-02 0. -1.
</event>
<event>
 5   0  0.1496000E-07  0.3744748E+04  0.7818609E-02  0.8058117E-01
        1   -1    0    0  501    0  0.00000000000E+00  0.00000000000E+00  0.18260170416E+04  0.18260170416E+04  0.50400001928E-02 0.  1.
       -1   -1    0    0    0  501  0.00000000000E+00  0.00000000000E+00 -0.19199073511E+04  0.19199073512E+04  0.50400001928E-02 0. -1.
    10030    2    1    2    0    0  0.00000000000E+00  0.00000000000E+00 -0.93890309524E+02  0.37459243928E+04  0.37447475437E+04 0.  0.
        3    1    3    3  502    0 -0.74960664221E+03 -0.15837821223E+04  0.61319223731E+03  0.18564160792E+04  0.10100000352E+00 0.  1.
       -3    1    3    3    0  502  0.74960664221E+03  0.15837821223E+04 -0.70708254683E+03  0.18895083136E+04  0.10100000352E+00 0. -1.
</event>
<event>
 5   0  0.4687817E-07  0.3932677E+04  0.7818609E-02  0.8018267E-01
        2   -1    0    0  501    0  0.00000000000E+00  0.00000000000E+00  0.15276093042E+04  0.15276093042E+04  0.25500000920E-02 0. -1.
       -2   -1    0    0    0  501  0.00000000000E+00  0.00000000000E+00 -0.25310705315E+04  0.25310705315E+04  0.25500000920E-02 0.  1.
    10030    2    1    2    0    0  0.00000000000E+00  0.00000000000E+00 -0.10034612273E+04  0.40586798358E+04  0.39326768968E+04 0.  0.
        4    1    3    3  502    0 -0.26709210100E+03 -0.16745478427E+04  0.52567368075E+03  0.17753261952E+04  0.12699999809E+01 0. -1.
       -4    1    3    3    0  502  0.26709210100E+03  0.16745478427E+04 -0.15291349081E+04  0.22833536406E+04  0.12699999809E+01 0.  1.
</event>
<event>
 5   0  0.4687817E-07  0.3721926E+04  0.7818609E-02  0.8063120E-01
       -2   -1    0    0    0  501  0.00000000000E+00  0.00000000000E+00  0.14555109823E+04  0.14555109823E+04  0.25500000920E-02 0. -1.
        2   -1    0    0  501    0  0.00000000000E+00  0.00000000000E+00 -0.23793595391E+04  0.23793595391E+04  0.25500000920E-02 0.  1.
    10030    2    1    2    0    0  0.00000000000E+00  0.00000000000E+00 -0.92384855679E+03  0.38348705215E+04  0.37219263508E+04 0.  0.
        4    1    3    3  502    0 -0.18281291474E+04 -0.11661355238E+03 -0.79978877437E+03  0.19988293066E+04  0.12699999809E+01 0.  1.
       -4    1    3    3    0  502  0.18281291474E+04  0.11661355238E+03 -0.12405978242E+03  0.18360412149E+04  0.12699999809E+01 0. -1.
</event>
<event>
 5   0  0.4758908E-07  0.3705626E+04  0.7818609E-02  0.8066716E-01
        2   -1    0    0  501    0  0.00000000000E+00  0.00000000000E+00  0.21931894913E+04  0.21931894913E+04  0.25500000920E-02 0. -1.
       -2   -1    0    0    0  501  0.00000000000E+00  0.00000000000E+00 -0.15652620649E+04  0.15652620649E+04  0.25500000920E-02 0.  1.
    10030    2    1    2    0    0  0.00000000000E+00  0.00000000000E+00  0.62792742649E+03  0.37584515562E+04  0.37056261613E+04 0.  0.
        2    1    3    3  502    0 -0.11381016828E+04  0.18621220148E+03  0.17847970580E+04  0.21249590497E+04  0.25500000920E-02 0. -1.
       -2    1    3    3    0  502  0.11381016828E+04 -0.18621220148E+03 -0.11568696316E+04  0.16334925065E+04  0.25500000920E-02 0.  1.
</event>
<event>
 5   0  0.1496287E-07  0.3673767E+04  0.7818609E-02  0.8073800E-01
       -1   -1    0    0    0  501  0.00000000000E+00  0.00000000000E+00  0.15542127360E+04  0.15542127360E+04  0.50400001928E-02 0.  1.
        1   -1    0    0  501    0  0.00000000000E+00  0.00000000000E+00 -0.21709648363E+04  0.21709648363E+04  0.50400001928E-02 0. -1.
    10030    2    1    2    0    0  0.00000000000E+00  0.00000000000E+00 -0.61675210027E+03  0.37251775723E+04  0.36737671119E+04 0.  0.
        1    1    3    3  502    0  0.55310424339E+03  0.34706339871E+03  0.14325555364E+04  0.15743546842E+04  0.50400001928E-02 0.  1.
       -1    1    3    3    0  502 -0.55310424339E+03 -0.34706339871E+03 -0.20493076366E+04  0.21508228882E+04  0.50400001928E-02 0. -1.
</event>
<event>
 5   0  0.1496000E-07  0.3632650E+04  0.7818609E-02  0.8083053E-01
        1   -1    0    0  501    0  0.00000000000E+00  0.00000000000E+00  0.25732527103E+04  0.25732527103E+04  0.50400001928E-02 0.  1.
       -1   -1    0    0    0  501  0.00000000000E+00  0.00000000000E+00 -0.12820493257E+04  0.12820493258E+04  0.50400001928E-02 0. -1.
    10030    2    1    2    0    0  0.00000000000E+00  0.00000000000E+00  0.12912033845E+04  0.38553020360E+04  0.36326502183E+04 0.  0.
        3    1    3    3  502    0 -0.33152848610E+03 -0.29158020934E+03 -0.12242327207E+04  0.13014130475E+04  0.10100000352E+00 0. -1.
       -3    1    3    3    0  502  0.33152848610E+03  0.29158020934E+03  0.25154361053E+04  0.25538889885E+04  0.10100000352E+00 0.  1.
</event>
<event>
 5   0  0.1522273E-07  0.3713111E+04  0.7818609E-02  0.8065062E-01
       -1   -1    0    0    0  501  0.00000000000E+00  0.00000000000E+00  0.30389576466E+04  0.30389576467E+04  0.50400001928E-02 0. -1.
        1   -1    0    0  501    0  0.00000000000E+00  0.00000000000E+00 -0.11342043824E+04  0.11342043824E+04  0.50400001928E-02 0.  1.
    10030    2    1    2    0    0  0.00000000000E+00  0.00000000000E+00  0.19047532642E+04  0.41731620291E+04  0.37131114074E+04 0.  0.
        4    1    3    3  502    0  0.14990950734E+04  0.22905252937E+03  0.21560752288E+04  0.26359842765E+04  0.12699999809E+01 0. -1.
       -4    1    3    3    0  502 -0.14990950734E+04 -0.22905252937E+03 -0.25132196462E+03  0.15371777526E+04  0.12699999809E+01 0.  1.
</event>
<event>
 5   0  0.1522273E-07  0.3613793E+04  0.7818609E-02  0.8087340E-01
        1   -1    0    0  501    0  0.00000000000E+00  0.00000000000E+00  0.11204995399E+04  0.11204995400E+04  0.50400001928E-02 0. -1.
       -1   -1    0    0    0  501  0.00000000000E+00  0.00000000000E+00 -0.29137673641E+04  0.29137673641E+04  0.50400001928E-02 0.  1.
    10030    2    1    2    0    0  0.00000000000E+00  0.00000000000E+00 -0.17932678241E+04  0.40342669040E+04  0.36137930162E+04 0.  0.
        4    1    3    3  502    0 -0.53513042983E+03  0.13196050283E+04 -0.21383227395E+04  0.25690752731E+04  0.12699999809E+01 0.  1.
       -4    1    3    3    0  502  0.53513042983E+03 -0.13196050283E+04  0.34505491541E+03  0.14651916309E+04  0.12699999809E+01 0. -1.
</event>
<event>
 5   0  0.4824268E-07  0.3682314E+04  0.7818609E-02  0.8071893E-01
       -2   -1    0    0    0  501  0.00000000000E+00  0.00000000000E+00  0.14845257765E+04  0.14845257765E+04  0.25500000920E-02 0. -1.
        2   -1    0    0  501    0  0.00000000000E+00  0.00000000000E+00 -0.22834621789E+04  0.22834621789E+04  0.25500000920E-02 0.  1.
    10030    2    1    2    0    0  0.00000000000E+00  0.00000000000E+00 -0.79893640243E+03  0.37679879555E+04  0.36823136555E+04 0.  0.
        1    1    3    3  502    0 -0.26985201676E+03  0.10760774909E+04  0.11041052970E+04  0.15651873319E+04  0.50400001928E-02 0. -1.
       -1    1    3    3    0  502  0.26985201676E+03 -0.10760774909E+04 -0.19030416994E+04  0.22028006235E+04  0.50400001928E-02 0.  1.
</event>
<event>
 5   0  0.4758908E-07  0.3510755E+04  0.7818609E-02  0.8111246E-01
       -2   -1    0    0    0  501  0.00000000000E+00  0.00000000000E+00  0.15614494380E+04  0.15614494380E+04  0.25500000920E-02 0.  1.
        2   -1    0    0  501    0  0.00000000000E+00  0.00000000000E+00 -0.19733905310E+04  0.19733905310E+04  0.25500000920E-02 0. -1.
    10030    2    1    2    0    0  0.00000000000E+00  0.00000000000E+00 -0.41194109306E+03  0.35348399690E+04  0.35107546400E+04 0.  0.
        2    1    3    3  502    0 -0.80182808250E+03  0.12436857763E+04  0.74478882238E+03  0.16566209506E+04  0.25500000920E-02 0.  1.
       -2    1    3    3    0  502  0.80182808250E+03 -0.12436857763E+04 -0.11567299154E+04  0.18782190184E+04  0.25500000920E-02 0. -1.
</event>
<event>
 5   0  0.4793557E-07  0.3723564E+04  0.7818609E-02  0.8062760E-01
       -2   -1    0    0    0  501  0.00000000000E+00  0.00000000000E+00  0.15914511682E+04  0.15914511682E+04  0.25500000920E-02 0. -1.
        2   -1    0    0  501    0  0.00000000000E+00  0.00000000000E+00 -0.21780318981E+04  0.21780318981E+04  0.25500000920E-02 0.  1.
    10030    2    1    2    0    0  0.00000000000E+00  0.00000000000E+00 -0.58658072996E+03  0.37694830663E+04  0.37235635666E+04 0.  0.
        3    1    3    3  502    0 -0.14352502159E+04 -0.56076598727E+03 -0.13510828590E+04  0.20493478419E+04  0.10100000352E+00 0.  1.
       -3    1    3    3    0  502  0.14352502159E+04  0.56076598727E+03  0.76450212907E+03  0.17201352244E+04  0.10100000352E+00 0. -1.
</event>
<event>
 5   0  0.4857514E-07  0.3622657E+04  0.7818609E-02  0.8085321E-01
       -2   -1    0    0    0  501  0.00000000000E+00  0.00000000000E+00  0.15685223480E+04  0.15685223480E+04  0.25500000920E-02 0.  1.
        2   -1    0    0  501    0  0.00000000000E+00  0.00000000000E+00 -0.20917214369E+04  0.20917214369E+04  0.25500000920E-02 0. -1.
    10030    2    1    2    0    0  0.00000000000E+00  0.00000000000E+00 -0.52319908897E+03  0.36602437849E+04  0.36226574884E+04 0.  0.
        5    1    3    3  502    0  0.34085607243E+03 -0.10883564653E+04 -0.16833908285E+04  0.20333542311E+04  0.46999998093E+01 0. -1.
       -5    1    3    3    0  502 -0.34085607243E+03  0.10883564653E+04  0.11601917395E+04  0.16268895538E+04  0.46999998093E+01 0.  1.
</event>
<event>
 5   0  0.1496000E-07  0.3713357E+04  0.7818609E-02  0.8065008E-01
        1   -1    0    0  501    0  0.00000000000E+00  0.00000000000E+00  0.23374117173E+04  0.23374117173E+04  0.50400001928E-02 0. -1.
       -1   -1    0    0    0  501  0.00000000000E+00  0.00000000000E+00 -0.14748169398E+04  0.14748169398E+04  0.50400001928E-02 0.  1.
    10030    2    1    2    0    0  0.00000000000E+00  0.00000000000E+00  0.86259477751E+03  0.38122286571E+04  0.37133566465E+04 0.  0.
        5    1    3    3  502    0  0.16236563253E+04  0.27338104373E+03  0.13121851621E+04  0.21054332208E+04  0.46999998093E+01 0. -1.
       -5    1    3    3    0  502 -0.16236563253E+04 -0.27338104373E+03 -0.44959038456E+03  0.17067954363E+04  0.46999998093E+01 0.  1.
</event>
<event>
 5   0  0.1496000E-07  0.3704094E+04  0.7818609E-02  0.8067055E-01
       -1   -1    0    0    0  501  0.00000000000E+00  0.00000000000E+00  0.23364562061E+04  0.23364562061E+04  0.50400001928E-02 0. -1.
        1   -1    0    0  501    0  0.00000000000E+00  0.00000000000E+00 -0.14680689986E+04  0.14680689987E+04  0.50400001928E-02 0.  1.
    10030    2    1    2    0    0  0.00000000000E+00  0.00000000000E+00  0.86838720742E+03  0.38045252047E+04  0.37040944496E+04 0.  0.
        2    1    3    3  502    0  0.51344204212E+03  0.17305388767E+04  0.86023740073E+01  0.18051209199E+04  0.25500000920E-02 0.  1.
       -2    1    3    3    0  502 -0.51344204212E+03 -0.17305388767E+04  0.85978483341E+03  0.19994042849E+04  0.25500000920E-02 0. -1.
</event>
<event>
 5   0  0.1496000E-07  0.3659109E+04  0.7818609E-02  0.8077085E-01
        1   -1    0    0  501    0  0.00000000000E+00  0.00000000000E+00  0.21728954613E+04  0.21728954613E+04  0.50400001928E-02 0.  1.
       -1   -1    0    0    0  501  0.00000000000E+00  0.00000000000E+00 -0.15404653027E+04  0.15404653027E+04  0.50400001928E-02 0. -1.
    10030    2    1    2    0    0  0.00000000000E+00  0.00000000000E+00  0.63243015861E+03  0.37133607640E+04  0.36591092165E+04 0.  0.
        5    1    3    3  502    0  0.55821274573E+03  0.17323305660E+04  0.50519449664E+03  0.18888658578E+04  0.46999998093E+01 0. -1.
       -5    1    3    3    0  502 -0.55821274573E+03 -0.17323305660E+04  0.12723566197E+03  0.18244949062E+04  0.46999998093E+01 0.  1.
</event>
<event>
 5   0  0.4758908E-07  0.3759143E+04  0.7818609E-02  0.8054980E-01
        2   -1    0    0  501    0  0.00000000000E+00  0.00000000000E+00  0.12857558066E+04  0.12857558066E+04  0.25500000920E-02 0. -1.
       -2   -1    0    0    0  501  0.00000000000E+00  0.00000000000E+00 -0.27476356509E+04  0.27476356509E+04  0.25500000920E-02 0.  1.
    10030    2    1    2    0    0  0.00000000000E+00  0.00000000000E+00 -0.14618798443E+04  0.40333914575E+04  0.37591427175E+04 0.  0.
        2    1    3    3  502    0  0.59841097051E+03 -0.44385657048E+03 -0.25824278061E+04  0.26877570051E+04  0.25500000920E-02 0.  1.
       -2    1    3    3    0  502 -0.59841097051E+03  0.44385657048E+03  0.11205479618E+04  0.13456344524E+04  0.25500000920E-02 0. -1.
</event>
<event>
 5   0  0.4824268E-07  0.3788817E+04  0.7818609E-02  0.8048559E-01
        2   -1    0    0  501    0  0.00000000000E+00  0.00000000000E+00  0.17660163759E+04  0.17660163759E+04  0.25500000920E-02 0.  1.
       -2   -1    0    0    0  501  0.00000000000E+00  0.00000000000E+00 -0.20321344266E+04  0.20321344266E+04  0.25500000920E-02 0. -1.
    10030    2    1    2    0    0  0.00000000000E+00  0.00000000000E+00 -0.26611805068E+03  0.37981508026E+04  0.37888165305E+04 0.  0.
        1    1    3    3  502    0  0.31694463163E+03 -0.18082728163E+04 -0.60162708473E+03  0.19319056982E+04  0.50400001928E-02 0. -1.
       -1    1    3    3    0  502 -0.31694463163E+03  0.18082728163E+04  0.33550903404E+03  0.18662451044E+04  0.50400001928E-02 0.  1.
</event>
<event>
 5   0  0.4824268E-07  0.3701102E+04  0.7818609E-02  0.8067718E-01
       -2   -1    0    0    0  501  0.00000000000E+00  0.00000000000E+00  0.15405105198E+04  0.15405105198E+04  0.25500000920E-02 0.  1.
        2   -1    0    0  501    0  0.00000000000E+00  0.00000000000E+00 -0.22229900181E+04  0.22229900181E+04  0.25500000920E-02 0. -1.
    10030    2    1    2    0    0  0.00000000000E+00  0.00000000000E+00 -0.68247949830E+03  0.37635005380E+04  0.37011022728E+04 0.  0.
        1    1    3    3  502    0 -0.79698049205E+03 -0.16676161951E+04 -0.24794419285E+03  0.18648318964E+04  0.50400001928E-02 0. -1.
       -1    1    3    3    0  502  0.79698049205E+03  0.16676161951E+04 -0.43453530544E+03  0.18986686416E+04  0.50400001928E-02 0.  1.
</event>
<event>
 5   0  0.4793557E-07  0.3691011E+04  0.7818609E-02  0.8069957E-01
       -2   -1    0    0    0  501  0.00000000000E+00  0.00000000000E+00  0.22495565621E+04  0.22495565621E+04  0.25500000920E-02 0.  1.
        2   -1    0    0  501    0  0.00000000000E+00  0.00000000000E+00 -0.15140273451E+04  0.15140273451E+04  0.25500000920E-02 0. -1.
    10030    2    1    2    0    0  0.00000000000E+00  0.00000000000E+00  0.73552921701E+03  0.37635839072E+04  0.36910107826E+04 0.  0.
        3    1    3    3  502    0 -0.89908048659E+02  0.10320590034E+04  0.19250997851E+04  0.21861469384E+04  0.10100000352E+00 0.  1.
       -3    1    3    3    0  502  0.89908048659E+02 -0.10320590034E+04 -0.11895705681E+04  0.15774369687E+04  0.10100000352E+00 0. -1.
</event>
<event>
 5   0  0.1522273E-07  0.3880229E+04  0.7818609E-02  0.8029154E-01
       -1   -1    0    0    0  501  0.00000000000E+00  0.00000000000E+00  0.19068258662E+04  0.19068258662E+04  0.50400001928E-02 0.  1.
        1   -1    0    0  501    0  0.00000000000E+00  0.00000000000E+00 -0.19739839402E+04  0.19739839402E+04  0.50400001928E-02 0. -1.
    10030    2    1    2    0    0  0.00000000000E+00  0.00000000000E+00 -0.67158073986E+02  0.38808098065E+04  0.38802286720E+04 0.  0.
        4    1    3    3  502    0  0.50912971369E+03 -0.17725405332E+04  0.56894709109E+03  0.19299780861E+04  0.12699999809E+01 0. -1.
       -4    1    3    3    0  502 -0.50912971369E+03  0.17725405332E+04 -0.63610516508E+03  0.19508317204E+04  0.12699999809E+01 0.  1.
</event>
<event>
 5   0  0.4793557E-07  0.3695332E+04  0.7818609E-02  0.8068997E-01
        2   -1    0    0  501    0  0.00000000000E+00  0.00000000000E+00  0.25196844070E+04  0.25196844070E+04  0.25500000920E-02 0. -1.
       -2   -1    0    0    0  501  0.00000000000E+00  0.00000000000E+00 -0.13548795182E+04  0.13548795182E+04  0.25500000920E-02 0.  1.
    10030    2    1    2    0    0  0.00000000000E+00  0.00000000000E+00  0.11648048888E+04  0.38745639252E+04  0.36953315388E+04 0.  0.
        3    1    3    3  502    0  0.94071485078E+03 -0.13136085268E+04  0.15221770623E+04  0.22198051292E+04  0.10100000352E+00 0. -1.
       -3    1    3    3    0  502 -0.94071485078E+03  0.13136085268E+04 -0.35737217357E+03  0.16547587960E+04  0.10100000352E+00 0.  1.
</event>
<event>
 5   0  0.1496000E-07  0.3692076E+04  0.7818609E-02  0.8069720E-01
        1   -1    0    0  501    0  0.00000000000E+00  0.00000000000E+00  0.25592462035E+04  0.25592462035E+04  0.50400001928E-02 0.  1.
       -1   -1    0    0    0  501  0.00000000000E+00  0.00000000000E+00 -0.13315860883E+04  0.13315860883E+04  0.50400001928E-02 0. -1.
    10030    2    1    2    0    0  0.00000000000E+00  0.00000000000E+00  0.12276601152E+04  0.38908322918E+04  0.36920761862E+04 0.  0.
        2    1    3    3  502    0 -0.10550595692E+04  0.56148132958E+03 -0.86883666455E+03  0.14775957254E+04  0.25500000920E-02 0. -1.
       -2    1    3    3    0  502  0.10550595692E+04 -0.56148132958E+03  0.20964967797E+04  0.24132365664E+04  0.25500000920E-02 0.  1.
</event>
<event>
 5   0  0.1496000E-07  0.3708168E+04  0.7818609E-02  0.8066154E-01
        4   -1    0    0  501    0  0.00000000000E+00  0.00000000000E+00  0.25766491589E+04  0.25766494719E+04  0.12699999809E+01 0.  1.
       -4   -1    0    0    0  501  0.00000000000E+00  0.00000000000E+00 -0.13341455071E+04  0.13341461115E+04  0.12699999809E+01 0. -1.
    10030    2    1    2    0    0  0.00000000000E+00  0.00000000000E+00  0.12425036518E+04  0.39107955834E+04  0.37081675758E+04 0.  0.
        3    1    3    3  502    0  0.73484866395E+03  0.16287456725E+04  0.99430515222E+02  0.17896093044E+04  0.10100000352E+00 0. -1.
       -3    1    3    3    0  502 -0.73484866395E+03 -0.16287456725E+04  0.11430731366E+04  0.21211862791E+04  0.10100000352E+00 0.  1.
</event>
<event>
 5   0  0.4793557E-07  0.3526371E+04  0.7818609E-02  0.8107569E-01
        2   -1    0    0  501    0  0.00000000000E+00  0.00000000000E+00  0.17404081333E+04  0.17404081333E+04  0.25500000920E-02 0.  1.
       -2   -1    0    0    0  501  0.00000000000E+00  0.00000000000E+00 -0.17862607019E+04  0.17862607019E+04  0.25500000920E-02 0. -1.
    10030    2    1    2    0    0  0.00000000000E+00  0.00000000000E+00 -0.45852568564E+02  0.35266688352E+04  0.35263707427E+04 0.  0.
        3    1    3    3  502    0  0.41285513486E+03 -0.12193651760E+04 -0.12278193336E+04  0.17790000340E+04  0.10100000352E+00 0. -1.
       -3    1    3    3    0  502 -0.41285513486E+03  0.12193651760E+04  0.11819667651E+04  0.17476688012E+04  0.10100000352E+00 0.  1.
</event>
<event>
 5   0  0.1496000E-07  0.3690806E+04  0.7818609E-02  0.8070002E-01
        1   -1    0    0  501    0  0.00000000000E+00  0.00000000000E+00  0.23613615647E+04  0.23613615647E+04  0.50400001928E-02 0.  1.
       -1   -1    0    0    0  501  0.00000000000E+00  0.00000000000E+00 -0.14421813530E+04  0.14421813530E+04  0.50400001928E-02 0. -1.
    10030    2    1    2    0    0  0.00000000000E+00  0.00000000000E+00  0.91918021171E+03  0.38035429178E+04  0.36908056662E+04 0.  0.
        2    1    3    3  502    0 -0.79752585499E+03  0.10673304924E+04 -0.85623108732E+03  0.15837845638E+04  0.25500000920E-02 0. -1.
       -2    1    3    3    0  502  0.79752585499E+03 -0.10673304924E+04  0.17754112990E+04  0.22197583540E+04  0.25500000920E-02 0.  1.
</event>
<event>
 5   0  0.1496000E-07  0.3685697E+04  0.7818609E-02  0.8071139E-01
        1   -1    0    0  501    0  0.00000000000E+00  0.00000000000E+00  0.25461045998E+04  0.25461045998E+04  0.50400001928E-02 0.  1.
       -1   -1    0    0    0  501  0.00000000000E+00  0.00000000000E+00 -0.13338378568E+04  0.13338378568E+04  0.50400001928E-02 0. -1.
    10030    2    1    2    0    0  0.00000000000E+00  0.00000000000E+00  0.12122667431E+04  0.38799424566E+04  0.36856970589E+04 0.  0.
        2    1    3    3  502    0 -0.86712363758E+03 -0.38311865450E+03  0.22697388632E+04  0.24597556410E+04  0.25500000920E-02 0.  1.
       -2    1    3    3    0  502  0.86712363758E+03  0.38311865450E+03 -0.10574721202E+04  0.14201868156E+04  0.25500000920E-02 0. -1.
</event>
<event>
 5   0  0.1496000E-07  0.3709763E+04  0.7818609E-02  0.8065802E-01
       -3   -1    0    0    0  501  0.00000000000E+00  0.00000000000E+00  0.16741185357E+04  0.16741185388E+04  0.10100000352E+00 0. -1.
        3   -1    0    0  501    0  0.00000000000E+00  0.00000000000E+00 -0.20551626276E+04  0.20551626301E+04  0.10100000352E+00 0.  1.
    10030    2    1    2    0    0  0.00000000000E+00  0.00000000000E+00 -0.38104409188E+03  0.37292811689E+04  0.37097632588E+04 0.  0.
        1    1    3    3  502    0 -0.15211220861E+03 -0.61504808359E+03 -0.19430137521E+04  0.20437036747E+04  0.50400001928E-02 0.  1.
       -1    1    3    3    0  502  0.15211220861E+03  0.61504808359E+03  0.15619696602E+04  0.16855774941E+04  0.50400001928E-02 0. -1.
</event>
<event>
 5   0  0.4758908E-07  0.3703871E+04  0.7818609E-02  0.8067105E-01
       -2   -1    0    0    0  501  0.00000000000E+00  0.00000000000E+00  0.14838805535E+04  0.14838805535E+04  0.25500000920E-02 0.  1.
        2   -1    0    0  501    0  0.00000000000E+00  0.00000000000E+00 -0.23112806568E+04  0.23112806568E+04  0.25500000920E-02 0. -1.
    10030    2    1    2    0    0  0.00000000000E+00  0.00000000000E+00 -0.82740010333E+03  0.37951612103E+04  0.37038706350E+04 0.  0.
        2    1    3    3  502    0  0.48262813720E+03 -0.12066452287E+03 -0.22415326546E+04  0.22960745823E+04  0.25500000920E-02 0. -1.
       -2    1    3    3    0  502 -0.48262813720E+03  0.12066452287E+03  0.14141325512E+04  0.14990866280E+04  0.25500000920E-02 0.  1.
</event>
<event>
 5   0  0.4758908E-07  0.3400252E+04  0.7818609E-02  0.8137844E-01
       -2   -1    0    0    0  501  0.00000000000E+00  0.00000000000E+00  0.19651561547E+04  0.19651561547E+04  0.25500000920E-02 0.  1.
        2   -1    0    0  501    0  0.00000000000E+00  0.00000000000E+00 -0.14708394456E+04  0.14708394456E+04  0.25500000920E-02 0. -1.
    10030    2    1    2    0    0  0.00000000000E+00  0.00000000000E+00  0.49431670910E+03  0.34359956003E+04  0.34002524548E+04 0.  0.
        2    1    3    3  502    0  0.13882757519E+04 -0.92170896568E+03  0.58770567831E+03  0.17669903636E+04  0.25500000920E-02 0.  1.
       -2    1    3    3    0  502 -0.13882757519E+04  0.92170896568E+03 -0.93388969211E+02  0.16690052367E+04  0.25500000920E-02 0. -1.
</event>
<event>
 5   0  0.1496000E-07  0.3678722E+04  0.7818609E-02  0.8072694E-01
       -1   -1    0    0    0  501  0.00000000000E+00  0.00000000000E+00  0.17213829075E+04  0.17213829075E+04  0.50400001928E-02 0. -1.
        1   -1    0    0  501    0  0.00000000000E+00  0.00000000000E+00 -0.19654253474E+04  0.19654253474E+04  0.50400001928E-02 0.  1.
    10030    2    1    2    0    0  0.00000000000E+00  0.00000000000E+00 -0.24404243990E+03  0.36868082550E+04  0.36787223864E+04 0.  0.
        3    1    3    3  502    0 -0.48166046990E+03 -0.35466392365E+03 -0.18652311640E+04  0.19587931520E+04  0.10100000352E+00 0.  1.
       -3    1    3    3    0  502  0.48166046990E+03  0.35466392365E+03  0.16211887241E+04  0.17280151030E+04  0.10100000352E+00 0. -1.
</event>
<event>
 5   0  0.4687817E-07  0.3701097E+04  0.7818609E-02  0.8067719E-01
        2   -1    0    0  501    0  0.00000000000E+00  0.00000000000E+00  0.15220914561E+04  0.15220914561E+04  0.25500000920E-02 0.  1.
       -2   -1    0    0    0  501  0.00000000000E+00  0.00000000000E+00 -0.22498847908E+04  0.22498847908E+04  0.25500000920E-02 0. -1.
    10030    2    1    2    0    0  0.00000000000E+00  0.00000000000E+00 -0.72779333476E+03  0.37719762469E+04  0.37010973601E+04 0.  0.
        4    1    3    3  502    0  0.15020965187E+04  0.10553444749E+04 -0.12601086896E+03  0.18400886566E+04  0.12699999809E+01 0.  1.
       -4    1    3    3    0  502 -0.15020965187E+04 -0.10553444749E+04 -0.60178246580E+03  0.19318875902E+04  0.12699999809E+01 0. -1.
</event>
<event>
 5   0  0.1496287E-07  0.3699526E+04  0.7818609E-02  0.8068067E-01
        1   -1    0    0  501    0  0.00000000000E+00  0.00000000000E+00  0.18776022586E+04  0.18776022586E+04  0.50400001928E-02 0.  1.
       -1   -1    0    0    0  501  0.00000000000E+00  0.00000000000E+00 -0.18223360500E+04  0.18223360501E+04  0.50400001928E-02 0. -1.
    10030    2    1    2    0    0  0.00000000000E+00  0.00000000000E+00  0.55266208564E+02  0.36999383087E+04  0.36995255283E+04 0.  0.
        1    1    3    3  502    0 -0.57103517734E+03 -0.11895756933E+04  0.13240997635E+04  0.18693345574E+04  0.50400001928E-02 0.  1.
       -1    1    3    3    0  502  0.57103517734E+03  0.11895756933E+04 -0.12688335550E+04  0.18306037512E+04  0.50400001928E-02 0. -1.
</event>
<event>
 5   0  0.4758908E-07  0.3287409E+04  0.7818609E-02  0.8166106E-01
       -2   -1    0    0    0  501  0.00000000000E+00  0.00000000000E+00  0.14583226748E+04  0.14583226748E+04  0.25500000920E-02 0. -1.
        2   -1    0    0  501    0  0.00000000000E+00  0.00000000000E+00 -0.18526525240E+04  0.18526525240E+04  0.25500000920E-02 0.  1.
    10030    2    1    2    0    0  0.00000000000E+00  0.00000000000E+00 -0.39432984920E+03  0.33109751989E+04  0.32874094265E+04 0.  0.
        2    1    3    3  502    0 -0.49007073970E+03 -0.77467382245E+03  0.11769747846E+04  0.14918305885E+04  0.25500000920E-02 0. -1.
       -2    1    3    3    0  502  0.49007073970E+03  0.77467382245E+03 -0.15713046338E+04  0.18191446104E+04  0.25500000920E-02 0.  1.
</event>
<event>
 5   0  0.1496000E-07  0.3698670E+04  0.7818609E-02  0.8068257E-01
        1   -1    0    0  501    0  0.00000000000E+00  0.00000000000E+00  0.13950966077E+04  0.13950966077E+04  0.50400001928E-02 0.  1.
       -1   -1    0    0    0  501  0.00000000000E+00  0.00000000000E+00 -0.24514711355E+04  0.24514711355E+04  0.50400001928E-02 0. -1.
    10030    2    1    2    0    0  0.00000000000E+00  0.00000000000E+00 -0.10563745278E+04  0.38465677432E+04  0.36986695257E+04 0.  0.
        5    1    3    3  502    0 -0.96013538259E+03 -0.82914209642E+03 -0.19276094580E+04  0.23076041431E+04  0.46999998093E+01 0. -1.
       -5    1    3    3    0  502  0.96013538259E+03  0.82914209642E+03  0.87123493013E+03  0.15389636001E+04  0.46999998093E+01 0.  1.
</event>
<event>
 5   0  0.4824268E-07  0.3695838E+04  0.7818609E-02  0.8068885E-01
       -2   -1    0    0    0  501  0.00000000000E+00  0.00000000000E+00  0.22048603074E+04  0.22048603074E+04  0.25500000920E-02 0.  1.
        2   -1    0    0  501    0  0.00000000000E+00  0.00000000000E+00 -0.15487622259E+04  0.15487622259E+04  0.25500000920E-02 0. -1.
    10030    2    1    2    0    0  0.00000000000E+00  0.00000000000E+00  0.65609808146E+03  0.37536225333E+04  0.36958378522E+04 0.  0.
        1    1    3    3  502    0 -0.31373408833E+03  0.11518001329E+04  0.17606820436E+04  0.21272221048E+04  0.50400001928E-02 0.  1.
       -1    1    3    3    0  502  0.31373408833E+03 -0.11518001329E+04 -0.11045839622E+04  0.16264004285E+04  0.50400001928E-02 0. -1.
</event>
<event>
 5   0  0.1496000E-07  0.3609042E+04  0.7818609E-02  0.8088424E-01
        1   -1    0    0  501    0  0.00000000000E+00  0.00000000000E+00  0.11946163426E+04  0.11946163426E+04  0.50400001928E-02 0. -1.
       -1   -1    0    0    0  501  0.00000000000E+00  0.00000000000E+00 -0.27258082986E+04  0.27258082986E+04  0.50400001928E-02 0.  1.
    10030    2    1    2    0    0  0.00000000000E+00  0.00000000000E+00 -0.15311919559E+04  0.39204246412E+04  0.36090415017E+04 0.  0.
        2    1    3    3  502    0 -0.78709537712E+03 -0.68118580621E+03 -0.23668023256E+04  0.25855920954E+04  0.25500000920E-02 0.  1.
       -2    1    3    3    0  502  0.78709537712E+03  0.68118580621E+03  0.83561036969E+03  0.13348325458E+04  0.25500000920E-02 0. -1.
</event>
<event>
 5   0  0.1496000E-07  0.3731178E+04  0.7818609E-02  0.8061087E-01
       -1   -1    0    0    0  501  0.00000000000E+00  0.00000000000E+00  0.19100274159E+04  0.19100274159E+04  0.50400001928E-02 0. -1.
        1   -1    0    0  501    0  0.00000000000E+00  0.00000000000E+00 -0.18221844401E+04  0.18221844401E+04  0.50400001928E-02 0.  1.
    10030    2    1    2    0    0  0.00000000000E+00  0.00000000000E+00  0.87842975793E+02  0.37322118560E+04  0.37311779574E+04 0.  0.
        3    1    3    3  502    0 -0.82605546191E+03  0.10360684555E+04 -0.12696890563E+04  0.18351882139E+04  0.10100000352E+00 0.  1.
       -3    1    3    3    0  502  0.82605546191E+03 -0.10360684555E+04  0.13575320321E+04  0.18970236421E+04  0.10100000352E+00 0. -1.
</event>
<event>
 5   0  0.1522273E-07  0.3722518E+04  0.7818609E-02  0.8062990E-01
        1   -1    0    0  501    0  0.00000000000E+00  0.00000000000E+00  0.21370425578E+04  0.21370425578E+04  0.50400001928E-02 0.  1.
       -1   -1    0    0    0  501  0.00000000000E+00  0.00000000000E+00 -0.16210649172E+04  0.16210649172E+04  0.50400001928E-02 0. -1.
    10030    2    1    2    0    0  0.00000000000E+00  0.00000000000E+00  0.51597764064E+03  0.37581074750E+04  0.37225178130E+04 0.  0.
        4    1    3    3  502    0  0.11812030786E+04  0.10952691416E+04  0.11993346378E+04  0.20082978842E+04  0.12699999809E+01 0.  1.
       -4    1    3    3    0  502 -0.11812030786E+04 -0.10952691416E+04 -0.68335699720E+03  0.17498095908E+04  0.12699999809E+01 0. -1.
</event>
<event>
 5   0  0.1522273E-07  0.3696790E+04  0.7818609E-02  0.8068674E-01
        1   -1    0    0  501    0  0.00000000000E+00  0.00000000000E+00  0.10192927219E+04  0.10192927219E+04  0.50400001928E-02 0. -1.
       -1   -1    0    0    0  501  0.00000000000E+00  0.00000000000E+00 -0.33518961286E+04  0.33518961286E+04  0.50400001928E-02 0.  1.
    10030    2    1    2    0    0  0.00000000000E+00  0.00000000000E+00 -0.23326034067E+04  0.43711888504E+04  0.36967895955E+04 0.  0.
        4    1    3    3  502    0 -0.14456515367E+04  0.48652277009E+03 -0.24007642390E+04  0.28443423345E+04  0.12699999809E+01 0.  1.
       -4    1    3    3    0  502  0.14456515367E+04 -0.48652277009E+03  0.68160832336E+02  0.15268465160E+04  0.12699999809E+01 0. -1.
</event>
<event>
 5   0  0.4758908E-07  0.3651036E+04  0.7818609E-02  0.8078900E-01
        2   -1    0    0  501    0  0.00000000000E+00  0.00000000000E+00  0.20260401120E+04  0.20260401120E+04  0.25500000920E-02 0. -1.
       -2   -1    0    0    0  501  0.00000000000E+00  0.00000000000E+00 -0.16448424793E+04  0.16448424793E+04  0.25500000920E-02 0.  1.
    10030    2    1    2    0    0  0.00000000000E+00  0.00000000000E+00  0.38119763270E+03  0.36708825912E+04  0.36510364780E+04 0.  0.
        2    1    3    3  502    0  0.17195804341E+04 -0.58529708770E+02 -0.42274521127E+03  0.17717494489E+04  0.25500000920E-02 0.  1.
       -2    1    3    3    0  502 -0.17195804341E+04  0.58529708770E+02  0.80394284397E+03  0.18991331423E+04  0.25500000920E-02 0. -1.
</event>
<event>
 5   0  0.4758908E-07  0.3716168E+04  0.7818609E-02  0.8064388E-01
       -2   -1    0    0    0  501  0.00000000000E+00  0.00000000000E+00  0.19971432461E+04  0.19971432461E+04  0.25500000920E-02 0.  1.
        2   -1    0    0  501    0  0.00000000000E+00  0.00000000000E+00 -0.17287075015E+04  0.17287075015E+04  0.25500000920E-02 0. -1.
    10030    2    1    2    0    0  0.00000000000E+00  0.00000000000E+00  0.26843574464E+03  0.37258507476E+04  0.37161681937E+04 0.  0.
        2    1    3    3  502    0 -0.47236609110E+03  0.13265589917E+03  0.19310226927E+04  0.19923794697E+04  0.25500000920E-02 0.  1.
       -2    1    3    3    0  502  0.47236609110E+03 -0.13265589917E+03 -0.16625869480E+04  0.17334712779E+04  0.25500000920E-02 0. -1.
</event>
<event>
 5   0  0.4687817E-07  0.3477563E+04  0.7818609E-02  0.8119128E-01
       -2   -1    0    0    0  501  0.00000000000E+00  0.00000000000E+00  0.13361999481E+04  0.13361999481E+04  0.25500000920E-02 0. -1.
        2   -1    0    0  501    0  0.00000000000E+00  0.00000000000E+00 -0.22626559711E+04  0.22626559711E+04  0.25500000920E-02 0.  1.
    10030    2    1    2    0    0  0.00000000000E+00  0.00000000000E+00 -0.92645602299E+03  0.35988559192E+04  0.34775628196E+04 0.  0.
        4    1    3    3  502    0 -0.27227406212E+03 -0.12410842467E+04 -0.16916146801E+04  0.21156524079E+04  0.12699999809E+01 0.  1.
       -4    1    3    3    0  502  0.27227406212E+03  0.12410842467E+04  0.76515865707E+03  0.14832035113E+04  0.12699999809E+01 0. -1.
</event>
<event>
 5   0  0.4857514E-07  0.3703337E+04  0.7818609E-02  0.8067223E-01
        2   -1    0    0  501    0  0.00000000000E+00  0.00000000000E+00  0.19009393055E+04  0.19009393055E+04  0.25500000920E-02 0.  1.
       -2   -1    0    0    0  501  0.00000000000E+00  0.00000000000E+00 -0.18036752207E+04  0.18036752207E+04  0.25500000920E-02 0. -1.
    10030    2    1    2    0    0  0.00000000000E+00  0.00000000000E+00  0.97264084869E+02  0.37046145262E+04  0.37033374793E+04 0.  0.
        5    1    3    3  502    0 -0.95819946339E+03 -0.28211708137E+03 -0.15110460017E+04  0.18113581558E+04  0.46999998093E+01 0. -1.
       -5    1    3    3    0  502  0.95819946339E+03  0.28211708137E+03  0.16083100866E+04  0.18932563704E+04  0.46999998093E+01 0.  1.
</event>
<event>
 5   0  0.4758908E-07  0.3721134E+04  0.7818609E-02  0.8063294E-01
        2   -1    0    0  501    0  0.00000000000E+00  0.00000000000E+00  0.16421664815E+04  0.16421664815E+04  0.25500000920E-02 0.  1.
       -2   -1    0    0    0  501  0.00000000000E+00  0.00000000000E+00 -0.21080136652E+04  0.21080136652E+04  0.25500000920E-02 0. -1.
    10030    2    1    2    0    0  0.00000000000E+00  0.00000000000E+00 -0.46584718377E+03  0.37501801467E+04  0.37211339044E+04 0.  0.
        2    1    3    3  502    0  0.12465948250E+02  0.10850774569E+04 -0.17560648358E+04  0.20642945999E+04  0.25500000920E-02 0. -1.
       -2    1    3    3    0  502 -0.12465948250E+02 -0.10850774569E+04  0.12902176521E+04  0.16858855469E+04  0.25500000920E-02 0.  1.
</event>
<event>
 5   0  0.4824268E-07  0.3674370E+04  0.7818609E-02  0.8073666E-01
       -2   -1    0    0    0  501  0.00000000000E+00  0.00000000000E+00  0.15509352340E+04  0.15509352340E+04  0.25500000920E-02 0. -1.
        2   -1    0    0  501    0  0.00000000000E+00  0.00000000000E+00 -0.21762665249E+04  0.21762665249E+04  0.25500000920E-02 0.  1.
    10030    2    1    2    0    0  0.00000000000E+00  0.00000000000E+00 -0.62533129090E+03  0.37272017589E+04  0.36743698409E+04 0.  0.
        1    1    3    3  502    0  0.42551511835E+03  0.12158137325E+04 -0.16414559007E+04  0.20865386701E+04  0.50400001928E-02 0.  1.
       -1    1    3    3    0  502 -0.42551511835E+03 -0.12158137325E+04  0.10161246098E+04  0.16406630887E+04  0.50400001928E-02 0. -1.
</event>
<event>
 5   0  0.4687817E-07  0.3709703E+04  0.7818609E-02  0.8065815E-01
        2   -1    0    0  501    0  0.00000000000E+00  0.00000000000E+00  0.17539339290E+04  0.17539339290E+04  0.25500000920E-02 0.  1.
       -2   -1    0    0    0  501  0.00000000000E+00  0.00000000000E+00 -0.19615756586E+04  0.19615756586E+04  0.25500000920E-02 0. -1.
    10030    2    1    2    0    0  0.00000000000E+00  0.00000000000E+00 -0.20764172958E+03  0.37155095876E+04  0.37097030080E+04 0.  0.
        4    1    3    3  502    0 -0.10235210976E+04  0.15224037562E+03 -0.16456133375E+04  0.19439180638E+04  0.12699999809E+01 0. -1.
       -4    1    3    3    0  502  0.10235210976E+04 -0.15224037562E+03  0.14379716079E+04  0.17715915238E+04  0.12699999809E+01 0.  1.
</event>
<event>
 5   0  0.4687817E-07  0.3701593E+04  0.7818609E-02  0.8067609E-01
       -2   -1    0    0    0  501  0.00000000000E+00  0.00000000000E+00  0.16220287833E+04  0.16220287833E+04  0.25500000920E-02 0. -1.
        2   -1    0    0  501    0  0.00000000000E+00  0.00000000000E+00 -0.21118285974E+04  0.21118285974E+04  0.25500000920E-02 0.  1.
    10030    2    1    2    0    0  0.00000000000E+00  0.00000000000E+00 -0.48979981404E+03  0.37338573807E+04  0.37015925062E+04 0.  0.
        4    1    3    3  502    0  0.88323403265E+03  0.15734573415E+04 -0.66028391217E+03  0.19214179190E+04  0.12699999809E+01 0.  1.
       -4    1    3    3    0  502 -0.88323403265E+03 -0.15734573415E+04  0.17048409813E+03  0.18124394617E+04  0.12699999809E+01 0. -1.
</event>
<event>
 5   0  0.4857514E-07  0.3516183E+04  0.7818609E-02  0.8109966E-01
       -2   -1    0    0    0  501  0.00000000000E+00  0.00000000000E+00  0.16448928308E+04  0.16448928308E+04  0.25500000920E-02 0.  1.
        2   -1    0    0  501    0  0.00000000000E+00  0.00000000000E+00 -0.18790801292E+04  0.18790801292E+04  0.25500000920E-02 0. -1.
    10030    2    1    2    0    0  0.00000000000E+00  0.00000000000E+00 -0.23418729839E+03  0.35239729600E+04  0.35161828354E+04 0.  0.
        5    1    3    3  502    0 -0.54178327604E+03  0.45628762370E+03 -0.17297377607E+04  0.18691555111E+04  0.46999998093E+01 0. -1.
       -5    1    3    3    0  502  0.54178327604E+03 -0.45628762370E+03  0.14955504623E+04  0.16548174489E+04  0.46999998093E+01 0.  1.
</event>
<event>
 5   0  0.1522273E-07  0.3742411E+04  0.7818609E-02  0.8058627E-01
       -1   -1    0    0    0  501  0.00000000000E+00  0.00000000000E+00  0.27663246425E+04  0.27663246425E+04  0.50400001928E-02 0. -1.
        1   -1    0    0  501    0  0.00000000000E+00  0.00000000000E+00 -0.12657264949E+04  0.12657264949E+04  0.50400001928E-02 0.  1.
    10030    2    1    2    0    0  0.00000000000E+00  0.00000000000E+00  0.15005981476E+04  0.40320511374E+04  0.37424111979E+04 0.  0.
        4    1    3    3  502    0  0.16501485654E+03  0.12698222282E+04  0.22203518317E+04  0.25631313395E+04  0.12699999809E+01 0. -1.
       -4    1    3    3    0  502 -0.16501485654E+03 -0.12698222282E+04 -0.71975368408E+03  0.14689197979E+04  0.12699999809E+01 0.  1.
</event>
<event>
 5   0  0.4857514E-07  0.3702335E+04  0.7818609E-02  0.8067444E-01
       -2   -1    0    0    0  501  0.00000000000E+00  0.00000000000E+00  0.10595014098E+04  0.10595014098E+04  0.25500000920E-02 0. -1.
        2   -1    0    0  501    0  0.00000000000E+00  0.00000000000E+00 -0.32343720528E+04  0.32343720528E+04  0.25500000920E-02 0.  1.
    10030    2    1    2    0    0  0.00000000000E+00  0.00000000000E+00 -0.21748706430E+04  0.42938734626E+04  0.37023353440E+04 0.  0.
        5    1    3    3  502    0  0.69312851333E+03  0.48166492403E+03  0.82333341243E+03  0.11791218059E+04  0.46999998093E+01 0. -1.
       -5    1    3    3    0  502 -0.69312851333E+03 -0.48166492403E+03 -0.29982040555E+04  0.31147516568E+04  0.46999998093E+01 0.  1.
</event>
<event>
 5   0  0.4793557E-07  0.3412770E+04  0.7818609E-02  0.8134779E-01
        2   -1    0    0  501    0  0.00000000000E+00  0.00000000000E+00  0.16151870876E+04  0.16151870876E+04  0.25500000920E-02 0. -1.
       -2   -1    0    0    0  501  0.00000000000E+00  0.00000000000E+00 -0.18027322303E+04  0.18027322303E+04  0.25500000920E-02 0.  1.
    10030    2    1    2    0    0  0.00000000000E+00  0.00000000000E+00 -0.18754514267E+03  0.34179193180E+04  0.34127700309E+04 0.  0.
        3    1    3    3  502    0  0.16308087952E+03  0.16238815869E+04 -0.59268385142E+03  0.17363354916E+04  0.10100000352E+00 0.  1.
       -3    1    3    3    0  502 -0.16308087952E+03 -0.16238815869E+04  0.40513870875E+03  0.16815838264E+04  0.10100000352E+00 0. -1.
</event>
<event>
 5   0  0.1496000E-07  0.3687434E+04  0.7818609E-02  0.8070752E-01
        1   -1    0    0  501    0  0.00000000000E+00  0.00000000000E+00  0.12529482153E+04  0.12529482153E+04  0.50400001928E-02 0. -1.
       -1   -1    0    0    0  501  0.00000000000E+00  0.00000000000E+00 -0.27130349770E+04  0.27130349770E+04  0.50400001928E-02 0.  1.
    10030    2    1    2    0    0  0.00000000000E+00  0.00000000000E+00 -0.14600867617E+04  0.39659831923E+04  0.36874339763E+04 0.  0.
        2    1    3    3  502    0 -0.10931489295E+03  0.69054508858E+03 -0.25649318738E+04  0.26585104443E+04  0.25500000920E-02 0.  1.
       -2    1    3    3    0  502  0.10931489295E+03 -0.69054508858E+03  0.11048451121E+04  0.13074727480E+04  0.25500000920E-02 0. -1.
</event>
<event>
 5   0  0.1496287E-07  0.3679136E+04  0.7818609E-02  0.8072601E-01
       -1   -1    0    0    0  501  0.00000000000E+00  0.00000000000E+00  0.17695009354E+04  0.17695009354E+04  0.50400001928E-02 0.  1.
        1   -1    0    0  501    0  0.00000000000E+00  0.00000000000E+00 -0.19124098614E+04  0.19124098615E+04  0.50400001928E-02 0. -1.
    10030    2    1    2    0    0  0.00000000000E+00  0.00000000000E+00 -0.14290892601E+03  0.36819107969E+04  0.36791363328E+04 0.  0.
        1    1    3    3  502    0  0.47577104800E+03  0.19450690325E+03 -0.18390876677E+04  0.19095639490E+04  0.50400001928E-02 0. -1.
       -1    1    3    3    0  502 -0.47577104800E+03 -0.19450690325E+03  0.16961787417E+04  0.17723468479E+04  0.50400001928E-02 0.  1.
</event>
<event>
 5   0  0.1496000E-07  0.3699222E+04  0.7818609E-02  0.8068134E-01
       -1   -1    0    0    0  501  0.00000000000E+00  0.00000000000E+00  0.14214950321E+04  0.14214950321E+04  0.50400001928E-02 0.  1.
        1   -1    0    0  501    0  0.00000000000E+00  0.00000000000E+00 -0.24066643363E+04  0.24066643363E+04  0.50400001928E-02 0. -1.
    10030    2    1    2    0    0  0.00000000000E+00  0.00000000000E+00 -0.98516930424E+03  0.38281593685E+04  0.36992222956E+04 0.  0.
        5    1    3    3  502    0 -0.13986657118E+04 -0.42459380800E+03 -0.16654429840E+04  0.22159124753E+04  0.46999998093E+01 0. -1.
       -5    1    3    3    0  502  0.13986657118E+04  0.42459380800E+03  0.68027367979E+03  0.16122468932E+04  0.46999998093E+01 0.  1.
</event>
<event>
 5   0  0.1496000E-07  0.3720019E+04  0.7818609E-02  0.8063540E-01
        1   -1    0    0  501    0  0.00000000000E+00  0.00000000000E+00  0.17532027892E+04  0.17532027892E+04  0.50400001928E-02 0.  1.
       -1   -1    0    0    0  501  0.00000000000E+00  0.00000000000E+00 -0.19733226819E+04  0.19733226819E+04  0.50400001928E-02 0. -1.
    10030    2    1    2    0    0  0.00000000000E+00  0.00000000000E+00 -0.22011989272E+03  0.37265254710E+04  0.37200187256E+04 0.  0.
        5    1    3    3  502    0  0.69777402134E+03 -0.15539466595E+04  0.63822313104E+03  0.18190628523E+04  0.46999998093E+01 0. -1.
       -5    1    3    3    0  502 -0.69777402134E+03  0.15539466595E+04 -0.85834302376E+03  0.19074626188E+04  0.46999998093E+01 0.  1.
</event>
<event>
 5   0  0.4824268E-07  0.3641824E+04  0.7818609E-02  0.8080978E-01
       -2   -1    0    0    0  501  0.00000000000E+00  0.00000000000E+00  0.16064893266E+04  0.16064893266E+04  0.25500000920E-02 0.  1.
        2   -1    0    0  501    0  0.00000000000E+00  0.00000000000E+00 -0.20639540469E+04  0.20639540469E+04  0.25500000920E-02 0. -1.
    10030    2    1    2    0    0  0.00000000000E+00  0.00000000000E+00 -0.45746472037E+03  0.36704433735E+04  0.36418237997E+04 0.  0.
        1    1    3    3  502    0 -0.46933999438E+03 -0.15761801956E+04  0.55913726477E+03  0.17370257684E+04  0.50400001928E-02 0.  1.
       -1    1    3    3    0  502  0.46933999438E+03  0.15761801956E+04 -0.10166019851E+04  0.19334176051E+04  0.50400001928E-02 0. -1.
</event>
<event>
 5   0  0.4824268E-07  0.3684698E+04  0.7818609E-02  0.8071361E-01
       -2   -1    0    0    0  501  0.00000000000E+00  0.00000000000E+00  0.13030492475E+04  0.13030492476E+04  0.25500000920E-02 0. -1.
        2   -1    0    0  501    0  0.00000000000E+00  0.00000000000E+00 -0.26048516940E+04  0.26048516940E+04  0.25500000920E-02 0.  1.
    10030    2    1    2    0    0  0.00000000000E+00  0.00000000000E+00 -0.13018024465E+04  0.39079009416E+04  0.36846981097E+04 0.  0.
        1    1    3    3  502    0 -0.10073460414E+03 -0.18125355233E+04 -0.98429592211E+03  0.20650111249E+04  0.50400001928E-02 0.  1.
       -1    1    3    3    0  502  0.10073460414E+03  0.18125355233E+04 -0.31750652439E+03  0.18428898167E+04  0.50400001928E-02 0. -1.
</event>
<event>
 5   0  0.1496287E-07  0.3724488E+04  0.7818609E-02  0.8062556E-01
        1   -1    0    0  501    0  0.00000000000E+00  0.00000000000E+00  0.20305466069E+04  0.20305466069E+04  0.50400001928E-02 0. -1.
       -1   -1    0    0    0  501  0.00000000000E+00  0.00000000000E+00 -0.17078915039E+04  0.17078915039E+04  0.50400001928E-02 0.  1.
    10030    2    1    2    0    0  0.00000000000E+00  0.00000000000E+00  0.32265510302E+03  0.37384381108E+04  0.37244883129E+04 0.  0.
        1    1    3    3  502    0  0.11222750732E+04  0.70960488863E+03  0.14719411595E+04  0.19823347888E+04  0.50400001928E-02 0. -1.
       -1    1    3    3    0  502 -0.11222750732E+04 -0.70960488863E+03 -0.11492860565E+04  0.17561033220E+04  0.50400001928E-02 0.  1.
</event>
<event>
 5   0  0.4758908E-07  0.3678814E+04  0.7818609E-02  0.8072673E-01
        2   -1    0    0  501    0  0.00000000000E+00  0.00000000000E+00  0.16759140954E+04  0.16759140954E+04  0.25500000920E-02 0.  1.
       -2   -1    0    0    0  501  0.00000000000E+00  0.00000000000E+00 -0.20188489673E+04  0.20188489673E+04  0.25500000920E-02 0. -1.
    10030    2    1    2    0    0  0.00000000000E+00  0.00000000000E+00 -0.34293487188E+03  0.36947630627E+04  0.36788136353E+04 0.  0.
        2    1    3    3  502    0  0.15062199776E+04  0.10135330897E+04  0.12556721655E+03  0.18198118229E+04  0.25500000920E-02 0. -1.
       -2    1    3    3    0  502 -0.15062199776E+04 -0.10135330897E+04 -0.46850208844E+03  0.18749512398E+04  0.25500000920E-02 0.  1.
</event>
<event>
 5   0  0.4857514E-07  0.3757827E+04  0.7818609E-02  0.8055266E-01
        2   -1    0    0  501    0  0.00000000000E+00  0.00000000000E+00  0.15818945317E+04  0.15818945317E+04  0.25500000920E-02 0.  1.
       -2   -1    0    0    0  501  0.00000000000E+00  0.00000000000E+00 -0.22317009705E+04  0.22317009705E+04  0.25500000920E-02 0. -1.
    10030    2    1    2    0    0  0.00000000000E+00  0.00000000000E+00 -0.64980643887E+03  0.38135955022E+04  0.37578267983E+04 0.  0.
        5    1    3    3  502    0 -0.16589968545E+04  0.15559823981E+03 -0.12060117755E+04  0.20569316635E+04  0.46999998093E+01 0. -1.
       -5    1    3    3    0  502  0.16589968545E+04 -0.15559823981E+03  0.55620533668E+03  0.17566638387E+04  0.46999998093E+01 0.  1.
</event>
<event>
 5   0  0.4857514E-07  0.3680862E+04  0.7818609E-02  0.8072216E-01
        2   -1    0    0  501    0  0.00000000000E+00  0.00000000000E+00  0.26327483850E+04  0.26327483850E+04  0.25500000920E-02 0.  1.
       -2   -1    0    0    0  501  0.00000000000E+00  0.00000000000E+00 -0.12865587497E+04  0.12865587497E+04  0.25500000920E-02 0. -1.
    10030    2    1    2    0    0  0.00000000000E+00  0.00000000000E+00  0.13461896352E+04  0.39193071347E+04  0.36808615679E+04 0.  0.
        5    1    3    3  502    0 -0.67176133900E+03  0.11024097499E+04  0.20697810997E+04  0.24393823898E+04  0.46999998093E+01 0.  1.
       -5    1    3    3    0  502  0.67176133900E+03 -0.11024097499E+04 -0.72359146444E+03  0.14799247449E+04  0.46999998093E+01 0. -1.
</event>
<event>
 5   0  0.1496287E-07  0.3693634E+04  0.7818609E-02  0.8069374E-01
        1   -1    0    0  501    0  0.00000000000E+00  0.00000000000E+00  0.22505955727E+04  0.22505955727E+04  0.50400001928E-02 0.  1.
       -1   -1    0    0    0  501  0.00000000000E+00  0.00000000000E+00 -0.15154802899E+04  0.15154802899E+04  0.50400001928E-02 0. -1.
    10030    2    1    2    0    0  0.00000000000E+00  0.00000000000E+00  0.73511528278E+03  0.37660758626E+04  0.36936341080E+04 0.  0.
        1    1    3    3  502    0  0.10533608529E+04 -0.26673276630E+02  0.19140288692E+04  0.21848997831E+04  0.50400001928E-02 0.  1.
       -1    1    3    3    0  502 -0.10533608529E+04  0.26673276630E+02 -0.11789135864E+04  0.15811760795E+04  0.50400001928E-02 0. -1.
</event>
<event>
 5   0  0.1522273E-07  0.3711339E+04  0.7818609E-02  0.8065454E-01
        1   -1    0    0  501    0  0.00000000000E+00  0.00000000000E+00  0.25710668224E+04  0.25710668224E+04  0.50400001928E-02 0.  1.
       -1   -1    0    0    0  501  0.00000000000E+00  0.00000000000E+00 -0.13393310924E+04  0.13393310924E+04  0.50400001928E-02 0. -1.
    10030    2    1    2    0    0  0.00000000000E+00  0.00000000000E+00  0.12317357300E+04  0.39103979148E+04  0.37113392385E+04 0.  0.
        4    1    3    3  502    0  0.80653957650E+03 -0.82097722733E+03  0.21496215406E+04  0.24383158279E+04  0.12699999809E+01 0.  1.
       -4    1    3    3    0  502 -0.80653957650E+03  0.82097722733E+03 -0.91788581054E+03  0.14720820868E+04  0.12699999809E+01 0. -1.
</event>
<event>
 5   0  0.4793557E-07  0.3703581E+04  0.7818609E-02  0.8067169E-01
        2   -1    0    0  501    0  0.00000000000E+00  0.00000000000E+00  0.16665484486E+04  0.16665484486E+04  0.25500000920E-02 0.  1.
       -2   -1    0    0    0  501  0.00000000000E+00  0.00000000000E+00 -0.20576225055E+04  0.20576225055E+04  0.25500000920E-02 0. -1.
    10030    2    1    2    0    0  0.00000000000E+00  0.00000000000E+00 -0.39107405690E+03  0.37241709540E+04  0.37035807507E+04 0.  0.
        3    1    3    3  502    0  0.17372057710E+04 -0.48017018971E+03  0.23189117029E+03  0.18172013721E+04  0.10100000352E+00 0.  1.
       -3    1    3    3    0  502 -0.17372057710E+04  0.48017018971E+03 -0.62296522719E+03  0.19069695819E+04  0.10100000352E+00 0. -1.
</event>
<event>
 5   0  0.4824268E-07  0.3728536E+04  0.7818609E-02  0.8061667E-01
        2   -1    0    0  501    0  0.00000000000E+00  0.00000000000E+00  0.23608434563E+04  0.23608434563E+04  0.25500000920E-02 0.  1.
       -2   -1    0    0    0  501  0.00000000000E+00  0.00000000000E+00 -0.14721412600E+04  0.14721412600E+04  0.25500000920E-02 0. -1.
    10030    2    1    2    0    0  0.00000000000E+00  0.00000000000E+00  0.88870219623E+03  0.38329847163E+04  0.37285359381E+04 0.  0.
        1    1    3    3  502    0 -0.64043510346E+03  0.45169635045E+03  0.21832770336E+04  0.23196735374E+04  0.50400001928E-02 0.  1.
       -1    1    3    3    0  502  0.64043510346E+03 -0.45169635045E+03 -0.12945748373E+04  0.15133111789E+04  0.50400001928E-02 0. -1.
</event>
<event>
 5   0  0.4857514E-07  0.3614896E+04  0.7818609E-02  0.8087088E-01
        2   -1    0    0  501    0  0.00000000000E+00  0.00000000000E+00  0.20247663523E+04  0.20247663523E+04  0.25500000920E-02 0.  1.
       -2   -1    0    0    0  501  0.00000000000E+00  0.00000000000E+00 -0.16134546526E+04  0.16134546526E+04  0.25500000920E-02 0. -1.
    10030    2    1    2    0    0  0.00000000000E+00  0.00000000000E+00  0.41131169963E+03  0.36382210049E+04  0.36148962318E+04 0.  0.
        5    1    3    3  502    0  0.16046956774E+04  0.79165665829E+03  0.46240602040E+03  0.18481368725E+04  0.46999998093E+01 0.  1.
       -5    1    3    3    0  502 -0.16046956774E+04 -0.79165665829E+03 -0.51094320764E+02  0.17900841325E+04  0.46999998093E+01 0. -1.
</event>
<event>
 5   0  0.1496000E-07  0.3745934E+04  0.7818609E-02  0.8057858E-01
       -1   -1    0    0    0  501  0.00000000000E+00  0.00000000000E+00  0.13908132015E+04  0.13908132016E+04  0.50400001928E-02 0. -1.
        1   -1    0    0  501    0  0.00000000000E+00  0.00000000000E+00 -0.25222699005E+04  0.25222699005E+04  0.50400001928E-02 0.  1.
    10030    2    1    2    0    0  0.00000000000E+00  0.00000000000E+00 -0.11314566989E+04  0.39130831020E+04  0.37459344765E+04 0.  0.
        2    1    3    3  502    0  0.12700857241E+04 -0.13498478450E+04 -0.28387541029E+03  0.18750445861E+04  0.25500000920E-02 0.  1.
       -2    1    3    3    0  502 -0.12700857241E+04  0.13498478450E+04 -0.84758128864E+03  0.20380385159E+04  0.25500000920E-02 0. -1.
</event>
<event>
 5   0  0.4793557E-07  0.3981107E+04  0.7818609E-02  0.8008369E-01
        2   -1    0    0  501    0  0.00000000000E+00  0.00000000000E+00  0.29851214222E+04  0.29851214222E+04  0.25500000920E-02 0. -1.
       -2   -1    0    0    0  501  0.00000000000E+00  0.00000000000E+00 -0.13273510094E+04  0.13273510094E+04  0.25500000920E-02 0.  1.
    10030    2    1    2    0    0  0.00000000000E+00  0.00000000000E+00  0.16577704128E+04  0.43124724316E+04  0.39811073499E+04 0.  0.
        3    1    3    3  502    0  0.19004559378E+04 -0.26098949987E+03  0.25318343890E+03  0.19349289792E+04  0.10100000352E+00 0. -1.
       -3    1    3    3    0  502 -0.19004559378E+04  0.26098949987E+03  0.14045869739E+04  0.23775434524E+04  0.10100000352E+00 0.  1.
</event>
<event>
 5   0  0.4687817E-07  0.3703839E+04  0.7818609E-02  0.8067111E-01
       -2   -1    0    0    0  501  0.00000000000E+00  0.00000000000E+00  0.11882548762E+04  0.11882548763E+04  0.25500000920E-02 0.  1.
        2   -1    0    0  501    0  0.00000000000E+00  0.00000000000E+00 -0.28862550446E+04  0.28862550446E+04  0.25500000920E-02 0. -1.
    10030    2    1    2    0    0  0.00000000000E+00  0.00000000000E+00 -0.16980001684E+04  0.40745099209E+04  0.37038394300E+04 0.  0.
        4    1    3    3  502    0 -0.95777310698E+03  0.47597630216E+03  0.81416346080E+03  0.13441527140E+04  0.12699999809E+01 0.  1.
       -4    1    3    3    0  502  0.95777310698E+03 -0.47597630216E+03 -0.25121636292E+04  0.27303572069E+04  0.12699999809E+01 0. -1.
</event>
<event>
 5   0  0.4793557E-07  0.3703067E+04  0.7818609E-02  0.8067282E-01
       -2   -1    0    0    0  501  0.00000000000E+00  0.00000000000E+00  0.12847587619E+04  0.12847587619E+04  0.25500000920E-02 0. -1.
        2   -1    0    0  501    0  0.00000000000E+00  0.00000000000E+00 -0.26683427924E+04  0.26683427924E+04  0.25500000920E-02 0.  1.
    10030    2    1    2    0    0  0.00000000000E+00  0.00000000000E+00 -0.13835840305E+04  0.39531015543E+04  0.37030672596E+04 0.  0.
        3    1    3    3  502    0  0.17861611558E+04  0.29758259270E+03 -0.27937829789E+03  0.18322061340E+04  0.10100000352E+00 0. -1.
       -3    1    3    3    0  502 -0.17861611558E+04 -0.29758259270E+03 -0.11042057326E+04  0.21208954203E+04  0.10100000352E+00 0.  1.
</event>
<event>
 5   0  0.4687817E-07  0.3717759E+04  0.7818609E-02  0.8064037E-01
        2   -1    0    0  501    0  0.00000000000E+00  0.00000000000E+00  0.16458729173E+04  0.16458729173E+04  0.25500000920E-02 0.  1.
       -2   -1    0    0    0  501  0.00000000000E+00  0.00000000000E+00 -0.20994536393E+04  0.20994536393E+04  0.25500000920E-02 0. -1.
    10030    2    1    2    0    0  0.00000000000E+00  0.00000000000E+00 -0.45358072201E+03  0.37453265566E+04  0.37177594791E+04 0.  0.
        4    1    3    3  502    0 -0.62156017685E+03  0.58544957411E+03 -0.18901981394E+04  0.20741115872E+04  0.12699999809E+01 0. -1.
       -4    1    3    3    0  502  0.62156017685E+03 -0.58544957411E+03  0.14366174173E+04  0.16712149694E+04  0.12699999809E+01 0.  1.
</event>
<event>
 5   0  0.4824268E-07  0.3713412E+04  0.7818609E-02  0.8064996E-01
        2   -1    0    0  501    0  0.00000000000E+00  0.00000000000E+00  0.22317919662E+04  0.22317919662E+04  0.25500000920E-02 0.  1.
       -2   -1    0    0    0  501  0.00000000000E+00  0.00000000000E+00 -0.15446587522E+04  0.15446587522E+04  0.25500000920E-02 0. -1.
    10030    2    1    2    0    0  0.00000000000E+00  0.00000000000E+00  0.68713321406E+03  0.37764507184E+04  0.37134119048E+04 0.  0.
        1    1    3    3  502    0  0.25623172588E+03  0.14218309846E+04 -0.84246414165E+03  0.16724245502E+04  0.50400001928E-02 0. -1.
       -1    1    3    3    0  502 -0.25623172588E+03 -0.14218309846E+04  0.15295973557E+04  0.21040261682E+04  0.50400001928E-02 0.  1.
</event>
<event>
 5   0  0.1522273E-07  0.3717176E+04  0.7818609E-02  0.8064166E-01
       -1   -1    0    0    0  501  0.00000000000E+00  0.00000000000E+00  0.16482450062E+04  0.16482450062E+04  0.50400001928E-02 0.  1.
        1   -1    0    0  501    0  0.00000000000E+00  0.00000000000E+00 -0.20957745249E+04  0.20957745249E+04  0.50400001928E-02 0. -1.
    10030    2    1    2    0    0  0.00000000000E+00  0.00000000000E+00 -0.44752951870E+03  0.37440195310E+04  0.37171762910E+04 0.  0.
        4    1    3    3  502    0 -0.51996859407E+03 -0.40242987373E+02 -0.20205645953E+04  0.20867845441E+04  0.12699999809E+01 0. -1.
       -4    1    3    3    0  502  0.51996859407E+03  0.40242987373E+02  0.15730350766E+04  0.16572349869E+04  0.12699999809E+01 0.  1.
</event>
<event>
 5   0  0.4793557E-07  0.3613839E+04  0.7818609E-02  0.8087329E-01
       -2   -1    0    0    0  501  0.00000000000E+00  0.00000000000E+00  0.24919186112E+04  0.24919186112E+04  0.25500000920E-02 0. -1.
        2   -1    0    0  501    0  0.00000000000E+00  0.00000000000E+00 -0.13102189210E+04  0.13102189210E+04  0.25500000920E-02 0.  1.
    10030    2    1    2    0    0  0.00000000000E+00  0.00000000000E+00  0.11816996902E+04  0.38021375322E+04  0.36138394618E+04 0.  0.
        3    1    3    3  502    0 -0.42599183250E+03  0.75687241405E+03 -0.10762080024E+04  0.13829492280E+04  0.10100000352E+00 0.  1.
       -3    1    3    3    0  502  0.42599183250E+03 -0.75687241405E+03  0.22579076926E+04  0.24191883042E+04  0.10100000352E+00 0. -1.
</event>
<event>
 5   0  0.4857514E-07  0.3705870E+04  0.7818609E-02  0.8066662E-01
       -2   -1    0    0    0  501  0.00000000000E+00  0.00000000000E+00  0.26353945887E+04  0.26353945887E+04  0.25500000920E-02 0.  1.
        2   -1    0    0  501    0  0.00000000000E+00  0.00000000000E+00 -0.13027910651E+04  0.13027910651E+04  0.25500000920E-02 0. -1.
    10030    2    1    2    0    0  0.00000000000E+00  0.00000000000E+00  0.13326035235E+04  0.39381856538E+04  0.37058702207E+04 0.  0.
        5    1    3    3  502    0  0.10568923422E+04  0.57192465370E+03 -0.83251373262E+03  0.14619235402E+04  0.46999998093E+01 0. -1.
       -5    1    3    3    0  502 -0.10568923422E+04 -0.57192465370E+03  0.21651172561E+04  0.24762621136E+04  0.46999998093E+01 0.  1.
</event>
<event>
 5   0  0.1496000E-07  0.3707372E+04  0.7818609E-02  0.8066330E-01
        1   -1    0    0  501    0  0.00000000000E+00  0.00000000000E+00  0.23372152926E+04  0.23372152926E+04  0.50400001928E-02 0. -1.
       -1   -1    0    0    0  501  0.00000000000E+00  0.00000000000E+00 -0.14701902955E+04  0.14701902955E+04  0.50400001928E-02 0.  1.
    10030    2    1    2    0    0  0.00000000000E+00  0.00000000000E+00  0.86702499705E+03  0.38074055881E+04  0.37073717061E+04 0.  0.
        3    1    3    3  502    0  0.75447818473E+03  0.12071337898E+04 -0.78584995440E+03  0.16260287447E+04  0.10100000352E+00 0.  1.
       -3    1    3    3    0  502 -0.75447818473E+03 -0.12071337898E+04  0.16528749514E+04  0.21813768434E+04  0.10100000352E+00 0. -1.
</event>
<event>
 5   0  0.1522273E-07  0.3625106E+04  0.7818609E-02  0.8084765E-01
       -1   -1    0    0    0  501  0.00000000000E+00  0.00000000000E+00  0.16370235803E+04  0.16370235803E+04  0.50400001928E-02 0.  1.
        1   -1    0    0  501    0  0.00000000000E+00  0.00000000000E+00 -0.20069038080E+04  0.20069038080E+04  0.50400001928E-02 0. -1.
    10030    2    1    2    0    0  0.00000000000E+00  0.00000000000E+00 -0.36988022774E+03  0.36439273883E+04  0.36251062644E+04 0.  0.
        4    1    3    3  502    0 -0.11548363231E+04 -0.34366002149E+03 -0.15460746319E+04  0.19601269153E+04  0.12699999809E+01 0. -1.
       -4    1    3    3    0  502  0.11548363231E+04  0.34366002149E+03  0.11761944042E+04  0.16838004730E+04  0.12699999809E+01 0.  1.
</event>
<event>
 5   0  0.4687817E-07  0.3857378E+04  0.7818609E-02  0.8033953E-01
        2   -1    0    0  501    0  0.00000000000E+00  0.00000000000E+00  0.28576565868E+04  0.28576565868E+04  0.25500000920E-02 0.  1.
       -2   -1    0    0    0  501  0.00000000000E+00  0.00000000000E+00 -0.13017103455E+04  0.13017103455E+04  0.25500000920E-02 0. -1.
    10030    2    1    2    0    0  0.00000000000E+00  0.00000000000E+00  0.15559462413E+04  0.41593669323E+04  0.38573779399E+04 0.  0.
        4    1    3    3  502    0 -0.61725264972E+03  0.18271162233E+04  0.75422620147E+03  0.20708001600E+04  0.12699999809E+01 0.  1.
       -4    1    3    3    0  502  0.61725264972E+03 -0.18271162233E+04  0.80172003984E+03  0.20885667722E+04  0.12699999809E+01 0. -1.
</event>
<event>
 5   0  0.1496000E-07  0.3793676E+04  0.7818609E-02  0.8047513E-01
        1   -1    0    0  501    0  0.00000000000E+00  0.00000000000E+00  0.15098335327E+04  0.15098335327E+04  0.50400001928E-02 0. -1.
       -1   -1    0    0    0  501  0.00000000000E+00  0.00000000000E+00 -0.23830404877E+04  0.23830404877E+04  0.50400001928E-02 0.  1.
    10030    2    1    2    0    0  0.00000000000E+00  0.00000000000E+00 -0.87320695497E+03  0.38928740204E+04  0.37936760210E+04 0.  0.
        3    1    3    3  502    0 -0.40149780809E+03 -0.18437681380E+04 -0.63482013327E+03  0.19908988041E+04  0.10100000352E+00 0. -1.
       -3    1    3    3    0  502  0.40149780809E+03  0.18437681380E+04 -0.23838682170E+03  0.19019752163E+04  0.10100000352E+00 0.  1.
</event>
<event>
 5   0  0.4857514E-07  0.3691837E+04  0.7818609E-02  0.8069773E-01
       -2   -1    0    0    0  501  0.00000000000E+00  0.00000000000E+00  0.12562727546E+04  0.12562727546E+04  0.25500000920E-02 0.  1.
        2   -1    0    0  501    0  0.00000000000E+00  0.00000000000E+00 -0.27123209507E+04  0.27123209507E+04  0.25500000920E-02 0. -1.
    10030    2    1    2    0    0  0.00000000000E+00  0.00000000000E+00 -0.14560481961E+04  0.39685937053E+04  0.36918368935E+04 0.  0.
        5    1    3    3  502    0  0.67607774108E+03 -0.15502978050E+04 -0.15229808454E+04  0.22759607074E+04  0.46999998093E+01 0. -1.
       -5    1    3    3    0  502 -0.67607774108E+03  0.15502978050E+04  0.66932649365E+02  0.16926329979E+04  0.46999998093E+01 0.  1.
</event>
<event>
 5   0  0.4758908E-07  0.4003487E+04  0.7818609E-02  0.8003844E-01
        2   -1    0    0  501    0  0.00000000000E+00  0.00000000000E+00  0.20023475197E+04  0.20023475197E+04  0.25500000920E-02 0.  1.
       -2   -1    0    0    0  501  0.00000000000E+00  0.00000000000E+00 -0.20011394614E+04  0.20011394614E+04  0.25500000920E-02 0. -1.
    10030    2    1    2    0    0  0.00000000000E+00  0.00000000000E+00  0.12080582796E+01  0.40034869811E+04  0.40034867988E+04 0.  0.
        2    1    3    3  502    0  0.41988659378E+02  0.17381723547E+04 -0.99134886514E+03  0.20014441673E+04  0.25500000920E-02 0. -1.
       -2    1    3    3    0  502 -0.41988659378E+02 -0.17381723547E+04  0.99255692342E+03  0.20020428138E+04  0.25500000920E-02 0.  1.
</event>
<event>
 5   0  0.4857514E-07  0.3586151E+04  0.7818609E-02  0.8093671E-01
       -2   -1    0    0    0  501  0.00000000000E+00  0.00000000000E+00  0.16594522710E+04  0.16594522710E+04  0.25500000920E-02 0. -1.
        2   -1    0    0  501    0  0.00000000000E+00  0.00000000000E+00 -0.19374582265E+04  0.19374582265E+04  0.25500000920E-02 0.  1.
    10030    2    1    2    0    0  0.00000000000E+00  0.00000000000E+00 -0.27800595551E+03  0.35969104975E+04  0.35861508356E+04 0.  0.
        5    1    3    3  502    0 -0.14638359125E+04  0.52087706394E+02 -0.11763054495E+04  0.18786285711E+04  0.46999998093E+01 0.  1.
       -5    1    3    3    0  502  0.14638359125E+04 -0.52087706394E+02  0.89829949397E+03  0.17182819264E+04  0.46999998093E+01 0. -1.
</event>
<event>
 5   0  0.1496000E-07  0.3701558E+04  0.7818609E-02  0.8067617E-01
       -1   -1    0    0    0  501  0.00000000000E+00  0.00000000000E+00  0.17025439756E+04  0.17025439756E+04  0.50400001928E-02 0. -1.
        1   -1    0    0  501    0  0.00000000000E+00  0.00000000000E+00 -0.20119200457E+04  0.20119200457E+04  0.50400001928E-02 0.  1.
    10030    2    1    2    0    0  0.00000000000E+00  0.00000000000E+00 -0.30937607013E+03  0.37144640213E+04  0.37015577008E+04 0.  0.
        5    1    3    3  502    0 -0.10603849304E+04  0.13927671490E+04 -0.75773574517E+03  0.19074595885E+04  0.46999998093E+01 0.  1.
       -5    1    3    3    0  502  0.10603849304E+04 -0.13927671490E+04  0.44835967504E+03  0.18070044328E+04  0.46999998093E+01 0. -1.
</event>
<event>
 5   0  0.1522273E-07  0.3692687E+04  0.7818609E-02  0.8069584E-01
        1   -1    0    0  501    0  0.00000000000E+00  0.00000000000E+00  0.20668155895E+04  0.20668155895E+04  0.50400001928E-02 0. -1.
       -1   -1    0    0    0  501  0.00000000000E+00  0.00000000000E+00 -0.16493893693E+04  0.16493893693E+04  0.50400001928E-02 0.  1.
    10030    2    1    2    0    0  0.00000000000E+00  0.00000000000E+00  0.41742622024E+03  0.37162049588E+04  0.36926866434E+04 0.  0.
        4    1    3    3  502    0 -0.70063448627E+03 -0.28230775610E+03  0.19041970203E+04  0.20485493056E+04  0.12699999809E+01 0. -1.
       -4    1    3    3    0  502  0.70063448627E+03  0.28230775610E+03 -0.14867708001E+04  0.16676556531E+04  0.12699999809E+01 0.  1.
</event>
<event>
 5   0  0.4793557E-07  0.3680951E+04  0.7818609E-02  0.8072196E-01
        2   -1    0    0  501    0  0.00000000000E+00  0.00000000000E+00  0.28929002142E+04  0.28929002142E+04  0.25500000920E-02 0.  1.
       -2   -1    0    0    0  501  0.00000000000E+00  0.00000000000E+00 -0.11709183653E+04  0.11709183653E+04  0.25500000920E-02 0. -1.
    10030    2    1    2    0    0  0.00000000000E+00  0.00000000000E+00  0.17219818489E+04  0.40638185795E+04  0.36809509586E+04 0.  0.
        3    1    3    3  502    0  0.10733977196E+04  0.14787568444E+04  0.61799384871E+03  0.19289429428E+04  0.10100000352E+00 0. -1.
       -3    1    3    3    0  502 -0.10733977196E+04 -0.14787568444E+04  0.11039880002E+04  0.21348756367E+04  0.10100000352E+00 0.  1.
</event>
<event>
 5   0  0.1496000E-07  0.3185354E+04  0.7818609E-02  0.8192696E-01
        1   -1    0    0  501    0  0.00000000000E+00  0.00000000000E+00  0.14765910091E+04  0.14765910091E+04  0.50400001928E-02 0. -1.
       -1   -1    0    0    0  501  0.00000000000E+00  0.00000000000E+00 -0.17178896232E+04  0.17178896232E+04  0.50400001928E-02 0.  1.
    10030    2    1    2    0    0  0.00000000000E+00  0.00000000000E+00 -0.24129861408E+03  0.31944806323E+04  0.31853542172E+04 0.  0.
        2    1    3    3  502    0  0.27413186095E+03  0.87095321400E+03  0.11880464802E+04  0.14983865380E+04  0.25500000920E-02 0. -1.
       -2    1    3    3    0  502 -0.27413186095E+03 -0.87095321400E+03 -0.14293450943E+04  0.16960940943E+04  0.25500000920E-02 0.  1.
</event>
<event>
 5   0  0.4687817E-07  0.3653515E+04  0.7818609E-02  0.8078342E-01
        2   -1    0    0  501    0  0.00000000000E+00  0.00000000000E+00  0.15517079488E+04  0.15517079488E+04  0.25500000920E-02 0.  1.
       -2   -1    0    0    0  501  0.00000000000E+00  0.00000000000E+00 -0.21505618146E+04  0.21505618146E+04  0.25500000920E-02 0. -1.
    10030    2    1    2    0    0  0.00000000000E+00  0.00000000000E+00 -0.59885386583E+03  0.37022697634E+04  0.36535154917E+04 0.  0.
        4    1    3    3  502    0  0.61732453813E+03 -0.41842355873E+02  0.14422884683E+04  0.15694068965E+04  0.12699999809E+01 0.  1.
       -4    1    3    3    0  502 -0.61732453813E+03  0.41842355873E+02 -0.20411423341E+04  0.21328628669E+04  0.12699999809E+01 0. -1.
</event>
<event>
 5   0  0.1522273E-07  0.3721045E+04  0.7818609E-02  0.8063314E-01
       -1   -1    0    0    0  501  0.00000000000E+00  0.00000000000E+00  0.17617521648E+04  0.17617521648E+04  0.50400001928E-02 0. -1.
        1   -1    0    0  501    0  0.00000000000E+00  0.00000000000E+00 -0.19648304890E+04  0.19648304890E+04  0.50400001928E-02 0.  1.
    10030    2    1    2    0    0  0.00000000000E+00  0.00000000000E+00 -0.20307832429E+03  0.37265826538E+04  0.37210452120E+04 0.  0.
        4    1    3    3  502    0 -0.35713515846E+03  0.78372461684E+03 -0.17531667822E+04  0.19532959774E+04  0.12699999809E+01 0.  1.
       -4    1    3    3    0  502  0.35713515846E+03 -0.78372461684E+03  0.15500884579E+04  0.17732866764E+04  0.12699999809E+01 0. -1.
</event>
<event>
 5   0  0.1496287E-07  0.3703067E+04  0.7818609E-02  0.8067283E-01
       -1   -1    0    0    0  501  0.00000000000E+00  0.00000000000E+00  0.18169078538E+04  0.18169078539E+04  0.50400001928E-02 0. -1.
        1   -1    0    0  501    0  0.00000000000E+00  0.00000000000E+00 -0.18868186151E+04  0.18868186151E+04  0.50400001928E-02 0.  1.
    10030    2    1    2    0    0  0.00000000000E+00  0.00000000000E+00 -0.69910761242E+02  0.37037264689E+04  0.37030665998E+04 0.  0.
        1    1    3    3  502    0  0.15706762674E+04 -0.10884485844E+02  0.94554229158E+03  0.18333555668E+04  0.50400001928E-02 0. -1.
       -1    1    3    3    0  502 -0.15706762674E+04  0.10884485844E+02 -0.10154530528E+04  0.18703709022E+04  0.50400001928E-02 0.  1.
</event>
<event>
 5   0  0.1496000E-07  0.3575666E+04  0.7818609E-02  0.8096089E-01
        1   -1    0    0  501    0  0.00000000000E+00  0.00000000000E+00  0.20822531373E+04  0.20822531373E+04  0.50400001928E-02 0.  1.
       -1   -1    0    0    0  501  0.00000000000E+00  0.00000000000E+00 -0.15350424549E+04  0.15350424549E+04  0.50400001928E-02 0. -1.
    10030    2    1    2    0    0  0.00000000000E+00  0.00000000000E+00  0.54721068234E+03  0.36172955922E+04  0.35756660737E+04 0.  0.
        5    1    3    3  502    0 -0.16800192864E+03 -0.12015373191E+04  0.16020611056E+04  0.20096115180E+04  0.46999998093E+01 0.  1.
       -5    1    3    3    0  502  0.16800192864E+03  0.12015373191E+04 -0.10548504232E+04  0.16076840742E+04  0.46999998093E+01 0. -1.
</event>
<event>
 5   0  0.1496000E-07  0.3696676E+04  0.7818609E-02  0.8068699E-01
        1   -1    0    0  501    0  0.00000000000E+00  0.00000000000E+00  0.97504798368E+03  0.97504798369E+03  0.50400001928E-02 0.  1.
       -1   -1    0    0    0  501  0.00000000000E+00  0.00000000000E+00 -0.35037792404E+04  0.35037792404E+04  0.50400001928E-02 0. -1.
    10030    2    1    2    0    0  0.00000000000E+00  0.00000000000E+00 -0.25287312567E+04  0.44788272241E+04  0.36966757411E+04 0.  0.
        3    1    3    3  502    0  0.16739562016E+04  0.60650200994E+03 -0.66297779478E+03  0.18998720008E+04  0.10100000352E+00 0.  1.
       -3    1    3    3    0  502 -0.16739562016E+04 -0.60650200994E+03 -0.18657534619E+04  0.25789552233E+04  0.10100000352E+00 0. -1.
</event>
<event>
 5   0  0.4758908E-07  0.3776728E+04  0.7818609E-02  0.8051168E-01
       -2   -1    0    0    0  501  0.00000000000E+00  0.00000000000E+00  0.22494227043E+04  0.22494227043E+04  0.25500000920E-02 0.  1.
        2   -1    0    0  501    0  0.00000000000E+00  0.00000000000E+00 -0.15852592934E+04  0.15852592934E+04  0.25500000920E-02 0. -1.
    10030    2    1    2    0    0  0.00000000000E+00  0.00000000000E+00  0.66416341095E+03  0.38346819977E+04  0.37767278148E+04 0.  0.
        2    1    3    3  502    0  0.13356106136E+04 -0.27547059310E+03 -0.99416982731E+03  0.16876354477E+04  0.25500000920E-02 0. -1.
       -2    1    3    3    0  502 -0.13356106136E+04  0.27547059310E+03  0.16583332383E+04  0.21470465500E+04  0.25500000920E-02 0.  1.
</event>
<event>
 5   0  0.1522273E-07  0.3710749E+04  0.7818609E-02  0.8065584E-01
       -1   -1    0    0    0  501  0.00000000000E+00  0.00000000000E+00  0.24897526835E+04  0.24897526835E+04  0.50400001928E-02 0.  1.
        1   -1    0    0  501    0  0.00000000000E+00  0.00000000000E+00 -0.13826327624E+04  0.13826327624E+04  0.50400001928E-02 0. -1.
    10030    2    1    2    0    0  0.00000000000E+00  0.00000000000E+00  0.11071199210E+04  0.38723854459E+04  0.37107485124E+04 0.  0.
        4    1    3    3  502    0 -0.97117066231E+03  0.10750876076E+04  0.17631103449E+04  0.22820047153E+04  0.12699999809E+01 0.  1.
       -4    1    3    3    0  502  0.97117066231E+03 -0.10750876076E+04 -0.65599042384E+03  0.15903807307E+04  0.12699999809E+01 0. -1.
</event>
<event>
 5   0  0.4857514E-07  0.3699312E+04  0.7818609E-02  0.8068114E-01
       -2   -1    0    0    0  501  0.00000000000E+00  0.00000000000E+00  0.21106333620E+04  0.21106333620E+04  0.25500000920E-02 0. -1.
        2   -1    0    0  501    0  0.00000000000E+00  0.00000000000E+00 -0.16209482906E+04  0.16209482906E+04  0.25500000920E-02 0.  1.
    10030    2    1    2    0    0  0.00000000000E+00  0.00000000000E+00  0.48968507140E+03  0.37315816526E+04  0.36993121200E+04 0.  0.
        5    1    3    3  502    0  0.65111857520E+02  0.12177608055E+04 -0.11579807343E+04  0.16817022341E+04  0.46999998093E+01 0.  1.
       -5    1    3    3    0  502 -0.65111857520E+02 -0.12177608055E+04  0.16476658057E+04  0.20498794185E+04  0.46999998093E+01 0. -1.
</event>
<event>
 5   0  0.4687817E-07  0.3696501E+04  0.7818609E-02  0.8068738E-01
       -2   -1    0    0    0  501  0.00000000000E+00  0.00000000000E+00  0.11929336240E+04  0.11929336240E+04  0.25500000920E-02 0. -1.
        2   -1    0    0  501    0  0.00000000000E+00  0.00000000000E+00 -0.28635538001E+04  0.28635538001E+04  0.25500000920E-02 0.  1.
    10030    2    1    2    0    0  0.00000000000E+00  0.00000000000E+00 -0.16706201761E+04  0.40564874241E+04  0.36965008385E+04 0.  0.
        4    1    3    3  502    0  0.71915318654E+03 -0.10366253214E+04  0.64687368485E+03  0.14178224641E+04  0.12699999809E+01 0. -1.
       -4    1    3    3    0  502 -0.71915318654E+03  0.10366253214E+04 -0.23174938610E+04  0.26386649600E+04  0.12699999809E+01 0.  1.
</event>
<event>
 5   0  0.1496000E-07  0.3628449E+04  0.7818609E-02  0.8084006E-01
       -1   -1    0    0    0  501  0.00000000000E+00  0.00000000000E+00  0.23219311984E+04  0.23219311984E+04  0.50400001928E-02 0.  1.
        1   -1    0    0  501    0  0.00000000000E+00  0.00000000000E+00 -0.14175311942E+04  0.14175311942E+04  0.50400001928E-02 0. -1.
    10030    2    1    2    0    0  0.00000000000E+00  0.00000000000E+00  0.90440000420E+03  0.37394623926E+04  0.36284486517E+04 0.  0.
        3    1    3    3  502    0 -0.90396575371E+03 -0.13764688621E+04  0.12368001059E+04  0.20594890445E+04  0.10100000352E+00 0.  1.
       -3    1    3    3    0  502  0.90396575371E+03  0.13764688621E+04 -0.33240010175E+03  0.16799733480E+04  0.10100000352E+00 0. -1.
</event>
<event>
 5   0  0.4857514E-07  0.3688177E+04  0.7818609E-02  0.8070587E-01
       -2   -1    0    0    0  501  0.00000000000E+00  0.00000000000E+00  0.16073771671E+04  0.16073771671E+04  0.25500000920E-02 0. -1.
        2   -1    0    0  501    0  0.00000000000E+00  0.00000000000E+00 -0.21156594009E+04  0.21156594009E+04  0.25500000920E-02 0.  1.
    10030    2    1    2    0    0  0.00000000000E+00  0.00000000000E+00 -0.50828223373E+03  0.37230365680E+04  0.36881771185E+04 0.  0.
        5    1    3    3  502    0  0.31934014183E+03  0.26509787991E+03  0.15596122333E+04  0.16138982063E+04  0.46999998093E+01 0. -1.
       -5    1    3    3    0  502 -0.31934014183E+03 -0.26509787991E+03 -0.20678944670E+04  0.21091383617E+04  0.46999998093E+01 0.  1.
</event>
<event>
 5   0  0.4824268E-07  0.3094839E+04  0.7818609E-02  0.8217156E-01
        2   -1    0    0  501    0  0.00000000000E+00  0.00000000000E+00  0.20512926613E+04  0.20512926613E+04  0.25500000920E-02 0.  1.
       -2   -1    0    0    0  501  0.00000000000E+00  0.00000000000E+00 -0.11673162908E+04  0.11673162908E+04  0.25500000920E-02 0. -1.
    10030    2    1    2    0    0  0.00000000000E+00  0.00000000000E+00  0.88397637046E+03  0.32186089521E+04  0.30948391498E+04 0.  0.
        1    1    3    3  502    0 -0.78572280850E+03  0.81956425051E+03  0.15354457504E+04  0.19096176437E+04  0.50400001928E-02 0.  1.
       -1    1    3    3    0  502  0.78572280850E+03 -0.81956425051E+03 -0.65146937994E+03  0.13089913084E+04  0.50400001928E-02 0. -1.
</event>
<event>
 5   0  0.4793557E-07  0.3675501E+04  0.7818609E-02  0.8073413E-01
       -2   -1    0    0    0  501  0.00000000000E+00  0.00000000000E+00  0.16534717518E+04  0.16534717518E+04  0.25500000920E-02 0.  1.
        2   -1    0    0  501    0  0.00000000000E+00  0.00000000000E+00 -0.20425671548E+04  0.20425671548E+04  0.25500000920E-02 0. -1.
    10030    2    1    2    0    0  0.00000000000E+00  0.00000000000E+00 -0.38909540300E+03  0.36960389067E+04  0.36755011042E+04 0.  0.
        3    1    3    3  502    0  0.29392593005E+03  0.17992973027E+04 -0.42706221856E+03  0.18724970987E+04  0.10100000352E+00 0.  1.
       -3    1    3    3    0  502 -0.29392593005E+03 -0.17992973027E+04  0.37966815564E+02  0.18235418079E+04  0.10100000352E+00 0. -1.
</event>
<event>
 5   0  0.1496287E-07  0.3701627E+04  0.7818609E-02  0.8067601E-01
       -1   -1    0    0    0  501  0.00000000000E+00  0.00000000000E+00  0.21194472886E+04  0.21194472886E+04  0.50400001928E-02 0. -1.
        1   -1    0    0  501    0  0.00000000000E+00  0.00000000000E+00 -0.16162286141E+04  0.16162286141E+04  0.50400001928E-02 0.  1.
    10030    2    1    2    0    0  0.00000000000E+00  0.00000000000E+00  0.50321867450E+03  0.37356759027E+04  0.37016274010E+04 0.  0.
        1    1    3    3  502    0 -0.80102006561E+03 -0.53512937743E+03 -0.13432798775E+04  0.16529964990E+04  0.50400001928E-02 0.  1.
       -1    1    3    3    0  502  0.80102006561E+03  0.53512937743E+03  0.18464985520E+04  0.20826794038E+04  0.50400001928E-02 0. -1.
</event>
<event>
 5   0  0.1496000E-07  0.3680946E+04  0.7818609E-02  0.8072198E-01
       -1   -1    0    0    0  501  0.00000000000E+00  0.00000000000E+00  0.18497358359E+04  0.18497358359E+04  0.50400001928E-02 0. -1.
        1   -1    0    0  501    0  0.00000000000E+00  0.00000000000E+00 -0.18312565759E+04  0.18312565759E+04  0.50400001928E-02 0.  1.
    10030    2    1    2    0    0  0.00000000000E+00  0.00000000000E+00  0.18479260048E+02  0.36809924118E+04  0.36809460269E+04 0.  0.
        2    1    3    3  502    0  0.17272954969E+04 -0.45704037215E+03 -0.43224671184E+03  0.18382798631E+04  0.25500000920E-02 0.  1.
       -2    1    3    3    0  502 -0.17272954969E+04  0.45704037215E+03  0.45072597188E+03  0.18427125487E+04  0.25500000920E-02 0. -1.
</event>
<event>
 5   0  0.4824268E-07  0.3777768E+04  0.7818609E-02  0.8050943E-01
        2   -1    0    0  501    0  0.00000000000E+00  0.00000000000E+00  0.21704530076E+04  0.21704530076E+04  0.25500000920E-02 0. -1.
       -2   -1    0    0    0  501  0.00000000000E+00  0.00000000000E+00 -0.16438423786E+04  0.16438423786E+04  0.25500000920E-02 0.  1.
    10030    2    1    2    0    0  0.00000000000E+00  0.00000000000E+00  0.52661062901E+03  0.38142953862E+04  0.37777679307E+04 0.  0.
        1    1    3    3  502    0 -0.91842848111E+03  0.14592721635E+04 -0.51544773167E+03  0.17996312084E+04  0.50400001928E-02 0.  1.
       -1    1    3    3    0  502  0.91842848111E+03 -0.14592721635E+04  0.10420583607E+04  0.20146641778E+04  0.50400001928E-02 0. -1.
</event>
<event>
 5   0  0.4793557E-07  0.3698431E+04  0.7818609E-02  0.8068310E-01
        2   -1    0    0  501    0  0.00000000000E+00  0.00000000000E+00  0.29761074176E+04  0.29761074176E+04  0.25500000920E-02 0. -1.
       -2   -1    0    0    0  501  0.00000000000E+00  0.00000000000E+00 -0.11490167643E+04  0.11490167643E+04  0.25500000920E-02 0.  1.
    10030    2    1    2    0    0  0.00000000000E+00  0.00000000000E+00  0.18270906532E+04  0.41251241819E+04  0.36984306484E+04 0.  0.
        3    1    3    3  502    0 -0.50945137248E+03 -0.44554042941E+03 -0.10059148511E+04  0.12123991394E+04  0.10100000352E+00 0.  1.
       -3    1    3    3    0  502  0.50945137248E+03  0.44554042941E+03  0.28330055044E+04  0.29127250425E+04  0.10100000352E+00 0. -1.
</event>
<event>
 5   0  0.1496000E-07  0.3533424E+04  0.7818609E-02  0.8105914E-01
        1   -1    0    0  501    0  0.00000000000E+00  0.00000000000E+00  0.15117200601E+04  0.15117200601E+04  0.50400001928E-02 0.  1.
       -1   -1    0    0    0  501  0.00000000000E+00  0.00000000000E+00 -0.20647149835E+04  0.20647149835E+04  0.50400001928E-02 0. -1.
    10030    2    1    2    0    0  0.00000000000E+00  0.00000000000E+00 -0.55299492339E+03  0.35764350436E+04  0.35334238687E+04 0.  0.
        5    1    3    3  502    0 -0.62116344858E+03 -0.10218275410E+04 -0.15928175662E+04  0.19917493423E+04  0.46999998093E+01 0. -1.
       -5    1    3    3    0  502  0.62116344858E+03  0.10218275410E+04  0.10398226428E+04  0.15846857013E+04  0.46999998093E+01 0.  1.
</event>
<event>
 5   0  0.4793557E-07  0.3721225E+04  0.7818609E-02  0.8063274E-01
        2   -1    0    0  501    0  0.00000000000E+00  0.00000000000E+00  0.10020086892E+04  0.10020086892E+04  0.25500000920E-02 0.  1.
       -2   -1    0    0    0  501  0.00000000000E+00  0.00000000000E+00 -0.34549393247E+04  0.34549393247E+04  0.25500000920E-02 0. -1.
    10030    2    1    2    0    0  0.00000000000E+00  0.00000000000E+00 -0.24529306355E+04  0.44569480139E+04  0.37212251875E+04 0.  0.
        3    1    3    3  502    0 -0.92745096285E+03 -0.66205385973E+03  0.53518574436E+03  0.12589298602E+04  0.10100000352E+00 0.  1.
       -3    1    3    3    0  502  0.92745096285E+03  0.66205385973E+03 -0.29881163799E+04  0.31980181537E+04  0.10100000352E+00 0. -1.
</event>
<event>
 5   0  0.1522273E-07  0.3651005E+04  0.7818609E-02  0.8078907E-01
        1   -1    0    0  501    0  0.00000000000E+00  0.00000000000E+00  0.23105580549E+04  0.23105580549E+04  0.50400001928E-02 0. -1.
       -1   -1    0    0    0  501  0.00000000000E+00  0.00000000000E+00 -0.14422743833E+04  0.14422743834E+04  0.50400001928E-02 0.  1.
    10030    2    1    2    0    0  0.00000000000E+00  0.00000000000E+00  0.86828367155E+03  0.37528324383E+04  0.36510046255E+04 0.  0.
        4    1    3    3  502    0 -0.64096053594E+03  0.13338394890E+04 -0.66454693060E+03  0.16222152838E+04  0.12699999809E+01 0.  1.
       -4    1    3    3    0  502  0.64096053594E+03 -0.13338394890E+04  0.15328306021E+04  0.21306171545E+04  0.12699999809E+01 0. -1.
</event>
<event>
 5   0  0.1522273E-07  0.3633753E+04  0.7818609E-02  0.8082804E-01
        1   -1    0    0  501    0  0.00000000000E+00  0.00000000000E+00  0.19519949677E+04  0.19519949677E+04  0.50400001928E-02 0. -1.
       -1   -1    0    0    0  501  0.00000000000E+00  0.00000000000E+00 -0.16911113457E+04  0.16911113457E+04  0.50400001928E-02 0.  1.
    10030    2    1    2    0    0  0.00000000000E+00  0.00000000000E+00  0.26088362197E+03  0.36431063134E+04  0.36337533414E+04 0.  0.
        4    1    3    3  502    0  0.13998603539E+03 -0.17242136468E+04  0.68732666452E+03  0.18614318001E+04  0.12699999809E+01 0. -1.
       -4    1    3    3    0  502 -0.13998603539E+03  0.17242136468E+04 -0.42644304255E+03  0.17816745133E+04  0.12699999809E+01 0.  1.
</event>
<event>
 5   0  0.4793557E-07  0.3714754E+04  0.7818609E-02  0.8064700E-01
        2   -1    0    0  501    0  0.00000000000E+00  0.00000000000E+00  0.11975366915E+04  0.11975366915E+04  0.25500000920E-02 0.  1.
       -2   -1    0    0    0  501  0.00000000000E+00  0.00000000000E+00 -0.28807880208E+04  0.28807880208E+04  0.25500000920E-02 0. -1.
    10030    2    1    2    0    0  0.00000000000E+00  0.00000000000E+00 -0.16832513293E+04  0.40783247123E+04  0.37147540190E+04 0.  0.
        3    1    3    3  502    0 -0.57297938062E+03 -0.40415492571E+03 -0.27299026914E+04  0.28185129571E+04  0.10100000352E+00 0. -1.
       -3    1    3    3    0  502  0.57297938062E+03  0.40415492571E+03  0.10466513621E+04  0.12598117552E+04  0.10100000352E+00 0.  1.
</event>
<event>
 5   0  0.1496000E-07  0.3687702E+04  0.7818609E-02  0.8070693E-01
        1   -1    0    0  501    0  0.00000000000E+00  0.00000000000E+00  0.27995884277E+04  0.27995884277E+04  0.50400001928E-02 0. -1.
       -1   -1    0    0    0  501  0.00000000000E+00  0.00000000000E+00 -0.12143881739E+04  0.12143881739E+04  0.50400001928E-02 0.  1.
    10030    2    1    2    0    0  0.00000000000E+00  0.00000000000E+00  0.15852002538E+04  0.40139766017E+04  0.36877023082E+04 0.  0.
        5    1    3    3  502    0  0.71820106876E+03 -0.12867805965E+04 -0.41366929289E+03  0.15306081970E+04  0.46999998093E+01 0.  1.
       -5    1    3    3    0  502 -0.71820106876E+03  0.12867805965E+04  0.19988695467E+04  0.24833684047E+04  0.46999998093E+01 0. -1.
</event>
<event>
 5   0  0.1496287E-07  0.3703053E+04  0.7818609E-02  0.8067286E-01
        1   -1    0    0  501    0  0.00000000000E+00  0.00000000000E+00  0.15772694701E+04  0.15772694701E+04  0.50400001928E-02 0.  1.
       -1   -1    0    0    0  501  0.00000000000E+00  0.00000000000E+00 -0.21734710517E+04  0.21734710517E+04  0.50400001928E-02 0. -1.
    10030    2    1    2    0    0  0.00000000000E+00  0.00000000000E+00 -0.59620158161E+03  0.37507405218E+04  0.37030525430E+04 0.  0.
        1    1    3    3  502    0 -0.17254726830E+04 -0.45934536315E+03  0.19799792026E+03  0.17965125435E+04  0.50400001928E-02 0. -1.
       -1    1    3    3    0  502  0.17254726830E+04  0.45934536315E+03 -0.79419950188E+03  0.19542279783E+04  0.50400001928E-02 0.  1.
</event>
<event>
 5   0  0.1522273E-07  0.3485165E+04  0.7818609E-02  0.8117315E-01
       -1   -1    0    0    0  501  0.00000000000E+00  0.00000000000E+00  0.16822855247E+04  0.16822855247E+04  0.50400001928E-02 0. -1.
        1   -1    0    0  501    0  0.00000000000E+00  0.00000000000E+00 -0.18050411402E+04  0.18050411402E+04  0.50400001928E-02 0.  1.
    10030    2    1    2    0    0  0.00000000000E+00  0.00000000000E+00 -0.12275561543E+03  0.34873266649E+04  0.34851654662E+04 0.  0.
        4    1    3    3  502    0  0.10843510422E+04  0.81850378599E+03 -0.11533048625E+04  0.17820997023E+04  0.12699999809E+01 0.  1.
       -4    1    3    3    0  502 -0.10843510422E+04 -0.81850378599E+03  0.10305492470E+04  0.17052269626E+04  0.12699999809E+01 0. -1.
</event>
<event>
 5   0  0.4758908E-07  0.3672778E+04  0.7818609E-02  0.8074021E-01
        2   -1    0    0  501    0  0.00000000000E+00  0.00000000000E+00  0.18134069122E+04  0.18134069122E+04  0.25500000920E-02 0. -1.
       -2   -1    0    0    0  501  0.00000000000E+00  0.00000000000E+00 -0.18596625688E+04  0.18596625688E+04  0.25500000920E-02 0.  1.
    10030    2    1    2    0    0  0.00000000000E+00  0.00000000000E+00 -0.46255656590E+02  0.36730694810E+04  0.36727782164E+04 0.  0.
        2    1    3    3  502    0 -0.40207860864E+03  0.84323681841E+02 -0.18131153679E+04  0.18590763911E+04  0.25500000920E-02 0.  1.
       -2    1    3    3    0  502  0.40207860864E+03 -0.84323681841E+02  0.17668597113E+04  0.18139930899E+04  0.25500000920E-02 0. -1.
</event>
<event>
 5   0  0.4758908E-07  0.3696364E+04  0.7818609E-02  0.8068768E-01
        2   -1    0    0  501    0  0.00000000000E+00  0.00000000000E+00  0.20785601770E+04  0.20785601770E+04  0.25500000920E-02 0.  1.
       -2   -1    0    0    0  501  0.00000000000E+00  0.00000000000E+00 -0.16433375784E+04  0.16433375784E+04  0.25500000920E-02 0. -1.
    10030    2    1    2    0    0  0.00000000000E+00  0.00000000000E+00  0.43522259863E+03  0.37218977554E+04  0.36963636443E+04 0.  0.
        2    1    3    3  502    0 -0.12029540159E+04 -0.13558675512E+04 -0.14585437406E+03  0.18184467765E+04  0.25500000920E-02 0. -1.
       -2    1    3    3    0  502  0.12029540159E+04  0.13558675512E+04  0.58107697269E+03  0.19034509788E+04  0.25500000920E-02 0.  1.
</event>
<event>
 5   0  0.4758908E-07  0.3726692E+04  0.7818609E-02  0.8062072E-01
       -2   -1    0    0    0  501  0.00000000000E+00  0.00000000000E+00  0.15583606895E+04  0.15583606895E+04  0.25500000920E-02 0. -1.
        2   -1    0    0  501    0  0.00000000000E+00  0.00000000000E+00 -0.22280197172E+04  0.22280197172E+04  0.25500000920E-02 0.  1.
    10030    2    1    2    0    0  0.00000000000E+00  0.00000000000E+00 -0.66965902777E+03  0.37863804067E+04  0.37266920145E+04 0.  0.
        2    1    3    3  502    0 -0.96623731919E+03  0.15646829308E+04 -0.29667298505E+02  0.18392192309E+04  0.25500000920E-02 0. -1.
       -2    1    3    3    0  502  0.96623731919E+03 -0.15646829308E+04 -0.63999172926E+03  0.19471611758E+04  0.25500000920E-02 0.  1.
</event>
<event>
 5   0  0.1496000E-07  0.3682324E+04  0.7818609E-02  0.8071890E-01
       -1   -1    0    0    0  501  0.00000000000E+00  0.00000000000E+00  0.29284112411E+04  0.29284112411E+04  0.50400001928E-02 0.  1.
        1   -1    0    0  501    0  0.00000000000E+00  0.00000000000E+00 -0.11575822461E+04  0.11575822461E+04  0.50400001928E-02 0. -1.
    10030    2    1    2    0    0  0.00000000000E+00  0.00000000000E+00  0.17708289950E+04  0.40859934872E+04  0.36823236479E+04 0.  0.
        2    1    3    3  502    0 -0.84998554923E+03 -0.16330271922E+04  0.85770460090E+03  0.20309875496E+04  0.25500000920E-02 0. -1.
       -2    1    3    3    0  502  0.84998554923E+03  0.16330271922E+04  0.91312439411E+03  0.20550059376E+04  0.25500000920E-02 0.  1.
</event>
<event>
 5   0  0.1522273E-07  0.3648796E+04  0.7818609E-02  0.8079405E-01
       -1   -1    0    0    0  501  0.00000000000E+00  0.00000000000E+00  0.18198759566E+04  0.18198759566E+04  0.50400001928E-02 0.  1.
        1   -1    0    0  501    0  0.00000000000E+00  0.00000000000E+00 -0.18289317752E+04  0.18289317752E+04  0.50400001928E-02 0. -1.
    10030    2    1    2    0    0  0.00000000000E+00  0.00000000000E+00 -0.90558186023E+01  0.36488077319E+04  0.36487964942E+04 0.  0.
        4    1    3    3  502    0  0.64017009959E+03 -0.16143335301E+04 -0.56357958265E+03  0.18257913522E+04  0.12699999809E+01 0. -1.
       -4    1    3    3    0  502 -0.64017009959E+03  0.16143335301E+04  0.55452376405E+03  0.18230163797E+04  0.12699999809E+01 0.  1.
</event>
<event>
 5   0  0.1496000E-07  0.3675126E+04  0.7818609E-02  0.8073497E-01
       -1   -1    0    0    0  501  0.00000000000E+00  0.00000000000E+00  0.12215552747E+04  0.12215552747E+04  0.50400001928E-02 0. -1.
        1   -1    0    0  501    0  0.00000000000E+00  0.00000000000E+00 -0.27642113282E+04  0.27642113282E+04  0.50400001928E-02 0.  1.
    10030    2    1    2    0    0  0.00000000000E+00  0.00000000000E+00 -0.15426560535E+04  0.39857666029E+04  0.36751255371E+04 0.  0.
        3    1    3    3  502    0 -0.20019756229E+03  0.51995009670E+03  0.11277404092E+04  0.12578654967E+04  0.10100000352E+00 0. -1.
       -3    1    3    3    0  502  0.20019756229E+03 -0.51995009670E+03 -0.26703964627E+04  0.27279011062E+04  0.10100000352E+00 0.  1.
</event>
<event>
 5   0  0.4857514E-07  0.3673779E+04  0.7818609E-02  0.8073798E-01
        2   -1    0    0  501    0  0.00000000000E+00  0.00000000000E+00  0.21153148116E+04  0.21153148116E+04  0.25500000920E-02 0. -1.
       -2   -1    0    0    0  501  0.00000000000E+00  0.00000000000E+00 -0.15951114720E+04  0.15951114720E+04  0.25500000920E-02 0.  1.
    10030    2    1    2    0    0  0.00000000000E+00  0.00000000000E+00  0.52020333963E+03  0.37104262836E+04  0.36737789388E+04 0.  0.
        5    1    3    3  502    0  0.62781696875E+03  0.81154425855E+03  0.17989086596E+04  0.20709545348E+04  0.46999998093E+01 0.  1.
       -5    1    3    3    0  502 -0.62781696875E+03 -0.81154425855E+03 -0.12787053199E+04  0.16394717488E+04  0.46999998093E+01 0. -1.
</event>
<event>
 5   0  0.1522273E-07  0.3710671E+04  0.7818609E-02  0.8065601E-01
       -1   -1    0    0    0  501  0.00000000000E+00  0.00000000000E+00  0.20273360269E+04  0.20273360269E+04  0.50400001928E-02 0. -1.
        1   -1    0    0  501    0  0.00000000000E+00  0.00000000000E+00 -0.16979277613E+04  0.16979277613E+04  0.50400001928E-02 0.  1.
    10030    2    1    2    0    0  0.00000000000E+00  0.00000000000E+00  0.32940826554E+03  0.37252637882E+04  0.37106711639E+04 0.  0.
        4    1    3    3  502    0  0.86730633692E+03  0.14714355221E+04 -0.56266269768E+03  0.17983141277E+04  0.12699999809E+01 0. -1.
       -4    1    3    3    0  502 -0.86730633692E+03 -0.14714355221E+04  0.89207096322E+03  0.19269496605E+04  0.12699999809E+01 0.  1.
</event>
<event>
 5   0  0.4857514E-07  0.3714223E+04  0.7818609E-02  0.8064817E-01
        2   -1    0    0  501    0  0.00000000000E+00  0.00000000000E+00  0.18042668563E+04  0.18042668563E+04  0.25500000920E-02 0. -1.
       -2   -1    0    0    0  501  0.00000000000E+00  0.00000000000E+00 -0.19115039395E+04  0.19115039395E+04  0.25500000920E-02 0.  1.
    10030    2    1    2    0    0  0.00000000000E+00  0.00000000000E+00 -0.10723708315E+03  0.37157707958E+04  0.37142230433E+04 0.  0.
        5    1    3    3  502    0  0.11137328843E+04  0.88484317570E+03 -0.12480560709E+04  0.18923568451E+04  0.46999998093E+01 0. -1.
       -5    1    3    3    0  502 -0.11137328843E+04 -0.88484317570E+03  0.11408189877E+04  0.18234139508E+04  0.46999998093E+01 0.  1.
</event>
<event>
 5   0  0.1522273E-07  0.3667888E+04  0.7818609E-02  0.8075116E-01
        1   -1    0    0  501    0  0.00000000000E+00  0.00000000000E+00  0.18711030301E+04  0.18711030301E+04  0.50400001928E-02 0.  1.
       -1   -1    0    0    0  501  0.00000000000E+00  0.00000000000E+00 -0.17975233964E+04  0.17975233964E+04  0.50400001928E-02 0. -1.
    10030    2    1    2    0    0  0.00000000000E+00  0.00000000000E+00  0.73579633687E+02  0.36686264264E+04  0.36678884790E+04 0.  0.
        4    1    3    3  502    0 -0.10141943759E+04  0.10827311455E+04 -0.10415981899E+04  0.18126845748E+04  0.12699999809E+01 0. -1.
       -4    1    3    3    0  502  0.10141943759E+04 -0.10827311455E+04  0.11151778236E+04  0.18559418517E+04  0.12699999809E+01 0.  1.
</event>
<event>
 5   0  0.1496000E-07  0.3111422E+04  0.7818609E-02  0.8212610E-01
        3   -1    0    0  501    0  0.00000000000E+00  0.00000000000E+00  0.11879654114E+04  0.11879654157E+04  0.10100000352E+00 0.  1.
       -3   -1    0    0    0  501  0.00000000000E+00  0.00000000000E+00 -0.20372956475E+04  0.20372956500E+04  0.10100000352E+00 0. -1.
    10030    2    1    2    0    0  0.00000000000E+00  0.00000000000E+00 -0.84933023613E+03  0.32252610658E+04  0.31114220370E+04 0.  0.
        1    1    3    3  502    0 -0.13486696208E+04 -0.77475567719E+03 -0.39058884976E+03  0.16036569942E+04  0.50400001928E-02 0. -1.
       -1    1    3    3    0  502  0.13486696208E+04  0.77475567719E+03 -0.45874138637E+03  0.16216040716E+04  0.50400001928E-02 0.  1.
</event>
<event>
 5   0  0.1496000E-07  0.3380698E+04  0.7818609E-02  0.8142660E-01
        1   -1    0    0  501    0  0.00000000000E+00  0.00000000000E+00  0.16845654180E+04  0.16845654180E+04  0.50400001928E-02 0.  1.
       -1   -1    0    0    0  501  0.00000000000E+00  0.00000000000E+00 -0.16961528015E+04  0.16961528015E+04  0.50400001928E-02 0. -1.
    10030    2    1    2    0    0  0.00000000000E+00  0.00000000000E+00 -0.11587383541E+02  0.33807182195E+04  0.33806983616E+04 0.  0.
        3    1    3    3  502    0 -0.42877104595E+03 -0.48860483206E+03  0.15545683347E+04  0.16850109819E+04  0.10100000352E+00 0.  1.
       -3    1    3    3    0  502  0.42877104595E+03  0.48860483206E+03 -0.15661557182E+04  0.16957072376E+04  0.10100000352E+00 0. -1.
</event>
<event>
 5   0  0.1496000E-07  0.3674894E+04  0.7818609E-02  0.8073549E-01
       -1   -1    0    0    0  501  0.00000000000E+00  0.00000000000E+00  0.14771836060E+04  0.14771836060E+04  0.50400001928E-02 0.  1.
        1   -1    0    0  501    0  0.00000000000E+00  0.00000000000E+00 -0.22855728642E+04  0.22855728642E+04  0.50400001928E-02 0. -1.
    10030    2    1    2    0    0  0.00000000000E+00  0.00000000000E+00 -0.80838925815E+03  0.37627564702E+04  0.36748936122E+04 0.  0.
        3    1    3    3  502    0 -0.72125766877E+03 -0.16744318998E+04 -0.17008877191E+03  0.18310830162E+04  0.10100000352E+00 0. -1.
       -3    1    3    3    0  502  0.72125766877E+03  0.16744318998E+04 -0.63830048623E+03  0.19316734540E+04  0.10100000352E+00 0.  1.
</event>
<event>
 5   0  0.4687817E-07  0.3861650E+04  0.7818609E-02  0.8033053E-01
       -2   -1    0    0    0  501  0.00000000000E+00  0.00000000000E+00  0.12719449873E+04  0.12719449873E+04  0.25500000920E-02 0.  1.
        2   -1    0    0  501    0  0.00000000000E+00  0.00000000000E+00 -0.29310108858E+04  0.29310108858E+04  0.25500000920E-02 0. -1.
    10030    2    1    2    0    0  0.00000000000E+00  0.00000000000E+00 -0.16590658985E+04  0.42029558730E+04  0.38616497012E+04 0.  0.
        4    1    3    3  502    0 -0.18107468527E+04  0.57073443083E+03 -0.12120823924E+04  0.22524846934E+04  0.12699999809E+01 0.  1.
       -4    1    3    3    0  502  0.18107468527E+04 -0.57073443083E+03 -0.44698350614E+03  0.19504711797E+04  0.12699999809E+01 0. -1.
</event>
<event>
 5   0  0.4758908E-07  0.3682055E+04  0.7818609E-02  0.8071950E-01
        2   -1    0    0  501    0  0.00000000000E+00  0.00000000000E+00  0.23620496517E+04  0.23620496517E+04  0.25500000920E-02 0.  1.
       -2   -1    0    0    0  501  0.00000000000E+00  0.00000000000E+00 -0.14349328132E+04  0.14349328132E+04  0.25500000920E-02 0. -1.
    10030    2    1    2    0    0  0.00000000000E+00  0.00000000000E+00  0.92711683841E+03  0.37969824649E+04  0.36820551607E+04 0.  0.
        2    1    3    3  502    0  0.58363807954E+03  0.15431759391E+04  0.13059760835E+04  0.21041860464E+04  0.25500000920E-02 0.  1.
       -2    1    3    3    0  502 -0.58363807954E+03 -0.15431759391E+04 -0.37885924508E+03  0.16927964185E+04  0.25500000920E-02 0. -1.
</event>
<event>
 5   0  0.1496000E-07  0.3710776E+04  0.7818609E-02  0.8065578E-01
        1   -1    0    0  501    0  0.00000000000E+00  0.00000000000E+00  0.21113412677E+04  0.21113412677E+04  0.50400001928E-02 0.  1.
       -1   -1    0    0    0  501  0.00000000000E+00  0.00000000000E+00 -0.16304631252E+04  0.16304631252E+04  0.50400001928E-02 0. -1.
    10030    2    1    2    0    0  0.00000000000E+00  0.00000000000E+00  0.48087814245E+03  0.37418043929E+04  0.37107757042E+04 0.  0.
        3    1    3    3  502    0  0.17204351459E+04  0.33602728775E+03  0.85351361460E+03  0.19496914961E+04  0.10100000352E+00 0.  1.
       -3    1    3    3    0  502 -0.17204351459E+04 -0.33602728775E+03 -0.37263547215E+03  0.17921128968E+04  0.10100000352E+00 0. -1.
</event>
<event>
 5   0  0.4793557E-07  0.3690859E+04  0.7818609E-02  0.8069991E-01
       -2   -1    0    0    0  501  0.00000000000E+00  0.00000000000E+00  0.26366027014E+04  0.26366027014E+04  0.25500000920E-02 0.  1.
        2   -1    0    0  501    0  0.00000000000E+00  0.00000000000E+00 -0.12916657780E+04  0.12916657780E+04  0.25500000920E-02 0. -1.
    10030    2    1    2    0    0  0.00000000000E+00  0.00000000000E+00  0.13449369234E+04  0.39282684795E+04  0.36908586967E+04 0.  0.
        3    1    3    3  502    0 -0.10072855984E+04 -0.14499419734E+04  0.10064478688E+03  0.17683566909E+04  0.10100000352E+00 0.  1.
       -3    1    3    3    0  502  0.10072855984E+04  0.14499419734E+04  0.12442921365E+04  0.21599117885E+04  0.10100000352E+00 0. -1.
</event>
<event>
 5   0  0.1496287E-07  0.3689682E+04  0.7818609E-02  0.8070252E-01
       -1   -1    0    0    0  501  0.00000000000E+00  0.00000000000E+00  0.14296853724E+04  0.14296853725E+04  0.50400001928E-02 0. -1.
        1   -1    0    0  501    0  0.00000000000E+00  0.00000000000E+00 -0.23805509223E+04  0.23805509223E+04  0.50400001928E-02 0.  1.
    10030    2    1    2    0    0  0.00000000000E+00  0.00000000000E+00 -0.95086554984E+03  0.38102362947E+04  0.36896822801E+04 0.  0.
        1    1    3    3  502    0 -0.32155118500E+03 -0.15681063626E+04  0.47163959752E+03  0.16687709966E+04  0.50400001928E-02 0. -1.
       -1    1    3    3    0  502  0.32155118500E+03  0.15681063626E+04 -0.14225051474E+04  0.21414652982E+04  0.50400001928E-02 0.  1.
</event>
<event>
 5   0  0.1522273E-07  0.3564554E+04  0.7818609E-02  0.8098660E-01
        1   -1    0    0  501    0  0.00000000000E+00  0.00000000000E+00  0.22880745747E+04  0.22880745747E+04  0.50400001928E-02 0. -1.
       -1   -1    0    0    0  501  0.00000000000E+00  0.00000000000E+00 -0.13882899395E+04  0.13882899396E+04  0.50400001928E-02 0.  1.
    10030    2    1    2    0    0  0.00000000000E+00  0.00000000000E+00  0.89978463513E+03  0.36763645142E+04  0.35645537802E+04 0.  0.
        4    1    3    3  502    0 -0.42841062669E+03  0.89287196381E+03  0.19781801841E+04  0.22122283929E+04  0.12699999809E+01 0. -1.
       -4    1    3    3    0  502  0.42841062669E+03 -0.89287196381E+03 -0.10783955490E+04  0.14641361213E+04  0.12699999809E+01 0.  1.
</event>
<event>
 5   0  0.1496000E-07  0.3687508E+04  0.7818609E-02  0.8070736E-01
       -1   -1    0    0    0  501  0.00000000000E+00  0.00000000000E+00  0.10448584732E+04  0.10448584732E+04  0.50400001928E-02 0. -1.
        1   -1    0    0  501    0  0.00000000000E+00  0.00000000000E+00 -0.32534817716E+04  0.32534817716E+04  0.50400001928E-02 0.  1.
    10030    2    1    2    0    0  0.00000000000E+00  0.00000000000E+00 -0.22086232984E+04  0.42983402448E+04  0.36875075574E+04 0.  0.
        5    1    3    3  502    0 -0.13489309122E+04  0.35352967929E+03  0.30164108688E+03  0.14267470957E+04  0.46999998093E+01 0. -1.
       -5    1    3    3    0  502  0.13489309122E+04 -0.35352967929E+03 -0.25102643853E+04  0.28715931491E+04  0.46999998093E+01 0.  1.
</event>
<event>
 5   0  0.4793557E-07  0.3668894E+04  0.7818609E-02  0.8074891E-01
       -2   -1    0    0    0  501  0.00000000000E+00  0.00000000000E+00  0.11420656818E+04  0.11420656818E+04  0.25500000920E-02 0.  1.
        2   -1    0    0  501    0  0.00000000000E+00  0.00000000000E+00 -0.29465863261E+04  0.29465863261E+04  0.25500000920E-02 0. -1.
    10030    2    1    2    0    0  0.00000000000E+00  0.00000000000E+00 -0.18045206444E+04  0.40886520079E+04  0.36688936324E+04 0.  0.
        3    1    3    3  502    0  0.91074117216E+03  0.13687865285E+04 -0.18090978252E+04  0.24445574230E+04  0.10100000352E+00 0. -1.
       -3    1    3    3    0  502 -0.91074117216E+03 -0.13687865285E+04  0.45771807779E+01  0.16440945849E+04  0.10100000352E+00 0.  1.
</event>
<event>
 5   0  0.1496287E-07  0.3680393E+04  0.7818609E-02  0.8072321E-01
        1   -1    0    0  501    0  0.00000000000E+00  0.00000000000E+00  0.21633347284E+04  0.21633347284E+04  0.50400001928E-02 0.  1.
       -1   -1    0    0    0  501  0.00000000000E+00  0.00000000000E+00 -0.15653256263E+04  0.15653256263E+04  0.50400001928E-02 0. -1.
    10030    2    1    2    0    0  0.00000000000E+00  0.00000000000E+00  0.59800910210E+03  0.37286603547E+04  0.36803930706E+04 0.  0.
        1    1    3    3  502    0 -0.94279667820E+03  0.87253213121E+03  0.16339135684E+04  0.20784252321E+04  0.50400001928E-02 0.  1.
       -1    1    3    3    0  502  0.94279667820E+03 -0.87253213121E+03 -0.10359044663E+04  0.16502351226E+04  0.50400001928E-02 0. -1.
</event>
<event>
 5   0  0.4824268E-07  0.3703625E+04  0.7818609E-02  0.8067159E-01
        2   -1    0    0  501    0  0.00000000000E+00  0.00000000000E+00  0.17729738399E+04  0.17729738399E+04  0.25500000920E-02 0. -1.
       -2   -1    0    0    0  501  0.00000000000E+00  0.00000000000E+00 -0.19341573506E+04  0.19341573506E+04  0.25500000920E-02 0.  1.
    10030    2    1    2    0    0  0.00000000000E+00  0.00000000000E+00 -0.16118351066E+03  0.37071311905E+04  0.37036254588E+04 0.  0.
        1    1    3    3  502    0 -0.14885915181E+04  0.30289883807E+03  0.97944703482E+03  0.18074758388E+04  0.50400001928E-02 0. -1.
       -1    1    3    3    0  502  0.14885915181E+04 -0.30289883807E+03 -0.11406305455E+04  0.18996553517E+04  0.50400001928E-02 0.  1.
</event>
<event>
 5   0  0.1522273E-07  0.3710585E+04  0.7818609E-02  0.8065620E-01
       -1   -1    0    0    0  501  0.00000000000E+00  0.00000000000E+00  0.17357399629E+04  0.17357399629E+04  0.50400001928E-02 0.  1.
        1   -1    0    0  501    0  0.00000000000E+00  0.00000000000E+00 -0.19830790933E+04  0.19830790933E+04  0.50400001928E-02 0. -1.
    10030    2    1    2    0    0  0.00000000000E+00  0.00000000000E+00 -0.24733913038E+03  0.37188190562E+04  0.37105846611E+04 0.  0.
        4    1    3    3  502    0 -0.13846596020E+03  0.77890210765E+03  0.15582222262E+04  0.17475466902E+04  0.12699999809E+01 0.  1.
       -4    1    3    3    0  502  0.13846596020E+03 -0.77890210765E+03 -0.18055613566E+04  0.19712723659E+04  0.12699999809E+01 0. -1.
</event>
<event>
 5   0  0.1496000E-07  0.3602891E+04  0.7818609E-02  0.8089830E-01
        1   -1    0    0  501    0  0.00000000000E+00  0.00000000000E+00  0.22746218740E+04  0.22746218740E+04  0.50400001928E-02 0. -1.
       -1   -1    0    0    0  501  0.00000000000E+00  0.00000000000E+00 -0.14267008644E+04  0.14267008644E+04  0.50400001928E-02 0.  1.
    10030    2    1    2    0    0  0.00000000000E+00  0.00000000000E+00  0.84792100959E+03  0.37013227385E+04  0.36028905029E+04 0.  0.
        5    1    3    3  502    0 -0.14904637056E+04 -0.97105293265E+03  0.13201882008E+03  0.17837816331E+04  0.46999998093E+01 0. -1.
       -5    1    3    3    0  502  0.14904637056E+04  0.97105293265E+03  0.71590218951E+03  0.19175411053E+04  0.46999998093E+01 0.  1.
</event>
<event>
 5   0  0.1496000E-07  0.3682485E+04  0.7818609E-02  0.8071855E-01
       -1   -1    0    0    0  501  0.00000000000E+00  0.00000000000E+00  0.15107212077E+04  0.15107212077E+04  0.50400001928E-02 0. -1.
        1   -1    0    0  501    0  0.00000000000E+00  0.00000000000E+00 -0.22440762466E+04  0.22440762466E+04  0.50400001928E-02 0.  1.
    10030    2    1    2    0    0  0.00000000000E+00  0.00000000000E+00 -0.73335503891E+03  0.37547974542E+04  0.36824848010E+04 0.  0.
        2    1    3    3  502    0 -0.12439187028E+04 -0.19022193993E+03  0.10038356708E+04  0.16097217709E+04  0.25500000920E-02 0. -1.
       -2    1    3    3    0  502  0.12439187028E+04  0.19022193993E+03 -0.17371907097E+04  0.21450756834E+04  0.25500000920E-02 0.  1.
</event>
<event>
 5   0  0.1522273E-07  0.3712619E+04  0.7818609E-02  0.8065171E-01
       -1   -1    0    0    0  501  0.00000000000E+00  0.00000000000E+00  0.18903100494E+04  0.18903100494E+04  0.50400001928E-02 0. -1.
        1   -1    0    0  501    0  0.00000000000E+00  0.00000000000E+00 -0.18229208426E+04  0.18229208426E+04  0.50400001928E-02 0.  1.
    10030    2    1    2    0    0  0.00000000000E+00  0.00000000000E+00  0.67389206770E+02  0.37132308920E+04  0.37126193385E+04 0.  0.
        4    1    3    3  502    0  0.51443332227E+03  0.16222748191E+04 -0.70768773915E+03  0.18431605413E+04  0.12699999809E+01 0.  1.
       -4    1    3    3    0  502 -0.51443332227E+03 -0.16222748191E+04  0.77507694592E+03  0.18700703508E+04  0.12699999809E+01 0. -1.
</event>
<event>
 5   0  0.1496000E-07  0.3796731E+04  0.7818609E-02  0.8046857E-01
        1   -1    0    0  501    0  0.00000000000E+00  0.00000000000E+00  0.27221858062E+04  0.27221858062E+04  0.50400001928E-02 0.  1.
       -1   -1    0    0    0  501  0.00000000000E+00  0.00000000000E+00 -0.13238593649E+04  0.13238593650E+04  0.50400001928E-02 0. -1.
    10030    2    1    2    0    0  0.00000000000E+00  0.00000000000E+00  0.13983264412E+04  0.40460451711E+04  0.37967307898E+04 0.  0.
        5    1    3    3  502    0  0.15907190012E+03 -0.63441707385E+03  0.25983156142E+04  0.26793758628E+04  0.46999998093E+01 0.  1.
       -5    1    3    3    0  502 -0.15907190012E+03  0.63441707385E+03 -0.11999891730E+04  0.13666693083E+04  0.46999998093E+01 0. -1.
</event>
<event>
 5   0  0.4758908E-07  0.3794130E+04  0.7818609E-02  0.8047416E-01
        2   -1    0    0  501    0  0.00000000000E+00  0.00000000000E+00  0.22261389201E+04  0.22261389201E+04  0.25500000920E-02 0.  1.
       -2   -1    0    0    0  501  0.00000000000E+00  0.00000000000E+00 -0.16166353690E+04  0.16166353690E+04  0.25500000920E-02 0. -1.
    10030    2    1    2    0    0  0.00000000000E+00  0.00000000000E+00  0.60950355102E+03  0.38427742891E+04  0.37941296312E+04 0.  0.
        2    1    3    3  502    0 -0.35004477259E+03 -0.21859193826E+03 -0.15706200778E+04  0.16239338678E+04  0.25500000920E-02 0. -1.
       -2    1    3    3    0  502  0.35004477259E+03  0.21859193826E+03  0.21801236288E+04  0.22188404213E+04  0.25500000920E-02 0.  1.
</event>
<event>
 5   0  0.1496287E-07  0.3672242E+04  0.7818609E-02  0.8074141E-01
       -1   -1    0    0    0  501  0.00000000000E+00  0.00000000000E+00  0.24820407418E+04  0.24820407418E+04  0.50400001928E-02 0.  1.
        1   -1    0    0  501    0  0.00000000000E+00  0.00000000000E+00 -0.13582937418E+04  0.13582937418E+04  0.50400001928E-02 0. -1.
    10030    2    1    2    0    0  0.00000000000E+00  0.00000000000E+00  0.11237469999E+04  0.38403344836E+04  0.36722420435E+04 0.  0.
        1    1    3    3  502    0  0.33916644084E+03  0.11509308296E+04 -0.89158833191E+03  0.14948596599E+04  0.50400001928E-02 0. -1.
       -1    1    3    3    0  502 -0.33916644084E+03 -0.11509308296E+04  0.20153353318E+04  0.23454748237E+04  0.50400001928E-02 0.  1.
</event>
<event>
 5   0  0.1496287E-07  0.3344829E+04  0.7818609E-02  0.8151581E-01
        1   -1    0    0  501    0  0.00000000000E+00  0.00000000000E+00  0.27023520933E+04  0.27023520933E+04  0.50400001928E-02 0.  1.
       -1   -1    0    0    0  501  0.00000000000E+00  0.00000000000E+00 -0.10350132425E+04  0.10350132425E+04  0.50400001928E-02 0. -1.
    10030    2    1    2    0    0  0.00000000000E+00  0.00000000000E+00  0.16673388508E+04  0.37373653358E+04  0.33448289657E+04 0.  0.
        1    1    3    3  502    0  0.13936120041E+04  0.76153489927E+03  0.24785034833E+03  0.16073330756E+04  0.50400001928E-02 0. -1.
       -1    1    3    3    0  502 -0.13936120041E+04 -0.76153489927E+03  0.14194885024E+04  0.21300322602E+04  0.50400001928E-02 0.  1.
</event>
<event>
 5   0  0.1496287E-07  0.3617622E+04  0.7818609E-02  0.8086467E-01
       -1   -1    0    0    0  501  0.00000000000E+00  0.00000000000E+00  0.13915403858E+04  0.13915403858E+04  0.50400001928E-02 0. -1.
        1   -1    0    0  501    0  0.00000000000E+00  0.00000000000E+00 -0.23512055232E+04  0.23512055232E+04  0.50400001928E-02 0.  1.
    10030    2    1    2    0    0  0.00000000000E+00  0.00000000000E+00 -0.95966513741E+03  0.37427459090E+04  0.36176221145E+04 0.  0.
        1    1    3    3  502    0 -0.66600829740E+03 -0.16514658378E+04 -0.80845204916E+03  0.19556331919E+04  0.50400001928E-02 0.  1.
       -1    1    3    3    0  502  0.66600829740E+03  0.16514658378E+04 -0.15121308825E+03  0.17871127171E+04  0.50400001928E-02 0. -1.
</event>
<event>
 5   0  0.4687817E-07  0.3689710E+04  0.7818609E-02  0.8070246E-01
        2   -1    0    0  501    0  0.00000000000E+00  0.00000000000E+00  0.12472713415E+04  0.12472713415E+04  0.25500000920E-02 0.  1.
       -2   -1    0    0    0  501  0.00000000000E+00  0.00000000000E+00 -0.27287492680E+04  0.27287492680E+04  0.25500000920E-02 0. -1.
    10030    2    1    2    0    0  0.00000000000E+00  0.00000000000E+00 -0.14814779265E+04  0.39760206095E+04  0.36897104277E+04 0.  0.
        4    1    3    3  502    0 -0.72526918382E+03  0.16567440323E+04 -0.11332461099E+04  0.21342597161E+04  0.12699999809E+01 0. -1.
       -4    1    3    3    0  502  0.72526918382E+03 -0.16567440323E+04 -0.34823181668E+03  0.18417608934E+04  0.12699999809E+01 0.  1.
</event>
<event>
 5   0  0.1496000E-07  0.3510904E+04  0.7818609E-02  0.8111211E-01
       -1   -1    0    0    0  501  0.00000000000E+00  0.00000000000E+00  0.16551553805E+04  0.16551553805E+04  0.50400001928E-02 0.  1.
        1   -1    0    0  501    0  0.00000000000E+00  0.00000000000E+00 -0.18618260933E+04  0.18618260933E+04  0.50400001928E-02 0. -1.
    10030    2    1    2    0    0  0.00000000000E+00  0.00000000000E+00 -0.20667071278E+03  0.35169814739E+04  0.35109038586E+04 0.  0.
        3    1    3    3  502    0  0.13226551393E+04  0.11378685140E+04 -0.29719061862E+03  0.17698823822E+04  0.10100000352E+00 0. -1.
       -3    1    3    3    0  502 -0.13226551393E+04 -0.11378685140E+04  0.90519905837E+02  0.17470990917E+04  0.10100000352E+00 0.  1.
</event>
<event>
 5   0  0.4687817E-07  0.3683029E+04  0.7818609E-02  0.8071733E-01
       -2   -1    0    0    0  501  0.00000000000E+00  0.00000000000E+00  0.16944362508E+04  0.16944362508E+04  0.25500000920E-02 0.  1.
        2   -1    0    0  501    0  0.00000000000E+00  0.00000000000E+00 -0.20013590525E+04  0.20013590525E+04  0.25500000920E-02 0. -1.
    10030    2    1    2    0    0  0.00000000000E+00  0.00000000000E+00 -0.30692280171E+03  0.36957953033E+04  0.36830288239E+04 0.  0.
        4    1    3    3  502    0 -0.16047911563E+04  0.72396731790E+03 -0.69541717470E+03  0.18929051726E+04  0.12699999809E+01 0. -1.
       -4    1    3    3    0  502  0.16047911563E+04 -0.72396731790E+03  0.38849437299E+03  0.18028901307E+04  0.12699999809E+01 0.  1.
</event>
<event>
 5   0  0.4793557E-07  0.3733356E+04  0.7818609E-02  0.8060610E-01
        2   -1    0    0  501    0  0.00000000000E+00  0.00000000000E+00  0.22547877640E+04  0.22547877640E+04  0.25500000920E-02 0.  1.
       -2   -1    0    0    0  501  0.00000000000E+00  0.00000000000E+00 -0.15453722933E+04  0.15453722933E+04  0.25500000920E-02 0. -1.
    10030    2    1    2    0    0  0.00000000000E+00  0.00000000000E+00  0.70941547070E+03  0.38001600574E+04  0.37333558833E+04 0.  0.
        3    1    3    3  502    0 -0.17681822922E+04 -0.53869858123E+03  0.61979385379E+03  0.19495664163E+04  0.10100000352E+00 0. -1.
       -3    1    3    3    0  502  0.17681822922E+04  0.53869858123E+03  0.89621616909E+02  0.18505936411E+04  0.10100000352E+00 0.  1.
</event>
<event>
 5   0  0.4824268E-07  0.3480952E+04  0.7818609E-02  0.8118319E-01
       -2   -1    0    0    0  501  0.00000000000E+00  0.00000000000E+00  0.11953616825E+04  0.11953616826E+04  0.25500000920E-02 0. -1.
        2   -1    0    0  501    0  0.00000000000E+00  0.00000000000E+00 -0.25341754881E+04  0.25341754881E+04  0.25500000920E-02 0.  1.
    10030    2    1    2    0    0  0.00000000000E+00  0.00000000000E+00 -0.13388138056E+04  0.37295371707E+04  0.34809517523E+04 0.  0.
        1    1    3    3  502    0  0.12945906149E+04  0.11052304178E+04 -0.28050146691E+03  0.17251609228E+04  0.50400001928E-02 0. -1.
       -1    1    3    3    0  502 -0.12945906149E+04 -0.11052304178E+04 -0.10583123387E+04  0.20043762479E+04  0.50400001928E-02 0.  1.
</event>
<event>
 5   0  0.4687817E-07  0.3676503E+04  0.7818609E-02  0.8073189E-01
       -2   -1    0    0    0  501  0.00000000000E+00  0.00000000000E+00  0.22024221663E+04  0.22024221663E+04  0.25500000920E-02 0. -1.
        2   -1    0    0  501    0  0.00000000000E+00  0.00000000000E+00 -0.15342968104E+04  0.15342968104E+04  0.25500000920E-02 0.  1.
    10030    2    1    2    0    0  0.00000000000E+00  0.00000000000E+00  0.66812535586E+03  0.37367189767E+04  0.36765033958E+04 0.  0.
        4    1    3    3  502    0  0.17468770233E+04 -0.53696978686E+03  0.13269707617E+03  0.18323553186E+04  0.12699999809E+01 0.  1.
       -4    1    3    3    0  502 -0.17468770233E+04  0.53696978686E+03  0.53542827969E+03  0.19043636581E+04  0.12699999809E+01 0. -1.
</event>
<event>
 5   0  0.1496000E-07  0.3387411E+04  0.7818609E-02  0.8141003E-01
       -1   -1    0    0    0  501  0.00000000000E+00  0.00000000000E+00  0.16164463563E+04  0.16164463563E+04  0.50400001928E-02 0.  1.
        1   -1    0    0  501    0  0.00000000000E+00  0.00000000000E+00 -0.17746572254E+04  0.17746572254E+04  0.50400001928E-02 0. -1.
    10030    2    1    2    0    0  0.00000000000E+00  0.00000000000E+00 -0.15821086908E+03  0.33911035817E+04  0.33874109321E+04 0.  0.
        3    1    3    3  502    0 -0.14727648649E+04  0.58051576498E+03 -0.68192736551E+03  0.17236762581E+04  0.10100000352E+00 0.  1.
       -3    1    3    3    0  502  0.14727648649E+04 -0.58051576498E+03  0.52371649643E+03  0.16674273236E+04  0.10100000352E+00 0. -1.
</event>
<event>
 5   0  0.4793557E-07  0.3720365E+04  0.7818609E-02  0.8063464E-01
       -2   -1    0    0    0  501  0.00000000000E+00  0.00000000000E+00  0.25344801298E+04  0.25344801298E+04  0.25500000920E-02 0.  1.
        2   -1    0    0  501    0  0.00000000000E+00  0.00000000000E+00 -0.13652812965E+04  0.13652812965E+04  0.25500000920E-02 0. -1.
    10030    2    1    2    0    0  0.00000000000E+00  0.00000000000E+00  0.11691988334E+04  0.38997614263E+04  0.37203646690E+04 0.  0.
        3    1    3    3  502    0 -0.16450972536E+02  0.11069086453E+04 -0.98239721262E+03  0.14800748890E+04  0.10100000352E+00 0. -1.
       -3    1    3    3    0  502  0.16450972536E+02 -0.11069086453E+04  0.21515960460E+04  0.24196865373E+04  0.10100000352E+00 0.  1.
</event>
<event>
 5   0  0.1496000E-07  0.3714638E+04  0.7818609E-02  0.8064726E-01
        1   -1    0    0  501    0  0.00000000000E+00  0.00000000000E+00  0.20723019323E+04  0.20723019323E+04  0.50400001928E-02 0. -1.
       -1   -1    0    0    0  501  0.00000000000E+00  0.00000000000E+00 -0.16646388091E+04  0.16646388091E+04  0.50400001928E-02 0.  1.
    10030    2    1    2    0    0  0.00000000000E+00  0.00000000000E+00  0.40766312323E+03  0.37369407414E+04  0.37146381900E+04 0.  0.
        3    1    3    3  502    0 -0.11703974139E+04 -0.63775345891E+03 -0.10974082691E+04  0.17265180278E+04  0.10100000352E+00 0.  1.
       -3    1    3    3    0  502  0.11703974139E+04  0.63775345891E+03  0.15050713924E+04  0.20104227136E+04  0.10100000352E+00 0. -1.
</event>
<event>
 5   0  0.4687817E-07  0.3699694E+04  0.7818609E-02  0.8068030E-01
       -2   -1    0    0    0  501  0.00000000000E+00  0.00000000000E+00  0.17388577550E+04  0.17388577550E+04  0.25500000920E-02 0. -1.
        2   -1    0    0  501    0  0.00000000000E+00  0.00000000000E+00 -0.19679210864E+04  0.19679210864E+04  0.25500000920E-02 0.  1.
    10030    2    1    2    0    0  0.00000000000E+00  0.00000000000E+00 -0.22906333139E+03  0.37067788415E+04  0.36996944968E+04 0.  0.
        4    1    3    3  502    0  0.16398745616E+04 -0.76232408205E+03  0.27558089271E+03  0.18292821065E+04  0.12699999809E+01 0.  1.
       -4    1    3    3    0  502 -0.16398745616E+04  0.76232408205E+03 -0.50464422411E+03  0.18774967349E+04  0.12699999809E+01 0. -1.
</event>
<event>
 5   0  0.4758908E-07  0.3689455E+04  0.7818609E-02  0.8070303E-01
       -2   -1    0    0    0  501  0.00000000000E+00  0.00000000000E+00  0.17140252042E+04  0.17140252042E+04  0.25500000920E-02 0. -1.
        2   -1    0    0  501    0  0.00000000000E+00  0.00000000000E+00 -0.19853966244E+04  0.19853966244E+04  0.25500000920E-02 0.  1.
    10030    2    1    2    0    0  0.00000000000E+00  0.00000000000E+00 -0.27137142022E+03  0.36994218286E+04  0.36894551655E+04 0.  0.
        2    1    3    3  502    0 -0.68402509794E+03 -0.12008544144E+04 -0.13609023721E+04  0.19395867925E+04  0.25500000920E-02 0.  1.
       -2    1    3    3    0  502  0.68402509794E+03  0.12008544144E+04  0.10895309519E+04  0.17598350361E+04  0.25500000920E-02 0. -1.
</event>
<event>
 5   0  0.4824268E-07  0.3696678E+04  0.7818609E-02  0.8068698E-01
       -2   -1    0    0    0  501  0.00000000000E+00  0.00000000000E+00  0.22770886169E+04  0.22770886169E+04  0.25500000920E-02 0. -1.
        2   -1    0    0  501    0  0.00000000000E+00  0.00000000000E+00 -0.15003178426E+04  0.15003178426E+04  0.25500000920E-02 0.  1.
    10030    2    1    2    0    0  0.00000000000E+00  0.00000000000E+00  0.77677077435E+03  0.37774064595E+04  0.36966777956E+04 0.  0.
        1    1    3    3  502    0 -0.16452016554E+04  0.47796056360E+03 -0.32046537188E+03  0.17429379914E+04  0.50400001928E-02 0.  1.
       -1    1    3    3    0  502  0.16452016554E+04 -0.47796056360E+03  0.10972361462E+04  0.20344684681E+04  0.50400001928E-02 0. -1.
</event>
<event>
 5   0  0.4793557E-07  0.3694174E+04  0.7818609E-02  0.8069254E-01
        2   -1    0    0  501    0  0.00000000000E+00  0.00000000000E+00  0.22191975264E+04  0.22191975264E+04  0.25500000920E-02 0. -1.
       -2   -1    0    0    0  501  0.00000000000E+00  0.00000000000E+00 -0.15373713733E+04  0.15373713733E+04  0.25500000920E-02 0.  1.
    10030    2    1    2    0    0  0.00000000000E+00  0.00000000000E+00  0.68182615313E+03  0.37565688996E+04  0.36941741966E+04 0.  0.
        3    1    3    3  502    0  0.12066113986E+04 -0.11535656865E+04 -0.46307716889E+03  0.17323583159E+04  0.10100000352E+00 0.  1.
       -3    1    3    3    0  502 -0.12066113986E+04  0.11535656865E+04  0.11449033220E+04  0.20242105837E+04  0.10100000352E+00 0. -1.
</event>
<event>
 5   0  0.4758908E-07  0.3655612E+04  0.7818609E-02  0.8077870E-01
       -2   -1    0    0    0  501  0.00000000000E+00  0.00000000000E+00  0.18367559490E+04  0.18367559490E+04  0.25500000920E-02 0. -1.
        2   -1    0    0  501    0  0.00000000000E+00  0.00000000000E+00 -0.18188999780E+04  0.18188999780E+04  0.25500000920E-02 0.  1.
    10030    2    1    2    0    0  0.00000000000E+00  0.00000000000E+00  0.17855970992E+02  0.36556559270E+04  0.36556123182E+04 0.  0.
        2    1    3    3  502    0 -0.80082727092E+03 -0.29088938631E+03 -0.16081671852E+04  0.18199292977E+04  0.25500000920E-02 0.  1.
       -2    1    3    3    0  502  0.80082727092E+03  0.29088938631E+03  0.16260231562E+04  0.18357266293E+04  0.25500000920E-02 0. -1.
</event>
<event>
 5   0  0.1522273E-07  0.3696421E+04  0.7818609E-02  0.8068755E-01
       -1   -1    0    0    0  501  0.00000000000E+00  0.00000000000E+00  0.20228871025E+04  0.20228871025E+04  0.50400001928E-02 0.  1.
        1   -1    0    0  501    0  0.00000000000E+00  0.00000000000E+00 -0.16886174773E+04  0.16886174773E+04  0.50400001928E-02 0. -1.
    10030    2    1    2    0    0  0.00000000000E+00  0.00000000000E+00  0.33426962524E+03  0.37115045798E+04  0.36964212508E+04 0.  0.
        4    1    3    3  502    0 -0.92633791053E+03  0.10434407602E+04  0.13841078926E+04  0.19653566637E+04  0.12699999809E+01 0.  1.
       -4    1    3    3    0  502  0.92633791053E+03 -0.10434407602E+04 -0.10498382673E+04  0.17461479161E+04  0.12699999809E+01 0. -1.
</event>
<event>
 5   0  0.1496000E-07  0.3643422E+04  0.7818609E-02  0.8080617E-01
       -1   -1    0    0    0  501  0.00000000000E+00  0.00000000000E+00  0.20528216935E+04  0.20528216935E+04  0.50400001928E-02 0.  1.
        1   -1    0    0  501    0  0.00000000000E+00  0.00000000000E+00 -0.16166190735E+04  0.16166190735E+04  0.50400001928E-02 0. -1.
    10030    2    1    2    0    0  0.00000000000E+00  0.00000000000E+00  0.43620261993E+03  0.36694407670E+04  0.36434218555E+04 0.  0.
        2    1    3    3  502    0  0.11215421868E+04 -0.35001433707E+03 -0.11840563983E+04  0.16680397080E+04  0.25500000920E-02 0. -1.
       -2    1    3    3    0  502 -0.11215421868E+04  0.35001433707E+03  0.16202590183E+04  0.20014010591E+04  0.25500000920E-02 0.  1.
</event>
<event>
 5   0  0.1522273E-07  0.3704197E+04  0.7818609E-02  0.8067032E-01
        1   -1    0    0  501    0  0.00000000000E+00  0.00000000000E+00  0.20389078150E+04  0.20389078150E+04  0.50400001928E-02 0. -1.
       -1   -1    0    0    0  501  0.00000000000E+00  0.00000000000E+00 -0.16824052996E+04  0.16824052996E+04  0.50400001928E-02 0.  1.
    10030    2    1    2    0    0  0.00000000000E+00  0.00000000000E+00  0.35650251540E+03  0.37213131147E+04  0.37041972482E+04 0.  0.
        4    1    3    3  502    0  0.54032806306E+03 -0.14401239577E+04  0.12146947296E+04  0.19599480422E+04  0.12699999809E+01 0. -1.
       -4    1    3    3    0  502 -0.54032806306E+03  0.14401239577E+04 -0.85819221417E+03  0.17613650725E+04  0.12699999809E+01 0.  1.
</event>
<event>
 5   0  0.1496000E-07  0.3276861E+04  0.7818609E-02  0.8168808E-01
       -1   -1    0    0    0  501  0.00000000000E+00  0.00000000000E+00  0.12018970016E+04  0.12018970016E+04  0.50400001928E-02 0. -1.
        1   -1    0    0  501    0  0.00000000000E+00  0.00000000000E+00 -0.22335143395E+04  0.22335143395E+04  0.50400001928E-02 0.  1.
    10030    2    1    2    0    0  0.00000000000E+00  0.00000000000E+00 -0.10316173378E+04  0.34354113411E+04  0.32768608074E+04 0.  0.
        5    1    3    3  502    0  0.40045419182E+02  0.14410130984E+04  0.30052557254E+03  0.14725692157E+04  0.46999998093E+01 0. -1.
       -5    1    3    3    0  502 -0.40045419182E+02 -0.14410130984E+04 -0.13321429104E+04  0.19628421254E+04  0.46999998093E+01 0.  1.
</event>
<event>
 5   0  0.1496000E-07  0.3733447E+04  0.7818609E-02  0.8060590E-01
       -1   -1    0    0    0  501  0.00000000000E+00  0.00000000000E+00  0.12653426787E+04  0.12653426788E+04  0.50400001928E-02 0. -1.
        1   -1    0    0  501    0  0.00000000000E+00  0.00000000000E+00 -0.27539238620E+04  0.27539238620E+04  0.50400001928E-02 0.  1.
    10030    2    1    2    0    0  0.00000000000E+00  0.00000000000E+00 -0.14885811833E+04  0.40192665408E+04  0.37334474131E+04 0.  0.
        5    1    3    3  502    0 -0.14723965753E+03  0.16010715019E+04 -0.17653325517E+04  0.23877878002E+04  0.46999998093E+01 0.  1.
       -5    1    3    3    0  502  0.14723965753E+03 -0.16010715019E+04  0.27675136843E+03  0.16314787405E+04  0.46999998093E+01 0. -1.
</event>
<event>
 5   0  0.4793557E-07  0.3699020E+04  0.7818609E-02  0.8068179E-01
       -2   -1    0    0    0  501  0.00000000000E+00  0.00000000000E+00  0.12936229996E+04  0.12936229996E+04  0.25500000920E-02 0.  1.
        2   -1    0    0  501    0  0.00000000000E+00  0.00000000000E+00 -0.26442690429E+04  0.26442690429E+04  0.25500000920E-02 0. -1.
    10030    2    1    2    0    0  0.00000000000E+00  0.00000000000E+00 -0.13506460433E+04  0.39378920425E+04  0.36990200059E+04 0.  0.
        3    1    3    3  502    0  0.14835149550E+04 -0.92536290496E+03 -0.33413818262E+02  0.17487794661E+04  0.10100000352E+00 0.  1.
       -3    1    3    3    0  502 -0.14835149550E+04  0.92536290496E+03 -0.13172322251E+04  0.21891125765E+04  0.10100000352E+00 0. -1.
</event>
<event>
 5   0  0.4793557E-07  0.3669834E+04  0.7818609E-02  0.8074680E-01
        2   -1    0    0  501    0  0.00000000000E+00  0.00000000000E+00  0.25393120202E+04  0.25393120202E+04  0.25500000920E-02 0.  1.
       -2   -1    0    0    0  501  0.00000000000E+00  0.00000000000E+00 -0.13259185105E+04  0.13259185105E+04  0.25500000920E-02 0. -1.
    10030    2    1    2    0    0  0.00000000000E+00  0.00000000000E+00  0.12133935097E+04  0.38652305307E+04  0.36698342259E+04 0.  0.
        3    1    3    3  502    0 -0.81883464053E+03  0.81546722071E+03  0.21078719005E+04  0.24038720673E+04  0.10100000352E+00 0.  1.
       -3    1    3    3    0  502  0.81883464053E+03 -0.81546722071E+03 -0.89447839086E+03  0.14613584634E+04  0.10100000352E+00 0. -1.
</event>
<event>
 5   0  0.1496000E-07  0.3644361E+04  0.7818609E-02  0.8080405E-01
       -3   -1    0    0    0  501  0.00000000000E+00  0.00000000000E+00  0.12158109165E+04  0.12158109207E+04  0.10100000352E+00 0. -1.
        3   -1    0    0  501    0  0.00000000000E+00  0.00000000000E+00 -0.27309691981E+04  0.27309692000E+04  0.10100000352E+00 0.  1.
    10030    2    1    2    0    0  0.00000000000E+00  0.00000000000E+00 -0.15151582816E+04  0.39467801206E+04  0.36443612201E+04 0.  0.
        1    1    3    3  502    0 -0.71255071674E+03  0.11145580697E+03 -0.25698176841E+04  0.26691035668E+04  0.50400001928E-02 0.  1.
       -1    1    3    3    0  502  0.71255071674E+03 -0.11145580697E+03  0.10546594025E+04  0.12776765538E+04  0.50400001928E-02 0. -1.
</event>
<event>
 5   0  0.4824268E-07  0.3679247E+04  0.7818609E-02  0.8072577E-01
       -2   -1    0    0    0  501  0.00000000000E+00  0.00000000000E+00  0.15518183852E+04  0.15518183852E+04  0.25500000920E-02 0. -1.
        2   -1    0    0  501    0  0.00000000000E+00  0.00000000000E+00 -0.21808056447E+04  0.21808056447E+04  0.25500000920E-02 0.  1.
    10030    2    1    2    0    0  0.00000000000E+00  0.00000000000E+00 -0.62898725945E+03  0.37326240299E+04  0.36792468218E+04 0.  0.
        1    1    3    3  502    0  0.42381947152E+03 -0.21974122151E+03 -0.21168672230E+04  0.21700313335E+04  0.50400001928E-02 0.  1.
       -1    1    3    3    0  502 -0.42381947152E+03  0.21974122151E+03  0.14878799635E+04  0.15625926964E+04  0.50400001928E-02 0. -1.
</event>
<event>
 5   0  0.1496000E-07  0.3004378E+04  0.7818609E-02  0.8242482E-01
       -1   -1    0    0    0  501  0.00000000000E+00  0.00000000000E+00  0.16098879634E+04  0.16098879634E+04  0.50400001928E-02 0.  1.
        1   -1    0    0  501    0  0.00000000000E+00  0.00000000000E+00 -0.14016951683E+04  0.14016951683E+04  0.50400001928E-02 0. -1.
    10030    2    1    2    0    0  0.00000000000E+00  0.00000000000E+00  0.20819279514E+03  0.30115831318E+04  0.30043782584E+04 0.  0.
        2    1    3    3  502    0  0.87798312347E+03 -0.76767117913E+03 -0.84495749057E+03  0.14401828235E+04  0.25500000920E-02 0. -1.
       -2    1    3    3    0  502 -0.87798312347E+03  0.76767117913E+03  0.10531502857E+04  0.15714003082E+04  0.25500000920E-02 0.  1.
</event>
<event>
 5   0  0.4793557E-07  0.3708926E+04  0.7818609E-02  0.8065987E-01
       -2   -1    0    0    0  501  0.00000000000E+00  0.00000000000E+00  0.14714361281E+04  0.14714361281E+04  0.25500000920E-02 0.  1.
        2   -1    0    0  501    0  0.00000000000E+00  0.00000000000E+00 -0.23371954077E+04  0.23371954077E+04  0.25500000920E-02 0. -1.
    10030    2    1    2    0    0  0.00000000000E+00  0.00000000000E+00 -0.86575927963E+03  0.38086315357E+04  0.37089264006E+04 0.  0.
        3    1    3    3  502    0 -0.11527409485E+04  0.26423954147E+02  0.10585850011E+04  0.15652834039E+04  0.10100000352E+00 0.  1.
       -3    1    3    3    0  502  0.11527409485E+04 -0.26423954147E+02 -0.19243442807E+04  0.22433481319E+04  0.10100000352E+00 0. -1.
</event>
<event>
 5   0  0.4687817E-07  0.3739220E+04  0.7818609E-02  0.8059325E-01
        2   -1    0    0  501    0  0.00000000000E+00  0.00000000000E+00  0.10693025167E+04  0.10693025167E+04  0.25500000920E-02 0.  1.
       -2   -1    0    0    0  501  0.00000000000E+00  0.00000000000E+00 -0.32688986331E+04  0.32688986331E+04  0.25500000920E-02 0. -1.
    10030    2    1    2    0    0  0.00000000000E+00  0.00000000000E+00 -0.21995961163E+04  0.43382011498E+04  0.37392199910E+04 0.  0.
        4    1    3    3  502    0 -0.78181759840E+03 -0.11088405014E+04 -0.25921968112E+04  0.29257908223E+04  0.12699999809E+01 0. -1.
       -4    1    3    3    0  502  0.78181759840E+03  0.11088405014E+04  0.39260069488E+03  0.14124103275E+04  0.12699999809E+01 0.  1.
</event>
<event>
 5   0  0.4857514E-07  0.3650209E+04  0.7818609E-02  0.8079087E-01
        2   -1    0    0  501    0  0.00000000000E+00  0.00000000000E+00  0.12168523998E+04  0.12168523998E+04  0.25500000920E-02 0. -1.
       -2   -1    0    0    0  501  0.00000000000E+00  0.00000000000E+00 -0.27373959363E+04  0.27373959363E+04  0.25500000920E-02 0.  1.
    10030    2    1    2    0    0  0.00000000000E+00  0.00000000000E+00 -0.15205435365E+04  0.39542483361E+04  0.36502092074E+04 0.  0.
        5    1    3    3  502    0  0.14578810856E+04 -0.10861602702E+04 -0.58619038690E+03  0.19101839315E+04  0.46999998093E+01 0. -1.
       -5    1    3    3    0  502 -0.14578810856E+04  0.10861602702E+04 -0.93435314956E+03  0.20440644047E+04  0.46999998093E+01 0.  1.
</event>
<event>
 5   0  0.1496287E-07  0.3687791E+04  0.7818609E-02  0.8070673E-01
       -1   -1    0    0    0  501  0.00000000000E+00  0.00000000000E+00  0.14741972353E+04  0.14741972353E+04  0.50400001928E-02 0.  1.
        1   -1    0    0  501    0  0.00000000000E+00  0.00000000000E+00 -0.23063069918E+04  0.23063069918E+04  0.50400001928E-02 0. -1.
    10030    2    1    2    0    0  0.00000000000E+00  0.00000000000E+00 -0.83210975653E+03  0.37805042271E+04  0.36877914209E+04 0.  0.
        1    1    3    3  502    0  0.71555807507E+03 -0.33576785300E+03 -0.21238256694E+04  0.22661418499E+04  0.50400001928E-02 0. -1.
       -1    1    3    3    0  502 -0.71555807507E+03  0.33576785300E+03  0.12917159128E+04  0.15143623772E+04  0.50400001928E-02 0.  1.
</event>
<event>
 5   0  0.1496000E-07  0.3704252E+04  0.7818609E-02  0.8067020E-01
       -1   -1    0    0    0  501  0.00000000000E+00  0.00000000000E+00  0.19693434013E+04  0.19693434014E+04  0.50400001928E-02 0.  1.
        1   -1    0    0  501    0  0.00000000000E+00  0.00000000000E+00 -0.17418851166E+04  0.17418851166E+04  0.50400001928E-02 0. -1.
    10030    2    1    2    0    0  0.00000000000E+00  0.00000000000E+00  0.22745828477E+03  0.37112285179E+04  0.37042515899E+04 0.  0.
        3    1    3    3  502    0  0.56011314716E+03  0.83610692997E+02  0.18804712025E+04  0.19638964940E+04  0.10100000352E+00 0.  1.
       -3    1    3    3    0  502 -0.56011314716E+03 -0.83610692997E+02 -0.16530129177E+04  0.17473320239E+04  0.10100000352E+00 0. -1.
</event>
<event>
 5   0  0.1522273E-07  0.3681723E+04  0.7818609E-02  0.8072024E-01
       -1   -1    0    0    0  501  0.00000000000E+00  0.00000000000E+00  0.15975721608E+04  0.15975721608E+04  0.50400001928E-02 0.  1.
        1   -1    0    0  501    0  0.00000000000E+00  0.00000000000E+00 -0.21212007268E+04  0.21212007268E+04  0.50400001928E-02 0. -1.
    10030    2    1    2    0    0  0.00000000000E+00  0.00000000000E+00 -0.52362856602E+03  0.37187728876E+04  0.36817230904E+04 0.  0.
        4    1    3    3  502    0  0.26073792362E+03  0.13808467877E+04  0.93928949729E+03  0.16902628460E+04  0.12699999809E+01 0.  1.
       -4    1    3    3    0  502 -0.26073792362E+03 -0.13808467877E+04 -0.14629180633E+04  0.20285100416E+04  0.12699999809E+01 0. -1.
</event>
<event>
 5   0  0.1496000E-07  0.3715450E+04  0.7818609E-02  0.8064547E-01
        1   -1    0    0  501    0  0.00000000000E+00  0.00000000000E+00  0.15288560973E+04  0.15288560973E+04  0.50400001928E-02 0.  1.
       -1   -1    0    0    0  501  0.00000000000E+00  0.00000000000E+00 -0.22573356675E+04  0.22573356675E+04  0.50400001928E-02 0. -1.
    10030    2    1    2    0    0  0.00000000000E+00  0.00000000000E+00 -0.72847957023E+03  0.37861917648E+04  0.37154495819E+04 0.  0.
        5    1    3    3  502    0 -0.44335402884E+03  0.19622939172E+03  0.14632403577E+04  0.15414808476E+04  0.46999998093E+01 0.  1.
       -5    1    3    3    0  502  0.44335402884E+03 -0.19622939172E+03 -0.21917199280E+04  0.22447109172E+04  0.46999998093E+01 0. -1.
</event>
<event>
 5   0  0.4793557E-07  0.3690114E+04  0.7818609E-02  0.8070156E-01
       -2   -1    0    0    0  501  0.00000000000E+00  0.00000000000E+00  0.16491865681E+04  0.16491865681E+04  0.25500000920E-02 0. -1.
        2   -1    0    0  501    0  0.00000000000E+00  0.00000000000E+00 -0.20641906546E+04  0.20641906546E+04  0.25500000920E-02 0.  1.
    10030    2    1    2    0    0  0.00000000000E+00  0.00000000000E+00 -0.41500408655E+03  0.37133772227E+04  0.36901140913E+04 0.  0.
        3    1    3    3  502    0 -0.61426322555E+03  0.38567433949E+03 -0.19147146471E+04  0.20474853349E+04  0.10100000352E+00 0.  1.
       -3    1    3    3    0  502  0.61426322555E+03 -0.38567433949E+03  0.14997105606E+04  0.16658918879E+04  0.10100000352E+00 0. -1.
</event>
<event>
 5   0  0.1496000E-07  0.3159509E+04  0.7818609E-02  0.8199593E-01
        1   -1    0    0  501    0  0.00000000000E+00  0.00000000000E+00  0.19651119483E+04  0.19651119483E+04  0.50400001928E-02 0. -1.
       -1   -1    0    0    0  501  0.00000000000E+00  0.00000000000E+00 -0.12699658038E+04  0.12699658038E+04  0.50400001928E-02 0.  1.
    10030    2    1    2    0    0  0.00000000000E+00  0.00000000000E+00  0.69514614451E+03  0.32350777520E+04  0.31595094397E+04 0.  0.
        2    1    3    3  502    0 -0.11721460178E+04  0.27981105617E+03 -0.69832993148E+03  0.13927976190E+04  0.25500000920E-02 0.  1.
       -2    1    3    3    0  502  0.11721460178E+04 -0.27981105617E+03  0.13934760760E+04  0.18422801331E+04  0.25500000920E-02 0. -1.
</event>
<event>
 5   0  0.1522273E-07  0.3699994E+04  0.7818609E-02  0.8067963E-01
        1   -1    0    0  501    0  0.00000000000E+00  0.00000000000E+00  0.24396694550E+04  0.24396694550E+04  0.50400001928E-02 0. -1.
       -1   -1    0    0    0  501  0.00000000000E+00  0.00000000000E+00 -0.14028495897E+04  0.14028495897E+04  0.50400001928E-02 0.  1.
    10030    2    1    2    0    0  0.00000000000E+00  0.00000000000E+00  0.10368198653E+04  0.38425190447E+04  0.36999942130E+04 0.  0.
        4    1    3    3  502    0 -0.15846678414E+04 -0.87377633277E+03  0.11911214002E+03  0.18135177314E+04  0.12699999809E+01 0.  1.
       -4    1    3    3    0  502  0.15846678414E+04  0.87377633277E+03  0.91770772530E+03  0.20290013133E+04  0.12699999809E+01 0. -1.
</event>
<event>
 5   0  0.1496000E-07  0.3685615E+04  0.7818609E-02  0.8071157E-01
        1   -1    0    0  501    0  0.00000000000E+00  0.00000000000E+00  0.19815259993E+04  0.19815259993E+04  0.50400001928E-02 0. -1.
       -1   -1    0    0    0  501  0.00000000000E+00  0.00000000000E+00 -0.17138001195E+04  0.17138001195E+04  0.50400001928E-02 0.  1.
    10030    2    1    2    0    0  0.00000000000E+00  0.00000000000E+00  0.26772587982E+03  0.36953261187E+04  0.36856150066E+04 0.  0.
        3    1    3    3  502    0  0.15314133018E+04 -0.69177514865E+03 -0.62454264539E+03  0.17927166768E+04  0.10100000352E+00 0.  1.
       -3    1    3    3    0  502 -0.15314133018E+04  0.69177514865E+03  0.89226852521E+03  0.19026094419E+04  0.10100000352E+00 0. -1.
</event>
<event>
 5   0  0.1522273E-07  0.3675785E+04  0.7818609E-02  0.8073349E-01
        1   -1    0    0  501    0  0.00000000000E+00  0.00000000000E+00  0.22460445484E+04  0.22460445484E+04  0.50400001928E-02 0.  1.
       -1   -1    0    0    0  501  0.00000000000E+00  0.00000000000E+00 -0.15039099622E+04  0.15039099623E+04  0.50400001928E-02 0. -1.
    10030    2    1    2    0    0  0.00000000000E+00  0.00000000000E+00  0.74213458612E+03  0.37499545106E+04  0.36757849621E+04 0.  0.
        4    1    3    3  502    0  0.14520472549E+04  0.18254716278E+03 -0.76315877638E+03  0.16505082938E+04  0.12699999809E+01 0. -1.
       -4    1    3    3    0  502 -0.14520472549E+04 -0.18254716278E+03  0.15052933625E+04  0.20994462168E+04  0.12699999809E+01 0.  1.
</event>
<event>
 5   0  0.4758908E-07  0.3773545E+04  0.7818609E-02  0.8051856E-01
       -2   -1    0    0    0  501  0.00000000000E+00  0.00000000000E+00  0.15924721960E+04  0.15924721960E+04  0.25500000920E-02 0.  1.
        2   -1    0    0  501    0  0.00000000000E+00  0.00000000000E+00 -0.22354618454E+04  0.22354618454E+04  0.25500000920E-02 0. -1.
    10030    2    1    2    0    0  0.00000000000E+00  0.00000000000E+00 -0.64298964934E+03  0.38279340414E+04  0.37735451947E+04 0.  0.
        2    1    3    3  502    0 -0.18748796853E+04  0.20178244963E+03 -0.38581888329E+03  0.19247717272E+04  0.25500000920E-02 0. -1.
       -2    1    3    3    0  502  0.18748796853E+04 -0.20178244963E+03 -0.25717076606E+03  0.19031623142E+04  0.25500000920E-02 0.  1.
</event>
<event>
 5   0  0.4857514E-07  0.3491140E+04  0.7818609E-02  0.8115893E-01
       -2   -1    0    0    0  501  0.00000000000E+00  0.00000000000E+00  0.21909375614E+04  0.21909375614E+04  0.25500000920E-02 0.  1.
        2   -1    0    0  501    0  0.00000000000E+00  0.00000000000E+00 -0.13907354480E+04  0.13907354480E+04  0.25500000920E-02 0. -1.
    10030    2    1    2    0    0  0.00000000000E+00  0.00000000000E+00  0.80020211341E+03  0.35816730095E+04  0.34911399463E+04 0.  0.
        5    1    3    3  502    0  0.72650789850E+03  0.71503213930E+03  0.18538538236E+04  0.21156277499E+04  0.46999998093E+01 0.  1.
       -5    1    3    3    0  502 -0.72650789850E+03 -0.71503213930E+03 -0.10536517102E+04  0.14660452596E+04  0.46999998093E+01 0. -1.
</event>
<event>
 5   0  0.4793557E-07  0.3679229E+04  0.7818609E-02  0.8072581E-01
       -2   -1    0    0    0  501  0.00000000000E+00  0.00000000000E+00  0.13361584567E+04  0.13361584567E+04  0.25500000920E-02 0.  1.
        2   -1    0    0  501    0  0.00000000000E+00  0.00000000000E+00 -0.25327693619E+04  0.25327693619E+04  0.25500000920E-02 0. -1.
    10030    2    1    2    0    0  0.00000000000E+00  0.00000000000E+00 -0.11966109052E+04  0.38689278186E+04  0.36792288332E+04 0.  0.
        3    1    3    3  502    0  0.92985075424E+03  0.10394832379E+04 -0.18597531808E+04  0.23246138885E+04  0.10100000352E+00 0. -1.
       -3    1    3    3    0  502 -0.92985075424E+03 -0.10394832379E+04  0.66314227556E+03  0.15443139301E+04  0.10100000352E+00 0.  1.
</event>
<event>
 5   0  0.4857514E-07  0.3401753E+04  0.7818609E-02  0.8137476E-01
        2   -1    0    0  501    0  0.00000000000E+00  0.00000000000E+00  0.25626063066E+04  0.25626063066E+04  0.25500000920E-02 0. -1.
       -2   -1    0    0    0  501  0.00000000000E+00  0.00000000000E+00 -0.11289215499E+04  0.11289215499E+04  0.25500000920E-02 0.  1.
    10030    2    1    2    0    0  0.00000000000E+00  0.00000000000E+00  0.14336847567E+04  0.36915278565E+04  0.34017533617E+04 0.  0.
        5    1    3    3  502    0 -0.10854920418E+04  0.13091575411E+04  0.74701269683E+03  0.18574812246E+04  0.46999998093E+01 0.  1.
       -5    1    3    3    0  502  0.10854920418E+04 -0.13091575411E+04  0.68667205989E+03  0.18340466320E+04  0.46999998093E+01 0. -1.
</event>
<event>
 5   0  0.1522273E-07  0.3700037E+04  0.7818609E-02  0.8067954E-01
       -1   -1    0    0    0  501  0.00000000000E+00  0.00000000000E+00  0.16059216269E+04  0.16059216269E+04  0.50400001928E-02 0.  1.
        1   -1    0    0  501    0  0.00000000000E+00  0.00000000000E+00 -0.21312181155E+04  0.21312181155E+04  0.50400001928E-02 0. -1.
    10030    2    1    2    0    0  0.00000000000E+00  0.00000000000E+00 -0.52529648863E+03  0.37371397424E+04  0.37000374394E+04 0.  0.
        4    1    3    3  502    0 -0.11040497799E+04  0.11807385109E+04 -0.11713914784E+04  0.19963038236E+04  0.12699999809E+01 0. -1.
       -4    1    3    3    0  502  0.11040497799E+04 -0.11807385109E+04  0.64609498977E+03  0.17408359188E+04  0.12699999809E+01 0.  1.
</event>
<event>
 5   0  0.1496000E-07  0.3702136E+04  0.7818609E-02  0.8067489E-01
        1   -1    0    0  501    0  0.00000000000E+00  0.00000000000E+00  0.21631150599E+04  0.21631150599E+04  0.50400001928E-02 0.  1.
       -1   -1    0    0    0  501  0.00000000000E+00  0.00000000000E+00 -0.15840363649E+04  0.15840363649E+04  0.50400001928E-02 0. -1.
    10030    2    1    2    0    0  0.00000000000E+00  0.00000000000E+00  0.57907869496E+03  0.37471514248E+04  0.37021360950E+04 0.  0.
        5    1    3    3  502    0  0.12887788020E+04  0.81609833265E+02 -0.10527914185E+04  0.16661340961E+04  0.46999998093E+01 0. -1.
       -5    1    3    3    0  502 -0.12887788020E+04 -0.81609833265E+02  0.16318701134E+04  0.20810173287E+04  0.46999998093E+01 0.  1.
</event>
<event>
 5   0  0.1496000E-07  0.3698406E+04  0.7818609E-02  0.8068315E-01
       -1   -1    0    0    0  501  0.00000000000E+00  0.00000000000E+00  0.24120617341E+04  0.24120617341E+04  0.50400001928E-02 0.  1.
        1   -1    0    0  501    0  0.00000000000E+00  0.00000000000E+00 -0.14176879459E+04  0.14176879459E+04  0.50400001928E-02 0. -1.
    10030    2    1    2    0    0  0.00000000000E+00  0.00000000000E+00  0.99437378819E+03  0.38297496799E+04  0.36984055187E+04 0.  0.
        3    1    3    3  502    0 -0.13634196415E+04  0.18839039231E+03 -0.78163976318E+03  0.15828344159E+04  0.10100000352E+00 0. -1.
       -3    1    3    3    0  502  0.13634196415E+04 -0.18839039231E+03  0.17760135514E+04  0.22469152640E+04  0.10100000352E+00 0.  1.
</event>
<event>
 5   0  0.1496000E-07  0.3707982E+04  0.7818609E-02  0.8066195E-01
        1   -1    0    0  501    0  0.00000000000E+00  0.00000000000E+00  0.17322843549E+04  0.17322843549E+04  0.50400001928E-02 0. -1.
       -1   -1    0    0    0  501  0.00000000000E+00  0.00000000000E+00 -0.19842481006E+04  0.19842481006E+04  0.50400001928E-02 0.  1.
    10030    2    1    2    0    0  0.00000000000E+00  0.00000000000E+00 -0.25196374572E+03  0.37165324556E+04  0.37079816294E+04 0.  0.
        5    1    3    3  502    0  0.60008369650E+03 -0.14042382056E+04  0.92776288053E+03  0.17868271974E+04  0.46999998093E+01 0. -1.
       -5    1    3    3    0  502 -0.60008369650E+03  0.14042382056E+04 -0.11797266263E+04  0.19297052582E+04  0.46999998093E+01 0.  1.
</event>
<event>
 5   0  0.4758908E-07  0.3761562E+04  0.7818609E-02  0.8054454E-01
        2   -1    0    0  501    0  0.00000000000E+00  0.00000000000E+00  0.21461149872E+04  0.21461149872E+04  0.25500000920E-02 0. -1.
       -2   -1    0    0    0  501  0.00000000000E+00  0.00000000000E+00 -0.16482513838E+04  0.16482513838E+04  0.25500000920E-02 0.  1.
    10030    2    1    2    0    0  0.00000000000E+00  0.00000000000E+00  0.49786360338E+03  0.37943663710E+04  0.37615619083E+04 0.  0.
        2    1    3    3  502    0  0.51937906759E+03  0.32848519286E+03  0.20419825837E+04  0.21324516430E+04  0.25500000920E-02 0. -1.
       -2    1    3    3    0  502 -0.51937906759E+03 -0.32848519286E+03 -0.15441189803E+04  0.16619147280E+04  0.25500000920E-02 0.  1.
</event>
<event>
 5   0  0.4793557E-07  0.3664702E+04  0.7818609E-02  0.8075830E-01
       -2   -1    0    0    0  501  0.00000000000E+00  0.00000000000E+00  0.10692118636E+04  0.10692118636E+04  0.25500000920E-02 0. -1.
        2   -1    0    0  501    0  0.00000000000E+00  0.00000000000E+00 -0.31401727258E+04  0.31401727258E+04  0.25500000920E-02 0.  1.
    10030    2    1    2    0    0  0.00000000000E+00  0.00000000000E+00 -0.20709608621E+04  0.42093845894E+04  0.36647018609E+04 0.  0.
        3    1    3    3  502    0  0.10631661003E+03  0.18733836971E+03  0.10546184389E+04  0.10763916332E+04  0.10100000352E+00 0. -1.
       -3    1    3    3    0  502 -0.10631661003E+03 -0.18733836971E+03 -0.31255793010E+04  0.31329929562E+04  0.10100000352E+00 0.  1.
</event>
<event>
 5   0  0.4793557E-07  0.3692229E+04  0.7818609E-02  0.8069686E-01
       -2   -1    0    0    0  501  0.00000000000E+00  0.00000000000E+00  0.18603461638E+04  0.18603461638E+04  0.25500000920E-02 0. -1.
        2   -1    0    0  501    0  0.00000000000E+00  0.00000000000E+00 -0.18319916526E+04  0.18319916526E+04  0.25500000920E-02 0.  1.
    10030    2    1    2    0    0  0.00000000000E+00  0.00000000000E+00  0.28354511224E+02  0.36923378165E+04  0.36922289437E+04 0.  0.
        3    1    3    3  502    0  0.16435331360E+03 -0.38547510433E+03 -0.17838011101E+04  0.18323617215E+04  0.10100000352E+00 0.  1.
       -3    1    3    3    0  502 -0.16435331360E+03  0.38547510433E+03  0.18121556213E+04  0.18599760950E+04  0.10100000352E+00 0. -1.
</event>
<event>
 5   0  0.1496000E-07  0.3437703E+04  0.7818609E-02  0.8128714E-01
       -1   -1    0    0    0  501  0.00000000000E+00  0.00000000000E+00  0.18982245888E+04  0.18982245888E+04  0.50400001928E-02 0. -1.
        1   -1    0    0  501    0  0.00000000000E+00  0.00000000000E+00 -0.15564282910E+04  0.15564282910E+04  0.50400001928E-02 0.  1.
    10030    2    1    2    0    0  0.00000000000E+00  0.00000000000E+00  0.34179629776E+03  0.34546528798E+04  0.34377029847E+04 0.  0.
        2    1    3    3  502    0  0.93062283690E+03  0.14451268231E+04  0.17066652002E+03  0.17273035230E+04  0.25500000920E-02 0.  1.
       -2    1    3    3    0  502 -0.93062283690E+03 -0.14451268231E+04  0.17112977774E+03  0.17273493568E+04  0.25500000920E-02 0. -1.
</event>
<event>
 5   0  0.4687817E-07  0.3655297E+04  0.7818609E-02  0.8077941E-01
        2   -1    0    0  501    0  0.00000000000E+00  0.00000000000E+00  0.31181529542E+04  0.31181529542E+04  0.25500000920E-02 0.  1.
       -2   -1    0    0    0  501  0.00000000000E+00  0.00000000000E+00 -0.10712429934E+04  0.10712429934E+04  0.25500000920E-02 0. -1.
    10030    2    1    2    0    0  0.00000000000E+00  0.00000000000E+00  0.20469099608E+04  0.41893959476E+04  0.36552972544E+04 0.  0.
        4    1    3    3  502    0 -0.12052775475E+04 -0.51465637934E+03  0.24834527987E+04  0.28080428365E+04  0.12699999809E+01 0.  1.
       -4    1    3    3    0  502  0.12052775475E+04  0.51465637934E+03 -0.43654283789E+03  0.13813531111E+04  0.12699999809E+01 0. -1.
</event>
<event>
 5   0  0.4793557E-07  0.3669898E+04  0.7818609E-02  0.8074666E-01
        2   -1    0    0  501    0  0.00000000000E+00  0.00000000000E+00  0.19289919269E+04  0.19289919269E+04  0.25500000920E-02 0.  1.
       -2   -1    0    0    0  501  0.00000000000E+00  0.00000000000E+00 -0.17454912767E+04  0.17454912767E+04  0.25500000920E-02 0. -1.
    10030    2    1    2    0    0  0.00000000000E+00  0.00000000000E+00  0.18350065015E+03  0.36744832036E+04  0.36698984080E+04 0.  0.
        3    1    3    3  502    0  0.13770800562E+04 -0.11278414614E+04 -0.35452247907E+03  0.18149551073E+04  0.10100000352E+00 0.  1.
       -3    1    3    3    0  502 -0.13770800562E+04  0.11278414614E+04  0.53802312923E+03  0.18595280963E+04  0.10100000352E+00 0. -1.
</event>
<event>
 5   0  0.4793557E-07  0.3610763E+04  0.7818609E-02  0.8088031E-01
       -2   -1    0    0    0  501  0.00000000000E+00  0.00000000000E+00  0.10171864868E+04  0.10171864868E+04  0.25500000920E-02 0.  1.
        2   -1    0    0  501    0  0.00000000000E+00  0.00000000000E+00 -0.32043317921E+04  0.32043317921E+04  0.25500000920E-02 0. -1.
    10030    2    1    2    0    0  0.00000000000E+00  0.00000000000E+00 -0.21871453053E+04  0.42215182789E+04  0.36107633531E+04 0.  0.
        3    1    3    3  502    0  0.10443081094E+04  0.48444158737E+03  0.53240132650E+03  0.12683510009E+04  0.10100000352E+00 0.  1.
       -3    1    3    3    0  502 -0.10443081094E+04 -0.48444158737E+03 -0.27195466318E+04  0.29531672779E+04  0.10100000352E+00 0. -1.
</event>
<event>
 5   0  0.4793557E-07  0.3675828E+04  0.7818609E-02  0.8073340E-01
        2   -1    0    0  501    0  0.00000000000E+00  0.00000000000E+00  0.15539107011E+04  0.15539107011E+04  0.25500000920E-02 0.  1.
       -2   -1    0    0    0  501  0.00000000000E+00  0.00000000000E+00 -0.21738233707E+04  0.21738233707E+04  0.25500000920E-02 0. -1.
    10030    2    1    2    0    0  0.00000000000E+00  0.00000000000E+00 -0.61991266958E+03  0.37277340718E+04  0.36758277425E+04 0.  0.
        3    1    3    3  502    0 -0.17099415432E+04 -0.51535095899E+03 -0.75018378743E+03  0.19370757386E+04  0.10100000352E+00 0.  1.
       -3    1    3    3    0  502  0.17099415432E+04  0.51535095899E+03  0.13027111785E+03  0.17906583332E+04  0.10100000352E+00 0. -1.
</event>
<event>
 5   0  0.4857514E-07  0.3720026E+04  0.7818609E-02  0.8063538E-01
        2   -1    0    0  501    0  0.00000000000E+00  0.00000000000E+00  0.25024218339E+04  0.25024218339E+04  0.25500000920E-02 0. -1.
       -2   -1    0    0    0  501  0.00000000000E+00  0.00000000000E+00 -0.13825203490E+04  0.13825203490E+04  0.25500000920E-02 0.  1.
    10030    2    1    2    0    0  0.00000000000E+00  0.00000000000E+00  0.11199014849E+04  0.38849421830E+04  0.37200264017E+04 0.  0.
        5    1    3    3  502    0 -0.53393030845E+03  0.10690720447E+04 -0.92859056082E+03  0.15133734274E+04  0.46999998093E+01 0.  1.
       -5    1    3    3    0  502  0.53393030845E+03 -0.10690720447E+04  0.20484920457E+04  0.23715687556E+04  0.46999998093E+01 0. -1.
</event>
<event>
 5   0  0.1496000E-07  0.3750815E+04  0.7818609E-02  0.8056793E-01
        1   -1    0    0  501    0  0.00000000000E+00  0.00000000000E+00  0.24530892406E+04  0.24530892406E+04  0.50400001928E-02 0.  1.
       -1   -1    0    0    0  501  0.00000000000E+00  0.00000000000E+00 -0.14337652343E+04  0.14337652343E+04  0.50400001928E-02 0. -1.
    10030    2    1    2    0    0  0.00000000000E+00  0.00000000000E+00  0.10193240063E+04  0.38868544749E+04  0.37508154153E+04 0.  0.
        3    1    3    3  502    0 -0.43936401428E+03  0.16289789325E+04 -0.33890325034E+03  0.17208917813E+04  0.10100000352E+00 0. -1.
       -3    1    3    3    0  502  0.43936401428E+03 -0.16289789325E+04  0.13582272566E+04  0.21659626937E+04  0.10100000352E+00 0.  1.
</event>
<event>
 5   0  0.1496000E-07  0.3778465E+04  0.7818609E-02  0.8050792E-01
       -1   -1    0    0    0  501  0.00000000000E+00  0.00000000000E+00  0.15407142696E+04  0.15407142696E+04  0.50400001928E-02 0. -1.
        1   -1    0    0  501    0  0.00000000000E+00  0.00000000000E+00 -0.23165872005E+04  0.23165872005E+04  0.50400001928E-02 0.  1.
    10030    2    1    2    0    0  0.00000000000E+00  0.00000000000E+00 -0.77587293088E+03  0.38573014701E+04  0.37784647446E+04 0.  0.
        2    1    3    3  502    0  0.37671085998E+03 -0.13307551733E+04 -0.17017931886E+04  0.21929250923E+04  0.25500000920E-02 0.  1.
       -2    1    3    3    0  502 -0.37671085998E+03  0.13307551733E+04  0.92592025775E+03  0.16643763778E+04  0.25500000920E-02 0. -1.
</event>
<event>
 5   0  0.1522273E-07  0.3715876E+04  0.7818609E-02  0.8064453E-01
        1   -1    0    0  501    0  0.00000000000E+00  0.00000000000E+00  0.24723068489E+04  0.24723068489E+04  0.50400001928E-02 0.  1.
       -1   -1    0    0    0  501  0.00000000000E+00  0.00000000000E+00 -0.13962398920E+04  0.13962398920E+04  0.50400001928E-02 0. -1.
    10030    2    1    2    0    0  0.00000000000E+00  0.00000000000E+00  0.10760669569E+04  0.38685467409E+04  0.37158759116E+04 0.  0.
        4    1    3    3  502    0 -0.78575094529E+03  0.78505992905E+03  0.20885907017E+04  0.23655731594E+04  0.12699999809E+01 0.  1.
       -4    1    3    3    0  502  0.78575094529E+03 -0.78505992905E+03 -0.10125237448E+04  0.15029735815E+04  0.12699999809E+01 0. -1.
</event>
<event>
 5   0  0.4793557E-07  0.3702154E+04  0.7818609E-02  0.8067485E-01
       -2   -1    0    0    0  501  0.00000000000E+00  0.00000000000E+00  0.14391186111E+04  0.14391186111E+04  0.25500000920E-02 0.  1.
        2   -1    0    0  501    0  0.00000000000E+00  0.00000000000E+00 -0.23809619163E+04  0.23809619163E+04  0.25500000920E-02 0. -1.
    10030    2    1    2    0    0  0.00000000000E+00  0.00000000000E+00 -0.94184330521E+03  0.38200805274E+04  0.37021542950E+04 0.  0.
        3    1    3    3  502    0  0.15085360312E+04 -0.26503044390E+03  0.60169207573E+03  0.16455866607E+04  0.10100000352E+00 0.  1.
       -3    1    3    3    0  502 -0.15085360312E+04  0.26503044390E+03 -0.15435353809E+04  0.21744938667E+04  0.10100000352E+00 0. -1.
</event>
<event>
 5   0  0.4793557E-07  0.3698747E+04  0.7818609E-02  0.8068239E-01
        2   -1    0    0  501    0  0.00000000000E+00  0.00000000000E+00  0.12555489454E+04  0.12555489454E+04  0.25500000920E-02 0. -1.
       -2   -1    0    0    0  501  0.00000000000E+00  0.00000000000E+00 -0.27240538760E+04  0.27240538760E+04  0.25500000920E-02 0.  1.
    10030    2    1    2    0    0  0.00000000000E+00  0.00000000000E+00 -0.14685049307E+04  0.39796028214E+04  0.36987473399E+04 0.  0.
        3    1    3    3  502    0 -0.40121046866E+03  0.73973201208E+03  0.10376127455E+04  0.13359691276E+04  0.10100000352E+00 0. -1.
       -3    1    3    3    0  502  0.40121046866E+03 -0.73973201208E+03 -0.25061176762E+04  0.26436336938E+04  0.10100000352E+00 0.  1.
</event>
<event>
 5   0  0.4824268E-07  0.3703821E+04  0.7818609E-02  0.8067115E-01
        2   -1    0    0  501    0  0.00000000000E+00  0.00000000000E+00  0.17035586737E+04  0.17035586737E+04  0.25500000920E-02 0.  1.
       -2   -1    0    0    0  501  0.00000000000E+00  0.00000000000E+00 -0.20131817696E+04  0.20131817696E+04  0.25500000920E-02 0. -1.
    10030    2    1    2    0    0  0.00000000000E+00  0.00000000000E+00 -0.30962309588E+03  0.37167404433E+04  0.37038214132E+04 0.  0.
        1    1    3    3  502    0  0.60297882327E+03  0.57019584923E+03 -0.18161424234E+04  0.19967674051E+04  0.50400001928E-02 0. -1.
       -1    1    3    3    0  502 -0.60297882327E+03 -0.57019584923E+03  0.15065193275E+04  0.17199730382E+04  0.50400001928E-02 0.  1.
</event>
<event>
 5   0  0.1496287E-07  0.3702151E+04  0.7818609E-02  0.8067485E-01
        1   -1    0    0  501    0  0.00000000000E+00  0.00000000000E+00  0.28156426212E+04  0.28156426212E+04  0.50400001928E-02 0.  1.
       -1   -1    0    0    0  501  0.00000000000E+00  0.00000000000E+00 -0.12169443540E+04  0.12169443540E+04  0.50400001928E-02 0. -1.
    10030    2    1    2    0    0  0.00000000000E+00  0.00000000000E+00  0.15986982672E+04  0.40325869752E+04  0.37021509374E+04 0.  0.
        1    1    3    3  502    0  0.14109400611E+04  0.33893395467E+03  0.20512119845E+04  0.25125880456E+04  0.50400001928E-02 0.  1.
       -1    1    3    3    0  502 -0.14109400611E+04 -0.33893395467E+03 -0.45251371725E+03  0.15199989296E+04  0.50400001928E-02 0. -1.
</event>
<event>
 5   0  0.4758908E-07  0.3288555E+04  0.7818609E-02  0.8165814E-01
        2   -1    0    0  501    0  0.00000000000E+00  0.00000000000E+00  0.15829419766E+04  0.15829419766E+04  0.25500000920E-02 0. -1.
       -2   -1    0    0    0  501  0.00000000000E+00  0.00000000000E+00 -0.17079898289E+04  0.17079898289E+04  0.25500000920E-02 0.  1.
    10030    2    1    2    0    0  0.00000000000E+00  0.00000000000E+00 -0.12504785235E+03  0.32909318055E+04  0.32885551817E+04 0.  0.
        2    1    3    3  502    0  0.12320713226E+04 -0.10119943358E+04  0.33965769309E+03  0.16301839246E+04  0.25500000920E-02 0. -1.
       -2    1    3    3    0  502 -0.12320713226E+04  0.10119943358E+04 -0.46470554544E+03  0.16607478808E+04  0.25500000920E-02 0.  1.
</event>
<event>
 5   0  0.4793557E-07  0.3704180E+04  0.7818609E-02  0.8067036E-01
        2   -1    0    0  501    0  0.00000000000E+00  0.00000000000E+00  0.28328631919E+04  0.28328631919E+04  0.25500000920E-02 0.  1.
       -2   -1    0    0    0  501  0.00000000000E+00  0.00000000000E+00 -0.12108729197E+04  0.12108729197E+04  0.25500000920E-02 0. -1.
    10030    2    1    2    0    0  0.00000000000E+00  0.00000000000E+00  0.16219902722E+04  0.40437361115E+04  0.37041799763E+04 0.  0.
        3    1    3    3  502    0 -0.19705223176E+03 -0.71796897656E+02 -0.11978683459E+04  0.12160892076E+04  0.10100000352E+00 0. -1.
       -3    1    3    3    0  502  0.19705223176E+03  0.71796897656E+02  0.28198586181E+04  0.28276469039E+04  0.10100000352E+00 0.  1.
</event>
<event>
 5   0  0.1496287E-07  0.3744633E+04  0.7818609E-02  0.8058142E-01
        1   -1    0    0  501    0  0.00000000000E+00  0.00000000000E+00  0.16057974667E+04  0.16057974667E+04  0.50400001928E-02 0. -1.
       -1   -1    0    0    0  501  0.00000000000E+00  0.00000000000E+00 -0.21830701437E+04  0.21830701437E+04  0.50400001928E-02 0.  1.
    10030    2    1    2    0    0  0.00000000000E+00  0.00000000000E+00 -0.57727267696E+03  0.37888676104E+04  0.37446326957E+04 0.  0.
        1    1    3    3  502    0  0.10802667037E+04  0.77915844475E+03 -0.16200469515E+04  0.20972878101E+04  0.50400001928E-02 0.  1.
       -1    1    3    3    0  502 -0.10802667037E+04 -0.77915844475E+03  0.10427742746E+04  0.16915798003E+04  0.50400001928E-02 0. -1.
</event>
<event>
 5   0  0.4687817E-07  0.3458935E+04  0.7818609E-02  0.8123591E-01
        2   -1    0    0  501    0  0.00000000000E+00  0.00000000000E+00  0.18658879947E+04  0.18658879947E+04  0.25500000920E-02 0.  1.
       -2   -1    0    0    0  501  0.00000000000E+00  0.00000000000E+00 -0.16030207073E+04  0.16030207073E+04  0.25500000920E-02 0. -1.
    10030    2    1    2    0    0  0.00000000000E+00  0.00000000000E+00  0.26286728738E+03  0.34689087020E+04  0.34589345718E+04 0.  0.
        4    1    3    3  502    0 -0.16654627041E+04 -0.46368526141E+03  0.17937777028E+03  0.17380874655E+04  0.12699999809E+01 0. -1.
       -4    1    3    3    0  502  0.16654627041E+04  0.46368526141E+03  0.83489517102E+02  0.17308212365E+04  0.12699999809E+01 0.  1.
</event>
<event>
 5   0  0.1496000E-07  0.3499372E+04  0.7818609E-02  0.8113939E-01
       -3   -1    0    0    0  501  0.00000000000E+00  0.00000000000E+00  0.25352030683E+04  0.25352030703E+04  0.10100000352E+00 0. -1.
        3   -1    0    0  501    0  0.00000000000E+00  0.00000000000E+00 -0.12075562478E+04  0.12075562520E+04  0.10100000352E+00 0.  1.
    10030    2    1    2    0    0  0.00000000000E+00  0.00000000000E+00  0.13276468206E+04  0.37427593223E+04  0.34993715528E+04 0.  0.
        5    1    3    3  502    0  0.16259539315E+03 -0.67203088500E+03 -0.10552347281E+04  0.12615883614E+04  0.46999998093E+01 0.  1.
       -5    1    3    3    0  502 -0.16259539315E+03  0.67203088500E+03  0.23828815487E+04  0.24811709609E+04  0.46999998093E+01 0. -1.
</event>
<event>
 5   0  0.4857514E-07  0.3493262E+04  0.7818609E-02  0.8115389E-01
        2   -1    0    0  501    0  0.00000000000E+00  0.00000000000E+00  0.23129520506E+04  0.23129520506E+04  0.25500000920E-02 0. -1.
       -2   -1    0    0    0  501  0.00000000000E+00  0.00000000000E+00 -0.13189727074E+04  0.13189727074E+04  0.25500000920E-02 0.  1.
    10030    2    1    2    0    0  0.00000000000E+00  0.00000000000E+00  0.99397934319E+03  0.36319247581E+04  0.34932624456E+04 0.  0.
        5    1    3    3  502    0 -0.10280873190E+04  0.56164915353E+03  0.18438994758E+04  0.21845824942E+04  0.46999998093E+01 0. -1.
       -5    1    3    3    0  502  0.10280873190E+04 -0.56164915353E+03 -0.84992013257E+03  0.14473422639E+04  0.46999998093E+01 0.  1.
</event>
<event>
 5   0  0.4687817E-07  0.3708022E+04  0.7818609E-02  0.8066186E-01
       -2   -1    0    0    0  501  0.00000000000E+00  0.00000000000E+00  0.16565567193E+04  0.16565567193E+04  0.25500000920E-02 0.  1.
        2   -1    0    0  501    0  0.00000000000E+00  0.00000000000E+00 -0.20750005754E+04  0.20750005754E+04  0.25500000920E-02 0. -1.
    10030    2    1    2    0    0  0.00000000000E+00  0.00000000000E+00 -0.41844385616E+03  0.37315572947E+04  0.37080216535E+04 0.  0.
        4    1    3    3  502    0 -0.13748788359E+03  0.90005915123E+03  0.14160662678E+04  0.16835244820E+04  0.12699999809E+01 0.  1.
       -4    1    3    3    0  502  0.13748788359E+03 -0.90005915123E+03 -0.18345101240E+04  0.20480328126E+04  0.12699999809E+01 0. -1.
</event>
<event>
 5   0  0.4793557E-07  0.3662714E+04  0.7818609E-02  0.8076276E-01
       -2   -1    0    0    0  501  0.00000000000E+00  0.00000000000E+00  0.18215339670E+04  0.18215339670E+04  0.25500000920E-02 0. -1.
        2   -1    0    0  501    0  0.00000000000E+00  0.00000000000E+00 -0.18412327172E+04  0.18412327172E+04  0.25500000920E-02 0.  1.
    10030    2    1    2    0    0  0.00000000000E+00  0.00000000000E+00 -0.19698750261E+02  0.36627666842E+04  0.36627137128E+04 0.  0.
        3    1    3    3  502    0 -0.22495438910E+02 -0.17685860024E+04 -0.48468824700E+03  0.18339370763E+04  0.10100000352E+00 0.  1.
       -3    1    3    3    0  502  0.22495438910E+02  0.17685860024E+04  0.46498949674E+03  0.18288296080E+04  0.10100000352E+00 0. -1.
</event>
<event>
 5   0  0.4793557E-07  0.4164587E+04  0.7818609E-02  0.7972143E-01
        2   -1    0    0  501    0  0.00000000000E+00  0.00000000000E+00  0.29628082780E+04  0.29628082780E+04  0.25500000920E-02 0.  1.
       -2   -1    0    0    0  501  0.00000000000E+00  0.00000000000E+00 -0.14634581936E+04  0.14634581936E+04  0.25500000920E-02 0. -1.
    10030    2    1    2    0    0  0.00000000000E+00  0.00000000000E+00  0.14993500844E+04  0.44262664716E+04  0.41645869185E+04 0.  0.
        3    1    3    3  502    0 -0.18580280707E+04 -0.90416711352E+03  0.10230520137E+04  0.23057367399E+04  0.10100000352E+00 0. -1.
       -3    1    3    3    0  502  0.18580280707E+04  0.90416711352E+03  0.47629807072E+03  0.21205297317E+04  0.10100000352E+00 0.  1.
</event>
<event>
 5   0  0.4687817E-07  0.3706456E+04  0.7818609E-02  0.8066533E-01
       -2   -1    0    0    0  501  0.00000000000E+00  0.00000000000E+00  0.14546796197E+04  0.14546796197E+04  0.25500000920E-02 0. -1.
        2   -1    0    0  501    0  0.00000000000E+00  0.00000000000E+00 -0.23609689563E+04  0.23609689563E+04  0.25500000920E-02 0.  1.
    10030    2    1    2    0    0  0.00000000000E+00  0.00000000000E+00 -0.90628933662E+03  0.38156485761E+04  0.37064556782E+04 0.  0.
        4    1    3    3  502    0 -0.11635759698E+04  0.37863233224E+03 -0.18859743950E+04  0.22481486855E+04  0.12699999809E+01 0.  1.
       -4    1    3    3    0  502  0.11635759698E+04 -0.37863233224E+03  0.97968505836E+03  0.15674998906E+04  0.12699999809E+01 0. -1.
</event>
<event>
 5   0  0.4793557E-07  0.3658191E+04  0.7818609E-02  0.8077291E-01
       -2   -1    0    0    0  501  0.00000000000E+00  0.00000000000E+00  0.22524143109E+04  0.22524143109E+04  0.25500000920E-02 0.  1.
        2   -1    0    0  501    0  0.00000000000E+00  0.00000000000E+00 -0.14853352674E+04  0.14853352674E+04  0.25500000920E-02 0. -1.
    10030    2    1    2    0    0  0.00000000000E+00  0.00000000000E+00  0.76707904356E+03  0.37377495783E+04  0.36581910353E+04 0.  0.
        3    1    3    3  502    0  0.86860749600E+02 -0.26670458399E+03 -0.14632299615E+04  0.14898718251E+04  0.10100000352E+00 0. -1.
       -3    1    3    3    0  502 -0.86860749600E+02  0.26670458399E+03  0.22303090050E+04  0.22478777532E+04  0.10100000352E+00 0.  1.
</event>
<event>
 5   0  0.1496000E-07  0.3693776E+04  0.7818609E-02  0.8069342E-01
        1   -1    0    0  501    0  0.00000000000E+00  0.00000000000E+00  0.21012714864E+04  0.21012714864E+04  0.50400001928E-02 0. -1.
       -1   -1    0    0    0  501  0.00000000000E+00  0.00000000000E+00 -0.16233009028E+04  0.16233009028E+04  0.50400001928E-02 0.  1.
    10030    2    1    2    0    0  0.00000000000E+00  0.00000000000E+00  0.47797058365E+03  0.37245723892E+04  0.36937763338E+04 0.  0.
        5    1    3    3  502    0 -0.17341843309E+04 -0.18186221820E+03 -0.37478046851E+03  0.17835222593E+04  0.46999998093E+01 0.  1.
       -5    1    3    3    0  502  0.17341843309E+04  0.18186221820E+03  0.85275105217E+03  0.19410501299E+04  0.46999998093E+01 0. -1.
</event>
<event>
 5   0  0.4824268E-07  0.3771336E+04  0.7818609E-02  0.8052334E-01
       -2   -1    0    0    0  501  0.00000000000E+00  0.00000000000E+00  0.18274886768E+04  0.18274886768E+04  0.25500000920E-02 0. -1.
        2   -1    0    0  501    0  0.00000000000E+00  0.00000000000E+00 -0.19456994547E+04  0.19456994547E+04  0.25500000920E-02 0.  1.
    10030    2    1    2    0    0  0.00000000000E+00  0.00000000000E+00 -0.11821077795E+03  0.37731881315E+04  0.37713359553E+04 0.  0.
        1    1    3    3  502    0  0.17787794692E+04 -0.22188847054E+03 -0.64458748233E+03  0.19049367222E+04  0.50400001928E-02 0. -1.
       -1    1    3    3    0  502 -0.17787794692E+04  0.22188847054E+03  0.52637670438E+03  0.18682514093E+04  0.50400001928E-02 0.  1.
</event>
<event>
 5   0  0.1496000E-07  0.3701404E+04  0.7818609E-02  0.8067651E-01
       -1   -1    0    0    0  501  0.00000000000E+00  0.00000000000E+00  0.15191239203E+04  0.15191239203E+04  0.50400001928E-02 0. -1.
        1   -1    0    0  501    0  0.00000000000E+00  0.00000000000E+00 -0.22546538587E+04  0.22546538587E+04  0.50400001928E-02 0.  1.
    10030    2    1    2    0    0  0.00000000000E+00  0.00000000000E+00 -0.73552993841E+03  0.37737777790E+04  0.37014043868E+04 0.  0.
        3    1    3    3  502    0 -0.45967883437E+03  0.17926091201E+04 -0.38674372957E+03  0.18905879537E+04  0.10100000352E+00 0. -1.
       -3    1    3    3    0  502  0.45967883437E+03 -0.17926091201E+04 -0.34878620885E+03  0.18831898252E+04  0.10100000352E+00 0.  1.
</event>
<event>
 5   0  0.4687817E-07  0.3721349E+04  0.7818609E-02  0.8063247E-01
       -2   -1    0    0    0  501  0.00000000000E+00  0.00000000000E+00  0.13603262784E+04  0.13603262784E+04  0.25500000920E-02 0.  1.
        2   -1    0    0  501    0  0.00000000000E+00  0.00000000000E+00 -0.25450578004E+04  0.25450578004E+04  0.25500000920E-02 0. -1.
    10030    2    1    2    0    0  0.00000000000E+00  0.00000000000E+00 -0.11847315220E+04  0.39053840789E+04  0.37213486835E+04 0.  0.
        4    1    3    3  502    0 -0.89048114259E+03 -0.22329194951E+03 -0.22908256624E+04  0.24679343161E+04  0.12699999809E+01 0. -1.
       -4    1    3    3    0  502  0.89048114259E+03  0.22329194951E+03  0.11060941405E+04  0.14374497628E+04  0.12699999809E+01 0.  1.
</event>
<event>
 5   0  0.4687817E-07  0.3732323E+04  0.7818609E-02  0.8060836E-01
        2   -1    0    0  501    0  0.00000000000E+00  0.00000000000E+00  0.32727717398E+04  0.32727717398E+04  0.25500000920E-02 0. -1.
       -2   -1    0    0    0  501  0.00000000000E+00  0.00000000000E+00 -0.10641008377E+04  0.10641008377E+04  0.25500000920E-02 0.  1.
    10030    2    1    2    0    0  0.00000000000E+00  0.00000000000E+00  0.22086709021E+04  0.43368725776E+04  0.37323232176E+04 0.  0.
        4    1    3    3  502    0  0.49205005937E+02  0.33194928978E+03 -0.10287531332E+04  0.10821026225E+04  0.12699999809E+01 0.  1.
       -4    1    3    3    0  502 -0.49205005937E+02 -0.33194928978E+03  0.32374240353E+04  0.32547699551E+04  0.12699999809E+01 0. -1.
</event>
<event>
 5   0  0.4687817E-07  0.3683067E+04  0.7818609E-02  0.8071725E-01
        2   -1    0    0  501    0  0.00000000000E+00  0.00000000000E+00  0.24297035636E+04  0.24297035636E+04  0.25500000920E-02 0. -1.
       -2   -1    0    0    0  501  0.00000000000E+00  0.00000000000E+00 -0.13957442964E+04  0.13957442964E+04  0.25500000920E-02 0.  1.
    10030    2    1    2    0    0  0.00000000000E+00  0.00000000000E+00  0.10339592672E+04  0.38254478600E+04  0.36830665978E+04 0.  0.
        4    1    3    3  502    0  0.14362610890E+04  0.37927949948E+03  0.16474219112E+04  0.22182649573E+04  0.12699999809E+01 0. -1.
       -4    1    3    3    0  502 -0.14362610890E+04 -0.37927949948E+03 -0.61346264397E+03  0.16071829027E+04  0.12699999809E+01 0.  1.
</event>
<event>
 5   0  0.4824268E-07  0.3705128E+04  0.7818609E-02  0.8066826E-01
        2   -1    0    0  501    0  0.00000000000E+00  0.00000000000E+00  0.29594110688E+04  0.29594110688E+04  0.25500000920E-02 0.  1.
       -2   -1    0    0    0  501  0.00000000000E+00  0.00000000000E+00 -0.11596876760E+04  0.11596876760E+04  0.25500000920E-02 0. -1.
    10030    2    1    2    0    0  0.00000000000E+00  0.00000000000E+00  0.17997233928E+04  0.41190987448E+04  0.37051275524E+04 0.  0.
        1    1    3    3  502    0  0.15270934532E+04  0.68971401187E+03  0.17782493349E+04  0.24433359429E+04  0.50400001928E-02 0.  1.
       -1    1    3    3    0  502 -0.15270934532E+04 -0.68971401187E+03  0.21474057878E+02  0.16757628019E+04  0.50400001928E-02 0. -1.
</event>
<event>
 5   0  0.1496287E-07  0.3675070E+04  0.7818609E-02  0.8073509E-01
       -1   -1    0    0    0  501  0.00000000000E+00  0.00000000000E+00  0.25520957408E+04  0.25520957409E+04  0.50400001928E-02 0. -1.
        1   -1    0    0  501    0  0.00000000000E+00  0.00000000000E+00 -0.13230442923E+04  0.13230442923E+04  0.50400001928E-02 0.  1.
    10030    2    1    2    0    0  0.00000000000E+00  0.00000000000E+00  0.12290514485E+04  0.38751400332E+04  0.36750704502E+04 0.  0.
        1    1    3    3  502    0 -0.10918463057E+03 -0.16057228818E+04 -0.32046468457E+03  0.16410255546E+04  0.50400001928E-02 0.  1.
       -1    1    3    3    0  502  0.10918463057E+03  0.16057228818E+04  0.15495161331E+04  0.22341144786E+04  0.50400001928E-02 0. -1.
</event>
<event>
 5   0  0.1496000E-07  0.3640260E+04  0.7818609E-02  0.8081331E-01
       -1   -1    0    0    0  501  0.00000000000E+00  0.00000000000E+00  0.23942531975E+04  0.23942531975E+04  0.50400001928E-02 0. -1.
        1   -1    0    0  501    0  0.00000000000E+00  0.00000000000E+00 -0.13836774095E+04  0.13836774095E+04  0.50400001928E-02 0.  1.
    10030    2    1    2    0    0  0.00000000000E+00  0.00000000000E+00  0.10105757881E+04  0.37779306070E+04  0.36402604643E+04 0.  0.
        5    1    3    3  502    0  0.11888860716E+04  0.11708409007E+03 -0.91985048126E+03  0.15077485776E+04  0.46999998093E+01 0.  1.
       -5    1    3    3    0  502 -0.11888860716E+04 -0.11708409007E+03  0.19304262693E+04  0.22701820294E+04  0.46999998093E+01 0. -1.
</event>
<event>
 5   0  0.4687817E-07  0.3709542E+04  0.7818609E-02  0.8065850E-01
        2   -1    0    0  501    0  0.00000000000E+00  0.00000000000E+00  0.14723052709E+04  0.14723052709E+04  0.25500000920E-02 0. -1.
       -2   -1    0    0    0  501  0.00000000000E+00  0.00000000000E+00 -0.23365912222E+04  0.23365912222E+04  0.25500000920E-02 0.  1.
    10030    2    1    2    0    0  0.00000000000E+00  0.00000000000E+00 -0.86428595134E+03  0.38088964931E+04  0.37095420593E+04 0.  0.
        4    1    3    3  502    0 -0.10493633676E+04 -0.79144639444E+03  0.91158007860E+03  0.15995407857E+04  0.12699999809E+01 0. -1.
       -4    1    3    3    0  502  0.10493633676E+04  0.79144639444E+03 -0.17758660299E+04  0.22093557074E+04  0.12699999809E+01 0.  1.
</event>
<event>
 5   0  0.4824268E-07  0.3690540E+04  0.7818609E-02  0.8070062E-01
        2   -1    0    0  501    0  0.00000000000E+00  0.00000000000E+00  0.24107497112E+04  0.24107497112E+04  0.25500000920E-02 0.  1.
       -2   -1    0    0    0  501  0.00000000000E+00  0.00000000000E+00 -0.14124324202E+04  0.14124324202E+04  0.25500000920E-02 0. -1.
    10030    2    1    2    0    0  0.00000000000E+00  0.00000000000E+00  0.99831729098E+03  0.38231821315E+04  0.36905398246E+04 0.  0.
        1    1    3    3  502    0  0.30927002589E+03  0.38469203793E+03 -0.13427742118E+04  0.14306217169E+04  0.50400001928E-02 0. -1.
       -1    1    3    3    0  502 -0.30927002589E+03 -0.38469203793E+03  0.23410915028E+04  0.23925604146E+04  0.50400001928E-02 0.  1.
</event>
<event>
 5   0  0.4758908E-07  0.3685524E+04  0.7818609E-02  0.8071178E-01
        2   -1    0    0  501    0  0.00000000000E+00  0.00000000000E+00  0.24515060968E+04  0.24515060968E+04  0.25500000920E-02 0. -1.
       -2   -1    0    0    0  501  0.00000000000E+00  0.00000000000E+00 -0.13851775370E+04  0.13851775370E+04  0.25500000920E-02 0.  1.
    10030    2    1    2    0    0  0.00000000000E+00  0.00000000000E+00  0.10663285597E+04  0.38366836338E+04  0.36855236682E+04 0.  0.
        2    1    3    3  502    0  0.35922109631E+03  0.42370468429E+03  0.23622732105E+04  0.24267056221E+04  0.25500000920E-02 0. -1.
       -2    1    3    3    0  502 -0.35922109631E+03 -0.42370468429E+03 -0.12959446508E+04  0.14099780117E+04  0.25500000920E-02 0.  1.
</event>
<event>
 5   0  0.4857514E-07  0.3705618E+04  0.7818609E-02  0.8066718E-01
        2   -1    0    0  501    0  0.00000000000E+00  0.00000000000E+00  0.23450088549E+04  0.23450088549E+04  0.25500000920E-02 0. -1.
       -2   -1    0    0    0  501  0.00000000000E+00  0.00000000000E+00 -0.14639179822E+04  0.14639179822E+04  0.25500000920E-02 0.  1.
    10030    2    1    2    0    0  0.00000000000E+00  0.00000000000E+00  0.88109087272E+03  0.38089268371E+04  0.37056176981E+04 0.  0.
        5    1    3    3  502    0  0.53013752591E+03  0.16494817041E+04  0.11153876523E+04  0.20605696769E+04  0.46999998093E+01 0. -1.
       -5    1    3    3    0  502 -0.53013752591E+03 -0.16494817041E+04 -0.23429677955E+03  0.17483571602E+04  0.46999998093E+01 0.  1.
</event>
<event>
 5   0  0.4758908E-07  0.3703699E+04  0.7818609E-02  0.8067143E-01
       -2   -1    0    0    0  501  0.00000000000E+00  0.00000000000E+00  0.18019551669E+04  0.18019551670E+04  0.25500000920E-02 0.  1.
        2   -1    0    0  501    0  0.00000000000E+00  0.00000000000E+00 -0.19031249362E+04  0.19031249362E+04  0.25500000920E-02 0. -1.
    10030    2    1    2    0    0  0.00000000000E+00  0.00000000000E+00 -0.10116976925E+03  0.37050801031E+04  0.37036985904E+04 0.  0.
        2    1    3    3  502    0 -0.57883297949E+03  0.17002490460E+04 -0.50180897793E+03  0.18648610369E+04  0.25500000920E-02 0. -1.
       -2    1    3    3    0  502  0.57883297949E+03 -0.17002490460E+04  0.40063920868E+03  0.18402190663E+04  0.25500000920E-02 0.  1.
</event>
<event>
 5   0  0.1496000E-07  0.3337041E+04  0.7818609E-02  0.8153534E-01
        1   -1    0    0  501    0  0.00000000000E+00  0.00000000000E+00  0.19298466796E+04  0.19298466796E+04  0.50400001928E-02 0.  1.
       -1   -1    0    0    0  501  0.00000000000E+00  0.00000000000E+00 -0.14425810454E+04  0.14425810454E+04  0.50400001928E-02 0. -1.
    10030    2    1    2    0    0  0.00000000000E+00  0.00000000000E+00  0.48726563422E+03  0.33724277250E+04  0.33370407492E+04 0.  0.
        3    1    3    3  502    0  0.10034242874E+04 -0.92030288211E+03  0.12182989899E+04  0.18270386242E+04  0.10100000352E+00 0.  1.
       -3    1    3    3    0  502 -0.10034242874E+04  0.92030288211E+03 -0.73103335567E+03  0.15453891007E+04  0.10100000352E+00 0. -1.
</event>
<event>
 5   0  0.4824268E-07  0.3693710E+04  0.7818609E-02  0.8069357E-01
       -2   -1    0    0    0  501  0.00000000000E+00  0.00000000000E+00  0.13784863922E+04  0.13784863922E+04  0.25500000920E-02 0. -1.
        2   -1    0    0  501    0  0.00000000000E+00  0.00000000000E+00 -0.24743609494E+04  0.24743609494E+04  0.25500000920E-02 0.  1.
    10030    2    1    2    0    0  0.00000000000E+00  0.00000000000E+00 -0.10958745572E+04  0.38528473417E+04  0.36937097332E+04 0.  0.
        1    1    3    3  502    0  0.17826716132E+04 -0.28119215452E+03 -0.13875360496E+03  0.18100385828E+04  0.50400001928E-02 0. -1.
       -1    1    3    3    0  502 -0.17826716132E+04  0.28119215452E+03 -0.95712095226E+03  0.20428087589E+04  0.50400001928E-02 0.  1.
</event>
<event>
 5   0  0.1522273E-07  0.3733285E+04  0.7818609E-02  0.8060625E-01
       -1   -1    0    0    0  501  0.00000000000E+00  0.00000000000E+00  0.19329467608E+04  0.19329467608E+04  0.50400001928E-02 0.  1.
        1   -1    0    0  501    0  0.00000000000E+00  0.00000000000E+00 -0.18026124165E+04  0.18026124165E+04  0.50400001928E-02 0. -1.
    10030    2    1    2    0    0  0.00000000000E+00  0.00000000000E+00  0.13033434423E+03  0.37355591773E+04  0.37332847904E+04 0.  0.
        4    1    3    3  502    0  0.16332697161E+03  0.11242315565E+04  0.15472109380E+04  0.19194883672E+04  0.12699999809E+01 0.  1.
       -4    1    3    3    0  502 -0.16332697161E+03 -0.11242315565E+04 -0.14168765938E+04  0.18160708101E+04  0.12699999809E+01 0. -1.
</event>
<event>
 5   0  0.1522273E-07  0.3714927E+04  0.7818609E-02  0.8064662E-01
        1   -1    0    0  501    0  0.00000000000E+00  0.00000000000E+00  0.24753097256E+04  0.24753097256E+04  0.50400001928E-02 0.  1.
       -1   -1    0    0    0  501  0.00000000000E+00  0.00000000000E+00 -0.13938340971E+04  0.13938340971E+04  0.50400001928E-02 0. -1.
    10030    2    1    2    0    0  0.00000000000E+00  0.00000000000E+00  0.10814756285E+04  0.38691438226E+04  0.37149272382E+04 0.  0.
        4    1    3    3  502    0 -0.35858397997E+02 -0.42851058663E+03 -0.13412794411E+04  0.14085238016E+04  0.12699999809E+01 0. -1.
       -4    1    3    3    0  502  0.35858397997E+02  0.42851058663E+03  0.24227550696E+04  0.24606200210E+04  0.12699999809E+01 0.  1.
</event>
<event>
 5   0  0.4793557E-07  0.3632134E+04  0.7818609E-02  0.8083170E-01
       -2   -1    0    0    0  501  0.00000000000E+00  0.00000000000E+00  0.14170073446E+04  0.14170073446E+04  0.25500000920E-02 0. -1.
        2   -1    0    0  501    0  0.00000000000E+00  0.00000000000E+00 -0.23275110237E+04  0.23275110237E+04  0.25500000920E-02 0.  1.
    10030    2    1    2    0    0  0.00000000000E+00  0.00000000000E+00 -0.91050367913E+03  0.37445183683E+04  0.36321344773E+04 0.  0.
        3    1    3    3  502    0  0.94274438400E+03  0.69947762142E+01  0.11449621816E+04  0.14831568724E+04  0.10100000352E+00 0. -1.
       -3    1    3    3    0  502 -0.94274438400E+03 -0.69947762142E+01 -0.20554658608E+04  0.22613614960E+04  0.10100000352E+00 0.  1.
</event>
<event>
 5   0  0.4857514E-07  0.3688672E+04  0.7818609E-02  0.8070477E-01
        2   -1    0    0  501    0  0.00000000000E+00  0.00000000000E+00  0.21878407455E+04  0.21878407455E+04  0.25500000920E-02 0. -1.
       -2   -1    0    0    0  501  0.00000000000E+00  0.00000000000E+00 -0.15547633582E+04  0.15547633582E+04  0.25500000920E-02 0.  1.
    10030    2    1    2    0    0  0.00000000000E+00  0.00000000000E+00  0.63307738731E+03  0.37426041036E+04  0.36886716441E+04 0.  0.
        5    1    3    3  502    0  0.36881666751E+03 -0.12467974021E+04 -0.10106473951E+04  0.16468028854E+04  0.46999998093E+01 0.  1.
       -5    1    3    3    0  502 -0.36881666751E+03  0.12467974021E+04  0.16437247824E+04  0.20958012183E+04  0.46999998093E+01 0. -1.
</event>
<event>
 5   0  0.4857514E-07  0.3673827E+04  0.7818609E-02  0.8073787E-01
        2   -1    0    0  501    0  0.00000000000E+00  0.00000000000E+00  0.22540026062E+04  0.22540026063E+04  0.25500000920E-02 0. -1.
       -2   -1    0    0    0  501  0.00000000000E+00  0.00000000000E+00 -0.14970038059E+04  0.14970038059E+04  0.25500000920E-02 0.  1.
    10030    2    1    2    0    0  0.00000000000E+00  0.00000000000E+00  0.75699880035E+03  0.37510064122E+04  0.36738266046E+04 0.  0.
        5    1    3    3  502    0  0.55332344470E+03  0.17481753246E+04  0.49008670213E+03  0.18980228833E+04  0.46999998093E+01 0. -1.
       -5    1    3    3    0  502 -0.55332344470E+03 -0.17481753246E+04  0.26691209821E+03  0.18529835288E+04  0.46999998093E+01 0.  1.
</event>
<event>
 5   0  0.4824268E-07  0.3727736E+04  0.7818609E-02  0.8061843E-01
       -2   -1    0    0    0  501  0.00000000000E+00  0.00000000000E+00  0.36098097647E+04  0.36098097647E+04  0.25500000920E-02 0.  1.
        2   -1    0    0  501    0  0.00000000000E+00  0.00000000000E+00 -0.96237857443E+03  0.96237857443E+03  0.25500000920E-02 0. -1.
    10030    2    1    2    0    0  0.00000000000E+00  0.00000000000E+00  0.26474311902E+04  0.45721883391E+04  0.37277358143E+04 0.  0.
        1    1    3    3  502    0 -0.49785635882E+03 -0.18730412044E+03 -0.86730498107E+03  0.10174289743E+04  0.50400001928E-02 0. -1.
       -1    1    3    3    0  502  0.49785635882E+03  0.18730412044E+03  0.35147361713E+04  0.35547593648E+04  0.50400001928E-02 0.  1.
</event>
<event>
 5   0  0.1496287E-07  0.3635907E+04  0.7818609E-02  0.8082316E-01
        1   -1    0    0  501    0  0.00000000000E+00  0.00000000000E+00  0.12971843751E+04  0.12971843751E+04  0.50400001928E-02 0. -1.
       -1   -1    0    0    0  501  0.00000000000E+00  0.00000000000E+00 -0.25477918731E+04  0.25477918731E+04  0.50400001928E-02 0.  1.
    10030    2    1    2    0    0  0.00000000000E+00  0.00000000000E+00 -0.12506074980E+04  0.38449762483E+04  0.36359074845E+04 0.  0.
        1    1    3    3  502    0 -0.82000296818E+03 -0.12265960798E+04  0.49784658162E+03  0.15571750158E+04  0.50400001928E-02 0. -1.
       -1    1    3    3    0  502  0.82000296818E+03  0.12265960798E+04 -0.17484540796E+04  0.22878012325E+04  0.50400001928E-02 0.  1.
</event>
<event>
 5   0  0.1496000E-07  0.3691529E+04  0.7818609E-02  0.8069842E-01
        3   -1    0    0  501    0  0.00000000000E+00  0.00000000000E+00  0.12647625839E+04  0.12647625879E+04  0.10100000352E+00 0.  1.
       -3   -1    0    0    0  501  0.00000000000E+00  0.00000000000E+00 -0.26936649343E+04  0.26936649362E+04  0.10100000352E+00 0. -1.
    10030    2    1    2    0    0  0.00000000000E+00  0.00000000000E+00 -0.14289023505E+04  0.39584275242E+04  0.36915290242E+04 0.  0.
        5    1    3    3  502    0 -0.79398471540E+02  0.43287515945E+03 -0.26365742947E+04  0.26730565132E+04  0.46999998093E+01 0. -1.
       -5    1    3    3    0  502  0.79398471540E+02 -0.43287515945E+03  0.12076719443E+04  0.12853710110E+04  0.46999998093E+01 0.  1.
</event>
<event>
 5   0  0.4857514E-07  0.3229301E+04  0.7818609E-02  0.8181121E-01
       -2   -1    0    0    0  501  0.00000000000E+00  0.00000000000E+00  0.16186238288E+04  0.16186238288E+04  0.25500000920E-02 0.  1.
        2   -1    0    0  501    0  0.00000000000E+00  0.00000000000E+00 -0.16106868296E+04  0.16106868296E+04  0.25500000920E-02 0. -1.
    10030    2    1    2    0    0  0.00000000000E+00  0.00000000000E+00  0.79369992684E+01  0.32293106584E+04  0.32293009046E+04 0.  0.
        5    1    3    3  502    0  0.47847085361E+03  0.13103268533E+04  0.81710266270E+03  0.16166538502E+04  0.46999998093E+01 0.  1.
       -5    1    3    3    0  502 -0.47847085361E+03 -0.13103268533E+04 -0.80916566343E+03  0.16126568082E+04  0.46999998093E+01 0. -1.
</event>
<event>
 5   0  0.4758908E-07  0.3670873E+04  0.7818609E-02  0.8074447E-01
       -2   -1    0    0    0  501  0.00000000000E+00  0.00000000000E+00  0.20065277777E+04  0.20065277777E+04  0.25500000920E-02 0. -1.
        2   -1    0    0  501    0  0.00000000000E+00  0.00000000000E+00 -0.16789339645E+04  0.16789339645E+04  0.25500000920E-02 0.  1.
    10030    2    1    2    0    0  0.00000000000E+00  0.00000000000E+00  0.32759381326E+03  0.36854617422E+04  0.36708732676E+04 0.  0.
        2    1    3    3  502    0  0.91577860124E+03 -0.14244513309E+04  0.87450535122E+03  0.19059044178E+04  0.25500000920E-02 0. -1.
       -2    1    3    3    0  502 -0.91577860124E+03  0.14244513309E+04 -0.54691153796E+03  0.17795573244E+04  0.25500000920E-02 0.  1.
</event>
<event>
 5   0  0.4793557E-07  0.4108315E+04  0.7818609E-02  0.7983045E-01
        2   -1    0    0  501    0  0.00000000000E+00  0.00000000000E+00  0.13889476347E+04  0.13889476347E+04  0.25500000920E-02 0. -1.
       -2   -1    0    0    0  501  0.00000000000E+00  0.00000000000E+00 -0.30379566119E+04  0.30379566119E+04  0.25500000920E-02 0.  1.
    10030    2    1    2    0    0  0.00000000000E+00  0.00000000000E+00 -0.16490089772E+04  0.44269042466E+04  0.41083148129E+04 0.  0.
        3    1    3    3  502    0 -0.11026182249E+04  0.13956963812E+04  0.28271279606E+03  0.18010168999E+04  0.10100000352E+00 0. -1.
       -3    1    3    3    0  502  0.11026182249E+04 -0.13956963812E+04 -0.19317217732E+04  0.26258873467E+04  0.10100000352E+00 0.  1.
</event>
<event>
 5   0  0.1496287E-07  0.3697837E+04  0.7818609E-02  0.8068441E-01
        1   -1    0    0  501    0  0.00000000000E+00  0.00000000000E+00  0.17806590629E+04  0.17806590629E+04  0.50400001928E-02 0. -1.
       -1   -1    0    0    0  501  0.00000000000E+00  0.00000000000E+00 -0.19197945927E+04  0.19197945927E+04  0.50400001928E-02 0.  1.
    10030    2    1    2    0    0  0.00000000000E+00  0.00000000000E+00 -0.13913552976E+03  0.37004536556E+04  0.36978370113E+04 0.  0.
        1    1    3    3  502    0 -0.86082652384E+03 -0.12513888934E+04  0.98545676682E+03  0.18105583410E+04  0.50400001928E-02 0. -1.
       -1    1    3    3    0  502  0.86082652384E+03  0.12513888934E+04 -0.11245922966E+04  0.18898953146E+04  0.50400001928E-02 0.  1.
</event>
<event>
 5   0  0.4793557E-07  0.3682212E+04  0.7818609E-02  0.8071915E-01
        2   -1    0    0  501    0  0.00000000000E+00  0.00000000000E+00  0.23258422259E+04  0.23258422259E+04  0.25500000920E-02 0.  1.
       -2   -1    0    0    0  501  0.00000000000E+00  0.00000000000E+00 -0.14573953784E+04  0.14573953784E+04  0.25500000920E-02 0. -1.
    10030    2    1    2    0    0  0.00000000000E+00  0.00000000000E+00  0.86844684754E+03  0.37832376043E+04  0.36822122214E+04 0.  0.
        3    1    3    3  502    0 -0.93055106625E+02  0.16217878610E+04  0.13244934063E+04  0.20959813721E+04  0.10100000352E+00 0.  1.
       -3    1    3    3    0  502  0.93055106625E+02 -0.16217878610E+04 -0.45604655874E+03  0.16872562321E+04  0.10100000352E+00 0. -1.
</event>
<event>
 5   0  0.4857514E-07  0.3772289E+04  0.7818609E-02  0.8052128E-01
        2   -1    0    0  501    0  0.00000000000E+00  0.00000000000E+00  0.28982132088E+04  0.28982132088E+04  0.25500000920E-02 0. -1.
       -2   -1    0    0    0  501  0.00000000000E+00  0.00000000000E+00 -0.12274944767E+04  0.12274944767E+04  0.25500000920E-02 0.  1.
    10030    2    1    2    0    0  0.00000000000E+00  0.00000000000E+00  0.16707187321E+04  0.41257076856E+04  0.37722888045E+04 0.  0.
        5    1    3    3  502    0 -0.16384346617E+04  0.11098980185E+03 -0.17931672766E+03  0.16519574618E+04  0.46999998093E+01 0.  1.
       -5    1    3    3    0  502  0.16384346617E+04 -0.11098980185E+03  0.18500354598E+04  0.24737502237E+04  0.46999998093E+01 0. -1.
</event>
<event>
 5   0  0.1496287E-07  0.3687699E+04  0.7818609E-02  0.8070693E-01
       -1   -1    0    0    0  501  0.00000000000E+00  0.00000000000E+00  0.22729920978E+04  0.22729920978E+04  0.50400001928E-02 0.  1.
        1   -1    0    0  501    0  0.00000000000E+00  0.00000000000E+00 -0.14957295506E+04  0.14957295506E+04  0.50400001928E-02 0. -1.
    10030    2    1    2    0    0  0.00000000000E+00  0.00000000000E+00  0.77726254726E+03  0.37687216484E+04  0.36876992550E+04 0.  0.
        1    1    3    3  502    0 -0.15731279008E+04  0.94932222867E+03  0.23084556295E+03  0.18518190408E+04  0.50400001928E-02 0.  1.
       -1    1    3    3    0  502  0.15731279008E+04 -0.94932222867E+03  0.54641698431E+03  0.19169026075E+04  0.50400001928E-02 0. -1.
</event>
<event>
 5   0  0.1496000E-07  0.3687200E+04  0.7818609E-02  0.8070804E-01
       -1   -1    0    0    0  501  0.00000000000E+00  0.00000000000E+00  0.13472527335E+04  0.13472527335E+04  0.50400001928E-02 0. -1.
        1   -1    0    0  501    0  0.00000000000E+00  0.00000000000E+00 -0.25228084720E+04  0.25228084720E+04  0.50400001928E-02 0.  1.
    10030    2    1    2    0    0  0.00000000000E+00  0.00000000000E+00 -0.11755557386E+04  0.38700612055E+04  0.36871998101E+04 0.  0.
        2    1    3    3  502    0 -0.14582350504E+04  0.11218226411E+04 -0.71163484473E+03  0.19726529479E+04  0.25500000920E-02 0.  1.
       -2    1    3    3    0  502  0.14582350504E+04 -0.11218226411E+04 -0.46392089383E+03  0.18974082576E+04  0.25500000920E-02 0. -1.
</event>
<event>
 5   0  0.4687817E-07  0.3721956E+04  0.7818609E-02  0.8063114E-01
        2   -1    0    0  501    0  0.00000000000E+00  0.00000000000E+00  0.18723757179E+04  0.18723757179E+04  0.25500000920E-02 0.  1.
       -2   -1    0    0    0  501  0.00000000000E+00  0.00000000000E+00 -0.18496494569E+04  0.18496494569E+04  0.25500000920E-02 0. -1.
    10030    2    1    2    0    0  0.00000000000E+00  0.00000000000E+00  0.22726261031E+02  0.37220251747E+04  0.37219557921E+04 0.  0.
        4    1    3    3  502    0  0.11375727101E+04 -0.14194251882E+04 -0.38157877017E+03  0.18586133290E+04  0.12699999809E+01 0.  1.
       -4    1    3    3    0  502 -0.11375727101E+04  0.14194251882E+04  0.40430503120E+03  0.18634118458E+04  0.12699999809E+01 0. -1.
</event>
<event>
 5   0  0.4687817E-07  0.3649737E+04  0.7818609E-02  0.8079193E-01
       -2   -1    0    0    0  501  0.00000000000E+00  0.00000000000E+00  0.25272728110E+04  0.25272728110E+04  0.25500000920E-02 0.  1.
        2   -1    0    0  501    0  0.00000000000E+00  0.00000000000E+00 -0.13176833234E+04  0.13176833234E+04  0.25500000920E-02 0. -1.
    10030    2    1    2    0    0  0.00000000000E+00  0.00000000000E+00  0.12095894876E+04  0.38449561344E+04  0.36497371066E+04 0.  0.
        4    1    3    3  502    0 -0.16311628084E+04  0.20024676892E+03 -0.23095619442E+03  0.16595581498E+04  0.12699999809E+01 0. -1.
       -4    1    3    3    0  502  0.16311628084E+04 -0.20024676892E+03  0.14405456820E+04  0.21853979845E+04  0.12699999809E+01 0.  1.
</event>
<event>
 5   0  0.4758908E-07  0.3743004E+04  0.7818609E-02  0.8058498E-01
       -2   -1    0    0    0  501  0.00000000000E+00  0.00000000000E+00  0.14741224456E+04  0.14741224456E+04  0.25500000920E-02 0. -1.
        2   -1    0    0  501    0  0.00000000000E+00  0.00000000000E+00 -0.23760030092E+04  0.23760030092E+04  0.25500000920E-02 0.  1.
    10030    2    1    2    0    0  0.00000000000E+00  0.00000000000E+00 -0.90188056359E+03  0.38501254547E+04  0.37430038026E+04 0.  0.
        2    1    3    3  502    0 -0.12289595960E+04  0.70620595536E+03  0.80610255185E+03  0.16306041409E+04  0.25500000920E-02 0. -1.
       -2    1    3    3    0  502  0.12289595960E+04 -0.70620595536E+03 -0.17079831154E+04  0.22195213139E+04  0.25500000920E-02 0.  1.
</event>
<event>
 5   0  0.4824268E-07  0.3766811E+04  0.7818609E-02  0.8053315E-01
        2   -1    0    0  501    0  0.00000000000E+00  0.00000000000E+00  0.26168356932E+04  0.26168356932E+04  0.25500000920E-02 0. -1.
       -2   -1    0    0    0  501  0.00000000000E+00  0.00000000000E+00 -0.13555363342E+04  0.13555363342E+04  0.25500000920E-02 0.  1.
    10030    2    1    2    0    0  0.00000000000E+00  0.00000000000E+00  0.12612993590E+04  0.39723720275E+04  0.37668107799E+04 0.  0.
        1    1    3    3  502    0  0.16054886836E+04  0.70092926122E+03 -0.98699393549E+02  0.17546046029E+04  0.50400001928E-02 0. -1.
       -1    1    3    3    0  502 -0.16054886836E+04 -0.70092926122E+03  0.13599987526E+04  0.22177674245E+04  0.50400001928E-02 0.  1.
</event>
<event>
 5   0  0.4687817E-07  0.3716984E+04  0.7818609E-02  0.8064208E-01
       -2   -1    0    0    0  501  0.00000000000E+00  0.00000000000E+00  0.11207638857E+04  0.11207638857E+04  0.25500000920E-02 0.  1.
        2   -1    0    0  501    0  0.00000000000E+00  0.00000000000E+00 -0.30818193582E+04  0.30818193582E+04  0.25500000920E-02 0. -1.
    10030    2    1    2    0    0  0.00000000000E+00  0.00000000000E+00 -0.19610554725E+04  0.42025832438E+04  0.37169836366E+04 0.  0.
        4    1    3    3  502    0 -0.81201278390E+03  0.10794668479E+04 -0.24237606946E+04  0.27747488093E+04  0.12699999809E+01 0. -1.
       -4    1    3    3    0  502  0.81201278390E+03 -0.10794668479E+04  0.46270522214E+03  0.14278344345E+04  0.12699999809E+01 0.  1.
</event>
<event>
 5   0  0.4793557E-07  0.3123359E+04  0.7818609E-02  0.8209356E-01
        2   -1    0    0  501    0  0.00000000000E+00  0.00000000000E+00  0.16660101887E+04  0.16660101887E+04  0.25500000920E-02 0. -1.
       -2   -1    0    0    0  501  0.00000000000E+00  0.00000000000E+00 -0.14638819414E+04  0.14638819414E+04  0.25500000920E-02 0.  1.
    10030    2    1    2    0    0  0.00000000000E+00  0.00000000000E+00  0.20212824732E+03  0.31298921300E+04  0.31233585957E+04 0.  0.
        3    1    3    3  502    0  0.41893278150E+03  0.12815942499E+04 -0.68852683345E+03  0.15139543280E+04  0.10100000352E+00 0.  1.
       -3    1    3    3    0  502 -0.41893278150E+03 -0.12815942499E+04  0.89065508077E+03  0.16159378020E+04  0.10100000352E+00 0. -1.
</event>
<event>
 5   0  0.1496000E-07  0.3677579E+04  0.7818609E-02  0.8072949E-01
        1   -1    0    0  501    0  0.00000000000E+00  0.00000000000E+00  0.23712271462E+04  0.23712271462E+04  0.50400001928E-02 0.  1.
       -1   -1    0    0    0  501  0.00000000000E+00  0.00000000000E+00 -0.14259060602E+04  0.14259060602E+04  0.50400001928E-02 0. -1.
    10030    2    1    2    0    0  0.00000000000E+00  0.00000000000E+00  0.94532108602E+03  0.37971332064E+04  0.36775791809E+04 0.  0.
        3    1    3    3  502    0  0.37839913871E+03 -0.93151801300E+03 -0.11169456406E+04  0.15028237724E+04  0.10100000352E+00 0. -1.
       -3    1    3    3    0  502 -0.37839913871E+03  0.93151801300E+03  0.20622667266E+04  0.22943094340E+04  0.10100000352E+00 0.  1.
</event>
<event>
 5   0  0.1496000E-07  0.3072641E+04  0.7818609E-02  0.8223287E-01
        1   -1    0    0  501    0  0.00000000000E+00  0.00000000000E+00  0.24993482963E+04  0.24993482963E+04  0.50400001928E-02 0. -1.
       -1   -1    0    0    0  501  0.00000000000E+00  0.00000000000E+00 -0.94435816109E+03  0.94435816110E+03  0.50400001928E-02 0.  1.
    10030    2    1    2    0    0  0.00000000000E+00  0.00000000000E+00  0.15549901352E+04  0.34437064574E+04  0.30726405329E+04 0.  0.
        3    1    3    3  502    0 -0.28299425529E+03  0.11382571569E+04 -0.33458621834E+03  0.12196979345E+04  0.10100000352E+00 0.  1.
       -3    1    3    3    0  502  0.28299425529E+03 -0.11382571569E+04  0.18895763536E+04  0.22240085229E+04  0.10100000352E+00 0. -1.
</event>
<event>
 5   0  0.1522273E-07  0.3690979E+04  0.7818609E-02  0.8069964E-01
        1   -1    0    0  501    0  0.00000000000E+00  0.00000000000E+00  0.22451050224E+04  0.22451050224E+04  0.50400001928E-02 0.  1.
       -1   -1    0    0    0  501  0.00000000000E+00  0.00000000000E+00 -0.15170034749E+04  0.15170034750E+04  0.50400001928E-02 0. -1.
    10030    2    1    2    0    0  0.00000000000E+00  0.00000000000E+00  0.72810154749E+03  0.37621084974E+04  0.36909793392E+04 0.  0.
        4    1    3    3  502    0  0.22495235555E+03 -0.15405331110E+04 -0.64599733111E+03  0.16855740841E+04  0.12699999809E+01 0. -1.
       -4    1    3    3    0  502 -0.22495235555E+03  0.15405331110E+04  0.13740988786E+04  0.20765344133E+04  0.12699999809E+01 0.  1.
</event>
<event>
 5   0  0.1496287E-07  0.3694199E+04  0.7818609E-02  0.8069249E-01
       -1   -1    0    0    0  501  0.00000000000E+00  0.00000000000E+00  0.14242965270E+04  0.14242965270E+04  0.50400001928E-02 0.  1.
        1   -1    0    0  501    0  0.00000000000E+00  0.00000000000E+00 -0.23954119840E+04  0.23954119840E+04  0.50400001928E-02 0. -1.
    10030    2    1    2    0    0  0.00000000000E+00  0.00000000000E+00 -0.97111545702E+03  0.38197085110E+04  0.36941992201E+04 0.  0.
        1    1    3    3  502    0 -0.95033444551E+03 -0.10967333507E+04  0.69598962145E+03  0.16094598952E+04  0.50400001928E-02 0.  1.
       -1    1    3    3    0  502  0.95033444551E+03  0.10967333507E+04 -0.16671050785E+04  0.22102486158E+04  0.50400001928E-02 0. -1.
</event>
<event>
 5   0  0.4824268E-07  0.3671667E+04  0.7818609E-02  0.8074270E-01
        2   -1    0    0  501    0  0.00000000000E+00  0.00000000000E+00  0.26222413870E+04  0.26222413870E+04  0.25500000920E-02 0. -1.
       -2   -1    0    0    0  501  0.00000000000E+00  0.00000000000E+00 -0.12852689185E+04  0.12852689185E+04  0.25500000920E-02 0.  1.
    10030    2    1    2    0    0  0.00000000000E+00  0.00000000000E+00  0.13369724684E+04  0.39075103055E+04  0.36716673878E+04 0.  0.
        1    1    3    3  502    0  0.17468409795E+04 -0.55147855527E+03  0.79753233933E+03  0.19979088660E+04  0.50400001928E-02 0. -1.
       -1    1    3    3    0  502 -0.17468409795E+04  0.55147855527E+03  0.53944012910E+03  0.19096014395E+04  0.50400001928E-02 0.  1.
</event>
<event>
 5   0  0.4687817E-07  0.3315204E+04  0.7818609E-02  0.8159038E-01
        2   -1    0    0  501    0  0.00000000000E+00  0.00000000000E+00  0.26013115332E+04  0.26013115332E+04  0.25500000920E-02 0.  1.
       -2   -1    0    0    0  501  0.00000000000E+00  0.00000000000E+00 -0.10562533510E+04  0.10562533511E+04  0.25500000920E-02 0. -1.
    10030    2    1    2    0    0  0.00000000000E+00  0.00000000000E+00  0.15450581822E+04  0.36575648843E+04  0.33152037790E+04 0.  0.
        4    1    3    3  502    0  0.79528715465E+03  0.14228182765E+04  0.44017386900E+03  0.16883862574E+04  0.12699999809E+01 0. -1.
       -4    1    3    3    0  502 -0.79528715465E+03 -0.14228182765E+04  0.11048843132E+04  0.19691786269E+04  0.12699999809E+01 0.  1.
</event>
<event>
 5   0  0.4758908E-07  0.3460941E+04  0.7818609E-02  0.8123109E-01
       -2   -1    0    0    0  501  0.00000000000E+00  0.00000000000E+00  0.21736978696E+04  0.21736978696E+04  0.25500000920E-02 0.  1.
        2   -1    0    0  501    0  0.00000000000E+00  0.00000000000E+00 -0.13776189970E+04  0.13776189970E+04  0.25500000920E-02 0. -1.
    10030    2    1    2    0    0  0.00000000000E+00  0.00000000000E+00  0.79607887264E+03  0.35513168666E+04  0.34609406113E+04 0.  0.
        2    1    3    3  502    0  0.10416274388E+04  0.21720197550E+03  0.17983599512E+04  0.20895604642E+04  0.25500000920E-02 0.  1.
       -2    1    3    3    0  502 -0.10416274388E+04 -0.21720197550E+03 -0.10022810786E+04  0.14617564024E+04  0.25500000920E-02 0. -1.
</event>
<event>
 5   0  0.1496000E-07  0.3399004E+04  0.7818609E-02  0.8138151E-01
       -3   -1    0    0    0  501  0.00000000000E+00  0.00000000000E+00  0.15165823464E+04  0.15165823498E+04  0.10100000352E+00 0. -1.
        3   -1    0    0  501    0  0.00000000000E+00  0.00000000000E+00 -0.19044845362E+04  0.19044845389E+04  0.10100000352E+00 0.  1.
    10030    2    1    2    0    0  0.00000000000E+00  0.00000000000E+00 -0.38790218980E+03  0.34210668887E+04  0.33990043466E+04 0.  0.
        4    1    3    3  502    0 -0.12923470791E+04  0.91695058594E+02 -0.13009707700E+04  0.18360543331E+04  0.12699999809E+01 0.  1.
       -4    1    3    3    0  502  0.12923470791E+04 -0.91695058594E+02  0.91306858022E+03  0.15850125557E+04  0.12699999809E+01 0. -1.
</event>
<event>
 5   0  0.1496000E-07  0.3719016E+04  0.7818609E-02  0.8063761E-01
        1   -1    0    0  501    0  0.00000000000E+00  0.00000000000E+00  0.21926598601E+04  0.21926598601E+04  0.50400001928E-02 0. -1.
       -1   -1    0    0    0  501  0.00000000000E+00  0.00000000000E+00 -0.15769748932E+04  0.15769748932E+04  0.50400001928E-02 0.  1.
    10030    2    1    2    0    0  0.00000000000E+00  0.00000000000E+00  0.61568496695E+03  0.37696347533E+04  0.37190157562E+04 0.  0.
        3    1    3    3  502    0  0.13398473254E+04 -0.75784365199E+03  0.13652342585E+04  0.20575185168E+04  0.10100000352E+00 0. -1.
       -3    1    3    3    0  502 -0.13398473254E+04  0.75784365199E+03 -0.74954929156E+03  0.17121162364E+04  0.10100000352E+00 0.  1.
</event>
<event>
 5   0  0.4824268E-07  0.3709806E+04  0.7818609E-02  0.8065792E-01
       -2   -1    0    0    0  501  0.00000000000E+00  0.00000000000E+00  0.18287354963E+04  0.18287354963E+04  0.25500000920E-02 0. -1.
        2   -1    0    0  501    0  0.00000000000E+00  0.00000000000E+00 -0.18814445144E+04  0.18814445144E+04  0.25500000920E-02 0.  1.
    10030    2    1    2    0    0  0.00000000000E+00  0.00000000000E+00 -0.52709018113E+02  0.37101800106E+04  0.37098055840E+04 0.  0.
        1    1    3    3  502    0 -0.65366390987E+02  0.41210301094E+03  0.17811913757E+04  0.18294109362E+04  0.50400001928E-02 0. -1.
       -1    1    3    3    0  502  0.65366390987E+02 -0.41210301094E+03 -0.18339003938E+04  0.18807690744E+04  0.50400001928E-02 0.  1.
</event>
<event>
 5   0  0.1522273E-07  0.3687236E+04  0.7818609E-02  0.8070796E-01
       -1   -1    0    0    0  501  0.00000000000E+00  0.00000000000E+00  0.18428489708E+04  0.18428489708E+04  0.50400001928E-02 0. -1.
        1   -1    0    0  501    0  0.00000000000E+00  0.00000000000E+00 -0.18443871674E+04  0.18443871674E+04  0.50400001928E-02 0.  1.
    10030    2    1    2    0    0  0.00000000000E+00  0.00000000000E+00 -0.15381965653E+01  0.36872361382E+04  0.36872358174E+04 0.  0.
        4    1    3    3  502    0  0.16158819714E+04 -0.52148719761E+03  0.71749410361E+03  0.18433184328E+04  0.12699999809E+01 0.  1.
       -4    1    3    3    0  502 -0.16158819714E+04  0.52148719761E+03 -0.71903230018E+03  0.18439177055E+04  0.12699999809E+01 0. -1.
</event>
<event>
 5   0  0.1496000E-07  0.3683920E+04  0.7818609E-02  0.8071535E-01
       -1   -1    0    0    0  501  0.00000000000E+00  0.00000000000E+00  0.16325813048E+04  0.16325813048E+04  0.50400001928E-02 0. -1.
        1   -1    0    0  501    0  0.00000000000E+00  0.00000000000E+00 -0.20781915392E+04  0.20781915392E+04  0.50400001928E-02 0.  1.
    10030    2    1    2    0    0  0.00000000000E+00  0.00000000000E+00 -0.44561023444E+03  0.37107728440E+04  0.36839200071E+04 0.  0.
        3    1    3    3  502    0 -0.14575979443E+04 -0.89109134917E+03 -0.91643259826E+03  0.19386810664E+04  0.10100000352E+00 0. -1.
       -3    1    3    3    0  502  0.14575979443E+04  0.89109134917E+03  0.47082236382E+03  0.17720917776E+04  0.10100000352E+00 0.  1.
</event>
<event>
 5   0  0.1496287E-07  0.3927522E+04  0.7818609E-02  0.8019329E-01
       -1   -1    0    0    0  501  0.00000000000E+00  0.00000000000E+00  0.14907239746E+04  0.14907239747E+04  0.50400001928E-02 0.  1.
        1   -1    0    0  501    0  0.00000000000E+00  0.00000000000E+00 -0.25869024929E+04  0.25869024929E+04  0.50400001928E-02 0. -1.
    10030    2    1    2    0    0  0.00000000000E+00  0.00000000000E+00 -0.10961785182E+04  0.40776264675E+04  0.39275221533E+04 0.  0.
        1    1    3    3  502    0  0.18342426539E+04  0.49837183693E+03 -0.35733949827E+02  0.19010779880E+04  0.50400001928E-02 0. -1.
       -1    1    3    3    0  502 -0.18342426539E+04 -0.49837183693E+03 -0.10604445684E+04  0.21765484795E+04  0.50400001928E-02 0.  1.
</event>
<event>
 5   0  0.1496000E-07  0.3722230E+04  0.7818609E-02  0.8063053E-01
       -3   -1    0    0    0  501  0.00000000000E+00  0.00000000000E+00  0.19905729042E+04  0.19905729067E+04  0.10100000352E+00 0.  1.
        3   -1    0    0  501    0  0.00000000000E+00  0.00000000000E+00 -0.17400765361E+04  0.17400765390E+04  0.10100000352E+00 0. -1.
    10030    2    1    2    0    0  0.00000000000E+00  0.00000000000E+00  0.25049636812E+03  0.37306494457E+04  0.37222300918E+04 0.  0.
        4    1    3    3  502    0  0.17265086153E+04  0.29232745631E+03  0.75711868803E+03  0.19077519915E+04  0.12699999809E+01 0. -1.
       -4    1    3    3    0  502 -0.17265086153E+04 -0.29232745631E+03 -0.50662231990E+03  0.18228974542E+04  0.12699999809E+01 0.  1.
</event>
<event>
 5   0  0.1496000E-07  0.3688272E+04  0.7818609E-02  0.8070566E-01
        1   -1    0    0  501    0  0.00000000000E+00  0.00000000000E+00  0.27405793300E+04  0.27405793300E+04  0.50400001928E-02 0. -1.
       -1   -1    0    0    0  501  0.00000000000E+00  0.00000000000E+00 -0.12409193924E+04  0.12409193924E+04  0.50400001928E-02 0.  1.
    10030    2    1    2    0    0  0.00000000000E+00  0.00000000000E+00  0.14996599376E+04  0.39814987224E+04  0.36882722442E+04 0.  0.
        3    1    3    3  502    0  0.61542339437E+03  0.17229131905E+04  0.99989783511E+03  0.20849392095E+04  0.10100000352E+00 0.  1.
       -3    1    3    3    0  502 -0.61542339437E+03 -0.17229131905E+04  0.49976210253E+03  0.18965595129E+04  0.10100000352E+00 0. -1.
</event>
<event>
 5   0  0.4687817E-07  0.3279297E+04  0.7818609E-02  0.8168183E-01
        2   -1    0    0  501    0  0.00000000000E+00  0.00000000000E+00  0.68800796190E+03  0.68800796190E+03  0.25500000920E-02 0.  1.
       -2   -1    0    0    0  501  0.00000000000E+00  0.00000000000E+00 -0.39075804251E+04  0.39075804251E+04  0.25500000920E-02 0. -1.
    10030    2    1    2    0    0  0.00000000000E+00  0.00000000000E+00 -0.32195724632E+04  0.45955883870E+04  0.32792965369E+04 0.  0.
        4    1    3    3  502    0 -0.90145718495E+03 -0.10571008111E+03 -0.35234187014E+04  0.36384448101E+04  0.12699999809E+01 0. -1.
       -4    1    3    3    0  502  0.90145718495E+03  0.10571008111E+03  0.30384623818E+03  0.95714357696E+03  0.12699999809E+01 0.  1.
</event>
<event>
 5   0  0.4824268E-07  0.3718251E+04  0.7818609E-02  0.8063929E-01
        2   -1    0    0  501    0  0.00000000000E+00  0.00000000000E+00  0.19829159275E+04  0.19829159275E+04  0.25500000920E-02 0.  1.
       -2   -1    0    0    0  501  0.00000000000E+00  0.00000000000E+00 -0.17430632959E+04  0.17430632959E+04  0.25500000920E-02 0. -1.
    10030    2    1    2    0    0  0.00000000000E+00  0.00000000000E+00  0.23985263160E+03  0.37259792234E+04  0.37182511868E+04 0.  0.
        1    1    3    3  502    0  0.71455238944E+03  0.15573951892E+04 -0.60287936079E+03  0.18164604087E+04  0.50400001928E-02 0. -1.
       -1    1    3    3    0  502 -0.71455238944E+03 -0.15573951892E+04  0.84273199239E+03  0.19095188147E+04  0.50400001928E-02 0.  1.
</event>
<event>
 5   0  0.1522273E-07  0.3716136E+04  0.7818609E-02  0.8064395E-01
        1   -1    0    0  501    0  0.00000000000E+00  0.00000000000E+00  0.25715922833E+04  0.25715922833E+04  0.50400001928E-02 0. -1.
       -1   -1    0    0    0  501  0.00000000000E+00  0.00000000000E+00 -0.13425207914E+04  0.13425207914E+04  0.50400001928E-02 0.  1.
    10030    2    1    2    0    0  0.00000000000E+00  0.00000000000E+00  0.12290714919E+04  0.39141130748E+04  0.37161356851E+04 0.  0.
        4    1    3    3  502    0  0.11032201875E+04  0.11388124649E+04  0.16348684189E+04  0.22774514204E+04  0.12699999809E+01 0. -1.
       -4    1    3    3    0  502 -0.11032201875E+04 -0.11388124649E+04 -0.40579692694E+03  0.16366616544E+04  0.12699999809E+01 0.  1.
</event>
<event>
 5   0  0.4857514E-07  0.3883238E+04  0.7818609E-02  0.8028525E-01
       -2   -1    0    0    0  501  0.00000000000E+00  0.00000000000E+00  0.16149858831E+04  0.16149858831E+04  0.25500000920E-02 0.  1.
        2   -1    0    0  501    0  0.00000000000E+00  0.00000000000E+00 -0.23343135654E+04  0.23343135654E+04  0.25500000920E-02 0. -1.
    10030    2    1    2    0    0  0.00000000000E+00  0.00000000000E+00 -0.71932768226E+03  0.39492994485E+04  0.38832375435E+04 0.  0.
        5    1    3    3  502    0  0.68879177301E+03  0.20074247653E+03  0.14752271005E+04  0.16404416285E+04  0.46999998093E+01 0.  1.
       -5    1    3    3    0  502 -0.68879177301E+03 -0.20074247653E+03 -0.21945547828E+04  0.23088578200E+04  0.46999998093E+01 0. -1.
</event>
<event>
 5   0  0.1522273E-07  0.3692602E+04  0.7818609E-02  0.8069603E-01
       -1   -1    0    0    0  501  0.00000000000E+00  0.00000000000E+00  0.26253003386E+04  0.26253003387E+04  0.50400001928E-02 0. -1.
        1   -1    0    0  501    0  0.00000000000E+00  0.00000000000E+00 -0.12984526001E+04  0.12984526001E+04  0.50400001928E-02 0.  1.
    10030    2    1    2    0    0  0.00000000000E+00  0.00000000000E+00  0.13268477386E+04  0.39237529388E+04  0.36926023619E+04 0.  0.
        4    1    3    3  502    0 -0.65108523629E+03 -0.12284175721E+04  0.19543407261E+04  0.23984100990E+04  0.12699999809E+01 0. -1.
       -4    1    3    3    0  502  0.65108523629E+03  0.12284175721E+04 -0.62749298757E+03  0.15253428397E+04  0.12699999809E+01 0.  1.
</event>
<event>
 5   0  0.1496287E-07  0.3710024E+04  0.7818609E-02  0.8065744E-01
        1   -1    0    0  501    0  0.00000000000E+00  0.00000000000E+00  0.27179999957E+04  0.27179999957E+04  0.50400001928E-02 0.  1.
       -1   -1    0    0    0  501  0.00000000000E+00  0.00000000000E+00 -0.12660302390E+04  0.12660302390E+04  0.50400001928E-02 0. -1.
    10030    2    1    2    0    0  0.00000000000E+00  0.00000000000E+00  0.14519697566E+04  0.39840302347E+04  0.37100243580E+04 0.  0.
        1    1    3    3  502    0 -0.10499128657E+03  0.43810702907E+02  0.27142502844E+04  0.27166334229E+04  0.50400001928E-02 0.  1.
       -1    1    3    3    0  502  0.10499128657E+03 -0.43810702907E+02 -0.12622805277E+04  0.12673968118E+04  0.50400001928E-02 0. -1.
</event>
<event>
 5   0  0.1496000E-07  0.3674349E+04  0.7818609E-02  0.8073670E-01
       -1   -1    0    0    0  501  0.00000000000E+00  0.00000000000E+00  0.21568407005E+04  0.21568407005E+04  0.50400001928E-02 0.  1.
        1   -1    0    0  501    0  0.00000000000E+00  0.00000000000E+00 -0.15648863037E+04  0.15648863037E+04  0.50400001928E-02 0. -1.
    10030    2    1    2    0    0  0.00000000000E+00  0.00000000000E+00  0.59195439680E+03  0.37217270043E+04  0.36743491786E+04 0.  0.
        3    1    3    3  502    0 -0.16861706845E+04  0.71024271143E+03  0.12772033269E+03  0.18341016275E+04  0.10100000352E+00 0.  1.
       -3    1    3    3    0  502  0.16861706845E+04 -0.71024271143E+03  0.46423406411E+03  0.18876253768E+04  0.10100000352E+00 0. -1.
</event>
<event>
 5   0  0.1496000E-07  0.3684520E+04  0.7818609E-02  0.8071401E-01
       -1   -1    0    0    0  501  0.00000000000E+00  0.00000000000E+00  0.11602588583E+04  0.11602588583E+04  0.50400001928E-02 0. -1.
        1   -1    0    0  501    0  0.00000000000E+00  0.00000000000E+00 -0.29251418490E+04  0.29251418491E+04  0.50400001928E-02 0.  1.
    10030    2    1    2    0    0  0.00000000000E+00  0.00000000000E+00 -0.17648829908E+04  0.40854007073E+04  0.36845199101E+04 0.  0.
        3    1    3    3  502    0 -0.16274909539E+03 -0.17136410201E+04 -0.16102654330E+04  0.23571184928E+04  0.10100000352E+00 0.  1.
       -3    1    3    3    0  502  0.16274909539E+03  0.17136410201E+04 -0.15461755776E+03  0.17282822146E+04  0.10100000352E+00 0. -1.
</event>
<event>
 5   0  0.4857514E-07  0.3690425E+04  0.7818609E-02  0.8070087E-01
        2   -1    0    0  501    0  0.00000000000E+00  0.00000000000E+00  0.25492493724E+04  0.25492493724E+04  0.25500000920E-02 0.  1.
       -2   -1    0    0    0  501  0.00000000000E+00  0.00000000000E+00 -0.13356121859E+04  0.13356121859E+04  0.25500000920E-02 0. -1.
    10030    2    1    2    0    0  0.00000000000E+00  0.00000000000E+00  0.12136371865E+04  0.38848615583E+04  0.36904246513E+04 0.  0.
        5    1    3    3  502    0  0.16584550513E+04  0.58686748962E+03  0.11928351315E+04  0.21255033165E+04  0.46999998093E+01 0.  1.
       -5    1    3    3    0  502 -0.16584550513E+04 -0.58686748962E+03  0.20802055022E+02  0.17593582418E+04  0.46999998093E+01 0. -1.
</event>
<event>
 5   0  0.4824268E-07  0.3435597E+04  0.7818609E-02  0.8129225E-01
        2   -1    0    0  501    0  0.00000000000E+00  0.00000000000E+00  0.17734101631E+04  0.17734101631E+04  0.25500000920E-02 0. -1.
       -2   -1    0    0    0  501  0.00000000000E+00  0.00000000000E+00 -0.16639304863E+04  0.16639304864E+04  0.25500000920E-02 0.  1.
    10030    2    1    2    0    0  0.00000000000E+00  0.00000000000E+00  0.10947967672E+03  0.34373406494E+04  0.34355967372E+04 0.  0.
        1    1    3    3  502    0  0.36773661055E+03  0.12710029289E+04  0.11508106762E+04  0.17535803011E+04  0.50400001928E-02 0.  1.
       -1    1    3    3    0  502 -0.36773661055E+03 -0.12710029289E+04 -0.10413309994E+04  0.16837603483E+04  0.50400001928E-02 0. -1.
</event>
<event>
 5   0  0.1522273E-07  0.3720559E+04  0.7818609E-02  0.8063421E-01
        1   -1    0    0  501    0  0.00000000000E+00  0.00000000000E+00  0.22971006863E+04  0.22971006863E+04  0.50400001928E-02 0. -1.
       -1   -1    0    0    0  501  0.00000000000E+00  0.00000000000E+00 -0.15065250865E+04  0.15065250865E+04  0.50400001928E-02 0.  1.
    10030    2    1    2    0    0  0.00000000000E+00  0.00000000000E+00  0.79057559987E+03  0.38036257728E+04  0.37205589957E+04 0.  0.
        4    1    3    3  502    0 -0.13109062662E+04 -0.37702146126E+02  0.17441162835E+04  0.21821640438E+04  0.12699999809E+01 0. -1.
       -4    1    3    3    0  502  0.13109062662E+04  0.37702146126E+02 -0.95354068367E+03  0.16214617291E+04  0.12699999809E+01 0.  1.
</event>
<event>
 5   0  0.1496000E-07  0.3699384E+04  0.7818609E-02  0.8068098E-01
       -1   -1    0    0    0  501  0.00000000000E+00  0.00000000000E+00  0.17345448655E+04  0.17345448655E+04  0.50400001928E-02 0. -1.
        1   -1    0    0  501    0  0.00000000000E+00  0.00000000000E+00 -0.19724836348E+04  0.19724836348E+04  0.50400001928E-02 0.  1.
    10030    2    1    2    0    0  0.00000000000E+00  0.00000000000E+00 -0.23793876930E+03  0.37070285003E+04  0.36993844683E+04 0.  0.
        3    1    3    3  502    0  0.26348534384E+03  0.76116427766E+03 -0.17875123121E+04  0.19606110935E+04  0.10100000352E+00 0.  1.
       -3    1    3    3    0  502 -0.26348534384E+03 -0.76116427766E+03  0.15495735428E+04  0.17464174068E+04  0.10100000352E+00 0. -1.
</event>
<event>
 5   0  0.4857514E-07  0.3695432E+04  0.7818609E-02  0.8068975E-01
        2   -1    0    0  501    0  0.00000000000E+00  0.00000000000E+00  0.19564420443E+04  0.19564420443E+04  0.25500000920E-02 0. -1.
       -2   -1    0    0    0  501  0.00000000000E+00  0.00000000000E+00 -0.17450319934E+04  0.17450319934E+04  0.25500000920E-02 0.  1.
    10030    2    1    2    0    0  0.00000000000E+00  0.00000000000E+00  0.21141005091E+03  0.37014740376E+04  0.36954317531E+04 0.  0.
        5    1    3    3  502    0 -0.18383527462E+04 -0.61478395130E+02 -0.69828363186E+02  0.18407114122E+04  0.46999998093E+01 0.  1.
       -5    1    3    3    0  502  0.18383527462E+04  0.61478395130E+02  0.28123841409E+03  0.18607626254E+04  0.46999998093E+01 0. -1.
</event>
<event>
 5   0  0.1496000E-07  0.3710167E+04  0.7818609E-02  0.8065712E-01
       -1   -1    0    0    0  501  0.00000000000E+00  0.00000000000E+00  0.16281093064E+04  0.16281093064E+04  0.50400001928E-02 0.  1.
        1   -1    0    0  501    0  0.00000000000E+00  0.00000000000E+00 -0.21137000553E+04  0.21137000553E+04  0.50400001928E-02 0. -1.
    10030    2    1    2    0    0  0.00000000000E+00  0.00000000000E+00 -0.48559074885E+03  0.37418093617E+04  0.37101669672E+04 0.  0.
        5    1    3    3  502    0  0.59999767569E+02 -0.13951628525E+04 -0.14743707503E+04  0.20307315323E+04  0.46999998093E+01 0. -1.
       -5    1    3    3    0  502 -0.59999767569E+02  0.13951628525E+04  0.98878000141E+03  0.17110778294E+04  0.46999998093E+01 0.  1.
</event>
<event>
 5   0  0.1496000E-07  0.3904201E+04  0.7818609E-02  0.8024156E-01
        1   -1    0    0  501    0  0.00000000000E+00  0.00000000000E+00  0.22178957601E+04  0.22178957601E+04  0.50400001928E-02 0.  1.
       -1   -1    0    0    0  501  0.00000000000E+00  0.00000000000E+00 -0.17181582307E+04  0.17181582307E+04  0.50400001928E-02 0. -1.
    10030    2    1    2    0    0  0.00000000000E+00  0.00000000000E+00  0.49973752941E+03  0.39360539908E+04  0.39042007402E+04 0.  0.
        3    1    3    3  502    0 -0.99228003904E+03 -0.13977484096E+04 -0.69176202499E+03  0.18484736952E+04  0.10100000352E+00 0.  1.
       -3    1    3    3    0  502  0.99228003904E+03  0.13977484096E+04  0.11914995544E+04  0.20875802956E+04  0.10100000352E+00 0. -1.
</event>
<event>
 5   0  0.4687817E-07  0.3642243E+04  0.7818609E-02  0.8080883E-01
        2   -1    0    0  501    0  0.00000000000E+00  0.00000000000E+00  0.28054281321E+04  0.28054281321E+04  0.25500000920E-02 0.  1.
       -2   -1    0    0    0  501  0.00000000000E+00  0.00000000000E+00 -0.11821668625E+04  0.11821668625E+04  0.25500000920E-02 0. -1.
    10030    2    1    2    0    0  0.00000000000E+00  0.00000000000E+00  0.16232612696E+04  0.39875949946E+04  0.36422433597E+04 0.  0.
        4    1    3    3  502    0 -0.46045448946E+01 -0.15702663348E+04  0.18214336862E+04  0.24048658695E+04  0.12699999809E+01 0.  1.
       -4    1    3    3    0  502  0.46045448946E+01  0.15702663348E+04 -0.19817241660E+03  0.15827291251E+04  0.12699999809E+01 0. -1.
</event>
<event>
 5   0  0.4758908E-07  0.3709277E+04  0.7818609E-02  0.8065909E-01
       -2   -1    0    0    0  501  0.00000000000E+00  0.00000000000E+00  0.14742119615E+04  0.14742119615E+04  0.25500000920E-02 0. -1.
        2   -1    0    0  501    0  0.00000000000E+00  0.00000000000E+00 -0.23332361762E+04  0.23332361762E+04  0.25500000920E-02 0.  1.
    10030    2    1    2    0    0  0.00000000000E+00  0.00000000000E+00 -0.85902421469E+03  0.38074481377E+04  0.37092773851E+04 0.  0.
        2    1    3    3  502    0 -0.35437745970E+03  0.17615503028E+04  0.42039200142E+02  0.17973341780E+04  0.25500000920E-02 0. -1.
       -2    1    3    3    0  502  0.35437745970E+03 -0.17615503028E+04 -0.90106341483E+03  0.20101139596E+04  0.25500000920E-02 0.  1.
</event>
<event>
 5   0  0.1496000E-07  0.3632949E+04  0.7818609E-02  0.8082986E-01
        1   -1    0    0  501    0  0.00000000000E+00  0.00000000000E+00  0.27132286481E+04  0.27132286481E+04  0.50400001928E-02 0.  1.
       -1   -1    0    0    0  501  0.00000000000E+00  0.00000000000E+00 -0.12161080237E+04  0.12161080237E+04  0.50400001928E-02 0. -1.
    10030    2    1    2    0    0  0.00000000000E+00  0.00000000000E+00  0.14971206244E+04  0.39293366718E+04  0.36329487357E+04 0.  0.
        2    1    3    3  502    0  0.10211231899E+04  0.10738739732E+04 -0.38771037748E+03  0.15317366667E+04  0.25500000920E-02 0. -1.
       -2    1    3    3    0  502 -0.10211231899E+04 -0.10738739732E+04  0.18848310019E+04  0.23976000052E+04  0.25500000920E-02 0.  1.
</event>
<event>
 5   0  0.4758908E-07  0.3668906E+04  0.7818609E-02  0.8074888E-01
        2   -1    0    0  501    0  0.00000000000E+00  0.00000000000E+00  0.11100687587E+04  0.11100687587E+04  0.25500000920E-02 0.  1.
       -2   -1    0    0    0  501  0.00000000000E+00  0.00000000000E+00 -0.30315394725E+04  0.30315394725E+04  0.25500000920E-02 0. -1.
    10030    2    1    2    0    0  0.00000000000E+00  0.00000000000E+00 -0.19214707138E+04  0.41416082311E+04  0.36689057001E+04 0.  0.
        2    1    3    3  502    0  0.56338589359E+03  0.20811777197E+03 -0.29174099788E+04  0.29785898772E+04  0.25500000920E-02 0. -1.
       -2    1    3    3    0  502 -0.56338589359E+03 -0.20811777197E+03  0.99593926497E+03  0.11630183539E+04  0.25500000920E-02 0.  1.
</event>
<event>
 5   0  0.1496000E-07  0.3687024E+04  0.7818609E-02  0.8070844E-01
       -1   -1    0    0    0  501  0.00000000000E+00  0.00000000000E+00  0.12574185397E+04  0.12574185397E+04  0.50400001928E-02 0.  1.
        1   -1    0    0  501    0  0.00000000000E+00  0.00000000000E+00 -0.27027883952E+04  0.27027883952E+04  0.50400001928E-02 0. -1.
    10030    2    1    2    0    0  0.00000000000E+00  0.00000000000E+00 -0.14453698555E+04  0.39602069349E+04  0.36870238606E+04 0.  0.
        2    1    3    3  502    0 -0.17538610799E+04 -0.21059237781E+03 -0.12891694151E+04  0.21868551890E+04  0.25500000920E-02 0. -1.
       -2    1    3    3    0  502  0.17538610799E+04  0.21059237781E+03 -0.15620044041E+03  0.17733517459E+04  0.25500000920E-02 0.  1.
</event>
<event>
 5   0  0.1496287E-07  0.3730877E+04  0.7818609E-02  0.8061153E-01
       -1   -1    0    0    0  501  0.00000000000E+00  0.00000000000E+00  0.24967976844E+04  0.24967976844E+04  0.50400001928E-02 0.  1.
        1   -1    0    0  501    0  0.00000000000E+00  0.00000000000E+00 -0.13937294266E+04  0.13937294266E+04  0.50400001928E-02 0. -1.
    10030    2    1    2    0    0  0.00000000000E+00  0.00000000000E+00  0.11030682578E+04  0.38905271110E+04  0.37308767897E+04 0.  0.
        1    1    3    3  502    0  0.18405897697E+04 -0.27415419954E+03  0.41585423531E+03  0.19067946849E+04  0.50400001928E-02 0. -1.
       -1    1    3    3    0  502 -0.18405897697E+04  0.27415419954E+03  0.68721402247E+03  0.19837324261E+04  0.50400001928E-02 0.  1.
</event>
<event>
 5   0  0.4758908E-07  0.3145095E+04  0.7818609E-02  0.8203470E-01
       -2   -1    0    0    0  501  0.00000000000E+00  0.00000000000E+00  0.14826515612E+04  0.14826515612E+04  0.25500000920E-02 0.  1.
        2   -1    0    0  501    0  0.00000000000E+00  0.00000000000E+00 -0.16678944496E+04  0.16678944496E+04  0.25500000920E-02 0. -1.
    10030    2    1    2    0    0  0.00000000000E+00  0.00000000000E+00 -0.18524288839E+03  0.31505460108E+04  0.31450954260E+04 0.  0.
        2    1    3    3  502    0  0.15613621107E+04  0.93038122317E+01 -0.27994313433E+03  0.15862869728E+04  0.25500000920E-02 0. -1.
       -2    1    3    3    0  502 -0.15613621107E+04 -0.93038122317E+01  0.94700245943E+02  0.15642590380E+04  0.25500000920E-02 0.  1.
</event>
<event>
 5   0  0.4687817E-07  0.3793968E+04  0.7818609E-02  0.8047451E-01
        2   -1    0    0  501    0  0.00000000000E+00  0.00000000000E+00  0.13062233197E+04  0.13062233198E+04  0.25500000920E-02 0. -1.
       -2   -1    0    0    0  501  0.00000000000E+00  0.00000000000E+00 -0.27549261264E+04  0.27549261264E+04  0.25500000920E-02 0.  1.
    10030    2    1    2    0    0  0.00000000000E+00  0.00000000000E+00 -0.14487028067E+04  0.40611494462E+04  0.37939682395E+04 0.  0.
        4    1    3    3  502    0 -0.45071569754E+03  0.74993961057E+03 -0.25260329780E+04  0.26732748228E+04  0.12699999809E+01 0.  1.
       -4    1    3    3    0  502  0.45071569754E+03 -0.74993961057E+03  0.10773301713E+04  0.13878746234E+04  0.12699999809E+01 0. -1.
</event>
<event>
 5   0  0.4824268E-07  0.3714222E+04  0.7818609E-02  0.8064817E-01
       -2   -1    0    0    0  501  0.00000000000E+00  0.00000000000E+00  0.20933367423E+04  0.20933367423E+04  0.25500000920E-02 0. -1.
        2   -1    0    0  501    0  0.00000000000E+00  0.00000000000E+00 -0.16475427923E+04  0.16475427923E+04  0.25500000920E-02 0.  1.
    10030    2    1    2    0    0  0.00000000000E+00  0.00000000000E+00  0.44579395006E+03  0.37408795346E+04  0.37142223206E+04 0.  0.
        1    1    3    3  502    0 -0.38489252745E+03  0.74400491224E+03  0.18922534757E+04  0.20693740077E+04  0.50400001928E-02 0. -1.
       -1    1    3    3    0  502  0.38489252745E+03 -0.74400491224E+03 -0.14464595257E+04  0.16715055269E+04  0.50400001928E-02 0.  1.
</event>
<event>
 5   0  0.4824268E-07  0.3710498E+04  0.7818609E-02  0.8065639E-01
        2   -1    0    0  501    0  0.00000000000E+00  0.00000000000E+00  0.15832630701E+04  0.15832630701E+04  0.25500000920E-02 0. -1.
       -2   -1    0    0    0  501  0.00000000000E+00  0.00000000000E+00 -0.21739585987E+04  0.21739585988E+04  0.25500000920E-02 0.  1.
    10030    2    1    2    0    0  0.00000000000E+00  0.00000000000E+00 -0.59069552869E+03  0.37572216688E+04  0.37104977376E+04 0.  0.
        1    1    3    3  502    0 -0.37968984832E+03 -0.18147875541E+04 -0.36198001825E+03  0.18890864938E+04  0.50400001928E-02 0. -1.
       -1    1    3    3    0  502  0.37968984832E+03  0.18147875541E+04 -0.22871551044E+03  0.18681351750E+04  0.50400001928E-02 0.  1.
</event>
<event>
 5   0  0.1496000E-07  0.3695984E+04  0.7818609E-02  0.8068852E-01
        1   -1    0    0  501    0  0.00000000000E+00  0.00000000000E+00  0.33321279101E+04  0.33321279101E+04  0.50400001928E-02 0.  1.
       -1   -1    0    0    0  501  0.00000000000E+00  0.00000000000E+00 -0.10248930043E+04  0.10248930043E+04  0.50400001928E-02 0. -1.
    10030    2    1    2    0    0  0.00000000000E+00  0.00000000000E+00  0.23072349058E+04  0.43570209144E+04  0.36959840825E+04 0.  0.
        2    1    3    3  502    0 -0.10900750770E+04 -0.80529766909E+03 -0.32738315004E+03  0.13942552622E+04  0.25500000920E-02 0. -1.
       -2    1    3    3    0  502  0.10900750770E+04  0.80529766909E+03  0.26346180559E+04  0.29627656522E+04  0.25500000920E-02 0.  1.
</event>
<event>
 5   0  0.1496000E-07  0.3631825E+04  0.7818609E-02  0.8083241E-01
        1   -1    0    0  501    0  0.00000000000E+00  0.00000000000E+00  0.17705703784E+04  0.17705703784E+04  0.50400001928E-02 0. -1.
       -1   -1    0    0    0  501  0.00000000000E+00  0.00000000000E+00 -0.18624153901E+04  0.18624153902E+04  0.50400001928E-02 0.  1.
    10030    2    1    2    0    0  0.00000000000E+00  0.00000000000E+00 -0.91845011725E+02  0.36329857686E+04  0.36318246225E+04 0.  0.
        2    1    3    3  502    0  0.71240613023E+03  0.95361390819E+03 -0.14177236088E+04  0.18511731986E+04  0.25500000920E-02 0.  1.
       -2    1    3    3    0  502 -0.71240613023E+03 -0.95361390819E+03  0.13258785971E+04  0.17818125700E+04  0.25500000920E-02 0. -1.
</event>
<event>
 5   0  0.4824268E-07  0.3704008E+04  0.7818609E-02  0.8067074E-01
        2   -1    0    0  501    0  0.00000000000E+00  0.00000000000E+00  0.22930733168E+04  0.22930733168E+04  0.25500000920E-02 0. -1.
       -2   -1    0    0    0  501  0.00000000000E+00  0.00000000000E+00 -0.14957738245E+04  0.14957738245E+04  0.25500000920E-02 0.  1.
    10030    2    1    2    0    0  0.00000000000E+00  0.00000000000E+00  0.79729949229E+03  0.37888471413E+04  0.37040081236E+04 0.  0.
        1    1    3    3  502    0  0.82113358936E+02  0.13893684186E+04  0.16484499704E+04  0.21574231183E+04  0.50400001928E-02 0. -1.
       -1    1    3    3    0  502 -0.82113358936E+02 -0.13893684186E+04 -0.85115047810E+03  0.16314240230E+04  0.50400001928E-02 0.  1.
</event>
<event>
 5   0  0.4857514E-07  0.3503363E+04  0.7818609E-02  0.8112994E-01
        2   -1    0    0  501    0  0.00000000000E+00  0.00000000000E+00  0.18411396240E+04  0.18411396240E+04  0.25500000920E-02 0.  1.
       -2   -1    0    0    0  501  0.00000000000E+00  0.00000000000E+00 -0.16665695597E+04  0.16665695597E+04  0.25500000920E-02 0. -1.
    10030    2    1    2    0    0  0.00000000000E+00  0.00000000000E+00  0.17457006433E+03  0.35077091837E+04  0.35033625291E+04 0.  0.
        5    1    3    3  502    0  0.14518355099E+04  0.76275683802E+03  0.70346781208E+03  0.17845204943E+04  0.46999998093E+01 0.  1.
       -5    1    3    3    0  502 -0.14518355099E+04 -0.76275683802E+03 -0.52889774774E+03  0.17231886894E+04  0.46999998093E+01 0. -1.
</event>
<event>
 5   0  0.4687817E-07  0.3714180E+04  0.7818609E-02  0.8064827E-01
       -2   -1    0    0    0  501  0.00000000000E+00  0.00000000000E+00  0.15642366472E+04  0.15642366472E+04  0.25500000920E-02 0.  1.
        2   -1    0    0  501    0  0.00000000000E+00  0.00000000000E+00 -0.22047703422E+04  0.22047703422E+04  0.25500000920E-02 0. -1.
    10030    2    1    2    0    0  0.00000000000E+00  0.00000000000E+00 -0.64053369496E+03  0.37690069894E+04  0.37141796230E+04 0.  0.
        4    1    3    3  502    0 -0.11427368976E+04 -0.53020401019E+03 -0.17048930339E+04  0.21198173930E+04  0.12699999809E+01 0. -1.
       -4    1    3    3    0  502  0.11427368976E+04  0.53020401019E+03  0.10643593390E+04  0.16491895964E+04  0.12699999809E+01 0.  1.
</event>
<event>
 5   0  0.1496287E-07  0.3671207E+04  0.7818609E-02  0.8074373E-01
        1   -1    0    0  501    0  0.00000000000E+00  0.00000000000E+00  0.11807468215E+04  0.11807468215E+04  0.50400001928E-02 0. -1.
       -1   -1    0    0    0  501  0.00000000000E+00  0.00000000000E+00 -0.28536510579E+04  0.28536510579E+04  0.50400001928E-02 0.  1.
    10030    2    1    2    0    0  0.00000000000E+00  0.00000000000E+00 -0.16729042364E+04  0.40343978794E+04  0.36712065681E+04 0.  0.
        1    1    3    3  502    0  0.67837158709E+03 -0.12156052078E+04 -0.21512953727E+04  0.25624121082E+04  0.50400001928E-02 0.  1.
       -1    1    3    3    0  502 -0.67837158709E+03  0.12156052078E+04  0.47839113635E+03  0.14719857713E+04  0.50400001928E-02 0. -1.
</event>
<event>
 5   0  0.4793557E-07  0.3719203E+04  0.7818609E-02  0.8063720E-01
       -2   -1    0    0    0  501  0.00000000000E+00  0.00000000000E+00  0.26663161686E+04  0.26663161686E+04  0.25500000920E-02 0. -1.
        2   -1    0    0  501    0  0.00000000000E+00  0.00000000000E+00 -0.12969643447E+04  0.12969643447E+04  0.25500000920E-02 0.  1.
    10030    2    1    2    0    0  0.00000000000E+00  0.00000000000E+00  0.13693518239E+04  0.39632805133E+04  0.37192026040E+04 0.  0.
        3    1    3    3  502    0 -0.87130227346E+03 -0.87376283729E+03  0.21671946757E+04  0.24938648560E+04  0.10100000352E+00 0. -1.
       -3    1    3    3    0  502  0.87130227346E+03  0.87376283729E+03 -0.79784285183E+03  0.14694156573E+04  0.10100000352E+00 0.  1.
</event>
<event>
 5   0  0.4824268E-07  0.3671956E+04  0.7818609E-02  0.8074205E-01
        2   -1    0    0  501    0  0.00000000000E+00  0.00000000000E+00  0.16501309522E+04  0.16501309522E+04  0.25500000920E-02 0. -1.
       -2   -1    0    0    0  501  0.00000000000E+00  0.00000000000E+00 -0.20427564018E+04  0.20427564018E+04  0.25500000920E-02 0.  1.
    10030    2    1    2    0    0  0.00000000000E+00  0.00000000000E+00 -0.39262544954E+03  0.36928873540E+04  0.36719561906E+04 0.  0.
        1    1    3    3  502    0  0.51944514277E+03  0.14949980624E+04  0.73956857805E+03  0.17469413684E+04  0.50400001928E-02 0. -1.
       -1    1    3    3    0  502 -0.51944514277E+03 -0.14949980624E+04 -0.11321940276E+04  0.19459459856E+04  0.50400001928E-02 0.  1.
</event>
<event>
 5   0  0.1522273E-07  0.3691955E+04  0.7818609E-02  0.8069747E-01
       -1   -1    0    0    0  501  0.00000000000E+00  0.00000000000E+00  0.17364628962E+04  0.17364628962E+04  0.50400001928E-02 0.  1.
        1   -1    0    0  501    0  0.00000000000E+00  0.00000000000E+00 -0.19623988315E+04  0.19623988315E+04  0.50400001928E-02 0. -1.
    10030    2    1    2    0    0  0.00000000000E+00  0.00000000000E+00 -0.22593593524E+03  0.36988617277E+04  0.36919549068E+04 0.  0.
        4    1    3    3  502    0 -0.95035482693E+03  0.55069294300E+03 -0.15993857142E+04  0.19402250618E+04  0.12699999809E+01 0. -1.
       -4    1    3    3    0  502  0.95035482693E+03 -0.55069294300E+03  0.13734497790E+04  0.17586366659E+04  0.12699999809E+01 0.  1.
</event>
<event>
 5   0  0.4793557E-07  0.3682184E+04  0.7818609E-02  0.8071922E-01
       -2   -1    0    0    0  501  0.00000000000E+00  0.00000000000E+00  0.15776536611E+04  0.15776536611E+04  0.25500000920E-02 0. -1.
        2   -1    0    0  501    0  0.00000000000E+00  0.00000000000E+00 -0.21485197767E+04  0.21485197767E+04  0.25500000920E-02 0.  1.
    10030    2    1    2    0    0  0.00000000000E+00  0.00000000000E+00 -0.57086611561E+03  0.37261734378E+04  0.36821841843E+04 0.  0.
        3    1    3    3  502    0  0.13282012055E+04  0.10503040322E+04  0.44594814434E+03  0.17510359105E+04  0.10100000352E+00 0. -1.
       -3    1    3    3    0  502 -0.13282012055E+04 -0.10503040322E+04 -0.10168142599E+04  0.19751375273E+04  0.10100000352E+00 0.  1.
</event>
<event>
 5   0  0.4824268E-07  0.3714759E+04  0.7818609E-02  0.8064699E-01
        2   -1    0    0  501    0  0.00000000000E+00  0.00000000000E+00  0.18071033911E+04  0.18071033911E+04  0.25500000920E-02 0. -1.
       -2   -1    0    0    0  501  0.00000000000E+00  0.00000000000E+00 -0.19090540475E+04  0.19090540475E+04  0.25500000920E-02 0.  1.
    10030    2    1    2    0    0  0.00000000000E+00  0.00000000000E+00 -0.10195065643E+03  0.37161574386E+04  0.37147586964E+04 0.  0.
        1    1    3    3  502    0  0.10820051524E+04 -0.10457431237E+04  0.10382616441E+04  0.18281961252E+04  0.50400001928E-02 0. -1.
       -1    1    3    3    0  502 -0.10820051524E+04  0.10457431237E+04 -0.11402123006E+04  0.18879613134E+04  0.50400001928E-02 0.  1.
</event>
<event>
 5   0  0.1496000E-07  0.3701311E+04  0.7818609E-02  0.8067671E-01
       -1   -1    0    0    0  501  0.00000000000E+00  0.00000000000E+00  0.15772324921E+04  0.15772324921E+04  0.50400001928E-02 0.  1.
        1   -1    0    0  501    0  0.00000000000E+00  0.00000000000E+00 -0.21714775300E+04  0.21714775300E+04  0.50400001928E-02 0. -1.
    10030    2    1    2    0    0  0.00000000000E+00  0.00000000000E+00 -0.59424503789E+03  0.37487100220E+04  0.37013105334E+04 0.  0.
        2    1    3    3  502    0 -0.15740945391E+04  0.83778168067E+03  0.20447032471E+03  0.17948425770E+04  0.25500000920E-02 0. -1.
       -2    1    3    3    0  502  0.15740945391E+04 -0.83778168067E+03 -0.79871536260E+03  0.19538674451E+04  0.25500000920E-02 0.  1.
</event>
<event>
 5   0  0.4857514E-07  0.3734405E+04  0.7818609E-02  0.8060380E-01
        2   -1    0    0  501    0  0.00000000000E+00  0.00000000000E+00  0.13151171498E+04  0.13151171498E+04  0.25500000920E-02 0.  1.
       -2   -1    0    0    0  501  0.00000000000E+00  0.00000000000E+00 -0.26510524956E+04  0.26510524956E+04  0.25500000920E-02 0. -1.
    10030    2    1    2    0    0  0.00000000000E+00  0.00000000000E+00 -0.13359353457E+04  0.39661696454E+04  0.37344046926E+04 0.  0.
        5    1    3    3  502    0  0.58668169709E+03  0.11427191222E+03  0.12107625326E+04  0.13502671898E+04  0.46999998093E+01 0.  1.
       -5    1    3    3    0  502 -0.58668169709E+03 -0.11427191222E+03 -0.25466978783E+04  0.26159024556E+04  0.46999998093E+01 0. -1.
</event>
<event>
 5   0  0.1496287E-07  0.3694802E+04  0.7818609E-02  0.8069115E-01
       -1   -1    0    0    0  501  0.00000000000E+00  0.00000000000E+00  0.15880393913E+04  0.15880393913E+04  0.50400001928E-02 0.  1.
        1   -1    0    0  501    0  0.00000000000E+00  0.00000000000E+00 -0.21491225189E+04  0.21491225189E+04  0.50400001928E-02 0. -1.
    10030    2    1    2    0    0  0.00000000000E+00  0.00000000000E+00 -0.56108312763E+03  0.37371619102E+04  0.36948024125E+04 0.  0.
        1    1    3    3  502    0 -0.15791943730E+04 -0.69849450916E+03 -0.94468325752E+03  0.19682926368E+04  0.50400001928E-02 0. -1.
       -1    1    3    3    0  502  0.15791943730E+04  0.69849450916E+03  0.38360012990E+03  0.17688692735E+04  0.50400001928E-02 0.  1.
</event>
<event>
 5   0  0.4824268E-07  0.3696699E+04  0.7818609E-02  0.8068694E-01
       -2   -1    0    0    0  501  0.00000000000E+00  0.00000000000E+00  0.10317740223E+04  0.10317740223E+04  0.25500000920E-02 0.  1.
        2   -1    0    0  501    0  0.00000000000E+00  0.00000000000E+00 -0.33111858516E+04  0.33111858516E+04  0.25500000920E-02 0. -1.
    10030    2    1    2    0    0  0.00000000000E+00  0.00000000000E+00 -0.22794118293E+04  0.43429598739E+04  0.36966988217E+04 0.  0.
        1    1    3    3  502    0  0.56538904932E+03  0.74826782922E+03 -0.30108924760E+04  0.31535762276E+04  0.50400001928E-02 0. -1.
       -1    1    3    3    0  502 -0.56538904932E+03 -0.74826782922E+03  0.73148064675E+03  0.11893836462E+04  0.50400001928E-02 0.  1.
</event>
<event>
 5   0  0.4758908E-07  0.3557712E+04  0.7818609E-02  0.8100247E-01
       -2   -1    0    0    0  501  0.00000000000E+00  0.00000000000E+00  0.31790225756E+04  0.31790225756E+04  0.25500000920E-02 0.  1.
        2   -1    0    0  501    0  0.00000000000E+00  0.00000000000E+00 -0.99537800262E+03  0.99537800262E+03  0.25500000920E-02 0. -1.
    10030    2    1    2    0    0  0.00000000000E+00  0.00000000000E+00  0.21836445730E+04  0.41744005782E+04  0.35577122658E+04 0.  0.
        2    1    3    3  502    0  0.16664188215E+04 -0.61461484462E+03  0.97670321876E+03  0.20269810737E+04  0.25500000920E-02 0. -1.
       -2    1    3    3    0  502 -0.16664188215E+04  0.61461484462E+03  0.12069413542E+04  0.21474195045E+04  0.25500000920E-02 0.  1.
</event>
<event>
 5   0  0.1496000E-07  0.3646137E+04  0.7818609E-02  0.8080004E-01
        3   -1    0    0  501    0  0.00000000000E+00  0.00000000000E+00  0.17002521089E+04  0.17002521119E+04  0.10100000352E+00 0.  1.
       -3   -1    0    0    0  501  0.00000000000E+00  0.00000000000E+00 -0.19547564963E+04  0.19547564989E+04  0.10100000352E+00 0. -1.
    10030    2    1    2    0    0  0.00000000000E+00  0.00000000000E+00 -0.25450438739E+03  0.36550086108E+04  0.36461370602E+04 0.  0.
        4    1    3    3  502    0  0.14421054905E+04 -0.22551945967E+03  0.96767371747E+03  0.17512627755E+04  0.12699999809E+01 0.  1.
       -4    1    3    3    0  502 -0.14421054905E+04  0.22551945967E+03 -0.12221781049E+04  0.19037458353E+04  0.12699999809E+01 0. -1.
</event>
<event>
 5   0  0.1496000E-07  0.3633156E+04  0.7818609E-02  0.8082939E-01
       -1   -1    0    0    0  501  0.00000000000E+00  0.00000000000E+00  0.20575473628E+04  0.20575473628E+04  0.50400001928E-02 0.  1.
        1   -1    0    0  501    0  0.00000000000E+00  0.00000000000E+00 -0.16038298437E+04  0.16038298437E+04  0.50400001928E-02 0. -1.
    10030    2    1    2    0    0  0.00000000000E+00  0.00000000000E+00  0.45371751914E+03  0.36613772065E+04  0.36331561294E+04 0.  0.
        3    1    3    3  502    0 -0.12045886080E+04 -0.13581969396E+04  0.16136771093E+03  0.18225729586E+04  0.10100000352E+00 0. -1.
       -3    1    3    3    0  502  0.12045886080E+04  0.13581969396E+04  0.29234980821E+03  0.18388042478E+04  0.10100000352E+00 0.  1.
</event>
<event>
 5   0  0.4793557E-07  0.3677664E+04  0.7818609E-02  0.8072930E-01
       -2   -1    0    0    0  501  0.00000000000E+00  0.00000000000E+00  0.16938702222E+04  0.16938702222E+04  0.25500000920E-02 0.  1.
        2   -1    0    0  501    0  0.00000000000E+00  0.00000000000E+00 -0.19962000857E+04  0.19962000857E+04  0.25500000920E-02 0. -1.
    10030    2    1    2    0    0  0.00000000000E+00  0.00000000000E+00 -0.30232986353E+03  0.36900703079E+04  0.36776644125E+04 0.  0.
        3    1    3    3  502    0 -0.14638145712E+04 -0.10915912342E+04 -0.36864329232E+03  0.18628532977E+04  0.10100000352E+00 0. -1.
       -3    1    3    3    0  502  0.14638145712E+04  0.10915912342E+04  0.66313428789E+02  0.18272170103E+04  0.10100000352E+00 0.  1.
</event>
<event>
 5   0  0.4857514E-07  0.3902066E+04  0.7818609E-02  0.8024600E-01
       -2   -1    0    0    0  501  0.00000000000E+00  0.00000000000E+00  0.28220490638E+04  0.28220490638E+04  0.25500000920E-02 0. -1.
        2   -1    0    0  501    0  0.00000000000E+00  0.00000000000E+00 -0.13488532006E+04  0.13488532006E+04  0.25500000920E-02 0.  1.
    10030    2    1    2    0    0  0.00000000000E+00  0.00000000000E+00  0.14731958632E+04  0.41709022645E+04  0.39020660743E+04 0.  0.
        5    1    3    3  502    0  0.18048581033E+04  0.70634972061E+03  0.49742995441E+03  0.20009750999E+04  0.46999998093E+01 0.  1.
       -5    1    3    3    0  502 -0.18048581033E+04 -0.70634972061E+03  0.97576590880E+03  0.21699271646E+04  0.46999998093E+01 0. -1.
</event>
<event>
 5   0  0.1496000E-07  0.3824778E+04  0.7818609E-02  0.8040858E-01
        3   -1    0    0  501    0  0.00000000000E+00  0.00000000000E+00  0.13856094289E+04  0.13856094326E+04  0.10100000352E+00 0. -1.
       -3   -1    0    0    0  501  0.00000000000E+00  0.00000000000E+00 -0.26394397325E+04  0.26394397344E+04  0.10100000352E+00 0.  1.
    10030    2    1    2    0    0  0.00000000000E+00  0.00000000000E+00 -0.12538303036E+04  0.40250491670E+04  0.38247784728E+04 0.  0.
        4    1    3    3  502    0 -0.91979929911E+03 -0.12721410082E+04 -0.17762833675E+04  0.23705606320E+04  0.12699999809E+01 0.  1.
       -4    1    3    3    0  502  0.91979929911E+03  0.12721410082E+04  0.52245306388E+03  0.16544885350E+04  0.12699999809E+01 0. -1.
</event>
<event>
 5   0  0.4824268E-07  0.3674717E+04  0.7818609E-02  0.8073588E-01
       -2   -1    0    0    0  501  0.00000000000E+00  0.00000000000E+00  0.18338132032E+04  0.18338132032E+04  0.25500000920E-02 0. -1.
        2   -1    0    0  501    0  0.00000000000E+00  0.00000000000E+00 -0.18409106621E+04  0.18409106621E+04  0.25500000920E-02 0.  1.
    10030    2    1    2    0    0  0.00000000000E+00  0.00000000000E+00 -0.70974589127E+01  0.36747238653E+04  0.36747170112E+04 0.  0.
        1    1    3    3  502    0 -0.68220425876E+03  0.10285465269E+04 -0.13646448246E+04  0.18399907897E+04  0.50400001928E-02 0.  1.
       -1    1    3    3    0  502  0.68220425876E+03 -0.10285465269E+04  0.13575473657E+04  0.18347330757E+04  0.50400001928E-02 0. -1.
</event>
<event>
 5   0  0.1496287E-07  0.3705577E+04  0.7818609E-02  0.8066727E-01
       -1   -1    0    0    0  501  0.00000000000E+00  0.00000000000E+00  0.19469620350E+04  0.19469620351E+04  0.50400001928E-02 0. -1.
        1   -1    0    0  501    0  0.00000000000E+00  0.00000000000E+00 -0.17631696687E+04  0.17631696687E+04  0.50400001928E-02 0.  1.
    10030    2    1    2    0    0  0.00000000000E+00  0.00000000000E+00  0.18379236631E+03  0.37101317038E+04  0.37055765578E+04 0.  0.
        1    1    3    3  502    0  0.15559903329E+04  0.13318406341E+03  0.10901074504E+04  0.19045152045E+04  0.50400001928E-02 0. -1.
       -1    1    3    3    0  502 -0.15559903329E+04 -0.13318406341E+03 -0.90631508405E+03  0.18056164993E+04  0.50400001928E-02 0.  1.
</event>
<event>
 5   0  0.4793557E-07  0.3647178E+04  0.7818609E-02  0.8079770E-01
        2   -1    0    0  501    0  0.00000000000E+00  0.00000000000E+00  0.23292523513E+04  0.23292523513E+04  0.25500000920E-02 0.  1.
       -2   -1    0    0    0  501  0.00000000000E+00  0.00000000000E+00 -0.14277016821E+04  0.14277016821E+04  0.25500000920E-02 0. -1.
    10030    2    1    2    0    0  0.00000000000E+00  0.00000000000E+00  0.90155066920E+03  0.37569540335E+04  0.36471783615E+04 0.  0.
        3    1    3    3  502    0 -0.15074932867E+04 -0.14410324778E+03  0.14973150193E+04  0.21296135877E+04  0.10100000352E+00 0.  1.
       -3    1    3    3    0  502  0.15074932867E+04  0.14410324778E+03 -0.59576435009E+03  0.16273404458E+04  0.10100000352E+00 0. -1.
</event>
<event>
 5   0  0.4687817E-07  0.3041063E+04  0.7818609E-02  0.8232101E-01
       -2   -1    0    0    0  501  0.00000000000E+00  0.00000000000E+00  0.12676235960E+04  0.12676235961E+04  0.25500000920E-02 0.  1.
        2   -1    0    0  501    0  0.00000000000E+00  0.00000000000E+00 -0.18238985154E+04  0.18238985154E+04  0.25500000920E-02 0. -1.
    10030    2    1    2    0    0  0.00000000000E+00  0.00000000000E+00 -0.55627491931E+03  0.30915221114E+04  0.30410634948E+04 0.  0.
        4    1    3    3  502    0 -0.13011689336E+04 -0.44016607644E+03  0.38477778606E+03  0.14264789961E+04  0.12699999809E+01 0.  1.
       -4    1    3    3    0  502  0.13011689336E+04  0.44016607644E+03 -0.94105270538E+03  0.16650431153E+04  0.12699999809E+01 0. -1.
</event>
<event>
 5   0  0.4758908E-07  0.3702162E+04  0.7818609E-02  0.8067483E-01
       -2   -1    0    0    0  501  0.00000000000E+00  0.00000000000E+00  0.17251500370E+04  0.17251500370E+04  0.25500000920E-02 0. -1.
        2   -1    0    0  501    0  0.00000000000E+00  0.00000000000E+00 -0.19862046109E+04  0.19862046109E+04  0.25500000920E-02 0.  1.
    10030    2    1    2    0    0  0.00000000000E+00  0.00000000000E+00 -0.26105457382E+03  0.37113546479E+04  0.37021620483E+04 0.  0.
        2    1    3    3  502    0 -0.14790175306E+03  0.11681711837E+04  0.13013056250E+04  0.17549630118E+04  0.25500000920E-02 0. -1.
       -2    1    3    3    0  502  0.14790175306E+03 -0.11681711837E+04 -0.15623601989E+04  0.19563916361E+04  0.25500000920E-02 0.  1.
</event>
<event>
 5   0  0.4758908E-07  0.3737448E+04  0.7818609E-02  0.8059713E-01
       -2   -1    0    0    0  501  0.00000000000E+00  0.00000000000E+00  0.16792817651E+04  0.16792817651E+04  0.25500000920E-02 0.  1.
        2   -1    0    0  501    0  0.00000000000E+00  0.00000000000E+00 -0.20795371228E+04  0.20795371228E+04  0.25500000920E-02 0. -1.
    10030    2    1    2    0    0  0.00000000000E+00  0.00000000000E+00 -0.40025535767E+03  0.37588188879E+04  0.37374476693E+04 0.  0.
        2    1    3    3  502    0  0.18414984233E+04  0.30710130318E+03 -0.11779924030E+03  0.18706427543E+04  0.25500000920E-02 0. -1.
       -2    1    3    3    0  502 -0.18414984233E+04 -0.30710130318E+03 -0.28245611737E+03  0.18881761336E+04  0.25500000920E-02 0.  1.
</event>
<event>
 5   0  0.4824268E-07  0.3670685E+04  0.7818609E-02  0.8074490E-01
       -2   -1    0    0    0  501  0.00000000000E+00  0.00000000000E+00  0.12220749704E+04  0.12220749705E+04  0.25500000920E-02 0.  1.
        2   -1    0    0  501    0  0.00000000000E+00  0.00000000000E+00 -0.27563621583E+04  0.27563621583E+04  0.25500000920E-02 0. -1.
    10030    2    1    2    0    0  0.00000000000E+00  0.00000000000E+00 -0.15342871879E+04  0.39784371288E+04  0.36706845156E+04 0.  0.
        1    1    3    3  502    0 -0.48992738417E+03 -0.60636065821E+03 -0.25680090594E+04  0.26837236480E+04  0.50400001928E-02 0. -1.
       -1    1    3    3    0  502  0.48992738417E+03  0.60636065821E+03  0.10337218715E+04  0.12947134808E+04  0.50400001928E-02 0.  1.
</event>
<event>
 5   0  0.1496000E-07  0.3714139E+04  0.7818609E-02  0.8064836E-01
       -3   -1    0    0    0  501  0.00000000000E+00  0.00000000000E+00  0.17388510241E+04  0.17388510271E+04  0.10100000352E+00 0. -1.
        3   -1    0    0  501    0  0.00000000000E+00  0.00000000000E+00 -0.19833250232E+04  0.19833250258E+04  0.10100000352E+00 0.  1.
    10030    2    1    2    0    0  0.00000000000E+00  0.00000000000E+00 -0.24447399907E+03  0.37221760528E+04  0.37141388009E+04 0.  0.
        4    1    3    3  502    0  0.13244621328E+04 -0.57537669786E+03  0.10479570597E+04  0.17842292166E+04  0.12699999809E+01 0. -1.
       -4    1    3    3    0  502 -0.13244621328E+04  0.57537669786E+03 -0.12924310587E+04  0.19379468362E+04  0.12699999809E+01 0.  1.
</event>
<event>
 5   0  0.1496287E-07  0.3689074E+04  0.7818609E-02  0.8070388E-01
        1   -1    0    0  501    0  0.00000000000E+00  0.00000000000E+00  0.22396940035E+04  0.22396940035E+04  0.50400001928E-02 0. -1.
       -1   -1    0    0    0  501  0.00000000000E+00  0.00000000000E+00 -0.15190987915E+04  0.15190987915E+04  0.50400001928E-02 0.  1.
    10030    2    1    2    0    0  0.00000000000E+00  0.00000000000E+00  0.72059521200E+03  0.37587927950E+04  0.36890738426E+04 0.  0.
        1    1    3    3  502    0  0.86752480656E+03  0.37217801226E+03  0.19749228879E+04  0.21889349411E+04  0.50400001928E-02 0. -1.
       -1    1    3    3    0  502 -0.86752480656E+03 -0.37217801226E+03 -0.12543276759E+04  0.15698578539E+04  0.50400001928E-02 0.  1.
</event>
<event>
 5   0  0.4824268E-07  0.3680278E+04  0.7818609E-02  0.8072347E-01
       -2   -1    0    0    0  501  0.00000000000E+00  0.00000000000E+00  0.11345009484E+04  0.11345009484E+04  0.25500000920E-02 0.  1.
        2   -1    0    0  501    0  0.00000000000E+00  0.00000000000E+00 -0.29846704605E+04  0.29846704605E+04  0.25500000920E-02 0. -1.
    10030    2    1    2    0    0  0.00000000000E+00  0.00000000000E+00 -0.18501695121E+04  0.41191714088E+04  0.36802779612E+04 0.  0.
        1    1    3    3  502    0 -0.93109286607E+03  0.19767905541E+02  0.85125054000E+03  0.12617258725E+04  0.50400001928E-02 0.  1.
       -1    1    3    3    0  502  0.93109286607E+03 -0.19767905541E+02 -0.27014200521E+04  0.28574455364E+04  0.50400001928E-02 0. -1.
</event>
<event>
 5   0  0.1496000E-07  0.3705573E+04  0.7818609E-02  0.8066728E-01
       -1   -1    0    0    0  501  0.00000000000E+00  0.00000000000E+00  0.15077227018E+04  0.15077227018E+04  0.50400001928E-02 0.  1.
        1   -1    0    0  501    0  0.00000000000E+00  0.00000000000E+00 -0.22768236514E+04  0.22768236514E+04  0.50400001928E-02 0. -1.
    10030    2    1    2    0    0  0.00000000000E+00  0.00000000000E+00 -0.76910094959E+03  0.37845463531E+04  0.37055734817E+04 0.  0.
        2    1    3    3  502    0  0.14241913102E+04 -0.43660863952E+03  0.74068811064E+03  0.16636005739E+04  0.25500000920E-02 0.  1.
       -2    1    3    3    0  502 -0.14241913102E+04  0.43660863952E+03 -0.15097890602E+04  0.21209457793E+04  0.25500000920E-02 0. -1.
</event>
<event>
 5   0  0.1496000E-07  0.3713805E+04  0.7818609E-02  0.8064909E-01
       -1   -1    0    0    0  501  0.00000000000E+00  0.00000000000E+00  0.18584110699E+04  0.18584110699E+04  0.50400001928E-02 0.  1.
        1   -1    0    0  501    0  0.00000000000E+00  0.00000000000E+00 -0.18553950487E+04  0.18553950487E+04  0.50400001928E-02 0. -1.
    10030    2    1    2    0    0  0.00000000000E+00  0.00000000000E+00  0.30160212621E+01  0.37138061186E+04  0.37138048939E+04 0.  0.
        3    1    3    3  502    0 -0.12107064850E+04  0.10229034511E+04 -0.96593482578E+03  0.18561173887E+04  0.10100000352E+00 0. -1.
       -3    1    3    3    0  502  0.12107064850E+04 -0.10229034511E+04  0.96895084704E+03  0.18576887299E+04  0.10100000352E+00 0.  1.
</event>
<event>
 5   0  0.1522273E-07  0.3660995E+04  0.7818609E-02  0.8076661E-01
       -1   -1    0    0    0  501  0.00000000000E+00  0.00000000000E+00  0.14191158789E+04  0.14191158789E+04  0.50400001928E-02 0. -1.
        1   -1    0    0  501    0  0.00000000000E+00  0.00000000000E+00 -0.23611331665E+04  0.23611331665E+04  0.50400001928E-02 0.  1.
    10030    2    1    2    0    0  0.00000000000E+00  0.00000000000E+00 -0.94201728755E+03  0.37802490454E+04  0.36609952575E+04 0.  0.
        4    1    3    3  502    0  0.81263288545E+03  0.99024475922E+03 -0.18211809997E+04  0.22265800538E+04  0.12699999809E+01 0.  1.
       -4    1    3    3    0  502 -0.81263288545E+03 -0.99024475922E+03  0.87916371214E+03  0.15536689916E+04  0.12699999809E+01 0. -1.
</event>
<event>
 5   0  0.4824268E-07  0.3763584E+04  0.7818609E-02  0.8054015E-01
        2   -1    0    0  501    0  0.00000000000E+00  0.00000000000E+00  0.23045899072E+04  0.23045899072E+04  0.25500000920E-02 0. -1.
       -2   -1    0    0    0  501  0.00000000000E+00  0.00000000000E+00 -0.15365598511E+04  0.15365598511E+04  0.25500000920E-02 0.  1.
    10030    2    1    2    0    0  0.00000000000E+00  0.00000000000E+00  0.76803005605E+03  0.38411497583E+04  0.37635835714E+04 0.  0.
        1    1    3    3  502    0  0.45151925997E+03  0.15918758815E+04  0.12987010208E+04  0.21034644769E+04  0.50400001928E-02 0. -1.
       -1    1    3    3    0  502 -0.45151925997E+03 -0.15918758815E+04 -0.53067096472E+03  0.17376852814E+04  0.50400001928E-02 0.  1.
</event>
<event>
 5   0  0.1496000E-07  0.3684365E+04  0.7818609E-02  0.8071436E-01
        1   -1    0    0  501    0  0.00000000000E+00  0.00000000000E+00  0.13168697700E+04  0.13168697700E+04  0.50400001928E-02 0. -1.
       -1   -1    0    0    0  501  0.00000000000E+00  0.00000000000E+00 -0.25770472396E+04  0.25770472396E+04  0.50400001928E-02 0.  1.
    10030    2    1    2    0    0  0.00000000000E+00  0.00000000000E+00 -0.12601774695E+04  0.38939170096E+04  0.36843645888E+04 0.  0.
        2    1    3    3  502    0 -0.11932411423E+04 -0.92473188051E+03  0.48574531895E+03  0.15858442513E+04  0.25500000920E-02 0. -1.
       -2    1    3    3    0  502  0.11932411423E+04  0.92473188051E+03 -0.17459227885E+04  0.23080727583E+04  0.25500000920E-02 0.  1.
</event>
<event>
 5   0  0.1496000E-07  0.3797125E+04  0.7818609E-02  0.8046772E-01
        1   -1    0    0  501    0  0.00000000000E+00  0.00000000000E+00  0.18719564819E+04  0.18719564819E+04  0.50400001928E-02 0.  1.
       -1   -1    0    0    0  501  0.00000000000E+00  0.00000000000E+00 -0.19255462965E+04  0.19255462965E+04  0.50400001928E-02 0. -1.
    10030    2    1    2    0    0  0.00000000000E+00  0.00000000000E+00 -0.53589814629E+02  0.37975027784E+04  0.37971246336E+04 0.  0.
        5    1    3    3  502    0 -0.11811750374E+04  0.12282535409E+04  0.81038794407E+03  0.18869371848E+04  0.46999998093E+01 0.  1.
       -5    1    3    3    0  502  0.11811750374E+04 -0.12282535409E+04 -0.86397775870E+03  0.19105655935E+04  0.46999998093E+01 0. -1.
</event>
<event>
 5   0  0.1496000E-07  0.3713034E+04  0.7818609E-02  0.8065080E-01
       -1   -1    0    0    0  501  0.00000000000E+00  0.00000000000E+00  0.11750001133E+04  0.11750001133E+04  0.50400001928E-02 0.  1.
        1   -1    0    0  501    0  0.00000000000E+00  0.00000000000E+00 -0.29333228156E+04  0.29333228156E+04  0.50400001928E-02 0. -1.
    10030    2    1    2    0    0  0.00000000000E+00  0.00000000000E+00 -0.17583227023E+04  0.41083229289E+04  0.37130336065E+04 0.  0.
        5    1    3    3  502    0  0.76571049074E+03 -0.42900733086E+03  0.93093159421E+03  0.12794590922E+04  0.46999998093E+01 0.  1.
       -5    1    3    3    0  502 -0.76571049074E+03  0.42900733086E+03 -0.26892542965E+04  0.28288638367E+04  0.46999998093E+01 0. -1.
</event>
<event>
 5   0  0.4824268E-07  0.3702767E+04  0.7818609E-02  0.8067349E-01
        2   -1    0    0  501    0  0.00000000000E+00  0.00000000000E+00  0.17055872618E+04  0.17055872618E+04  0.25500000920E-02 0.  1.
       -2   -1    0    0    0  501  0.00000000000E+00  0.00000000000E+00 -0.20096428758E+04  0.20096428758E+04  0.25500000920E-02 0. -1.
    10030    2    1    2    0    0  0.00000000000E+00  0.00000000000E+00 -0.30405561401E+03  0.37152301376E+04  0.37027672300E+04 0.  0.
        1    1    3    3  502    0  0.27533855957E+03  0.13807441092E+04 -0.13583037734E+04  0.19563370769E+04  0.50400001928E-02 0. -1.
       -1    1    3    3    0  502 -0.27533855957E+03 -0.13807441092E+04  0.10542481594E+04  0.17588930607E+04  0.50400001928E-02 0.  1.
</event>
<event>
 5   0  0.1496000E-07  0.3567904E+04  0.7818609E-02  0.8097883E-01
        1   -1    0    0  501    0  0.00000000000E+00  0.00000000000E+00  0.23639253670E+04  0.23639253670E+04  0.50400001928E-02 0. -1.
       -1   -1    0    0    0  501  0.00000000000E+00  0.00000000000E+00 -0.13462715478E+04  0.13462715478E+04  0.50400001928E-02 0.  1.
    10030    2    1    2    0    0  0.00000000000E+00  0.00000000000E+00  0.10176538193E+04  0.37101969148E+04  0.35679044060E+04 0.  0.
        5    1    3    3  502    0 -0.76116849364E+03  0.92764765324E+03  0.18815315066E+04  0.22316116474E+04  0.46999998093E+01 0. -1.
       -5    1    3    3    0  502  0.76116849364E+03 -0.92764765324E+03 -0.86387768737E+03  0.14785852674E+04  0.46999998093E+01 0.  1.
</event>
<event>
 5   0  0.4758908E-07  0.3682183E+04  0.7818609E-02  0.8071922E-01
        2   -1    0    0  501    0  0.00000000000E+00  0.00000000000E+00  0.24372676258E+04  0.24372676258E+04  0.25500000920E-02 0. -1.
       -2   -1    0    0    0  501  0.00000000000E+00  0.00000000000E+00 -0.13907447315E+04  0.13907447315E+04  0.25500000920E-02 0.  1.
    10030    2    1    2    0    0  0.00000000000E+00  0.00000000000E+00  0.10465228943E+04  0.38280123573E+04  0.36821825647E+04 0.  0.
        2    1    3    3  502    0  0.38273007074E+03  0.68753514927E+03  0.22536419851E+04  0.23870670468E+04  0.25500000920E-02 0. -1.
       -2    1    3    3    0  502 -0.38273007074E+03 -0.68753514927E+03 -0.12071190909E+04  0.14409453106E+04  0.25500000920E-02 0.  1.
</event>
<event>
 5   0  0.1496000E-07  0.3699736E+04  0.7818609E-02  0.8068020E-01
        1   -1    0    0  501    0  0.00000000000E+00  0.00000000000E+00  0.23381522669E+04  0.23381522669E+04  0.50400001928E-02 0. -1.
       -1   -1    0    0    0  501  0.00000000000E+00  0.00000000000E+00 -0.14635538528E+04  0.14635538528E+04  0.50400001928E-02 0.  1.
    10030    2    1    2    0    0  0.00000000000E+00  0.00000000000E+00  0.87459841407E+03  0.38017061197E+04  0.36997360764E+04 0.  0.
        2    1    3    3  502    0 -0.86668821302E+03  0.14907809126E+04  0.11254091362E+04  0.20591556308E+04  0.25500000920E-02 0. -1.
       -2    1    3    3    0  502  0.86668821302E+03 -0.14907809126E+04 -0.25081072211E+03  0.17425504889E+04  0.25500000920E-02 0.  1.
</event>
<event>
 5   0  0.4857514E-07  0.3269544E+04  0.7818609E-02  0.8170688E-01
       -2   -1    0    0    0  501  0.00000000000E+00  0.00000000000E+00  0.10537219825E+04  0.10537219825E+04  0.25500000920E-02 0.  1.
        2   -1    0    0  501    0  0.00000000000E+00  0.00000000000E+00 -0.25362280333E+04  0.25362280333E+04  0.25500000920E-02 0. -1.
    10030    2    1    2    0    0  0.00000000000E+00  0.00000000000E+00 -0.14825060509E+04  0.35899500158E+04  0.32695438405E+04 0.  0.
        5    1    3    3  502    0  0.40168015673E+03 -0.85090486732E+03 -0.22090708337E+04  0.24011251695E+04  0.46999998093E+01 0. -1.
       -5    1    3    3    0  502 -0.40168015673E+03  0.85090486732E+03  0.72656478281E+03  0.11888248463E+04  0.46999998093E+01 0.  1.
</event>
<event>
 5   0  0.4687817E-07  0.3788064E+04  0.7818609E-02  0.8048721E-01
       -2   -1    0    0    0  501  0.00000000000E+00  0.00000000000E+00  0.25807824308E+04  0.25807824308E+04  0.25500000920E-02 0.  1.
        2   -1    0    0  501    0  0.00000000000E+00  0.00000000000E+00 -0.13900266607E+04  0.13900266607E+04  0.25500000920E-02 0. -1.
    10030    2    1    2    0    0  0.00000000000E+00  0.00000000000E+00  0.11907557701E+04  0.39708090914E+04  0.37880635603E+04 0.  0.
        4    1    3    3  502    0  0.11559863197E+04  0.14195524273E+04  0.86228372891E+02  0.18327221313E+04  0.12699999809E+01 0. -1.
       -4    1    3    3    0  502 -0.11559863197E+04 -0.14195524273E+04  0.11045273972E+04  0.21380869602E+04  0.12699999809E+01 0.  1.
</event>
<event>
 5   0  0.4687817E-07  0.3697803E+04  0.7818609E-02  0.8068449E-01
       -2   -1    0    0    0  501  0.00000000000E+00  0.00000000000E+00  0.13027130525E+04  0.13027130525E+04  0.25500000920E-02 0. -1.
        2   -1    0    0  501    0  0.00000000000E+00  0.00000000000E+00 -0.26240909295E+04  0.26240909295E+04  0.25500000920E-02 0.  1.
    10030    2    1    2    0    0  0.00000000000E+00  0.00000000000E+00 -0.13213778770E+04  0.39268039820E+04  0.36978034046E+04 0.  0.
        4    1    3    3  502    0 -0.96837812289E+03 -0.14104551714E+04 -0.14050214352E+04  0.22138714564E+04  0.12699999809E+01 0.  1.
       -4    1    3    3    0  502  0.96837812289E+03  0.14104551714E+04  0.83643558176E+02  0.17129325255E+04  0.12699999809E+01 0. -1.
</event>
<event>
 5   0  0.1496000E-07  0.3690575E+04  0.7818609E-02  0.8070054E-01
        3   -1    0    0  501    0  0.00000000000E+00  0.00000000000E+00  0.14326538443E+04  0.14326538478E+04  0.10100000352E+00 0.  1.
       -3   -1    0    0    0  501  0.00000000000E+00  0.00000000000E+00 -0.23767674729E+04  0.23767674750E+04  0.10100000352E+00 0. -1.
    10030    2    1    2    0    0  0.00000000000E+00  0.00000000000E+00 -0.94411362862E+03  0.38094213228E+04  0.36905745178E+04 0.  0.
        1    1    3    3  502    0 -0.16676032958E+04  0.60712850556E+03 -0.99388539533E+03  0.20340388279E+04  0.50400001928E-02 0.  1.
       -1    1    3    3    0  502  0.16676032958E+04 -0.60712850556E+03  0.49771766711E+02  0.17753824949E+04  0.50400001928E-02 0. -1.
</event>
<event>
 5   0  0.1496000E-07  0.3672757E+04  0.7818609E-02  0.8074026E-01
       -1   -1    0    0    0  501  0.00000000000E+00  0.00000000000E+00  0.15449303623E+04  0.15449303623E+04  0.50400001928E-02 0. -1.
        1   -1    0    0  501    0  0.00000000000E+00  0.00000000000E+00 -0.21828083458E+04  0.21828083458E+04  0.50400001928E-02 0.  1.
    10030    2    1    2    0    0  0.00000000000E+00  0.00000000000E+00 -0.63787798351E+03  0.37277387081E+04  0.36727574864E+04 0.  0.
        5    1    3    3  502    0 -0.15626189470E+04 -0.79970115652E+03  0.22854761657E+03  0.17701853056E+04  0.46999998093E+01 0. -1.
       -5    1    3    3    0  502  0.15626189470E+04  0.79970115652E+03 -0.86642560008E+03  0.19575534025E+04  0.46999998093E+01 0.  1.
</event>
<event>
 5   0  0.4687817E-07  0.3834163E+04  0.7818609E-02  0.8038863E-01
       -2   -1    0    0    0  501  0.00000000000E+00  0.00000000000E+00  0.21132705567E+04  0.21132705567E+04  0.25500000920E-02 0.  1.
        2   -1    0    0  501    0  0.00000000000E+00  0.00000000000E+00 -0.17391057397E+04  0.17391057397E+04  0.25500000920E-02 0. -1.
    10030    2    1    2    0    0  0.00000000000E+00  0.00000000000E+00  0.37416481701E+03  0.38523762964E+04  0.38341627272E+04 0.  0.
        4    1    3    3  502    0  0.10439048203E+04  0.15266143035E+04  0.69436774612E+03  0.19754586013E+04  0.12699999809E+01 0.  1.
       -4    1    3    3    0  502 -0.10439048203E+04 -0.15266143035E+04 -0.32020292911E+03  0.18769176951E+04  0.12699999809E+01 0. -1.
</event>
<event>
 5   0  0.4857514E-07  0.3693267E+04  0.7818609E-02  0.8069456E-01
        2   -1    0    0  501    0  0.00000000000E+00  0.00000000000E+00  0.26923005770E+04  0.26923005770E+04  0.25500000920E-02 0. -1.
       -2   -1    0    0    0  501  0.00000000000E+00  0.00000000000E+00 -0.12665949763E+04  0.12665949763E+04  0.25500000920E-02 0.  1.
    10030    2    1    2    0    0  0.00000000000E+00  0.00000000000E+00  0.14257056007E+04  0.39588955533E+04  0.36932665138E+04 0.  0.
        5    1    3    3  502    0 -0.15509702297E+04 -0.44765406606E+03 -0.24837514295E+03  0.16332835387E+04  0.46999998093E+01 0.  1.
       -5    1    3    3    0  502  0.15509702297E+04  0.44765406606E+03  0.16740807437E+04  0.23256120146E+04  0.46999998093E+01 0. -1.
</event>
<event>
 5   0  0.1496000E-07  0.3706175E+04  0.7818609E-02  0.8066595E-01
       -1   -1    0    0    0  501  0.00000000000E+00  0.00000000000E+00  0.18931735593E+04  0.18931735593E+04  0.50400001928E-02 0.  1.
        1   -1    0    0  501    0  0.00000000000E+00  0.00000000000E+00 -0.18138497433E+04  0.18138497433E+04  0.50400001928E-02 0. -1.
    10030    2    1    2    0    0  0.00000000000E+00  0.00000000000E+00  0.79323816029E+02  0.37070233026E+04  0.37061745100E+04 0.  0.
        5    1    3    3  502    0  0.27651010787E+03 -0.13719755772E+04 -0.11751677971E+04  0.18275164201E+04  0.46999998093E+01 0. -1.
       -5    1    3    3    0  502 -0.27651010787E+03  0.13719755772E+04  0.12544916131E+04  0.18795068826E+04  0.46999998093E+01 0.  1.
</event>
<event>
 5   0  0.4687817E-07  0.3671384E+04  0.7818609E-02  0.8074333E-01
        2   -1    0    0  501    0  0.00000000000E+00  0.00000000000E+00  0.10960153242E+04  0.10960153242E+04  0.25500000920E-02 0.  1.
       -2   -1    0    0    0  501  0.00000000000E+00  0.00000000000E+00 -0.30745594530E+04  0.30745594530E+04  0.25500000920E-02 0. -1.
    10030    2    1    2    0    0  0.00000000000E+00  0.00000000000E+00 -0.19785441288E+04  0.41705747771E+04  0.36713835406E+04 0.  0.
        4    1    3    3  502    0 -0.85969550933E+03 -0.16119380232E+04 -0.78498056977E+03  0.19883703546E+04  0.12699999809E+01 0. -1.
       -4    1    3    3    0  502  0.85969550933E+03  0.16119380232E+04 -0.11935635591E+04  0.21822044225E+04  0.12699999809E+01 0.  1.
</event>
<event>
 5   0  0.4824268E-07  0.3696681E+04  0.7818609E-02  0.8068698E-01
        2   -1    0    0  501    0  0.00000000000E+00  0.00000000000E+00  0.23086630242E+04  0.23086630242E+04  0.25500000920E-02 0.  1.
       -2   -1    0    0    0  501  0.00000000000E+00  0.00000000000E+00 -0.14798009980E+04  0.14798009980E+04  0.25500000920E-02 0. -1.
    10030    2    1    2    0    0  0.00000000000E+00  0.00000000000E+00  0.82886202625E+03  0.37884640222E+04  0.36966805906E+04 0.  0.
        1    1    3    3  502    0 -0.99846357943E+03 -0.98015012860E+03  0.16522008527E+04  0.21650384411E+04  0.50400001928E-02 0.  1.
       -1    1    3    3    0  502  0.99846357943E+03  0.98015012860E+03 -0.82333882641E+03  0.16234255810E+04  0.50400001928E-02 0. -1.
</event>
<event>
 5   0  0.1496000E-07  0.3567658E+04  0.7818609E-02  0.8097940E-01
       -1   -1    0    0    0  501  0.00000000000E+00  0.00000000000E+00  0.17601946236E+04  0.17601946236E+04  0.50400001928E-02 0.  1.
        1   -1    0    0  501    0  0.00000000000E+00  0.00000000000E+00 -0.18077810163E+04  0.18077810163E+04  0.50400001928E-02 0. -1.
    10030    2    1    2    0    0  0.00000000000E+00  0.00000000000E+00 -0.47586392738E+02  0.35679756399E+04  0.35676582939E+04 0.  0.
        3    1    3    3  502    0 -0.73029931369E+02 -0.16752975864E+03  0.17508073216E+04  0.17603198228E+04  0.10100000352E+00 0.  1.
       -3    1    3    3    0  502  0.73029931369E+02  0.16752975864E+03 -0.17983937144E+04  0.18076558171E+04  0.10100000352E+00 0. -1.
</event>
<event>
 5   0  0.4793557E-07  0.3532068E+04  0.7818609E-02  0.8106232E-01
       -2   -1    0    0    0  501  0.00000000000E+00  0.00000000000E+00  0.16242821429E+04  0.16242821429E+04  0.25500000920E-02 0.  1.
        2   -1    0    0  501    0  0.00000000000E+00  0.00000000000E+00 -0.19201566392E+04  0.19201566392E+04  0.25500000920E-02 0. -1.
    10030    2    1    2    0    0  0.00000000000E+00  0.00000000000E+00 -0.29587449625E+03  0.35444387821E+04  0.35320680291E+04 0.  0.
        3    1    3    3  502    0  0.10759789008E+04  0.13842310088E+04  0.65056108119E+02  0.17544396223E+04  0.10100000352E+00 0. -1.
       -3    1    3    3    0  502 -0.10759789008E+04 -0.13842310088E+04 -0.36093060437E+03  0.17899991598E+04  0.10100000352E+00 0.  1.
</event>
<event>
 5   0  0.1496000E-07  0.3671878E+04  0.7818609E-02  0.8074223E-01
       -1   -1    0    0    0  501  0.00000000000E+00  0.00000000000E+00  0.13994391321E+04  0.13994391321E+04  0.50400001928E-02 0. -1.
        1   -1    0    0  501    0  0.00000000000E+00  0.00000000000E+00 -0.24085872436E+04  0.24085872436E+04  0.50400001928E-02 0.  1.
    10030    2    1    2    0    0  0.00000000000E+00  0.00000000000E+00 -0.10091481116E+04  0.38080263757E+04  0.36718775807E+04 0.  0.
        3    1    3    3  502    0  0.66932722802E+03  0.68912334534E+03  0.11179758418E+04  0.14740284652E+04  0.10100000352E+00 0. -1.
       -3    1    3    3    0  502 -0.66932722802E+03 -0.68912334534E+03 -0.21271239533E+04  0.23339979105E+04  0.10100000352E+00 0.  1.
</event>
<event>
 5   0  0.1496000E-07  0.3832534E+04  0.7818609E-02  0.8039209E-01
        1   -1    0    0  501    0  0.00000000000E+00  0.00000000000E+00  0.22272062587E+04  0.22272062588E+04  0.50400001928E-02 0.  1.
       -1   -1    0    0    0  501  0.00000000000E+00  0.00000000000E+00 -0.16487375533E+04  0.16487375533E+04  0.50400001928E-02 0. -1.
    10030    2    1    2    0    0  0.00000000000E+00  0.00000000000E+00  0.57846870543E+03  0.38759438121E+04  0.38325336778E+04 0.  0.
        5    1    3    3  502    0 -0.89926477957E+03 -0.91428181936E+03 -0.11507856002E+04  0.17230548385E+04  0.46999998093E+01 0. -1.
       -5    1    3    3    0  502  0.89926477957E+03  0.91428181936E+03  0.17292543056E+04  0.21528889736E+04  0.46999998093E+01 0.  1.
</event>
<event>
 5   0  0.1496287E-07  0.3820988E+04  0.7818609E-02  0.8041666E-01
       -1   -1    0    0    0  501  0.00000000000E+00  0.00000000000E+00  0.16386381361E+04  0.16386381361E+04  0.50400001928E-02 0.  1.
        1   -1    0    0  501    0  0.00000000000E+00  0.00000000000E+00 -0.22274521818E+04  0.22274521818E+04  0.50400001928E-02 0. -1.
    10030    2    1    2    0    0  0.00000000000E+00  0.00000000000E+00 -0.58881404567E+03  0.38660903179E+04  0.38209884017E+04 0.  0.
        1    1    3    3  502    0  0.91584945205E+03 -0.13831557046E+04  0.66445421803E+03  0.17870084862E+04  0.50400001928E-02 0.  1.
       -1    1    3    3    0  502 -0.91584945205E+03  0.13831557046E+04 -0.12532682637E+04  0.20790818317E+04  0.50400001928E-02 0. -1.
</event>
<event>
 5   0  0.1496287E-07  0.3690488E+04  0.7818609E-02  0.8070073E-01
        1   -1    0    0  501    0  0.00000000000E+00  0.00000000000E+00  0.14150874361E+04  0.14150874361E+04  0.50400001928E-02 0.  1.
       -1   -1    0    0    0  501  0.00000000000E+00  0.00000000000E+00 -0.24061589122E+04  0.24061589122E+04  0.50400001928E-02 0. -1.
    10030    2    1    2    0    0  0.00000000000E+00  0.00000000000E+00 -0.99107147613E+03  0.38212463483E+04  0.36904879059E+04 0.  0.
        1    1    3    3  502    0  0.12903192207E+04  0.31475731493E+03  0.83083886234E+03  0.15666170795E+04  0.50400001928E-02 0.  1.
       -1    1    3    3    0  502 -0.12903192207E+04 -0.31475731493E+03 -0.18219103385E+04  0.22546292689E+04  0.50400001928E-02 0. -1.
</event>
<event>
 5   0  0.4793557E-07  0.3703398E+04  0.7818609E-02  0.8067209E-01
        2   -1    0    0  501    0  0.00000000000E+00  0.00000000000E+00  0.19522888263E+04  0.19522888263E+04  0.25500000920E-02 0. -1.
       -2   -1    0    0    0  501  0.00000000000E+00  0.00000000000E+00 -0.17562915864E+04  0.17562915864E+04  0.25500000920E-02 0.  1.
    10030    2    1    2    0    0  0.00000000000E+00  0.00000000000E+00  0.19599723988E+03  0.37085804126E+04  0.37033975967E+04 0.  0.
        3    1    3    3  502    0 -0.16389100679E+04  0.10148823292E+02  0.96098143682E+03  0.18998985608E+04  0.10100000352E+00 0. -1.
       -3    1    3    3    0  502  0.16389100679E+04 -0.10148823292E+02 -0.76498419693E+03  0.18086818518E+04  0.10100000352E+00 0.  1.
</event>
<event>
 5   0  0.1496287E-07  0.3927107E+04  0.7818609E-02  0.8019415E-01
        1   -1    0    0  501    0  0.00000000000E+00  0.00000000000E+00  0.16428025154E+04  0.16428025154E+04  0.50400001928E-02 0. -1.
       -1   -1    0    0    0  501  0.00000000000E+00  0.00000000000E+00 -0.23469297017E+04  0.23469297017E+04  0.50400001928E-02 0.  1.
    10030    2    1    2    0    0  0.00000000000E+00  0.00000000000E+00 -0.70412718629E+03  0.39897322171E+04  0.39271068320E+04 0.  0.
        1    1    3    3  502    0 -0.98442355853E+03 -0.15278706849E+04 -0.11069220544E+04  0.21280871709E+04  0.50400001928E-02 0.  1.
       -1    1    3    3    0  502  0.98442355853E+03  0.15278706849E+04  0.40279486810E+03  0.18616450462E+04  0.50400001928E-02 0. -1.
</event>
<event>
 5   0  0.1496000E-07  0.3690013E+04  0.7818609E-02  0.8070179E-01
       -1   -1    0    0    0  501  0.00000000000E+00  0.00000000000E+00  0.20749183341E+04  0.20749183341E+04  0.50400001928E-02 0. -1.
        1   -1    0    0  501    0  0.00000000000E+00  0.00000000000E+00 -0.16405703090E+04  0.16405703090E+04  0.50400001928E-02 0.  1.
    10030    2    1    2    0    0  0.00000000000E+00  0.00000000000E+00  0.43434802507E+03  0.37154886431E+04  0.36900132317E+04 0.  0.
        2    1    3    3  502    0  0.42234669750E+03 -0.16085209842E+04 -0.58729929150E+03  0.17636997895E+04  0.25500000920E-02 0.  1.
       -2    1    3    3    0  502 -0.42234669750E+03  0.16085209842E+04  0.10216473166E+04  0.19517888536E+04  0.25500000920E-02 0. -1.
</event>
<event>
 5   0  0.1496000E-07  0.3708622E+04  0.7818609E-02  0.8066054E-01
       -1   -1    0    0    0  501  0.00000000000E+00  0.00000000000E+00  0.25355805782E+04  0.25355805782E+04  0.50400001928E-02 0.  1.
        1   -1    0    0  501    0  0.00000000000E+00  0.00000000000E+00 -0.13560877848E+04  0.13560877848E+04  0.50400001928E-02 0. -1.
    10030    2    1    2    0    0  0.00000000000E+00  0.00000000000E+00  0.11794927934E+04  0.38916683630E+04  0.37086223046E+04 0.  0.
        5    1    3    3  502    0  0.14036978186E+04  0.85586330143E+03  0.14897363132E+04  0.22186045004E+04  0.46999998093E+01 0.  1.
       -5    1    3    3    0  502 -0.14036978186E+04 -0.85586330143E+03 -0.31024351977E+03  0.16730638625E+04  0.46999998093E+01 0. -1.
</event>
<event>
 5   0  0.4687817E-07  0.3760015E+04  0.7818609E-02  0.8054790E-01
        2   -1    0    0  501    0  0.00000000000E+00  0.00000000000E+00  0.23165004548E+04  0.23165004548E+04  0.25500000920E-02 0. -1.
       -2   -1    0    0    0  501  0.00000000000E+00  0.00000000000E+00 -0.15257622876E+04  0.15257622876E+04  0.25500000920E-02 0.  1.
    10030    2    1    2    0    0  0.00000000000E+00  0.00000000000E+00  0.79073816720E+03  0.38422627425E+04  0.37600154432E+04 0.  0.
        4    1    3    3  502    0  0.15083093420E+04 -0.81126579966E+03 -0.39701390373E+03  0.17580588504E+04  0.12699999809E+01 0.  1.
       -4    1    3    3    0  502 -0.15083093420E+04  0.81126579966E+03  0.11877520709E+04  0.20842038921E+04  0.12699999809E+01 0. -1.
</event>
<event>
 5   0  0.4793557E-07  0.3657708E+04  0.7818609E-02  0.8077399E-01
       -2   -1    0    0    0  501  0.00000000000E+00  0.00000000000E+00  0.12923207509E+04  0.12923207509E+04  0.25500000920E-02 0. -1.
        2   -1    0    0  501    0  0.00000000000E+00  0.00000000000E+00 -0.25881395749E+04  0.25881395749E+04  0.25500000920E-02 0.  1.
    10030    2    1    2    0    0  0.00000000000E+00  0.00000000000E+00 -0.12958188240E+04  0.38804603258E+04  0.36577077406E+04 0.  0.
        3    1    3    3  502    0 -0.66890208582E+03  0.11335573614E+03 -0.24496987726E+04  0.25419094417E+04  0.10100000352E+00 0.  1.
       -3    1    3    3    0  502  0.66890208582E+03 -0.11335573614E+03  0.11538799486E+04  0.13385508841E+04  0.10100000352E+00 0. -1.
</event>
<event>
 5   0  0.1496287E-07  0.3263253E+04  0.7818609E-02  0.8172309E-01
       -1   -1    0    0    0  501  0.00000000000E+00  0.00000000000E+00  0.17863479996E+04  0.17863479996E+04  0.50400001928E-02 0. -1.
        1   -1    0    0  501    0  0.00000000000E+00  0.00000000000E+00 -0.14903060470E+04  0.14903060470E+04  0.50400001928E-02 0.  1.
    10030    2    1    2    0    0  0.00000000000E+00  0.00000000000E+00  0.29604195267E+03  0.32766540466E+04  0.32632531167E+04 0.  0.
        1    1    3    3  502    0  0.61174301767E+03 -0.10406378256E+04  0.12502760693E+04  0.17379145127E+04  0.50400001928E-02 0. -1.
       -1    1    3    3    0  502 -0.61174301767E+03  0.10406378256E+04 -0.95423411668E+03  0.15387395339E+04  0.50400001928E-02 0.  1.
</event>
<event>
 5   0  0.1496000E-07  0.3695614E+04  0.7818609E-02  0.8068935E-01
       -1   -1    0    0    0  501  0.00000000000E+00  0.00000000000E+00  0.13171442181E+04  0.13171442181E+04  0.50400001928E-02 0.  1.
        1   -1    0    0  501    0  0.00000000000E+00  0.00000000000E+00 -0.25922677755E+04  0.25922677755E+04  0.50400001928E-02 0. -1.
    10030    2    1    2    0    0  0.00000000000E+00  0.00000000000E+00 -0.12751235574E+04  0.39094119935E+04  0.36956138933E+04 0.  0.
        2    1    3    3  502    0 -0.37687913796E+03 -0.12417394396E+04  0.75400032938E+03  0.15008235130E+04  0.25500000920E-02 0.  1.
       -2    1    3    3    0  502  0.37687913796E+03  0.12417394396E+04 -0.20291238868E+04  0.24085884805E+04  0.25500000920E-02 0. -1.
</event>
<event>
 5   0  0.1522273E-07  0.3686929E+04  0.7818609E-02  0.8070865E-01
        1   -1    0    0  501    0  0.00000000000E+00  0.00000000000E+00  0.28945537822E+04  0.28945537822E+04  0.50400001928E-02 0.  1.
       -1   -1    0    0    0  501  0.00000000000E+00  0.00000000000E+00 -0.11740535903E+04  0.11740535903E+04  0.50400001928E-02 0. -1.
    10030    2    1    2    0    0  0.00000000000E+00  0.00000000000E+00  0.17205001919E+04  0.40686073726E+04  0.36869289445E+04 0.  0.
        4    1    3    3  502    0 -0.69382428281E+03  0.15141236457E+03 -0.10170487547E+04  0.12404465413E+04  0.12699999809E+01 0. -1.
       -4    1    3    3    0  502  0.69382428281E+03 -0.15141236457E+03  0.27375489466E+04  0.28281608313E+04  0.12699999809E+01 0.  1.
</event>
<event>
 5   0  0.1496000E-07  0.3673616E+04  0.7818609E-02  0.8073834E-01
       -1   -1    0    0    0  501  0.00000000000E+00  0.00000000000E+00  0.25305446495E+04  0.25305446495E+04  0.50400001928E-02 0. -1.
        1   -1    0    0  501    0  0.00000000000E+00  0.00000000000E+00 -0.13332557827E+04  0.13332557827E+04  0.50400001928E-02 0.  1.
    10030    2    1    2    0    0  0.00000000000E+00  0.00000000000E+00  0.11972888668E+04  0.38638004322E+04  0.36736158140E+04 0.  0.
        3    1    3    3  502    0  0.47804138236E+03 -0.13776642572E+04  0.17733269289E+04  0.22959030414E+04  0.10100000352E+00 0. -1.
       -3    1    3    3    0  502 -0.47804138236E+03  0.13776642572E+04 -0.57603806209E+03  0.15678973907E+04  0.10100000352E+00 0.  1.
</event>
<event>
 5   0  0.1496287E-07  0.4263659E+04  0.7818609E-02  0.7953372E-01
       -1   -1    0    0    0  501  0.00000000000E+00  0.00000000000E+00  0.16924210617E+04  0.16924210617E+04  0.50400001928E-02 0.  1.
        1   -1    0    0  501    0  0.00000000000E+00  0.00000000000E+00 -0.26853226660E+04  0.26853226660E+04  0.50400001928E-02 0. -1.
    10030    2    1    2    0    0  0.00000000000E+00  0.00000000000E+00 -0.99290160434E+03  0.43777437277E+04  0.42636588219E+04 0.  0.
        1    1    3    3  502    0  0.69212248123E+03 -0.80530598328E+03  0.14015640975E+04  0.17583893696E+04  0.50400001928E-02 0.  1.
       -1    1    3    3    0  502 -0.69212248123E+03  0.80530598328E+03 -0.23944657019E+04  0.26193543581E+04  0.50400001928E-02 0. -1.
</event>
<event>
 5   0  0.4687817E-07  0.3553721E+04  0.7818609E-02  0.8101176E-01
       -2   -1    0    0    0  501  0.00000000000E+00  0.00000000000E+00  0.16578978794E+04  0.16578978794E+04  0.25500000920E-02 0.  1.
        2   -1    0    0  501    0  0.00000000000E+00  0.00000000000E+00 -0.19043588153E+04  0.19043588153E+04  0.25500000920E-02 0. -1.
    10030    2    1    2    0    0  0.00000000000E+00  0.00000000000E+00 -0.24646093586E+03  0.35622566948E+04  0.35537205527E+04 0.  0.
        4    1    3    3  502    0  0.21402531899E+03 -0.11269140012E+04 -0.14835047314E+04  0.18752412923E+04  0.12699999809E+01 0. -1.
       -4    1    3    3    0  502 -0.21402531899E+03  0.11269140012E+04  0.12370437955E+04  0.16870154025E+04  0.12699999809E+01 0.  1.
</event>
<event>
 5   0  0.4687817E-07  0.3681852E+04  0.7818609E-02  0.8071996E-01
       -2   -1    0    0    0  501  0.00000000000E+00  0.00000000000E+00  0.26714311580E+04  0.26714311580E+04  0.25500000920E-02 0. -1.
        2   -1    0    0  501    0  0.00000000000E+00  0.00000000000E+00 -0.12686117014E+04  0.12686117014E+04  0.25500000920E-02 0.  1.
    10030    2    1    2    0    0  0.00000000000E+00  0.00000000000E+00  0.14028194566E+04  0.39400428594E+04  0.36818521570E+04 0.  0.
        4    1    3    3  502    0 -0.58232725167E+03 -0.17187922434E+04  0.10323802907E+04  0.20878607429E+04  0.12699999809E+01 0.  1.
       -4    1    3    3    0  502  0.58232725167E+03  0.17187922434E+04  0.37043916592E+03  0.18521821165E+04  0.12699999809E+01 0. -1.
</event>
<event>
 5   0  0.1496000E-07  0.3354281E+04  0.7818609E-02  0.8149219E-01
       -1   -1    0    0    0  501  0.00000000000E+00  0.00000000000E+00  0.13960488872E+04  0.13960488872E+04  0.50400001928E-02 0. -1.
        1   -1    0    0  501    0  0.00000000000E+00  0.00000000000E+00 -0.20148296651E+04  0.20148296651E+04  0.50400001928E-02 0.  1.
    10030    2    1    2    0    0  0.00000000000E+00  0.00000000000E+00 -0.61878077793E+03  0.34108785523E+04  0.33542812713E+04 0.  0.
        3    1    3    3  502    0  0.74807985392E+03 -0.34309168057E+03 -0.17953706536E+04  0.19750167501E+04  0.10100000352E+00 0.  1.
       -3    1    3    3    0  502 -0.74807985392E+03  0.34309168057E+03  0.11765898757E+04  0.14358618022E+04  0.10100000352E+00 0. -1.
</event>
<event>
 5   0  0.1522273E-07  0.3664212E+04  0.7818609E-02  0.8075940E-01
       -1   -1    0    0    0  501  0.00000000000E+00  0.00000000000E+00  0.30692339661E+04  0.30692339661E+04  0.50400001928E-02 0.  1.
        1   -1    0    0  501    0  0.00000000000E+00  0.00000000000E+00 -0.10936317334E+04  0.10936317334E+04  0.50400001928E-02 0. -1.
    10030    2    1    2    0    0  0.00000000000E+00  0.00000000000E+00  0.19756022328E+04  0.41628656995E+04  0.36642116001E+04 0.  0.
        4    1    3    3  502    0  0.58461764005E+03 -0.54695352600E+03 -0.88439215648E+03  0.11929321205E+04  0.12699999809E+01 0. -1.
       -4    1    3    3    0  502 -0.58461764005E+03  0.54695352600E+03  0.28599943892E+04  0.29699335791E+04  0.12699999809E+01 0.  1.
</event>
<event>
 5   0  0.4687817E-07  0.3721660E+04  0.7818609E-02  0.8063178E-01
        2   -1    0    0  501    0  0.00000000000E+00  0.00000000000E+00  0.18606998762E+04  0.18606998762E+04  0.25500000920E-02 0.  1.
       -2   -1    0    0    0  501  0.00000000000E+00  0.00000000000E+00 -0.18609606180E+04  0.18609606180E+04  0.25500000920E-02 0. -1.
    10030    2    1    2    0    0  0.00000000000E+00  0.00000000000E+00 -0.26074180567E+00  0.37216604943E+04  0.37216604851E+04 0.  0.
        4    1    3    3  502    0  0.41278039400E+02  0.26238300114E+03 -0.18419063832E+04  0.18609592831E+04  0.12699999809E+01 0. -1.
       -4    1    3    3    0  502 -0.41278039400E+02 -0.26238300114E+03  0.18416456414E+04  0.18607012112E+04  0.12699999809E+01 0.  1.
</event>
<event>
 5   0  0.4687817E-07  0.3736040E+04  0.7818609E-02  0.8060022E-01
       -2   -1    0    0    0  501  0.00000000000E+00  0.00000000000E+00  0.14720445651E+04  0.14720445651E+04  0.25500000920E-02 0. -1.
        2   -1    0    0  501    0  0.00000000000E+00  0.00000000000E+00 -0.23705112348E+04  0.23705112348E+04  0.25500000920E-02 0.  1.
    10030    2    1    2    0    0  0.00000000000E+00  0.00000000000E+00 -0.89846666967E+03  0.38425557998E+04  0.37360397105E+04 0.  0.
        4    1    3    3  502    0 -0.36595686482E+03 -0.12204517107E+03  0.14306285836E+04  0.14817284528E+04  0.12699999809E+01 0. -1.
       -4    1    3    3    0  502  0.36595686482E+03  0.12204517107E+03 -0.23290952533E+04  0.23608273470E+04  0.12699999809E+01 0.  1.
</event>
<event>
 5   0  0.4857514E-07  0.3695310E+04  0.7818609E-02  0.8069002E-01
       -2   -1    0    0    0  501  0.00000000000E+00  0.00000000000E+00  0.16327630748E+04  0.16327630748E+04  0.25500000920E-02 0.  1.
        2   -1    0    0  501    0  0.00000000000E+00  0.00000000000E+00 -0.20908294860E+04  0.20908294860E+04  0.25500000920E-02 0. -1.
    10030    2    1    2    0    0  0.00000000000E+00  0.00000000000E+00 -0.45806641118E+03  0.37235925608E+04  0.36953100982E+04 0.  0.
        5    1    3    3  502    0 -0.76423942398E+03 -0.65960499019E+03  0.13302815192E+04  0.16699735478E+04  0.46999998093E+01 0.  1.
       -5    1    3    3    0  502  0.76423942398E+03  0.65960499019E+03 -0.17883479304E+04  0.20536190129E+04  0.46999998093E+01 0. -1.
</event>
<event>
 5   0  0.4824268E-07  0.3058693E+04  0.7818609E-02  0.8227167E-01
       -2   -1    0    0    0  501  0.00000000000E+00  0.00000000000E+00  0.12929399510E+04  0.12929399510E+04  0.25500000920E-02 0. -1.
        2   -1    0    0  501    0  0.00000000000E+00  0.00000000000E+00 -0.18089780338E+04  0.18089780338E+04  0.25500000920E-02 0.  1.
    10030    2    1    2    0    0  0.00000000000E+00  0.00000000000E+00 -0.51603808280E+03  0.31019179848E+04  0.30586925117E+04 0.  0.
        1    1    3    3  502    0  0.74933042103E+03 -0.13326015086E+04 -0.29829310423E+03  0.15576590245E+04  0.50400001928E-02 0. -1.
       -1    1    3    3    0  502 -0.74933042103E+03  0.13326015086E+04 -0.21774497856E+03  0.15442589603E+04  0.50400001928E-02 0.  1.
</event>
<event>
 5   0  0.1496000E-07  0.3692729E+04  0.7818609E-02  0.8069575E-01
       -3   -1    0    0    0  501  0.00000000000E+00  0.00000000000E+00  0.27326805214E+04  0.27326805233E+04  0.10100000352E+00 0. -1.
        3   -1    0    0  501    0  0.00000000000E+00  0.00000000000E+00 -0.12475158768E+04  0.12475158809E+04  0.10100000352E+00 0.  1.
    10030    2    1    2    0    0  0.00000000000E+00  0.00000000000E+00  0.14851646446E+04  0.39801964042E+04  0.36927292609E+04 0.  0.
        1    1    3    3  502    0 -0.95241133559E+03  0.22961921450E+03  0.24294211722E+04  0.26195227748E+04  0.50400001928E-02 0.  1.
       -1    1    3    3    0  502  0.95241133559E+03 -0.22961921450E+03 -0.94425652754E+03  0.13606736294E+04  0.50400001928E-02 0. -1.
</event>
<event>
 5   0  0.4857514E-07  0.3685667E+04  0.7818609E-02  0.8071146E-01
        2   -1    0    0  501    0  0.00000000000E+00  0.00000000000E+00  0.27548878606E+04  0.27548878606E+04  0.25500000920E-02 0.  1.
       -2   -1    0    0    0  501  0.00000000000E+00  0.00000000000E+00 -0.12327305794E+04  0.12327305794E+04  0.25500000920E-02 0. -1.
    10030    2    1    2    0    0  0.00000000000E+00  0.00000000000E+00  0.15221572812E+04  0.39876184400E+04  0.36856665658E+04 0.  0.
        5    1    3    3  502    0 -0.93497616414E+03  0.14110293156E+04  0.15493478648E+04  0.22947080540E+04  0.46999998093E+01 0.  1.
       -5    1    3    3    0  502  0.93497616414E+03 -0.14110293156E+04 -0.27190583585E+02  0.16929103860E+04  0.46999998093E+01 0. -1.
</event>
<event>
 5   0  0.1496000E-07  0.3852261E+04  0.7818609E-02  0.8035032E-01
        1   -1    0    0  501    0  0.00000000000E+00  0.00000000000E+00  0.25025659674E+04  0.25025659674E+04  0.50400001928E-02 0.  1.
       -1   -1    0    0    0  501  0.00000000000E+00  0.00000000000E+00 -0.14824697459E+04  0.14824697459E+04  0.50400001928E-02 0. -1.
    10030    2    1    2    0    0  0.00000000000E+00  0.00000000000E+00  0.10200962216E+04  0.39850357133E+04  0.38522608083E+04 0.  0.
        2    1    3    3  502    0  0.75814210969E+03  0.34210268104E+03 -0.12871170801E+04  0.15324764536E+04  0.25500000920E-02 0. -1.
       -2    1    3    3    0  502 -0.75814210969E+03 -0.34210268104E+03  0.23072133017E+04  0.24525592597E+04  0.25500000920E-02 0.  1.
</event>
<event>
 5   0  0.4857514E-07  0.3671308E+04  0.7818609E-02  0.8074350E-01
       -2   -1    0    0    0  501  0.00000000000E+00  0.00000000000E+00  0.13605212465E+04  0.13605212465E+04  0.25500000920E-02 0.  1.
        2   -1    0    0  501    0  0.00000000000E+00  0.00000000000E+00 -0.24767162395E+04  0.24767162395E+04  0.25500000920E-02 0. -1.
    10030    2    1    2    0    0  0.00000000000E+00  0.00000000000E+00 -0.11161949930E+04  0.38372374859E+04  0.36713077045E+04 0.  0.
        5    1    3    3  502    0  0.57584229030E+03  0.15010456517E+04  0.36787250872E+03  0.16492679177E+04  0.46999998093E+01 0.  1.
       -5    1    3    3    0  502 -0.57584229030E+03 -0.15010456517E+04 -0.14840675017E+04  0.21879695682E+04  0.46999998093E+01 0. -1.
</event>
<event>
 5   0  0.1496000E-07  0.3698059E+04  0.7818609E-02  0.8068392E-01
       -1   -1    0    0    0  501  0.00000000000E+00  0.00000000000E+00  0.29999042456E+04  0.29999042456E+04  0.50400001928E-02 0.  1.
        1   -1    0    0  501    0  0.00000000000E+00  0.00000000000E+00 -0.11396731449E+04  0.11396731449E+04  0.50400001928E-02 0. -1.
    10030    2    1    2    0    0  0.00000000000E+00  0.00000000000E+00  0.18602311007E+04  0.41395773905E+04  0.36980591158E+04 0.  0.
        3    1    3    3  502    0  0.11076137074E+04  0.40730774832E+03 -0.66327995490E+03  0.13537533141E+04  0.10100000352E+00 0. -1.
       -3    1    3    3    0  502 -0.11076137074E+04 -0.40730774832E+03  0.25235110556E+04  0.27858240764E+04  0.10100000352E+00 0.  1.
</event>
<event>
 5   0  0.1522273E-07  0.3694913E+04  0.7818609E-02  0.8069090E-01
       -1   -1    0    0    0  501  0.00000000000E+00  0.00000000000E+00  0.31906668302E+04  0.31906668302E+04  0.50400001928E-02 0. -1.
        1   -1    0    0  501    0  0.00000000000E+00  0.00000000000E+00 -0.10697125553E+04  0.10697125553E+04  0.50400001928E-02 0.  1.
    10030    2    1    2    0    0  0.00000000000E+00  0.00000000000E+00  0.21209542749E+04  0.42603793855E+04  0.36949134594E+04 0.  0.
        4    1    3    3  502    0 -0.14588539345E+04 -0.12642832148E+03 -0.23834638042E+03  0.14835934526E+04  0.12699999809E+01 0.  1.
       -4    1    3    3    0  502  0.14588539345E+04  0.12642832148E+03  0.23593006553E+04  0.27767859330E+04  0.12699999809E+01 0. -1.
</event>
<event>
 5   0  0.1496000E-07  0.3748704E+04  0.7818609E-02  0.8057253E-01
       -1   -1    0    0    0  501  0.00000000000E+00  0.00000000000E+00  0.26713728248E+04  0.26713728248E+04  0.50400001928E-02 0.  1.
        1   -1    0    0  501    0  0.00000000000E+00  0.00000000000E+00 -0.13151272820E+04  0.13151272820E+04  0.50400001928E-02 0. -1.
    10030    2    1    2    0    0  0.00000000000E+00  0.00000000000E+00  0.13562455428E+04  0.39865001068E+04  0.37487039266E+04 0.  0.
        3    1    3    3  502    0 -0.19449818100E+03 -0.16820750528E+04  0.15328416238E+04  0.22840335986E+04  0.10100000352E+00 0.  1.
       -3    1    3    3    0  502  0.19449818100E+03  0.16820750528E+04 -0.17659608098E+03  0.17024665082E+04  0.10100000352E+00 0. -1.
</event>
<event>
 5   0  0.1496000E-07  0.3771799E+04  0.7818609E-02  0.8052234E-01
       -1   -1    0    0    0  501  0.00000000000E+00  0.00000000000E+00  0.28004133963E+04  0.28004133963E+04  0.50400001928E-02 0.  1.
        1   -1    0    0  501    0  0.00000000000E+00  0.00000000000E+00 -0.12700324895E+04  0.12700324895E+04  0.50400001928E-02 0. -1.
    10030    2    1    2    0    0  0.00000000000E+00  0.00000000000E+00  0.15303809068E+04  0.40704458858E+04  0.37717985086E+04 0.  0.
        3    1    3    3  502    0 -0.38738852094E+03  0.14195612215E+04  0.20381607244E+04  0.25138263815E+04  0.10100000352E+00 0.  1.
       -3    1    3    3    0  502  0.38738852094E+03 -0.14195612215E+04 -0.50777981765E+03  0.15566195043E+04  0.10100000352E+00 0. -1.
</event>
<event>
 5   0  0.4758908E-07  0.3684137E+04  0.7818609E-02  0.8071486E-01
        2   -1    0    0  501    0  0.00000000000E+00  0.00000000000E+00  0.24451777116E+04  0.24451777116E+04  0.25500000920E-02 0.  1.
       -2   -1    0    0    0  501  0.00000000000E+00  0.00000000000E+00 -0.13877175093E+04  0.13877175093E+04  0.25500000920E-02 0. -1.
    10030    2    1    2    0    0  0.00000000000E+00  0.00000000000E+00  0.10574602023E+04  0.38328952209E+04  0.36841367639E+04 0.  0.
        2    1    3    3  502    0 -0.37757926522E+03 -0.16888444661E+04 -0.12799014163E+03  0.17352645932E+04  0.25500000920E-02 0. -1.
       -2    1    3    3    0  502  0.37757926522E+03  0.16888444661E+04  0.11854503439E+04  0.20976306277E+04  0.25500000920E-02 0.  1.
</event>
<event>
 5   0  0.1496000E-07  0.3670414E+04  0.7818609E-02  0.8074550E-01
        1   -1    0    0  501    0  0.00000000000E+00  0.00000000000E+00  0.16876599339E+04  0.16876599339E+04  0.50400001928E-02 0. -1.
       -1   -1    0    0    0  501  0.00000000000E+00  0.00000000000E+00 -0.19956531959E+04  0.19956531960E+04  0.50400001928E-02 0.  1.
    10030    2    1    2    0    0  0.00000000000E+00  0.00000000000E+00 -0.30799326202E+03  0.36833131299E+04  0.36704135684E+04 0.  0.
        5    1    3    3  502    0  0.74903594223E+03  0.13598334171E+04 -0.11360882537E+04  0.19237776314E+04  0.46999998093E+01 0.  1.
       -5    1    3    3    0  502 -0.74903594223E+03 -0.13598334171E+04  0.82809499170E+03  0.17595354984E+04  0.46999998093E+01 0. -1.
</event>
<event>
 5   0  0.1496000E-07  0.3713824E+04  0.7818609E-02  0.8064905E-01
       -1   -1    0    0    0  501  0.00000000000E+00  0.00000000000E+00  0.17506359734E+04  0.17506359734E+04  0.50400001928E-02 0.  1.
        1   -1    0    0  501    0  0.00000000000E+00  0.00000000000E+00 -0.19696393170E+04  0.19696393170E+04  0.50400001928E-02 0. -1.
    10030    2    1    2    0    0  0.00000000000E+00  0.00000000000E+00 -0.21900334365E+03  0.37202752904E+04  0.37138236054E+04 0.  0.
        2    1    3    3  502    0 -0.15815018530E+04 -0.13158630347E+01 -0.10843168502E+04  0.19175225877E+04  0.25500000920E-02 0. -1.
       -2    1    3    3    0  502  0.15815018530E+04  0.13158630347E+01  0.86531350654E+03  0.18027527027E+04  0.25500000920E-02 0.  1.
</event>
<event>
 5   0  0.1496000E-07  0.3703216E+04  0.7818609E-02  0.8067250E-01
       -1   -1    0    0    0  501  0.00000000000E+00  0.00000000000E+00  0.15295710873E+04  0.15295710873E+04  0.50400001928E-02 0. -1.
        1   -1    0    0  501    0  0.00000000000E+00  0.00000000000E+00 -0.22414462714E+04  0.22414462714E+04  0.50400001928E-02 0.  1.
    10030    2    1    2    0    0  0.00000000000E+00  0.00000000000E+00 -0.71187518413E+03  0.37710173587E+04  0.37032155813E+04 0.  0.
        3    1    3    3  502    0  0.32708451409E+03  0.13852951540E+04  0.84998456547E+03  0.16578602820E+04  0.10100000352E+00 0. -1.
       -3    1    3    3    0  502 -0.32708451409E+03 -0.13852951540E+04 -0.15618597496E+04  0.21131570766E+04  0.10100000352E+00 0.  1.
</event>
<event>
 5   0  0.4824268E-07  0.3673781E+04  0.7818609E-02  0.8073797E-01
        2   -1    0    0  501    0  0.00000000000E+00  0.00000000000E+00  0.23729296301E+04  0.23729296301E+04  0.25500000920E-02 0. -1.
       -2   -1    0    0    0  501  0.00000000000E+00  0.00000000000E+00 -0.14219415146E+04  0.14219415146E+04  0.25500000920E-02 0.  1.
    10030    2    1    2    0    0  0.00000000000E+00  0.00000000000E+00  0.95098811547E+03  0.37948711447E+04  0.36737812413E+04 0.  0.
        1    1    3    3  502    0 -0.12237528085E+04  0.10392407611E+04 -0.44643401327E+03  0.16664019996E+04  0.50400001928E-02 0.  1.
       -1    1    3    3    0  502  0.12237528085E+04 -0.10392407611E+04  0.13974221287E+04  0.21284691452E+04  0.50400001928E-02 0. -1.
</event>
<event>
 5   0  0.4758908E-07  0.3702041E+04  0.7818609E-02  0.8067510E-01
        2   -1    0    0  501    0  0.00000000000E+00  0.00000000000E+00  0.25857034613E+04  0.25857034613E+04  0.25500000920E-02 0.  1.
       -2   -1    0    0    0  501  0.00000000000E+00  0.00000000000E+00 -0.13250847110E+04  0.13250847110E+04  0.25500000920E-02 0. -1.
    10030    2    1    2    0    0  0.00000000000E+00  0.00000000000E+00  0.12606187503E+04  0.39107881724E+04  0.37020405853E+04 0.  0.
        2    1    3    3  502    0 -0.15397007898E+04 -0.40668970787E+03  0.16270156138E+04  0.22766762722E+04  0.25500000920E-02 0.  1.
       -2    1    3    3    0  502  0.15397007898E+04  0.40668970787E+03 -0.36639686351E+03  0.16341119002E+04  0.25500000920E-02 0. -1.
</event>
<event>
 5   0  0.1496000E-07  0.3615388E+04  0.7818609E-02  0.8086976E-01
       -1   -1    0    0    0  501  0.00000000000E+00  0.00000000000E+00  0.24725309569E+04  0.24725309569E+04  0.50400001928E-02 0. -1.
        1   -1    0    0  501    0  0.00000000000E+00  0.00000000000E+00 -0.13216246745E+04  0.13216246745E+04  0.50400001928E-02 0.  1.
    10030    2    1    2    0    0  0.00000000000E+00  0.00000000000E+00  0.11509062824E+04  0.37941556314E+04  0.36153881789E+04 0.  0.
        3    1    3    3  502    0 -0.50546458172E+01 -0.75778348712E+03  0.22977912821E+04  0.24195260174E+04  0.10100000352E+00 0. -1.
       -3    1    3    3    0  502  0.50546458172E+01  0.75778348712E+03 -0.11468849997E+04  0.13746296140E+04  0.10100000352E+00 0.  1.
</event>
<event>
 5   0  0.4824268E-07  0.3577776E+04  0.7818609E-02  0.8095601E-01
       -2   -1    0    0    0  501  0.00000000000E+00  0.00000000000E+00  0.15103149272E+04  0.15103149272E+04  0.25500000920E-02 0. -1.
        2   -1    0    0  501    0  0.00000000000E+00  0.00000000000E+00 -0.21188425980E+04  0.21188425980E+04  0.25500000920E-02 0.  1.
    10030    2    1    2    0    0  0.00000000000E+00  0.00000000000E+00 -0.60852767077E+03  0.36291575252E+04  0.35777756241E+04 0.  0.
        1    1    3    3  502    0  0.98795156023E+01 -0.17490585166E+04 -0.68490801209E+03  0.18784041856E+04  0.50400001928E-02 0. -1.
       -1    1    3    3    0  502 -0.98795156023E+01  0.17490585166E+04  0.76380341325E+02  0.17507533396E+04  0.50400001928E-02 0.  1.
</event>
<event>
 5   0  0.1496287E-07  0.3700673E+04  0.7818609E-02  0.8067813E-01
       -1   -1    0    0    0  501  0.00000000000E+00  0.00000000000E+00  0.13486339032E+04  0.13486339033E+04  0.50400001928E-02 0.  1.
        1   -1    0    0  501    0  0.00000000000E+00  0.00000000000E+00 -0.25386766852E+04  0.25386766852E+04  0.50400001928E-02 0. -1.
    10030    2    1    2    0    0  0.00000000000E+00  0.00000000000E+00 -0.11900427819E+04  0.38873105884E+04  0.37006731534E+04 0.  0.
        1    1    3    3  502    0  0.13305513992E+04 -0.10644268820E+04  0.16272911868E+03  0.17116811558E+04  0.50400001928E-02 0.  1.
       -1    1    3    3    0  502 -0.13305513992E+04  0.10644268820E+04 -0.13527719006E+04  0.21756294326E+04  0.50400001928E-02 0. -1.
</event>
<event>
 5   0  0.1496000E-07  0.3847309E+04  0.7818609E-02  0.8036078E-01
        1   -1    0    0  501    0  0.00000000000E+00  0.00000000000E+00  0.21008680491E+04  0.21008680491E+04  0.50400001928E-02 0. -1.
       -1   -1    0    0    0  501  0.00000000000E+00  0.00000000000E+00 -0.17613893371E+04  0.17613893371E+04  0.50400001928E-02 0.  1.
    10030    2    1    2    0    0  0.00000000000E+00  0.00000000000E+00  0.33947871203E+03  0.38622573862E+04  0.38473089714E+04 0.  0.
        3    1    3    3  502    0 -0.86712517264E+03 -0.25921793104E+03  0.18737876406E+04  0.20809084874E+04  0.10100000352E+00 0. -1.
       -3    1    3    3    0  502  0.86712517264E+03  0.25921793104E+03 -0.15343089286E+04  0.17813488988E+04  0.10100000352E+00 0.  1.
</event>
<event>
 5   0  0.4687817E-07  0.3723125E+04  0.7818609E-02  0.8062856E-01
        2   -1    0    0  501    0  0.00000000000E+00  0.00000000000E+00  0.18806483277E+04  0.18806483277E+04  0.25500000920E-02 0. -1.
       -2   -1    0    0    0  501  0.00000000000E+00  0.00000000000E+00 -0.18426700910E+04  0.18426700910E+04  0.25500000920E-02 0.  1.
    10030    2    1    2    0    0  0.00000000000E+00  0.00000000000E+00  0.37978236624E+02  0.37233184187E+04  0.37231247227E+04 0.  0.
        4    1    3    3  502    0 -0.18251995189E+04 -0.15039153704E+03  0.35283565487E+03  0.18650644789E+04  0.12699999809E+01 0. -1.
       -4    1    3    3    0  502  0.18251995189E+04  0.15039153704E+03 -0.31485741825E+03  0.18582539398E+04  0.12699999809E+01 0.  1.
</event>
<event>
 5   0  0.1496000E-07  0.3682217E+04  0.7818609E-02  0.8071914E-01
       -1   -1    0    0    0  501  0.00000000000E+00  0.00000000000E+00  0.19765628561E+04  0.19765628561E+04  0.50400001928E-02 0.  1.
        1   -1    0    0  501    0  0.00000000000E+00  0.00000000000E+00 -0.17149368237E+04  0.17149368237E+04  0.50400001928E-02 0. -1.
    10030    2    1    2    0    0  0.00000000000E+00  0.00000000000E+00  0.26162603237E+03  0.36914996798E+04  0.36822169552E+04 0.  0.
        2    1    3    3  502    0  0.15285433503E+04  0.96240243557E+03  0.48810620467E+03  0.18710721228E+04  0.25500000920E-02 0.  1.
       -2    1    3    3    0  502 -0.15285433503E+04 -0.96240243557E+03 -0.22648017230E+03  0.18204275570E+04  0.25500000920E-02 0. -1.
</event>
<event>
 5   0  0.4824268E-07  0.3871945E+04  0.7818609E-02  0.8030889E-01
        2   -1    0    0  501    0  0.00000000000E+00  0.00000000000E+00  0.30003608619E+04  0.30003608619E+04  0.25500000920E-02 0.  1.
       -2   -1    0    0    0  501  0.00000000000E+00  0.00000000000E+00 -0.12491798550E+04  0.12491798550E+04  0.25500000920E-02 0. -1.
    10030    2    1    2    0    0  0.00000000000E+00  0.00000000000E+00  0.17511810069E+04  0.42495407169E+04  0.38719454265E+04 0.  0.
        1    1    3    3  502    0 -0.15037214879E+04 -0.84792509115E+03 -0.86125272392E+02  0.17284596715E+04  0.50400001928E-02 0. -1.
       -1    1    3    3    0  502  0.15037214879E+04  0.84792509115E+03  0.18373062793E+04  0.25210810454E+04  0.50400001928E-02 0.  1.
</event>
<event>
 5   0  0.4857514E-07  0.3658961E+04  0.7818609E-02  0.8077118E-01
       -2   -1    0    0    0  501  0.00000000000E+00  0.00000000000E+00  0.24508508233E+04  0.24508508233E+04  0.25500000920E-02 0.  1.
        2   -1    0    0  501    0  0.00000000000E+00  0.00000000000E+00 -0.13656477427E+04  0.13656477427E+04  0.25500000920E-02 0. -1.
    10030    2    1    2    0    0  0.00000000000E+00  0.00000000000E+00  0.10852030806E+04  0.38164985660E+04  0.36589609971E+04 0.  0.
        5    1    3    3  502    0  0.13185813762E+04  0.12680484380E+04  0.56274946096E+03  0.19139782477E+04  0.46999998093E+01 0.  1.
       -5    1    3    3    0  502 -0.13185813762E+04 -0.12680484380E+04  0.52245361967E+03  0.19025203183E+04  0.46999998093E+01 0. -1.
</event>
<event>
 5   0  0.4687817E-07  0.3457076E+04  0.7818609E-02  0.8124038E-01
        2   -1    0    0  501    0  0.00000000000E+00  0.00000000000E+00  0.90660805371E+03  0.90660805371E+03  0.25500000920E-02 0. -1.
       -2   -1    0    0    0  501  0.00000000000E+00  0.00000000000E+00 -0.32956280616E+04  0.32956280616E+04  0.25500000920E-02 0.  1.
    10030    2    1    2    0    0  0.00000000000E+00  0.00000000000E+00 -0.23890200079E+04  0.42022361153E+04  0.34570756096E+04 0.  0.
        4    1    3    3  502    0  0.14295592701E+03 -0.17158374669E+04 -0.10089381307E+04  0.19956182937E+04  0.12699999809E+01 0. -1.
       -4    1    3    3    0  502 -0.14295592701E+03  0.17158374669E+04 -0.13800818772E+04  0.22066178216E+04  0.12699999809E+01 0.  1.
</event>
<event>
 5   0  0.1496000E-07  0.3724118E+04  0.7818609E-02  0.8062638E-01
       -1   -1    0    0    0  501  0.00000000000E+00  0.00000000000E+00  0.17094454829E+04  0.17094454829E+04  0.50400001928E-02 0. -1.
        1   -1    0    0  501    0  0.00000000000E+00  0.00000000000E+00 -0.20282968645E+04  0.20282968645E+04  0.50400001928E-02 0.  1.
    10030    2    1    2    0    0  0.00000000000E+00  0.00000000000E+00 -0.31885138160E+03  0.37377423473E+04  0.37241175668E+04 0.  0.
        3    1    3    3  502    0  0.15625833050E+04  0.35395535714E+03 -0.11117447562E+04  0.19501095849E+04  0.10100000352E+00 0.  1.
       -3    1    3    3    0  502 -0.15625833050E+04 -0.35395535714E+03  0.79289337460E+03  0.17876327625E+04  0.10100000352E+00 0. -1.
</event>
<event>
 5   0  0.1496000E-07  0.3589322E+04  0.7818609E-02  0.8092942E-01
        1   -1    0    0  501    0  0.00000000000E+00  0.00000000000E+00  0.29825770326E+04  0.29825770326E+04  0.50400001928E-02 0.  1.
       -1   -1    0    0    0  501  0.00000000000E+00  0.00000000000E+00 -0.10798740860E+04  0.10798740861E+04  0.50400001928E-02 0. -1.
    10030    2    1    2    0    0  0.00000000000E+00  0.00000000000E+00  0.19027029466E+04  0.40624511187E+04  0.35893217449E+04 0.  0.
        3    1    3    3  502    0 -0.19913048837E+03 -0.27481965725E+03  0.29459272206E+04  0.29654116063E+04  0.10100000352E+00 0.  1.
       -3    1    3    3    0  502  0.19913048837E+03  0.27481965725E+03 -0.10432242741E+04  0.10970395123E+04  0.10100000352E+00 0. -1.
</event>
<event>
 5   0  0.4793557E-07  0.3726310E+04  0.7818609E-02  0.8062156E-01
       -2   -1    0    0    0  501  0.00000000000E+00  0.00000000000E+00  0.14292072323E+04  0.14292072323E+04  0.25500000920E-02 0.  1.
        2   -1    0    0  501    0  0.00000000000E+00  0.00000000000E+00 -0.24288621195E+04  0.24288621195E+04  0.25500000920E-02 0. -1.
    10030    2    1    2    0    0  0.00000000000E+00  0.00000000000E+00 -0.99965488720E+03  0.38580693517E+04  0.37263104043E+04 0.  0.
        3    1    3    3  502    0  0.15186226526E+04 -0.95287515628E+03  0.25214444534E+02  0.17929923600E+04  0.10100000352E+00 0.  1.
       -3    1    3    3    0  502 -0.15186226526E+04  0.95287515628E+03 -0.10248693317E+04  0.20650769917E+04  0.10100000352E+00 0. -1.
</event>
<event>
 5   0  0.4687817E-07  0.3730047E+04  0.7818609E-02  0.8061336E-01
       -2   -1    0    0    0  501  0.00000000000E+00  0.00000000000E+00  0.12395597153E+04  0.12395597153E+04  0.25500000920E-02 0. -1.
        2   -1    0    0  501    0  0.00000000000E+00  0.00000000000E+00 -0.28060867017E+04  0.28060867017E+04  0.25500000920E-02 0.  1.
    10030    2    1    2    0    0  0.00000000000E+00  0.00000000000E+00 -0.15665269864E+04  0.40456464170E+04  0.37300466662E+04 0.  0.
        4    1    3    3  502    0  0.79959276261E+03 -0.43367501488E+03  0.98264962472E+03  0.13390386486E+04  0.12699999809E+01 0. -1.
       -4    1    3    3    0  502 -0.79959276261E+03  0.43367501488E+03 -0.25491766111E+04  0.27066077684E+04  0.12699999809E+01 0.  1.
</event>
<event>
 5   0  0.1522273E-07  0.3693286E+04  0.7818609E-02  0.8069451E-01
       -1   -1    0    0    0  501  0.00000000000E+00  0.00000000000E+00  0.23981053447E+04  0.23981053447E+04  0.50400001928E-02 0.  1.
        1   -1    0    0  501    0  0.00000000000E+00  0.00000000000E+00 -0.14219935148E+04  0.14219935148E+04  0.50400001928E-02 0. -1.
    10030    2    1    2    0    0  0.00000000000E+00  0.00000000000E+00  0.97611182992E+03  0.38200988595E+04  0.36932859342E+04 0.  0.
        4    1    3    3  502    0  0.22293801728E+03  0.79429091579E+02  0.23823537728E+04  0.23940805024E+04  0.12699999809E+01 0.  1.
       -4    1    3    3    0  502 -0.22293801728E+03 -0.79429091579E+02 -0.14062419429E+04  0.14260183572E+04  0.12699999809E+01 0. -1.
</event>
<event>
 5   0  0.1496287E-07  0.3694451E+04  0.7818609E-02  0.8069193E-01
       -1   -1    0    0    0  501  0.00000000000E+00  0.00000000000E+00  0.23500457228E+04  0.23500457228E+04  0.50400001928E-02 0. -1.
        1   -1    0    0  501    0  0.00000000000E+00  0.00000000000E+00 -0.14519899785E+04  0.14519899785E+04  0.50400001928E-02 0.  1.
    10030    2    1    2    0    0  0.00000000000E+00  0.00000000000E+00  0.89805574426E+03  0.38020357013E+04  0.36944514280E+04 0.  0.
        1    1    3    3  502    0  0.10980802411E+04 -0.75210657809E+03 -0.86921013969E+03  0.15896448621E+04  0.50400001928E-02 0.  1.
       -1    1    3    3    0  502 -0.10980802411E+04  0.75210657809E+03  0.17672658840E+04  0.22123908392E+04  0.50400001928E-02 0. -1.
</event>
<event>
 5   0  0.1496000E-07  0.3698562E+04  0.7818609E-02  0.8068280E-01
        1   -1    0    0  501    0  0.00000000000E+00  0.00000000000E+00  0.19312074712E+04  0.19312074712E+04  0.50400001928E-02 0.  1.
       -1   -1    0    0    0  501  0.00000000000E+00  0.00000000000E+00 -0.17708305119E+04  0.17708305119E+04  0.50400001928E-02 0. -1.
    10030    2    1    2    0    0  0.00000000000E+00  0.00000000000E+00  0.16037695930E+03  0.37020379831E+04  0.36985624855E+04 0.  0.
        2    1    3    3  502    0 -0.15036270182E+04  0.35387073803E+03  0.10978652816E+04  0.18951060354E+04  0.25500000920E-02 0.  1.
       -2    1    3    3    0  502  0.15036270182E+04 -0.35387073803E+03 -0.93748832228E+03  0.18069319476E+04  0.25500000920E-02 0. -1.
</event>
<event>
 5   0  0.4687817E-07  0.3705956E+04  0.7818609E-02  0.8066643E-01
       -2   -1    0    0    0  501  0.00000000000E+00  0.00000000000E+00  0.21749830914E+04  0.21749830914E+04  0.25500000920E-02 0. -1.
        2   -1    0    0  501    0  0.00000000000E+00  0.00000000000E+00 -0.15786459648E+04  0.15786459648E+04  0.25500000920E-02 0.  1.
    10030    2    1    2    0    0  0.00000000000E+00  0.00000000000E+00  0.59633712669E+03  0.37536290562E+04  0.37059564383E+04 0.  0.
        4    1    3    3  502    0 -0.23555209042E+03 -0.12732599297E+04  0.16406815985E+04  0.20900988868E+04  0.12699999809E+01 0. -1.
       -4    1    3    3    0  502  0.23555209042E+03  0.12732599297E+04 -0.10443444718E+04  0.16635301694E+04  0.12699999809E+01 0.  1.
</event>
<event>
 5   0  0.4687817E-07  0.3726676E+04  0.7818609E-02  0.8062076E-01
        2   -1    0    0  501    0  0.00000000000E+00  0.00000000000E+00  0.11134141546E+04  0.11134141546E+04  0.25500000920E-02 0.  1.
       -2   -1    0    0    0  501  0.00000000000E+00  0.00000000000E+00 -0.31183621844E+04  0.31183621844E+04  0.25500000920E-02 0. -1.
    10030    2    1    2    0    0  0.00000000000E+00  0.00000000000E+00 -0.20049480298E+04  0.42317763389E+04  0.37266760499E+04 0.  0.
        4    1    3    3  502    0 -0.82630675991E+03 -0.15627892065E+04 -0.16713175071E+04  0.24327755318E+04  0.12699999809E+01 0.  1.
       -4    1    3    3    0  502  0.82630675991E+03  0.15627892065E+04 -0.33363052269E+03  0.17990008072E+04  0.12699999809E+01 0. -1.
</event>
<event>
 5   0  0.4857514E-07  0.3729176E+04  0.7818609E-02  0.8061527E-01
        2   -1    0    0  501    0  0.00000000000E+00  0.00000000000E+00  0.13761071139E+04  0.13761071139E+04  0.25500000920E-02 0.  1.
       -2   -1    0    0    0  501  0.00000000000E+00  0.00000000000E+00 -0.25264666659E+04  0.25264666659E+04  0.25500000920E-02 0. -1.
    10030    2    1    2    0    0  0.00000000000E+00  0.00000000000E+00 -0.11503595520E+04  0.39025737798E+04  0.37291761836E+04 0.  0.
        5    1    3    3  502    0  0.14801832889E+03  0.10364890021E+04  0.10394298979E+04  0.14753492739E+04  0.46999998093E+01 0.  1.
       -5    1    3    3    0  502 -0.14801832889E+03 -0.10364890021E+04 -0.21897894499E+04  0.24272245059E+04  0.46999998093E+01 0. -1.
</event>
<event>
 5   0  0.1496000E-07  0.3709030E+04  0.7818609E-02  0.8065964E-01
       -1   -1    0    0    0  501  0.00000000000E+00  0.00000000000E+00  0.26182609341E+04  0.26182609342E+04  0.50400001928E-02 0.  1.
        1   -1    0    0  501    0  0.00000000000E+00  0.00000000000E+00 -0.13135534849E+04  0.13135534849E+04  0.50400001928E-02 0. -1.
    10030    2    1    2    0    0  0.00000000000E+00  0.00000000000E+00  0.13047074493E+04  0.39318144191E+04  0.37090299403E+04 0.  0.
        3    1    3    3  502    0 -0.61821203939E+03  0.66041994150E+03  0.23685093417E+04  0.25353850076E+04  0.10100000352E+00 0.  1.
       -3    1    3    3    0  502  0.61821203939E+03 -0.66041994150E+03 -0.10638018924E+04  0.13964294115E+04  0.10100000352E+00 0. -1.
</event>
<event>
 5   0  0.1496000E-07  0.3682405E+04  0.7818609E-02  0.8071872E-01
       -1   -1    0    0    0  501  0.00000000000E+00  0.00000000000E+00  0.13201508502E+04  0.13201508502E+04  0.50400001928E-02 0.  1.
        1   -1    0    0  501    0  0.00000000000E+00  0.00000000000E+00 -0.25679081257E+04  0.25679081258E+04  0.50400001928E-02 0. -1.
    10030    2    1    2    0    0  0.00000000000E+00  0.00000000000E+00 -0.12477572756E+04  0.38880589760E+04  0.36824047010E+04 0.  0.
        2    1    3    3  502    0 -0.99619115917E+03 -0.69789289208E+03 -0.20833089022E+04  0.24123903698E+04  0.25500000920E-02 0. -1.
       -2    1    3    3    0  502  0.99619115917E+03  0.69789289208E+03  0.83555162661E+03  0.14756686061E+04  0.25500000920E-02 0.  1.
</event>
<event>
 5   0  0.4824268E-07  0.3630514E+04  0.7818609E-02  0.8083538E-01
        2   -1    0    0  501    0  0.00000000000E+00  0.00000000000E+00  0.20710715547E+04  0.20710715547E+04  0.25500000920E-02 0. -1.
       -2   -1    0    0    0  501  0.00000000000E+00  0.00000000000E+00 -0.15910404195E+04  0.15910404195E+04  0.25500000920E-02 0.  1.
    10030    2    1    2    0    0  0.00000000000E+00  0.00000000000E+00  0.48003113521E+03  0.36621119742E+04  0.36305143190E+04 0.  0.
        1    1    3    3  502    0  0.12968280567E+04 -0.11761628513E+04 -0.24377994414E+03  0.17676398736E+04  0.50400001928E-02 0.  1.
       -1    1    3    3    0  502 -0.12968280567E+04  0.11761628513E+04  0.72381107935E+03  0.18944721006E+04  0.50400001928E-02 0. -1.
</event>
<event>
 5   0  0.1522273E-07  0.3800274E+04  0.7818609E-02  0.8046096E-01
       -1   -1    0    0    0  501  0.00000000000E+00  0.00000000000E+00  0.21996424522E+04  0.21996424522E+04  0.50400001928E-02 0.  1.
        1   -1    0    0  501    0  0.00000000000E+00  0.00000000000E+00 -0.16414120968E+04  0.16414120968E+04  0.50400001928E-02 0. -1.
    10030    2    1    2    0    0  0.00000000000E+00  0.00000000000E+00  0.55823035538E+03  0.38410545489E+04  0.38002735320E+04 0.  0.
        4    1    3    3  502    0  0.11430374533E+04 -0.24464374802E+03 -0.12350034678E+04  0.17004765101E+04  0.12699999809E+01 0. -1.
       -4    1    3    3    0  502 -0.11430374533E+04  0.24464374802E+03  0.17932338232E+04  0.21405780389E+04  0.12699999809E+01 0.  1.
</event>
<event>
 5   0  0.4687817E-07  0.3711943E+04  0.7818609E-02  0.8065320E-01
       -2   -1    0    0    0  501  0.00000000000E+00  0.00000000000E+00  0.16227970545E+04  0.16227970545E+04  0.25500000920E-02 0.  1.
        2   -1    0    0  501    0  0.00000000000E+00  0.00000000000E+00 -0.21226505169E+04  0.21226505169E+04  0.25500000920E-02 0. -1.
    10030    2    1    2    0    0  0.00000000000E+00  0.00000000000E+00 -0.49985346238E+03  0.37454475714E+04  0.37119434299E+04 0.  0.
        4    1    3    3  502    0 -0.14742145670E+03  0.12863964890E+04  0.10917669544E+04  0.16936663510E+04  0.12699999809E+01 0.  1.
       -4    1    3    3    0  502  0.14742145670E+03 -0.12863964890E+04 -0.15916204168E+04  0.20517812205E+04  0.12699999809E+01 0. -1.
</event>
<event>
 5   0  0.4758908E-07  0.3693724E+04  0.7818609E-02  0.8069354E-01
        2   -1    0    0  501    0  0.00000000000E+00  0.00000000000E+00  0.15195739999E+04  0.15195739999E+04  0.25500000920E-02 0.  1.
       -2   -1    0    0    0  501  0.00000000000E+00  0.00000000000E+00 -0.22446414372E+04  0.22446414372E+04  0.25500000920E-02 0. -1.
    10030    2    1    2    0    0  0.00000000000E+00  0.00000000000E+00 -0.72506743727E+03  0.37642154371E+04  0.36937237401E+04 0.  0.
        2    1    3    3  502    0 -0.17940864984E+04 -0.42249245196E+03 -0.48160763947E+03  0.19050438719E+04  0.25500000920E-02 0. -1.
       -2    1    3    3    0  502  0.17940864984E+04  0.42249245196E+03 -0.24345979779E+03  0.18591715652E+04  0.25500000920E-02 0.  1.
</event>
<event>
 5   0  0.1496287E-07  0.3641351E+04  0.7818609E-02  0.8081085E-01
        1   -1    0    0  501    0  0.00000000000E+00  0.00000000000E+00  0.19416590394E+04  0.19416590394E+04  0.50400001928E-02 0.  1.
       -1   -1    0    0    0  501  0.00000000000E+00  0.00000000000E+00 -0.17072302974E+04  0.17072302974E+04  0.50400001928E-02 0. -1.
    10030    2    1    2    0    0  0.00000000000E+00  0.00000000000E+00  0.23442874208E+03  0.36488893368E+04  0.36413509247E+04 0.  0.
        1    1    3    3  502    0  0.30715475269E+03 -0.14144514175E+04 -0.98953682338E+03  0.17533396646E+04  0.50400001928E-02 0.  1.
       -1    1    3    3    0  502 -0.30715475269E+03  0.14144514175E+04  0.12239655655E+04  0.18955496722E+04  0.50400001928E-02 0. -1.
</event>
<event>
 5   0  0.4687817E-07  0.3725003E+04  0.7818609E-02  0.8062443E-01
       -2   -1    0    0    0  501  0.00000000000E+00  0.00000000000E+00  0.15388662110E+04  0.15388662110E+04  0.25500000920E-02 0.  1.
        2   -1    0    0  501    0  0.00000000000E+00  0.00000000000E+00 -0.22541998276E+04  0.22541998276E+04  0.25500000920E-02 0. -1.
    10030    2    1    2    0    0  0.00000000000E+00  0.00000000000E+00 -0.71533361652E+03  0.37930660386E+04  0.37250030591E+04 0.  0.
        4    1    3    3  502    0  0.79752216713E+03  0.13299478717E+04  0.69273751148E+03  0.16984374646E+04  0.12699999809E+01 0.  1.
       -4    1    3    3    0  502 -0.79752216713E+03 -0.13299478717E+04 -0.14080711280E+04  0.20946285740E+04  0.12699999809E+01 0. -1.
</event>
<event>
 5   0  0.1496000E-07  0.3739865E+04  0.7818609E-02  0.8059184E-01
       -1   -1    0    0    0  501  0.00000000000E+00  0.00000000000E+00  0.19832936325E+04  0.19832936325E+04  0.50400001928E-02 0.  1.
        1   -1    0    0  501    0  0.00000000000E+00  0.00000000000E+00 -0.17630509825E+04  0.17630509826E+04  0.50400001928E-02 0. -1.
    10030    2    1    2    0    0  0.00000000000E+00  0.00000000000E+00  0.22024264995E+03  0.37463446151E+04  0.37398651246E+04 0.  0.
        3    1    3    3  502    0 -0.39033096484E+03 -0.10643787321E+03  0.19389240802E+04  0.19806852052E+04  0.10100000352E+00 0.  1.
       -3    1    3    3    0  502  0.39033096484E+03  0.10643787321E+03 -0.17186814302E+04  0.17656594099E+04  0.10100000352E+00 0. -1.
</event>
<event>
 5   0  0.4857514E-07  0.3604813E+04  0.7818609E-02  0.8089390E-01
       -2   -1    0    0    0  501  0.00000000000E+00  0.00000000000E+00  0.14907005635E+04  0.14907005635E+04  0.25500000920E-02 0. -1.
        2   -1    0    0  501    0  0.00000000000E+00  0.00000000000E+00 -0.21792902805E+04  0.21792902805E+04  0.25500000920E-02 0.  1.
    10030    2    1    2    0    0  0.00000000000E+00  0.00000000000E+00 -0.68858971695E+03  0.36699908440E+04  0.36048130322E+04 0.  0.
        5    1    3    3  502    0 -0.91032064449E+03  0.11595916916E+04 -0.14000159502E+04  0.20330773025E+04  0.46999998093E+01 0.  1.
       -5    1    3    3    0  502  0.91032064449E+03 -0.11595916916E+04  0.71142623324E+03  0.16369135415E+04  0.46999998093E+01 0. -1.
</event>
<event>
 5   0  0.4857514E-07  0.3675568E+04  0.7818609E-02  0.8073398E-01
        2   -1    0    0  501    0  0.00000000000E+00  0.00000000000E+00  0.16664140595E+04  0.16664140595E+04  0.25500000920E-02 0.  1.
       -2   -1    0    0    0  501  0.00000000000E+00  0.00000000000E+00 -0.20267768562E+04  0.20267768562E+04  0.25500000920E-02 0. -1.
    10030    2    1    2    0    0  0.00000000000E+00  0.00000000000E+00 -0.36036279674E+03  0.36931909157E+04  0.36755676833E+04 0.  0.
        5    1    3    3  502    0 -0.95009946995E+02  0.75771581843E+03  0.14994396222E+04  0.16827065764E+04  0.46999998093E+01 0.  1.
       -5    1    3    3    0  502  0.95009946995E+02 -0.75771581843E+03 -0.18598024189E+04  0.20104843394E+04  0.46999998093E+01 0. -1.
</event>
<event>
 5   0  0.4824268E-07  0.3919400E+04  0.7818609E-02  0.8021006E-01
        2   -1    0    0  501    0  0.00000000000E+00  0.00000000000E+00  0.19844982536E+04  0.19844982536E+04  0.25500000920E-02 0.  1.
       -2   -1    0    0    0  501  0.00000000000E+00  0.00000000000E+00 -0.19352120602E+04  0.19352120602E+04  0.25500000920E-02 0. -1.
    10030    2    1    2    0    0  0.00000000000E+00  0.00000000000E+00  0.49286193369E+02  0.39197103138E+04  0.39194004408E+04 0.  0.
        1    1    3    3  502    0  0.14211802128E+03 -0.98859344307E+03 -0.16615834517E+04  0.19386526493E+04  0.50400001928E-02 0. -1.
       -1    1    3    3    0  502 -0.14211802128E+03  0.98859344307E+03  0.17108696451E+04  0.19810576645E+04  0.50400001928E-02 0.  1.
</event>
<event>
 5   0  0.1522273E-07  0.3683547E+04  0.7818609E-02  0.8071618E-01
       -1   -1    0    0    0  501  0.00000000000E+00  0.00000000000E+00  0.14095829954E+04  0.14095829954E+04  0.50400001928E-02 0.  1.
        1   -1    0    0  501    0  0.00000000000E+00  0.00000000000E+00 -0.24064770048E+04  0.24064770048E+04  0.50400001928E-02 0. -1.
    10030    2    1    2    0    0  0.00000000000E+00  0.00000000000E+00 -0.99689400939E+03  0.38160600003E+04  0.36835466957E+04 0.  0.
        4    1    3    3  502    0 -0.48228937315E+03  0.15487819727E+04 -0.14020630379E+04  0.21440874547E+04  0.12699999809E+01 0. -1.
       -4    1    3    3    0  502  0.48228937315E+03 -0.15487819727E+04  0.40516902852E+03  0.16719725455E+04  0.12699999809E+01 0.  1.
</event>
<event>
 5   0  0.1496000E-07  0.3713130E+04  0.7818609E-02  0.8065058E-01
       -1   -1    0    0    0  501  0.00000000000E+00  0.00000000000E+00  0.19636095794E+04  0.19636095794E+04  0.50400001928E-02 0. -1.
        1   -1    0    0  501    0  0.00000000000E+00  0.00000000000E+00 -0.17553558729E+04  0.17553558729E+04  0.50400001928E-02 0.  1.
    10030    2    1    2    0    0  0.00000000000E+00  0.00000000000E+00  0.20825370644E+03  0.37189654523E+04  0.37131300043E+04 0.  0.
        3    1    3    3  502    0 -0.82896896434E+03  0.16196340981E+04 -0.26581719071E+03  0.18387666912E+04  0.10100000352E+00 0. -1.
       -3    1    3    3    0  502  0.82896896434E+03 -0.16196340981E+04  0.47407089716E+03  0.18801987611E+04  0.10100000352E+00 0.  1.
</event>
<event>
 5   0  0.1496000E-07  0.3666208E+04  0.7818609E-02  0.8075492E-01
        1   -1    0    0  501    0  0.00000000000E+00  0.00000000000E+00  0.17557860543E+04  0.17557860543E+04  0.50400001928E-02 0.  1.
       -1   -1    0    0    0  501  0.00000000000E+00  0.00000000000E+00 -0.19138267500E+04  0.19138267500E+04  0.50400001928E-02 0. -1.
    10030    2    1    2    0    0  0.00000000000E+00  0.00000000000E+00 -0.15804069571E+03  0.36696128042E+04  0.36662080235E+04 0.  0.
        3    1    3    3  502    0  0.15207725602E+04 -0.59366598023E+03 -0.91351029152E+03  0.18707457173E+04  0.10100000352E+00 0. -1.
       -3    1    3    3    0  502 -0.15207725602E+04  0.59366598023E+03  0.75546959581E+03  0.17988670869E+04  0.10100000352E+00 0.  1.
</event>
<event>
 5   0  0.4687817E-07  0.3713622E+04  0.7818609E-02  0.8064950E-01
        2   -1    0    0  501    0  0.00000000000E+00  0.00000000000E+00  0.15894260486E+04  0.15894260486E+04  0.25500000920E-02 0.  1.
       -2   -1    0    0    0  501  0.00000000000E+00  0.00000000000E+00 -0.21691769962E+04  0.21691769962E+04  0.25500000920E-02 0. -1.
    10030    2    1    2    0    0  0.00000000000E+00  0.00000000000E+00 -0.57975094760E+03  0.37586030448E+04  0.37136216403E+04 0.  0.
        4    1    3    3  502    0  0.19158045053E+03  0.10633682007E+04 -0.18182290257E+04  0.21150445390E+04  0.12699999809E+01 0. -1.
       -4    1    3    3    0  502 -0.19158045053E+03 -0.10633682007E+04  0.12384780781E+04  0.16435585058E+04  0.12699999809E+01 0.  1.
</event>
<event>
 5   0  0.1496000E-07  0.3682127E+04  0.7818609E-02  0.8071934E-01
        1   -1    0    0  501    0  0.00000000000E+00  0.00000000000E+00  0.31684657127E+04  0.31684657127E+04  0.50400001928E-02 0. -1.
       -1   -1    0    0    0  501  0.00000000000E+00  0.00000000000E+00 -0.10697654512E+04  0.10697654512E+04  0.50400001928E-02 0.  1.
    10030    2    1    2    0    0  0.00000000000E+00  0.00000000000E+00  0.20987002616E+04  0.42382311639E+04  0.36821271856E+04 0.  0.
        5    1    3    3  502    0  0.47665085401E+03 -0.91335762368E+03  0.28055920022E+04  0.29887767996E+04  0.46999998093E+01 0. -1.
       -5    1    3    3    0  502 -0.47665085401E+03  0.91335762368E+03 -0.70689174062E+03  0.12494543642E+04  0.46999998093E+01 0.  1.
</event>
<event>
 5   0  0.1496287E-07  0.3723706E+04  0.7818609E-02  0.8062729E-01
       -1   -1    0    0    0  501  0.00000000000E+00  0.00000000000E+00  0.15525873068E+04  0.15525873068E+04  0.50400001928E-02 0. -1.
        1   -1    0    0  501    0  0.00000000000E+00  0.00000000000E+00 -0.22327223446E+04  0.22327223446E+04  0.50400001928E-02 0.  1.
    10030    2    1    2    0    0  0.00000000000E+00  0.00000000000E+00 -0.68013503778E+03  0.37853096514E+04  0.37237058809E+04 0.  0.
        1    1    3    3  502    0 -0.87136336200E+03 -0.13436575942E+04  0.62527787779E+03  0.17192039622E+04  0.50400001928E-02 0.  1.
       -1    1    3    3    0  502  0.87136336200E+03  0.13436575942E+04 -0.13054129156E+04  0.20661056893E+04  0.50400001928E-02 0. -1.
</event>
<event>
 5   0  0.1496000E-07  0.3026955E+04  0.7818609E-02  0.8236075E-01
        1   -1    0    0  501    0  0.00000000000E+00  0.00000000000E+00  0.16538131333E+04  0.16538131333E+04  0.50400001928E-02 0. -1.
       -1   -1    0    0    0  501  0.00000000000E+00  0.00000000000E+00 -0.13850503109E+04  0.13850503109E+04  0.50400001928E-02 0.  1.
    10030    2    1    2    0    0  0.00000000000E+00  0.00000000000E+00  0.26876282240E+03  0.30388634443E+04  0.30269551662E+04 0.  0.
        2    1    3    3  502    0  0.59851847160E+03 -0.25016175907E+02  0.15297285168E+04  0.16428388555E+04  0.25500000920E-02 0. -1.
       -2    1    3    3    0  502 -0.59851847160E+03  0.25016175907E+02 -0.12609656944E+04  0.13960245888E+04  0.25500000920E-02 0.  1.
</event>
<event>
 5   0  0.4793557E-07  0.3708494E+04  0.7818609E-02  0.8066082E-01
       -2   -1    0    0    0  501  0.00000000000E+00  0.00000000000E+00  0.13508049879E+04  0.13508049879E+04  0.25500000920E-02 0. -1.
        2   -1    0    0  501    0  0.00000000000E+00  0.00000000000E+00 -0.25453205642E+04  0.25453205642E+04  0.25500000920E-02 0.  1.
    10030    2    1    2    0    0  0.00000000000E+00  0.00000000000E+00 -0.11945155763E+04  0.38961255521E+04  0.37084938797E+04 0.  0.
        3    1    3    3  502    0 -0.40680475694E+03  0.79890372861E+03 -0.23024919280E+04  0.24708715804E+04  0.10100000352E+00 0.  1.
       -3    1    3    3    0  502  0.40680475694E+03 -0.79890372861E+03  0.11079763517E+04  0.14252539718E+04  0.10100000352E+00 0. -1.
</event>
<event>
 5   0  0.4687817E-07  0.3654652E+04  0.7818609E-02  0.8078087E-01
       -2   -1    0    0    0  501  0.00000000000E+00  0.00000000000E+00  0.16701375373E+04  0.16701375373E+04  0.25500000920E-02 0. -1.
        2   -1    0    0  501    0  0.00000000000E+00  0.00000000000E+00 -0.19993080945E+04  0.19993080945E+04  0.25500000920E-02 0.  1.
    10030    2    1    2    0    0  0.00000000000E+00  0.00000000000E+00 -0.32917055718E+03  0.36694456319E+04  0.36546515551E+04 0.  0.
        4    1    3    3  502    0  0.93473461616E+03  0.13305775216E+04  0.67242743470E+03  0.17596379206E+04  0.12699999809E+01 0. -1.
       -4    1    3    3    0  502 -0.93473461616E+03 -0.13305775216E+04 -0.10015979919E+04  0.19098077113E+04  0.12699999809E+01 0.  1.
</event>
<event>
 5   0  0.4824268E-07  0.3694856E+04  0.7818609E-02  0.8069103E-01
       -2   -1    0    0    0  501  0.00000000000E+00  0.00000000000E+00  0.12176925338E+04  0.12176925338E+04  0.25500000920E-02 0. -1.
        2   -1    0    0  501    0  0.00000000000E+00  0.00000000000E+00 -0.28028334848E+04  0.28028334848E+04  0.25500000920E-02 0.  1.
    10030    2    1    2    0    0  0.00000000000E+00  0.00000000000E+00 -0.15851409510E+04  0.40205260186E+04  0.36948555630E+04 0.  0.
        1    1    3    3  502    0 -0.15192137058E+04  0.14056461353E+03 -0.19261303079E+04  0.24571826666E+04  0.50400001928E-02 0. -1.
       -1    1    3    3    0  502  0.15192137058E+04 -0.14056461353E+03  0.34098935689E+03  0.15633433519E+04  0.50400001928E-02 0.  1.
</event>
<event>
 5   0  0.4793557E-07  0.3663884E+04  0.7818609E-02  0.8076013E-01
        2   -1    0    0  501    0  0.00000000000E+00  0.00000000000E+00  0.14952549320E+04  0.14952549320E+04  0.25500000920E-02 0.  1.
       -2   -1    0    0    0  501  0.00000000000E+00  0.00000000000E+00 -0.22444411673E+04  0.22444411673E+04  0.25500000920E-02 0. -1.
    10030    2    1    2    0    0  0.00000000000E+00  0.00000000000E+00 -0.74918623530E+03  0.37396960992E+04  0.36638841275E+04 0.  0.
        3    1    3    3  502    0 -0.14798831543E+04 -0.14943656797E+03 -0.14661255484E+04  0.20885185113E+04  0.10100000352E+00 0. -1.
       -3    1    3    3    0  502  0.14798831543E+04  0.14943656797E+03  0.71693931307E+03  0.16511775880E+04  0.10100000352E+00 0.  1.
</event>
<event>
 5   0  0.1496000E-07  0.3669139E+04  0.7818609E-02  0.8074836E-01
       -1   -1    0    0    0  501  0.00000000000E+00  0.00000000000E+00  0.20034484502E+04  0.20034484502E+04  0.50400001928E-02 0.  1.
        1   -1    0    0  501    0  0.00000000000E+00  0.00000000000E+00 -0.16799256613E+04  0.16799256613E+04  0.50400001928E-02 0. -1.
    10030    2    1    2    0    0  0.00000000000E+00  0.00000000000E+00  0.32352278885E+03  0.36833741115E+04  0.36691385706E+04 0.  0.
        5    1    3    3  502    0  0.12154666056E+04  0.13350305489E+04 -0.16501148461E+03  0.18129855256E+04  0.46999998093E+01 0. -1.
       -5    1    3    3    0  502 -0.12154666056E+04 -0.13350305489E+04  0.48853427346E+03  0.18703885859E+04  0.46999998093E+01 0.  1.
</event>
<event>
 5   0  0.1522273E-07  0.3716397E+04  0.7818609E-02  0.8064338E-01
        1   -1    0    0  501    0  0.00000000000E+00  0.00000000000E+00  0.12890646219E+04  0.12890646219E+04  0.50400001928E-02 0. -1.
       -1   -1    0    0    0  501  0.00000000000E+00  0.00000000000E+00 -0.26786099312E+04  0.26786099312E+04  0.50400001928E-02 0.  1.
    10030    2    1    2    0    0  0.00000000000E+00  0.00000000000E+00 -0.13895453094E+04  0.39676745531E+04  0.37163968023E+04 0.  0.
        4    1    3    3  502    0  0.16160006467E+04 -0.64388600672E+03 -0.13922864974E+04  0.22281181709E+04  0.12699999809E+01 0.  1.
       -4    1    3    3    0  502 -0.16160006467E+04  0.64388600672E+03  0.27411880375E+01  0.17395563822E+04  0.12699999809E+01 0. -1.
</event>
<event>
 5   0  0.1496000E-07  0.3510692E+04  0.7818609E-02  0.8111261E-01
        1   -1    0    0  501    0  0.00000000000E+00  0.00000000000E+00  0.13940217155E+04  0.13940217155E+04  0.50400001928E-02 0.  1.
       -1   -1    0    0    0  501  0.00000000000E+00  0.00000000000E+00 -0.22103238237E+04  0.22103238237E+04  0.50400001928E-02 0. -1.
    10030    2    1    2    0    0  0.00000000000E+00  0.00000000000E+00 -0.81630210818E+03  0.36043455393E+04  0.35106919025E+04 0.  0.
        5    1    3    3  502    0 -0.15979456866E+04  0.64690487960E+03 -0.68724570050E+02  0.17253004078E+04  0.46999998093E+01 0.  1.
       -5    1    3    3    0  502  0.15979456866E+04 -0.64690487960E+03 -0.74757753813E+03  0.18790451315E+04  0.46999998093E+01 0. -1.
</event>
<event>
 5   0  0.1496000E-07  0.3663327E+04  0.7818609E-02  0.8076138E-01
       -1   -1    0    0    0  501  0.00000000000E+00  0.00000000000E+00  0.14672376881E+04  0.14672376881E+04  0.50400001928E-02 0. -1.
        1   -1    0    0  501    0  0.00000000000E+00  0.00000000000E+00 -0.22866039037E+04  0.22866039038E+04  0.50400001928E-02 0.  1.
    10030    2    1    2    0    0  0.00000000000E+00  0.00000000000E+00 -0.81936621566E+03  0.37538415919E+04  0.36633271355E+04 0.  0.
        3    1    3    3  502    0  0.98411738035E+03  0.15103270215E+04 -0.76981487161E+02  0.18043006650E+04  0.10100000352E+00 0.  1.
       -3    1    3    3    0  502 -0.98411738035E+03 -0.15103270215E+04 -0.74238472849E+03  0.19495409269E+04  0.10100000352E+00 0. -1.
</event>
<event>
 5   0  0.4687817E-07  0.3715616E+04  0.7818609E-02  0.8064510E-01
        2   -1    0    0  501    0  0.00000000000E+00  0.00000000000E+00  0.15195462725E+04  0.15195462725E+04  0.25500000920E-02 0.  1.
       -2   -1    0    0    0  501  0.00000000000E+00  0.00000000000E+00 -0.22713688703E+04  0.22713688703E+04  0.25500000920E-02 0. -1.
    10030    2    1    2    0    0  0.00000000000E+00  0.00000000000E+00 -0.75182259777E+03  0.37909151429E+04  0.37156157500E+04 0.  0.
        4    1    3    3  502    0  0.16162481258E+04 -0.88830324256E+03 -0.60429551048E+03  0.19407512287E+04  0.12699999809E+01 0. -1.
       -4    1    3    3    0  502 -0.16162481258E+04  0.88830324256E+03 -0.14752708729E+03  0.18501639142E+04  0.12699999809E+01 0.  1.
</event>
<event>
 5   0  0.4824268E-07  0.3636549E+04  0.7818609E-02  0.8082171E-01
       -2   -1    0    0    0  501  0.00000000000E+00  0.00000000000E+00  0.15329435821E+04  0.15329435821E+04  0.25500000920E-02 0. -1.
        2   -1    0    0  501    0  0.00000000000E+00  0.00000000000E+00 -0.21567151072E+04  0.21567151072E+04  0.25500000920E-02 0.  1.
    10030    2    1    2    0    0  0.00000000000E+00  0.00000000000E+00 -0.62377152503E+03  0.36896586893E+04  0.36365492335E+04 0.  0.
        1    1    3    3  502    0 -0.33623824138E+03  0.11477403047E+04  0.10776994938E+04  0.16099068796E+04  0.50400001928E-02 0. -1.
       -1    1    3    3    0  502  0.33623824138E+03 -0.11477403047E+04 -0.17014710188E+04  0.20797518097E+04  0.50400001928E-02 0.  1.
</event>
<event>
 5   0  0.4758908E-07  0.3791353E+04  0.7818609E-02  0.8048013E-01
       -2   -1    0    0    0  501  0.00000000000E+00  0.00000000000E+00  0.12703042203E+04  0.12703042203E+04  0.25500000920E-02 0. -1.
        2   -1    0    0  501    0  0.00000000000E+00  0.00000000000E+00 -0.28289197921E+04  0.28289197921E+04  0.25500000920E-02 0.  1.
    10030    2    1    2    0    0  0.00000000000E+00  0.00000000000E+00 -0.15586155717E+04  0.40992240124E+04  0.37913526614E+04 0.  0.
        2    1    3    3  502    0  0.46687460914E+03 -0.75207093625E+03 -0.25917372118E+04  0.27387377328E+04  0.25500000920E-02 0.  1.
       -2    1    3    3    0  502 -0.46687460914E+03  0.75207093625E+03  0.10331216401E+04  0.13604862796E+04  0.25500000920E-02 0. -1.
</event>
<event>
 5   0  0.1496000E-07  0.3713989E+04  0.7818609E-02  0.8064869E-01
        1   -1    0    0  501    0  0.00000000000E+00  0.00000000000E+00  0.37879885802E+04  0.37879885802E+04  0.50400001928E-02 0.  1.
       -1   -1    0    0    0  501  0.00000000000E+00  0.00000000000E+00 -0.91035885349E+03  0.91035885350E+03  0.50400001928E-02 0. -1.
    10030    2    1    2    0    0  0.00000000000E+00  0.00000000000E+00  0.28776297268E+04  0.46983474337E+04  0.37139891981E+04 0.  0.
        3    1    3    3  502    0  0.35108266154E+03 -0.66861584091E+03  0.35849602988E+04  0.36636384281E+04  0.10100000352E+00 0.  1.
       -3    1    3    3    0  502 -0.35108266154E+03  0.66861584091E+03 -0.70733057204E+03  0.10347090056E+04  0.10100000352E+00 0. -1.
</event>
<event>
 5   0  0.4793557E-07  0.3704538E+04  0.7818609E-02  0.8066957E-01
        2   -1    0    0  501    0  0.00000000000E+00  0.00000000000E+00  0.12278550772E+04  0.12278550772E+04  0.25500000920E-02 0. -1.
       -2   -1    0    0    0  501  0.00000000000E+00  0.00000000000E+00 -0.27942231413E+04  0.27942231413E+04  0.25500000920E-02 0.  1.
    10030    2    1    2    0    0  0.00000000000E+00  0.00000000000E+00 -0.15663680641E+04  0.40220782185E+04  0.37045383361E+04 0.  0.
        3    1    3    3  502    0 -0.11227305600E+04  0.14713265228E+04 -0.70211500386E+03  0.19794673869E+04  0.10100000352E+00 0.  1.
       -3    1    3    3    0  502  0.11227305600E+04 -0.14713265228E+04 -0.86425306021E+03  0.20426108316E+04  0.10100000352E+00 0. -1.
</event>
<event>
 5   0  0.4857514E-07  0.3673502E+04  0.7818609E-02  0.8073859E-01
        2   -1    0    0  501    0  0.00000000000E+00  0.00000000000E+00  0.16264022940E+04  0.16264022940E+04  0.25500000920E-02 0. -1.
       -2   -1    0    0    0  501  0.00000000000E+00  0.00000000000E+00 -0.20743054342E+04  0.20743054342E+04  0.25500000920E-02 0.  1.
    10030    2    1    2    0    0  0.00000000000E+00  0.00000000000E+00 -0.44790314025E+03  0.37007077282E+04  0.36735024794E+04 0.  0.
        5    1    3    3  502    0  0.29871214038E+03 -0.73143069224E+03  0.14464637272E+04  0.16481805740E+04  0.46999998093E+01 0. -1.
       -5    1    3    3    0  502 -0.29871214038E+03  0.73143069224E+03 -0.18943668674E+04  0.20525271542E+04  0.46999998093E+01 0.  1.
</event>
<event>
 5   0  0.4824268E-07  0.3725804E+04  0.7818609E-02  0.8062267E-01
       -2   -1    0    0    0  501  0.00000000000E+00  0.00000000000E+00  0.11587570371E+04  0.11587570371E+04  0.25500000920E-02 0. -1.
        2   -1    0    0  501    0  0.00000000000E+00  0.00000000000E+00 -0.29949363305E+04  0.29949363305E+04  0.25500000920E-02 0.  1.
    10030    2    1    2    0    0  0.00000000000E+00  0.00000000000E+00 -0.18361792934E+04  0.41536933676E+04  0.37258038320E+04 0.  0.
        1    1    3    3  502    0  0.15795891817E+03 -0.16458575108E+04 -0.18749134065E+04  0.24998196430E+04  0.50400001928E-02 0.  1.
       -1    1    3    3    0  502 -0.15795891817E+03  0.16458575108E+04  0.38734113085E+02  0.16538737247E+04  0.50400001928E-02 0. -1.
</event>
<event>
 5   0  0.1496000E-07  0.3651343E+04  0.7818609E-02  0.8078831E-01
        1   -1    0    0  501    0  0.00000000000E+00  0.00000000000E+00  0.15785244888E+04  0.15785244888E+04  0.50400001928E-02 0. -1.
       -1   -1    0    0    0  501  0.00000000000E+00  0.00000000000E+00 -0.21115134667E+04  0.21115134667E+04  0.50400001928E-02 0.  1.
    10030    2    1    2    0    0  0.00000000000E+00  0.00000000000E+00 -0.53298897799E+03  0.36900379555E+04  0.36513426109E+04 0.  0.
        3    1    3    3  502    0  0.59925294537E+02 -0.45846794219E+03  0.15183741155E+04  0.15872126070E+04  0.10100000352E+00 0. -1.
       -3    1    3    3    0  502 -0.59925294537E+02  0.45846794219E+03 -0.20513630935E+04  0.21028253485E+04  0.10100000352E+00 0.  1.
</event>
<event>
 5   0  0.1522273E-07  0.3710724E+04  0.7818609E-02  0.8065589E-01
        1   -1    0    0  501    0  0.00000000000E+00  0.00000000000E+00  0.21218447666E+04  0.21218447666E+04  0.50400001928E-02 0. -1.
       -1   -1    0    0    0  501  0.00000000000E+00  0.00000000000E+00 -0.16223466929E+04  0.16223466929E+04  0.50400001928E-02 0.  1.
    10030    2    1    2    0    0  0.00000000000E+00  0.00000000000E+00  0.49949807366E+03  0.37441914595E+04  0.37107238323E+04 0.  0.
        4    1    3    3  502    0 -0.97637510791E+03  0.18536310667E+03 -0.13311294303E+04  0.16611968594E+04  0.12699999809E+01 0.  1.
       -4    1    3    3    0  502  0.97637510791E+03 -0.18536310667E+03  0.18306275040E+04  0.20829946001E+04  0.12699999809E+01 0. -1.
</event>
<event>
 5   0  0.1496000E-07  0.3679539E+04  0.7818609E-02  0.8072511E-01
        1   -1    0    0  501    0  0.00000000000E+00  0.00000000000E+00  0.19803028311E+04  0.19803028311E+04  0.50400001928E-02 0.  1.
       -1   -1    0    0    0  501  0.00000000000E+00  0.00000000000E+00 -0.17092095557E+04  0.17092095557E+04  0.50400001928E-02 0. -1.
    10030    2    1    2    0    0  0.00000000000E+00  0.00000000000E+00  0.27109327548E+03  0.36895123868E+04  0.36795393854E+04 0.  0.
        5    1    3    3  502    0 -0.37122308132E+03 -0.10352649705E+04  0.16143831076E+04  0.19534162494E+04  0.46999998093E+01 0. -1.
       -5    1    3    3    0  502  0.37122308132E+03  0.10352649705E+04 -0.13432898322E+04  0.17360961374E+04  0.46999998093E+01 0.  1.
</event>
<event>
 5   0  0.4687817E-07  0.3690034E+04  0.7818609E-02  0.8070174E-01
       -2   -1    0    0    0  501  0.00000000000E+00  0.00000000000E+00  0.14016367466E+04  0.14016367466E+04  0.25500000920E-02 0. -1.
        2   -1    0    0  501    0  0.00000000000E+00  0.00000000000E+00 -0.24286518372E+04  0.24286518372E+04  0.25500000920E-02 0.  1.
    10030    2    1    2    0    0  0.00000000000E+00  0.00000000000E+00 -0.10270150906E+04  0.38302885838E+04  0.36900339618E+04 0.  0.
        4    1    3    3  502    0 -0.33011073013E+03  0.68678324287E+03  0.12306694232E+04  0.14474782067E+04  0.12699999809E+01 0. -1.
       -4    1    3    3    0  502  0.33011073013E+03 -0.68678324287E+03 -0.22576845138E+04  0.23828103772E+04  0.12699999809E+01 0.  1.
</event>
<event>
 5   0  0.4857514E-07  0.3686610E+04  0.7818609E-02  0.8070936E-01
       -2   -1    0    0    0  501  0.00000000000E+00  0.00000000000E+00  0.15507273299E+04  0.15507273299E+04  0.25500000920E-02 0. -1.
        2   -1    0    0  501    0  0.00000000000E+00  0.00000000000E+00 -0.21910837324E+04  0.21910837324E+04  0.25500000920E-02 0.  1.
    10030    2    1    2    0    0  0.00000000000E+00  0.00000000000E+00 -0.64035640249E+03  0.37418110624E+04  0.36866100559E+04 0.  0.
        5    1    3    3  502    0 -0.95186503350E+03  0.15629145767E+04 -0.95498947574E+02  0.18324549531E+04  0.46999998093E+01 0.  1.
       -5    1    3    3    0  502  0.95186503350E+03 -0.15629145767E+04 -0.54485745491E+03  0.19093561093E+04  0.46999998093E+01 0. -1.
</event>
<event>
 5   0  0.4758908E-07  0.3012776E+04  0.7818609E-02  0.8240092E-01
       -2   -1    0    0    0  501  0.00000000000E+00  0.00000000000E+00  0.14481650457E+04  0.14481650457E+04  0.25500000920E-02 0.  1.
        2   -1    0    0  501    0  0.00000000000E+00  0.00000000000E+00 -0.15669519805E+04  0.15669519805E+04  0.25500000920E-02 0. -1.
    10030    2    1    2    0    0  0.00000000000E+00  0.00000000000E+00 -0.11878693480E+03  0.30151170262E+04  0.30127761858E+04 0.  0.
        2    1    3    3  502    0  0.21940887643E+02  0.17046232072E+03 -0.15571077077E+04  0.15665641445E+04  0.25500000920E-02 0. -1.
       -2    1    3    3    0  502 -0.21940887643E+02 -0.17046232072E+03  0.14383207729E+04  0.14485528817E+04  0.25500000920E-02 0.  1.
</event>
<event>
 5   0  0.4793557E-07  0.3672539E+04  0.7818609E-02  0.8074075E-01
       -2   -1    0    0    0  501  0.00000000000E+00  0.00000000000E+00  0.12958269169E+04  0.12958269169E+04  0.25500000920E-02 0. -1.
        2   -1    0    0  501    0  0.00000000000E+00  0.00000000000E+00 -0.26021112251E+04  0.26021112251E+04  0.25500000920E-02 0.  1.
    10030    2    1    2    0    0  0.00000000000E+00  0.00000000000E+00 -0.13062843082E+04  0.38979381421E+04  0.36725390489E+04 0.  0.
        3    1    3    3  502    0 -0.13397123866E+04 -0.11858167826E+04 -0.10919084341E+04  0.20960092460E+04  0.10100000352E+00 0.  1.
       -3    1    3    3    0  502  0.13397123866E+04  0.11858167826E+04 -0.21437587407E+03  0.18019288960E+04  0.10100000352E+00 0. -1.
</event>
<event>
 5   0  0.4758908E-07  0.3703066E+04  0.7818609E-02  0.8067283E-01
       -2   -1    0    0    0  501  0.00000000000E+00  0.00000000000E+00  0.15110947400E+04  0.15110947400E+04  0.25500000920E-02 0. -1.
        2   -1    0    0  501    0  0.00000000000E+00  0.00000000000E+00 -0.22686694170E+04  0.22686694170E+04  0.25500000920E-02 0.  1.
    10030    2    1    2    0    0  0.00000000000E+00  0.00000000000E+00 -0.75757467693E+03  0.37797641570E+04  0.37030659853E+04 0.  0.
        2    1    3    3  502    0 -0.60915788930E+03 -0.72195259444E+03  0.12466419281E+04  0.15640987755E+04  0.25500000920E-02 0. -1.
       -2    1    3    3    0  502  0.60915788930E+03  0.72195259444E+03 -0.20042166050E+04  0.22156653815E+04  0.25500000920E-02 0.  1.
</event>
<event>
 5   0  0.4793557E-07  0.3591071E+04  0.7818609E-02  0.8092540E-01
        2   -1    0    0  501    0  0.00000000000E+00  0.00000000000E+00  0.20751307809E+04  0.20751307809E+04  0.25500000920E-02 0.  1.
       -2   -1    0    0    0  501  0.00000000000E+00  0.00000000000E+00 -0.15536115889E+04  0.15536115889E+04  0.25500000920E-02 0. -1.
    10030    2    1    2    0    0  0.00000000000E+00  0.00000000000E+00  0.52151919204E+03  0.36287423698E+04  0.35910707204E+04 0.  0.
        3    1    3    3  502    0 -0.12158541510E+04  0.55094917378E+03 -0.95271308447E+03  0.16399721157E+04  0.10100000352E+00 0.  1.
       -3    1    3    3    0  502  0.12158541510E+04 -0.55094917378E+03  0.14742322765E+04  0.19887702542E+04  0.10100000352E+00 0. -1.
</event>
<event>
 5   0  0.4793557E-07  0.3712127E+04  0.7818609E-02  0.8065280E-01
       -2   -1    0    0    0  501  0.00000000000E+00  0.00000000000E+00  0.18650975261E+04  0.18650975261E+04  0.25500000920E-02 0.  1.
        2   -1    0    0  501    0  0.00000000000E+00  0.00000000000E+00 -0.18470729749E+04  0.18470729749E+04  0.25500000920E-02 0. -1.
    10030    2    1    2    0    0  0.00000000000E+00  0.00000000000E+00  0.18024551237E+02  0.37121705010E+04  0.37121267414E+04 0.  0.
        3    1    3    3  502    0  0.10058088833E+04 -0.14010333948E+04  0.69489581811E+03  0.18594155779E+04  0.10100000352E+00 0.  1.
       -3    1    3    3    0  502 -0.10058088833E+04  0.14010333948E+04 -0.67687126688E+03  0.18527549231E+04  0.10100000352E+00 0. -1.
</event>
<event>
 5   0  0.4687817E-07  0.3656370E+04  0.7818609E-02  0.8077700E-01
       -2   -1    0    0    0  501  0.00000000000E+00  0.00000000000E+00  0.18020791214E+04  0.18020791214E+04  0.25500000920E-02 0.  1.
        2   -1    0    0  501    0  0.00000000000E+00  0.00000000000E+00 -0.18546687393E+04  0.18546687393E+04  0.25500000920E-02 0. -1.
    10030    2    1    2    0    0  0.00000000000E+00  0.00000000000E+00 -0.52589617904E+02  0.36567478607E+04  0.36563696816E+04 0.  0.
        4    1    3    3  502    0 -0.33749356863E+03  0.44827408157E+03 -0.17664192071E+04  0.18533995763E+04  0.12699999809E+01 0. -1.
       -4    1    3    3    0  502  0.33749356863E+03 -0.44827408157E+03  0.17138295892E+04  0.18033482844E+04  0.12699999809E+01 0.  1.
</event>
<event>
 5   0  0.1496000E-07  0.3710909E+04  0.7818609E-02  0.8065548E-01
       -1   -1    0    0    0  501  0.00000000000E+00  0.00000000000E+00  0.15497368167E+04  0.15497368167E+04  0.50400001928E-02 0.  1.
        1   -1    0    0  501    0  0.00000000000E+00  0.00000000000E+00 -0.22214818985E+04  0.22214818985E+04  0.50400001928E-02 0. -1.
    10030    2    1    2    0    0  0.00000000000E+00  0.00000000000E+00 -0.67174508180E+03  0.37712187152E+04  0.37109094765E+04 0.  0.
        5    1    3    3  502    0  0.26272259750E+03 -0.14460894753E+04 -0.14867490796E+04  0.20906082487E+04  0.46999998093E+01 0. -1.
       -5    1    3    3    0  502 -0.26272259750E+03  0.14460894753E+04  0.81500399780E+03  0.16806104665E+04  0.46999998093E+01 0.  1.
</event>
<event>
 5   0  0.1496000E-07  0.3738582E+04  0.7818609E-02  0.8059465E-01
       -1   -1    0    0    0  501  0.00000000000E+00  0.00000000000E+00  0.20996044067E+04  0.20996044067E+04  0.50400001928E-02 0. -1.
        1   -1    0    0  501    0  0.00000000000E+00  0.00000000000E+00 -0.16642414636E+04  0.16642414636E+04  0.50400001928E-02 0.  1.
    10030    2    1    2    0    0  0.00000000000E+00  0.00000000000E+00  0.43536294310E+03  0.37638458703E+04  0.37385819294E+04 0.  0.
        2    1    3    3  502    0 -0.89919145511E+03 -0.14551033057E+04  0.97668445757E+03  0.19697165870E+04  0.25500000920E-02 0. -1.
       -2    1    3    3    0  502  0.89919145511E+03  0.14551033057E+04 -0.54132151447E+03  0.17941292833E+04  0.25500000920E-02 0.  1.
</event>
<event>
 5   0  0.1496000E-07  0.3046821E+04  0.7818609E-02  0.8230486E-01
        1   -1    0    0  501    0  0.00000000000E+00  0.00000000000E+00  0.91073211409E+03  0.91073211410E+03  0.50400001928E-02 0. -1.
       -1   -1    0    0    0  501  0.00000000000E+00  0.00000000000E+00 -0.25482568709E+04  0.25482568709E+04  0.50400001928E-02 0.  1.
    10030    2    1    2    0    0  0.00000000000E+00  0.00000000000E+00 -0.16375247568E+04  0.34589889850E+04  0.30468208791E+04 0.  0.
        2    1    3    3  502    0  0.13377802573E+04  0.33843881357E+03 -0.86017524093E+02  0.13826047381E+04  0.25500000920E-02 0. -1.
       -2    1    3    3    0  502 -0.13377802573E+04 -0.33843881357E+03 -0.15515072327E+04  0.20763842469E+04  0.25500000920E-02 0.  1.
</event>
<event>
 5   0  0.1496000E-07  0.3377409E+04  0.7818609E-02  0.8143473E-01
        1   -1    0    0  501    0  0.00000000000E+00  0.00000000000E+00  0.22970245583E+04  0.22970245583E+04  0.50400001928E-02 0. -1.
       -1   -1    0    0    0  501  0.00000000000E+00  0.00000000000E+00 -0.12414855115E+04  0.12414855116E+04  0.50400001928E-02 0.  1.
    10030    2    1    2    0    0  0.00000000000E+00  0.00000000000E+00  0.10555390467E+04  0.35385100698E+04  0.33774088937E+04 0.  0.
        3    1    3    3  502    0  0.84727221766E+03  0.12535228085E+04  0.13135673391E+04  0.20036588549E+04  0.10100000352E+00 0. -1.
       -3    1    3    3    0  502 -0.84727221766E+03 -0.12535228085E+04 -0.25802829239E+03  0.15348512150E+04  0.10100000352E+00 0.  1.
</event>
<event>
 5   0  0.4824268E-07  0.3691206E+04  0.7818609E-02  0.8069914E-01
        2   -1    0    0  501    0  0.00000000000E+00  0.00000000000E+00  0.20647566783E+04  0.20647566783E+04  0.25500000920E-02 0.  1.
       -2   -1    0    0    0  501  0.00000000000E+00  0.00000000000E+00 -0.16497101980E+04  0.16497101980E+04  0.25500000920E-02 0. -1.
    10030    2    1    2    0    0  0.00000000000E+00  0.00000000000E+00  0.41504648028E+03  0.37144668764E+04  0.36912058456E+04 0.  0.
        1    1    3    3  502    0 -0.12380465238E+04 -0.15694169925E+03  0.15758199050E+04  0.20101239427E+04  0.50400001928E-02 0.  1.
       -1    1    3    3    0  502  0.12380465238E+04  0.15694169925E+03 -0.11607734247E+04  0.17043429337E+04  0.50400001928E-02 0. -1.
</event>
<event>
 5   0  0.1496000E-07  0.3674724E+04  0.7818609E-02  0.8073587E-01
       -1   -1    0    0    0  501  0.00000000000E+00  0.00000000000E+00  0.17049245606E+04  0.17049245606E+04  0.50400001928E-02 0. -1.
        1   -1    0    0  501    0  0.00000000000E+00  0.00000000000E+00 -0.19800869771E+04  0.19800869771E+04  0.50400001928E-02 0.  1.
    10030    2    1    2    0    0  0.00000000000E+00  0.00000000000E+00 -0.27516241656E+03  0.36850115377E+04  0.36747238913E+04 0.  0.
        3    1    3    3  502    0 -0.63891605362E+03 -0.30337474319E+03  0.15629400793E+04  0.17155266422E+04  0.10100000352E+00 0. -1.
       -3    1    3    3    0  502  0.63891605362E+03  0.30337474319E+03 -0.18381024958E+04  0.19694848955E+04  0.10100000352E+00 0.  1.
</event>
<event>
 5   0  0.4793557E-07  0.4050634E+04  0.7818609E-02  0.7994409E-01
       -2   -1    0    0    0  501  0.00000000000E+00  0.00000000000E+00  0.13396098137E+04  0.13396098137E+04  0.25500000920E-02 0. -1.
        2   -1    0    0  501    0  0.00000000000E+00  0.00000000000E+00 -0.30620179419E+04  0.30620179419E+04  0.25500000920E-02 0.  1.
    10030    2    1    2    0    0  0.00000000000E+00  0.00000000000E+00 -0.17224081283E+04  0.44016277556E+04  0.40506341650E+04 0.  0.
        3    1    3    3  502    0 -0.75410038545E+03  0.14714950012E+04 -0.21321424720E+04  0.26981468568E+04  0.10100000352E+00 0.  1.
       -3    1    3    3    0  502  0.75410038545E+03 -0.14714950012E+04  0.40973434373E+03  0.17034808988E+04  0.10100000352E+00 0. -1.
</event>
<event>
 5   0  0.1496287E-07  0.3673993E+04  0.7818609E-02  0.8073750E-01
        1   -1    0    0  501    0  0.00000000000E+00  0.00000000000E+00  0.18556854927E+04  0.18556854927E+04  0.50400001928E-02 0.  1.
       -1   -1    0    0    0  501  0.00000000000E+00  0.00000000000E+00 -0.18184955652E+04  0.18184955652E+04  0.50400001928E-02 0. -1.
    10030    2    1    2    0    0  0.00000000000E+00  0.00000000000E+00  0.37189927465E+02  0.36741810579E+04  0.36739928356E+04 0.  0.
        1    1    3    3  502    0 -0.10677470189E+03 -0.59880592298E+02 -0.18144117339E+04  0.18185369016E+04  0.50400001928E-02 0. -1.
       -1    1    3    3    0  502  0.10677470189E+03  0.59880592298E+02  0.18516016614E+04  0.18556441563E+04  0.50400001928E-02 0.  1.
</event>
<event>
 5   0  0.4687817E-07  0.3718913E+04  0.7818609E-02  0.8063783E-01
        2   -1    0    0  501    0  0.00000000000E+00  0.00000000000E+00  0.16552484058E+04  0.16552484058E+04  0.25500000920E-02 0. -1.
       -2   -1    0    0    0  501  0.00000000000E+00  0.00000000000E+00 -0.20888577799E+04  0.20888577799E+04  0.25500000920E-02 0.  1.
    10030    2    1    2    0    0  0.00000000000E+00  0.00000000000E+00 -0.43360937413E+03  0.37441061857E+04  0.37189130187E+04 0.  0.
        4    1    3    3  502    0 -0.14019324463E+04  0.10463290157E+04 -0.85143829121E+03  0.19455507626E+04  0.12699999809E+01 0.  1.
       -4    1    3    3    0  502  0.14019324463E+04 -0.10463290157E+04  0.41782891708E+03  0.17985554231E+04  0.12699999809E+01 0. -1.
</event>
<event>
 5   0  0.4687817E-07  0.3663444E+04  0.7818609E-02  0.8076112E-01
       -2   -1    0    0    0  501  0.00000000000E+00  0.00000000000E+00  0.15782835381E+04  0.15782835381E+04  0.25500000920E-02 0.  1.
        2   -1    0    0  501    0  0.00000000000E+00  0.00000000000E+00 -0.21258574598E+04  0.21258574598E+04  0.25500000920E-02 0. -1.
    10030    2    1    2    0    0  0.00000000000E+00  0.00000000000E+00 -0.54757392171E+03  0.37041409979E+04  0.36634441899E+04 0.  0.
        4    1    3    3  502    0 -0.12988911691E+04 -0.99140976033E+03  0.56317221323E+03  0.17283449125E+04  0.12699999809E+01 0.  1.
       -4    1    3    3    0  502  0.12988911691E+04  0.99140976033E+03 -0.11107461349E+04  0.19757960854E+04  0.12699999809E+01 0. -1.
</event>
<event>
 5   0  0.1496000E-07  0.3760928E+04  0.7818609E-02  0.8054592E-01
       -1   -1    0    0    0  501  0.00000000000E+00  0.00000000000E+00  0.28343314332E+04  0.28343314332E+04  0.50400001928E-02 0.  1.
        1   -1    0    0  501    0  0.00000000000E+00  0.00000000000E+00 -0.12476116878E+04  0.12476116878E+04  0.50400001928E-02 0. -1.
    10030    2    1    2    0    0  0.00000000000E+00  0.00000000000E+00  0.15867197454E+04  0.40819431210E+04  0.37609280893E+04 0.  0.
        5    1    3    3  502    0  0.37233264726E+03  0.18077022722E+04  0.40247549257E+03  0.18890282468E+04  0.46999998093E+01 0. -1.
       -5    1    3    3    0  502 -0.37233264726E+03 -0.18077022722E+04  0.11842442528E+04  0.21929148742E+04  0.46999998093E+01 0.  1.
</event>
<event>
 5   0  0.1496000E-07  0.3686979E+04  0.7818609E-02  0.8070854E-01
       -1   -1    0    0    0  501  0.00000000000E+00  0.00000000000E+00  0.19728326622E+04  0.19728326622E+04  0.50400001928E-02 0. -1.
        1   -1    0    0  501    0  0.00000000000E+00  0.00000000000E+00 -0.17226259811E+04  0.17226259811E+04  0.50400001928E-02 0.  1.
    10030    2    1    2    0    0  0.00000000000E+00  0.00000000000E+00  0.25020668106E+03  0.36954586433E+04  0.36869786005E+04 0.  0.
        3    1    3    3  502    0 -0.94856818732E+02 -0.70206602233E+03  0.18309455819E+04  0.19632259803E+04  0.10100000352E+00 0. -1.
       -3    1    3    3    0  502  0.94856818732E+02  0.70206602233E+03 -0.15807389008E+04  0.17322326629E+04  0.10100000352E+00 0.  1.
</event>
<event>
 5   0  0.1496000E-07  0.3651032E+04  0.7818609E-02  0.8078901E-01
        1   -1    0    0  501    0  0.00000000000E+00  0.00000000000E+00  0.26068368015E+04  0.26068368015E+04  0.50400001928E-02 0.  1.
       -1   -1    0    0    0  501  0.00000000000E+00  0.00000000000E+00 -0.12783724360E+04  0.12783724360E+04  0.50400001928E-02 0. -1.
    10030    2    1    2    0    0  0.00000000000E+00  0.00000000000E+00  0.13284643655E+04  0.38852092375E+04  0.36510318061E+04 0.  0.
        2    1    3    3  502    0 -0.53442538210E+03  0.99259770702E+03  0.21921711760E+04  0.24650507423E+04  0.25500000920E-02 0.  1.
       -2    1    3    3    0  502  0.53442538210E+03 -0.99259770702E+03 -0.86370681052E+03  0.14201584952E+04  0.25500000920E-02 0. -1.
</event>
<event>
 5   0  0.4687817E-07  0.3704216E+04  0.7818609E-02  0.8067028E-01
        2   -1    0    0  501    0  0.00000000000E+00  0.00000000000E+00  0.26986773809E+04  0.26986773809E+04  0.25500000920E-02 0. -1.
       -2   -1    0    0    0  501  0.00000000000E+00  0.00000000000E+00 -0.12711058126E+04  0.12711058126E+04  0.25500000920E-02 0.  1.
    10030    2    1    2    0    0  0.00000000000E+00  0.00000000000E+00  0.14275715683E+04  0.39697831935E+04  0.37042162492E+04 0.  0.
        4    1    3    3  502    0  0.17702574114E+04 -0.53390605172E+03  0.82839141833E+03  0.20261048663E+04  0.12699999809E+01 0.  1.
       -4    1    3    3    0  502 -0.17702574114E+04  0.53390605172E+03  0.59918014995E+03  0.19436783272E+04  0.12699999809E+01 0. -1.
</event>
<event>
 5   0  0.1496000E-07  0.3703815E+04  0.7818609E-02  0.8067117E-01
       -1   -1    0    0    0  501  0.00000000000E+00  0.00000000000E+00  0.30840994078E+04  0.30840994078E+04  0.50400001928E-02 0.  1.
        1   -1    0    0  501    0  0.00000000000E+00  0.00000000000E+00 -0.11120138744E+04  0.11120138744E+04  0.50400001928E-02 0. -1.
    10030    2    1    2    0    0  0.00000000000E+00  0.00000000000E+00  0.19720855334E+04  0.41961132823E+04  0.37038149693E+04 0.  0.
        3    1    3    3  502    0  0.10674173332E+04  0.13627987712E+04  0.17314993330E+04  0.24484056454E+04  0.10100000352E+00 0.  1.
       -3    1    3    3    0  502 -0.10674173332E+04 -0.13627987712E+04  0.24058620042E+03  0.17477076369E+04  0.10100000352E+00 0. -1.
</event>
<event>
 5   0  0.4758908E-07  0.3679993E+04  0.7818609E-02  0.8072410E-01
       -2   -1    0    0    0  501  0.00000000000E+00  0.00000000000E+00  0.14197204764E+04  0.14197204764E+04  0.25500000920E-02 0.  1.
        2   -1    0    0  501    0  0.00000000000E+00  0.00000000000E+00 -0.23846858837E+04  0.23846858837E+04  0.25500000920E-02 0. -1.
    10030    2    1    2    0    0  0.00000000000E+00  0.00000000000E+00 -0.96496540726E+03  0.38044063601E+04  0.36799931407E+04 0.  0.
        2    1    3    3  502    0  0.12873213971E+04 -0.11289553092E+04 -0.11789432110E+04  0.20788563116E+04  0.25500000920E-02 0. -1.
       -2    1    3    3    0  502 -0.12873213971E+04  0.11289553092E+04  0.21397780369E+03  0.17255500486E+04  0.25500000920E-02 0.  1.
</event>
<event>
 5   0  0.4687817E-07  0.3616542E+04  0.7818609E-02  0.8086713E-01
       -2   -1    0    0    0  501  0.00000000000E+00  0.00000000000E+00  0.12910976834E+04  0.12910976834E+04  0.25500000920E-02 0.  1.
        2   -1    0    0  501    0  0.00000000000E+00  0.00000000000E+00 -0.25326082111E+04  0.25326082111E+04  0.25500000920E-02 0. -1.
    10030    2    1    2    0    0  0.00000000000E+00  0.00000000000E+00 -0.12415105277E+04  0.38237058944E+04  0.36165423234E+04 0.  0.
        4    1    3    3  502    0  0.84238797805E+03 -0.15187645525E+04 -0.11531676850E+04  0.20847207473E+04  0.12699999809E+01 0. -1.
       -4    1    3    3    0  502 -0.84238797805E+03  0.15187645525E+04 -0.88342842698E+02  0.17389851472E+04  0.12699999809E+01 0.  1.
</event>
<event>
 5   0  0.1496000E-07  0.3715348E+04  0.7818609E-02  0.8064569E-01
       -1   -1    0    0    0  501  0.00000000000E+00  0.00000000000E+00  0.17973374418E+04  0.17973374418E+04  0.50400001928E-02 0. -1.
        1   -1    0    0  501    0  0.00000000000E+00  0.00000000000E+00 -0.19200364075E+04  0.19200364075E+04  0.50400001928E-02 0.  1.
    10030    2    1    2    0    0  0.00000000000E+00  0.00000000000E+00 -0.12269896570E+03  0.37173738493E+04  0.37153483415E+04 0.  0.
        5    1    3    3  502    0  0.13439104538E+04 -0.12673139125E+04 -0.25831048932E+03  0.18651879958E+04  0.46999998093E+01 0.  1.
       -5    1    3    3    0  502 -0.13439104538E+04  0.12673139125E+04  0.13561152362E+03  0.18521858535E+04  0.46999998093E+01 0. -1.
</event>
<event>
 5   0  0.1496000E-07  0.3680016E+04  0.7818609E-02  0.8072405E-01
       -1   -1    0    0    0  501  0.00000000000E+00  0.00000000000E+00  0.16574286723E+04  0.16574286723E+04  0.50400001928E-02 0.  1.
        1   -1    0    0  501    0  0.00000000000E+00  0.00000000000E+00 -0.20427003067E+04  0.20427003067E+04  0.50400001928E-02 0. -1.
    10030    2    1    2    0    0  0.00000000000E+00  0.00000000000E+00 -0.38527163442E+03  0.37001289790E+04  0.36800163354E+04 0.  0.
        2    1    3    3  502    0  0.11894249031E+04 -0.67777815137E+03 -0.14287921010E+04  0.19787778275E+04  0.25500000920E-02 0. -1.
       -2    1    3    3    0  502 -0.11894249031E+04  0.67777815137E+03  0.10435204666E+04  0.17213511515E+04  0.25500000920E-02 0.  1.
</event>
<event>
 5   0  0.4758908E-07  0.3683760E+04  0.7818609E-02  0.8071570E-01
        2   -1    0    0  501    0  0.00000000000E+00  0.00000000000E+00  0.22458601448E+04  0.22458601448E+04  0.25500000920E-02 0. -1.
       -2   -1    0    0    0  501  0.00000000000E+00  0.00000000000E+00 -0.15105671000E+04  0.15105671000E+04  0.25500000920E-02 0.  1.
    10030    2    1    2    0    0  0.00000000000E+00  0.00000000000E+00  0.73529304481E+03  0.37564272449E+04  0.36837602778E+04 0.  0.
        2    1    3    3  502    0 -0.73307286138E+03 -0.33225136714E+03 -0.13217588977E+04  0.15475249190E+04  0.25500000920E-02 0.  1.
       -2    1    3    3    0  502  0.73307286138E+03  0.33225136714E+03  0.20570519426E+04  0.22089023259E+04  0.25500000920E-02 0. -1.
</event>
<event>
 5   0  0.4793557E-07  0.3428135E+04  0.7818609E-02  0.8131035E-01
        2   -1    0    0  501    0  0.00000000000E+00  0.00000000000E+00  0.11221712211E+04  0.11221712211E+04  0.25500000920E-02 0.  1.
       -2   -1    0    0    0  501  0.00000000000E+00  0.00000000000E+00 -0.26181625936E+04  0.26181625936E+04  0.25500000920E-02 0. -1.
    10030    2    1    2    0    0  0.00000000000E+00  0.00000000000E+00 -0.14959913725E+04  0.37403338147E+04  0.34281346033E+04 0.  0.
        3    1    3    3  502    0 -0.64197789280E+03  0.72145378025E+03  0.79708982220E+03  0.12521914258E+04  0.10100000352E+00 0.  1.
       -3    1    3    3    0  502  0.64197789280E+03 -0.72145378025E+03 -0.22930811947E+04  0.24881423889E+04  0.10100000352E+00 0. -1.
</event>
<event>
 5   0  0.4857514E-07  0.3783696E+04  0.7818609E-02  0.8049663E-01
        2   -1    0    0  501    0  0.00000000000E+00  0.00000000000E+00  0.20248460743E+04  0.20248460743E+04  0.25500000920E-02 0. -1.
       -2   -1    0    0    0  501  0.00000000000E+00  0.00000000000E+00 -0.17675854129E+04  0.17675854129E+04  0.25500000920E-02 0.  1.
    10030    2    1    2    0    0  0.00000000000E+00  0.00000000000E+00  0.25726066147E+03  0.37924314872E+04  0.37836957511E+04 0.  0.
        5    1    3    3  502    0 -0.36302683265E+03 -0.57484027450E+03  0.18981628369E+04  0.20162524811E+04  0.46999998093E+01 0. -1.
       -5    1    3    3    0  502  0.36302683265E+03  0.57484027450E+03 -0.16409021754E+04  0.17761790061E+04  0.46999998093E+01 0.  1.
</event>
<event>
 5   0  0.1496000E-07  0.3684381E+04  0.7818609E-02  0.8071432E-01
       -1   -1    0    0    0  501  0.00000000000E+00  0.00000000000E+00  0.18633121050E+04  0.18633121050E+04  0.50400001928E-02 0.  1.
        1   -1    0    0  501    0  0.00000000000E+00  0.00000000000E+00 -0.18213085565E+04  0.18213085565E+04  0.50400001928E-02 0. -1.
    10030    2    1    2    0    0  0.00000000000E+00  0.00000000000E+00  0.42003548464E+02  0.36846206615E+04  0.36843812399E+04 0.  0.
        2    1    3    3  502    0 -0.55421581408E+03  0.15897934056E+04  0.76875888797E+03  0.18508345331E+04  0.25500000920E-02 0.  1.
       -2    1    3    3    0  502  0.55421581408E+03 -0.15897934056E+04 -0.72675533950E+03  0.18337861284E+04  0.25500000920E-02 0. -1.
</event>
<event>
 5   0  0.4758908E-07  0.3696985E+04  0.7818609E-02  0.8068630E-01
        2   -1    0    0  501    0  0.00000000000E+00  0.00000000000E+00  0.28706178728E+04  0.28706178728E+04  0.25500000920E-02 0.  1.
       -2   -1    0    0    0  501  0.00000000000E+00  0.00000000000E+00 -0.11903100754E+04  0.11903100754E+04  0.25500000920E-02 0. -1.
    10030    2    1    2    0    0  0.00000000000E+00  0.00000000000E+00  0.16803077974E+04  0.40609279482E+04  0.36969854621E+04 0.  0.
        2    1    3    3  502    0 -0.45938525439E+03  0.16159218719E+04 -0.69209534791E+01  0.16799661329E+04  0.25500000920E-02 0. -1.
       -2    1    3    3    0  502  0.45938525439E+03 -0.16159218719E+04  0.16872287509E+04  0.23809618153E+04  0.25500000920E-02 0.  1.
</event>
<event>
 5   0  0.1496000E-07  0.3714302E+04  0.7818609E-02  0.8064800E-01
        1   -1    0    0  501    0  0.00000000000E+00  0.00000000000E+00  0.22915034964E+04  0.22915034964E+04  0.50400001928E-02 0.  1.
       -1   -1    0    0    0  501  0.00000000000E+00  0.00000000000E+00 -0.15051297289E+04  0.15051297289E+04  0.50400001928E-02 0. -1.
    10030    2    1    2    0    0  0.00000000000E+00  0.00000000000E+00  0.78637376749E+03  0.37966332254E+04  0.37143021075E+04 0.  0.
        2    1    3    3  502    0 -0.12724718216E+04  0.72637894796E+03  0.15596207451E+04  0.21399130313E+04  0.25500000920E-02 0.  1.
       -2    1    3    3    0  502  0.12724718216E+04 -0.72637894796E+03 -0.77324697765E+03  0.16567201941E+04  0.25500000920E-02 0. -1.
</event>
<event>
 5   0  0.4857514E-07  0.3711561E+04  0.7818609E-02  0.8065404E-01
       -2   -1    0    0    0  501  0.00000000000E+00  0.00000000000E+00  0.26900349380E+04  0.26900349380E+04  0.25500000920E-02 0.  1.
        2   -1    0    0  501    0  0.00000000000E+00  0.00000000000E+00 -0.12802518301E+04  0.12802518301E+04  0.25500000920E-02 0. -1.
    10030    2    1    2    0    0  0.00000000000E+00  0.00000000000E+00  0.14097831079E+04  0.39702867680E+04  0.37115614785E+04 0.  0.
        5    1    3    3  502    0  0.10284455186E+04  0.30358874829E+03 -0.91529535647E+03  0.14098418324E+04  0.46999998093E+01 0. -1.
       -5    1    3    3    0  502 -0.10284455186E+04 -0.30358874829E+03  0.23250784644E+04  0.25604449356E+04  0.46999998093E+01 0.  1.
</event>
<event>
 5   0  0.1496287E-07  0.3666307E+04  0.7818609E-02  0.8075470E-01
        1   -1    0    0  501    0  0.00000000000E+00  0.00000000000E+00  0.10828213173E+04  0.10828213173E+04  0.50400001928E-02 0. -1.
       -1   -1    0    0    0  501  0.00000000000E+00  0.00000000000E+00 -0.31034225223E+04  0.31034225223E+04  0.50400001928E-02 0.  1.
    10030    2    1    2    0    0  0.00000000000E+00  0.00000000000E+00 -0.20206012050E+04  0.41862438397E+04  0.36663071687E+04 0.  0.
        1    1    3    3  502    0  0.74267054735E+03 -0.29750860508E+03  0.87296056768E+03  0.11841161534E+04  0.50400001928E-02 0. -1.
       -1    1    3    3    0  502 -0.74267054735E+03  0.29750860508E+03 -0.28935617727E+04  0.30021276863E+04  0.50400001928E-02 0.  1.
</event>
<event>
 5   0  0.1522273E-07  0.3734252E+04  0.7818609E-02  0.8060413E-01
        1   -1    0    0  501    0  0.00000000000E+00  0.00000000000E+00  0.11142592862E+04  0.11142592862E+04  0.50400001928E-02 0. -1.
       -1   -1    0    0    0  501  0.00000000000E+00  0.00000000000E+00 -0.31286791546E+04  0.31286791546E+04  0.50400001928E-02 0.  1.
    10030    2    1    2    0    0  0.00000000000E+00  0.00000000000E+00 -0.20144198684E+04  0.42429384408E+04  0.37342521615E+04 0.  0.
        4    1    3    3  502    0 -0.64042441819E+03 -0.85197189693E+03 -0.27490636495E+04  0.29484491026E+04  0.12699999809E+01 0.  1.
       -4    1    3    3    0  502  0.64042441819E+03  0.85197189693E+03  0.73464378110E+03  0.12944893381E+04  0.12699999809E+01 0. -1.
</event>
<event>
 5   0  0.1496287E-07  0.3689729E+04  0.7818609E-02  0.8070242E-01
       -1   -1    0    0    0  501  0.00000000000E+00  0.00000000000E+00  0.32233132875E+04  0.32233132875E+04  0.50400001928E-02 0. -1.
        1   -1    0    0  501    0  0.00000000000E+00  0.00000000000E+00 -0.10559087865E+04  0.10559087866E+04  0.50400001928E-02 0.  1.
    10030    2    1    2    0    0  0.00000000000E+00  0.00000000000E+00  0.21674045009E+04  0.42792220740E+04  0.36897288909E+04 0.  0.
        1    1    3    3  502    0  0.47429694978E+03 -0.12064821854E+04 -0.43862832221E+03  0.13685582433E+04  0.50400001928E-02 0.  1.
       -1    1    3    3    0  502 -0.47429694978E+03  0.12064821854E+04  0.26060328231E+04  0.29106638307E+04  0.50400001928E-02 0. -1.
</event>
<event>
 5   0  0.4857514E-07  0.3696465E+04  0.7818609E-02  0.8068746E-01
        2   -1    0    0  501    0  0.00000000000E+00  0.00000000000E+00  0.15337465002E+04  0.15337465002E+04  0.25500000920E-02 0. -1.
       -2   -1    0    0    0  501  0.00000000000E+00  0.00000000000E+00 -0.22272025154E+04  0.22272025154E+04  0.25500000920E-02 0.  1.
    10030    2    1    2    0    0  0.00000000000E+00  0.00000000000E+00 -0.69345601514E+03  0.37609490156E+04  0.36964653729E+04 0.  0.
        5    1    3    3  502    0 -0.25358832865E+03 -0.11718372306E+04 -0.17778327333E+04  0.21443462530E+04  0.46999998093E+01 0.  1.
       -5    1    3    3    0  502  0.25358832865E+03  0.11718372306E+04  0.10843767181E+04  0.16166027626E+04  0.46999998093E+01 0. -1.
</event>
<event>
 5   0  0.1496000E-07  0.2993201E+04  0.7818609E-02  0.8245675E-01
       -1   -1    0    0    0  501  0.00000000000E+00  0.00000000000E+00  0.13139875744E+04  0.13139875744E+04  0.50400001928E-02 0.  1.
        1   -1    0    0  501    0  0.00000000000E+00  0.00000000000E+00 -0.17045924437E+04  0.17045924437E+04  0.50400001928E-02 0. -1.
    10030    2    1    2    0    0  0.00000000000E+00  0.00000000000E+00 -0.39060486927E+03  0.30185800181E+04  0.29932011563E+04 0.  0.
        5    1    3    3  502    0  0.56336107276E+03  0.13410278233E+04 -0.55051021164E+03  0.15552539678E+04  0.46999998093E+01 0.  1.
       -5    1    3    3    0  502 -0.56336107276E+03 -0.13410278233E+04  0.15990534237E+03  0.14633260504E+04  0.46999998093E+01 0. -1.
</event>
<event>
 5   0  0.1496000E-07  0.3765223E+04  0.7818609E-02  0.8053659E-01
       -1   -1    0    0    0  501  0.00000000000E+00  0.00000000000E+00  0.24669262496E+04  0.24669262496E+04  0.50400001928E-02 0. -1.
        1   -1    0    0  501    0  0.00000000000E+00  0.00000000000E+00 -0.14366971543E+04  0.14366971543E+04  0.50400001928E-02 0.  1.
    10030    2    1    2    0    0  0.00000000000E+00  0.00000000000E+00  0.10302290953E+04  0.39036234039E+04  0.37652229271E+04 0.  0.
        3    1    3    3  502    0 -0.15696870013E+04 -0.80700831954E+03  0.11942075413E+04  0.21310352817E+04  0.10100000352E+00 0. -1.
       -3    1    3    3    0  502  0.15696870013E+04  0.80700831954E+03 -0.16397844598E+03  0.17725881222E+04  0.10100000352E+00 0.  1.
</event>
<event>
 5   0  0.4824268E-07  0.3691531E+04  0.7818609E-02  0.8069841E-01
       -2   -1    0    0    0  501  0.00000000000E+00  0.00000000000E+00  0.13511012696E+04  0.13511012696E+04  0.25500000920E-02 0.  1.
        2   -1    0    0  501    0  0.00000000000E+00  0.00000000000E+00 -0.25215354695E+04  0.25215354695E+04  0.25500000920E-02 0. -1.
    10030    2    1    2    0    0  0.00000000000E+00  0.00000000000E+00 -0.11704341998E+04  0.38726367391E+04  0.36915307255E+04 0.  0.
        1    1    3    3  502    0 -0.60750894463E+03 -0.17069625033E+04 -0.21571315187E+03  0.18246425045E+04  0.50400001928E-02 0.  1.
       -1    1    3    3    0  502  0.60750894463E+03  0.17069625033E+04 -0.95472104796E+03  0.20479942346E+04  0.50400001928E-02 0. -1.
</event>
<event>
 5   0  0.1496000E-07  0.3718490E+04  0.7818609E-02  0.8063877E-01
       -1   -1    0    0    0  501  0.00000000000E+00  0.00000000000E+00  0.15073582779E+04  0.15073582780E+04  0.50400001928E-02 0. -1.
        1   -1    0    0  501    0  0.00000000000E+00  0.00000000000E+00 -0.22932783755E+04  0.22932783755E+04  0.50400001928E-02 0.  1.
    10030    2    1    2    0    0  0.00000000000E+00  0.00000000000E+00 -0.78592009753E+03  0.38006366534E+04  0.37184900930E+04 0.  0.
        3    1    3    3  502    0 -0.18415130877E+04  0.17929781017E+03 -0.57996080891E+03  0.19389875469E+04  0.10100000352E+00 0.  1.
       -3    1    3    3    0  502  0.18415130877E+04 -0.17929781017E+03 -0.20595928862E+03  0.18616491065E+04  0.10100000352E+00 0. -1.
</event>
<event>
 5   0  0.4793557E-07  0.3715146E+04  0.7818609E-02  0.8064614E-01
        2   -1    0    0  501    0  0.00000000000E+00  0.00000000000E+00  0.31516587481E+04  0.31516587481E+04  0.25500000920E-02 0.  1.
       -2   -1    0    0    0  501  0.00000000000E+00  0.00000000000E+00 -0.10948448774E+04  0.10948448774E+04  0.25500000920E-02 0. -1.
    10030    2    1    2    0    0  0.00000000000E+00  0.00000000000E+00  0.20568138707E+04  0.42465036255E+04  0.37151459920E+04 0.  0.
        3    1    3    3  502    0 -0.10161806572E+04  0.64789460876E+03 -0.58734120721E+03  0.13406566511E+04  0.10100000352E+00 0. -1.
       -3    1    3    3    0  502  0.10161806572E+04 -0.64789460876E+03  0.26441550780E+04  0.29058469744E+04  0.10100000352E+00 0.  1.
</event>
<event>
 5   0  0.1496000E-07  0.3793674E+04  0.7818609E-02  0.8047514E-01
       -1   -1    0    0    0  501  0.00000000000E+00  0.00000000000E+00  0.19592998506E+04  0.19592998506E+04  0.50400001928E-02 0. -1.
        1   -1    0    0  501    0  0.00000000000E+00  0.00000000000E+00 -0.18363659357E+04  0.18363659357E+04  0.50400001928E-02 0.  1.
    10030    2    1    2    0    0  0.00000000000E+00  0.00000000000E+00  0.12293391484E+03  0.37956657863E+04  0.37936744739E+04 0.  0.
        3    1    3    3  502    0  0.30986405235E+03 -0.12462794905E+04 -0.13352468842E+04  0.18525961652E+04  0.10100000352E+00 0.  1.
       -3    1    3    3    0  502 -0.30986405235E+03  0.12462794905E+04  0.14581807991E+04  0.19430696211E+04  0.10100000352E+00 0. -1.
</event>
<event>
 5   0  0.1496287E-07  0.3653569E+04  0.7818609E-02  0.8078330E-01
       -1   -1    0    0    0  501  0.00000000000E+00  0.00000000000E+00  0.21981430900E+04  0.21981430900E+04  0.50400001928E-02 0. -1.
        1   -1    0    0  501    0  0.00000000000E+00  0.00000000000E+00 -0.15181639781E+04  0.15181639781E+04  0.50400001928E-02 0.  1.
    10030    2    1    2    0    0  0.00000000000E+00  0.00000000000E+00  0.67997911193E+03  0.37163070681E+04  0.36535690266E+04 0.  0.
        1    1    3    3  502    0  0.13570234774E+04 -0.95899910903E+03 -0.43195575476E+03  0.17169093696E+04  0.50400001928E-02 0.  1.
       -1    1    3    3    0  502 -0.13570234774E+04  0.95899910903E+03  0.11119348667E+04  0.19993976986E+04  0.50400001928E-02 0. -1.
</event>
<event>
 5   0  0.4824268E-07  0.3737126E+04  0.7818609E-02  0.8059784E-01
        2   -1    0    0  501    0  0.00000000000E+00  0.00000000000E+00  0.25972960679E+04  0.25972960679E+04  0.25500000920E-02 0. -1.
       -2   -1    0    0    0  501  0.00000000000E+00  0.00000000000E+00 -0.13442935140E+04  0.13442935140E+04  0.25500000920E-02 0.  1.
    10030    2    1    2    0    0  0.00000000000E+00  0.00000000000E+00  0.12530025539E+04  0.39415895820E+04  0.37371263067E+04 0.  0.
        1    1    3    3  502    0 -0.10804203022E+04  0.15191586696E+04  0.76147617019E+03  0.20137023242E+04  0.50400001928E-02 0. -1.
       -1    1    3    3    0  502  0.10804203022E+04 -0.15191586696E+04  0.49152638376E+03  0.19278872578E+04  0.50400001928E-02 0.  1.
</event>
<event>
 5   0  0.1496000E-07  0.3702111E+04  0.7818609E-02  0.8067494E-01
        1   -1    0    0  501    0  0.00000000000E+00  0.00000000000E+00  0.17956995952E+04  0.17956995953E+04  0.50400001928E-02 0. -1.
       -1   -1    0    0    0  501  0.00000000000E+00  0.00000000000E+00 -0.19081181142E+04  0.19081181142E+04  0.50400001928E-02 0.  1.
    10030    2    1    2    0    0  0.00000000000E+00  0.00000000000E+00 -0.11241851899E+03  0.37038177095E+04  0.37021112492E+04 0.  0.
        3    1    3    3  502    0 -0.36278067876E+03 -0.77431984164E+03 -0.16986803058E+04  0.19017612441E+04  0.10100000352E+00 0.  1.
       -3    1    3    3    0  502  0.36278067876E+03  0.77431984164E+03  0.15862617868E+04  0.18020564654E+04  0.10100000352E+00 0. -1.
</event>
<event>
 5   0  0.1496000E-07  0.3678646E+04  0.7818609E-02  0.8072711E-01
       -1   -1    0    0    0  501  0.00000000000E+00  0.00000000000E+00  0.15783887413E+04  0.15783887413E+04  0.50400001928E-02 0.  1.
        1   -1    0    0  501    0  0.00000000000E+00  0.00000000000E+00 -0.21433941543E+04  0.21433941543E+04  0.50400001928E-02 0. -1.
    10030    2    1    2    0    0  0.00000000000E+00  0.00000000000E+00 -0.56500541302E+03  0.37217828955E+04  0.36786460559E+04 0.  0.
        3    1    3    3  502    0 -0.35343137427E+03 -0.10213505892E+04 -0.17882554544E+04  0.20894804002E+04  0.10100000352E+00 0. -1.
       -3    1    3    3    0  502  0.35343137427E+03  0.10213505892E+04  0.12232500414E+04  0.16323024953E+04  0.10100000352E+00 0.  1.
</event>
<event>
 5   0  0.4793557E-07  0.3697081E+04  0.7818609E-02  0.8068609E-01
       -2   -1    0    0    0  501  0.00000000000E+00  0.00000000000E+00  0.20822313461E+04  0.20822313461E+04  0.25500000920E-02 0.  1.
        2   -1    0    0  501    0  0.00000000000E+00  0.00000000000E+00 -0.16410767362E+04  0.16410767362E+04  0.25500000920E-02 0. -1.
    10030    2    1    2    0    0  0.00000000000E+00  0.00000000000E+00  0.44115460987E+03  0.37233080822E+04  0.36970806977E+04 0.  0.
        3    1    3    3  502    0 -0.95623030001E+03  0.13317726509E+04 -0.63935757910E+03  0.17597650140E+04  0.10100000352E+00 0. -1.
       -3    1    3    3    0  502  0.95623030001E+03 -0.13317726509E+04  0.10805121890E+04  0.19635430683E+04  0.10100000352E+00 0.  1.
</event>
<event>
 5   0  0.4857514E-07  0.3696926E+04  0.7818609E-02  0.8068643E-01
        2   -1    0    0  501    0  0.00000000000E+00  0.00000000000E+00  0.17864514267E+04  0.17864514267E+04  0.25500000920E-02 0.  1.
       -2   -1    0    0    0  501  0.00000000000E+00  0.00000000000E+00 -0.19126269860E+04  0.19126269860E+04  0.25500000920E-02 0. -1.
    10030    2    1    2    0    0  0.00000000000E+00  0.00000000000E+00 -0.12617555929E+03  0.36990784128E+04  0.36969258624E+04 0.  0.
        5    1    3    3  502    0 -0.36533564881E+03  0.11785854773E+04  0.13140345015E+04  0.18025655674E+04  0.46999998093E+01 0.  1.
       -5    1    3    3    0  502  0.36533564881E+03 -0.11785854773E+04 -0.14402100608E+04  0.18965128454E+04  0.46999998093E+01 0. -1.
</event>
<event>
 5   0  0.4758908E-07  0.3733789E+04  0.7818609E-02  0.8060515E-01
       -2   -1    0    0    0  501  0.00000000000E+00  0.00000000000E+00  0.34139542205E+04  0.34139542205E+04  0.25500000920E-02 0.  1.
        2   -1    0    0  501    0  0.00000000000E+00  0.00000000000E+00 -0.10208967224E+04  0.10208967224E+04  0.25500000920E-02 0. -1.
    10030    2    1    2    0    0  0.00000000000E+00  0.00000000000E+00  0.23930574981E+04  0.44348509428E+04  0.37337887857E+04 0.  0.
        2    1    3    3  502    0  0.10450150721E+04  0.55008460425E+03 -0.52086326151E+03  0.12907161229E+04  0.25500000920E-02 0. -1.
       -2    1    3    3    0  502 -0.10450150721E+04 -0.55008460425E+03  0.29139207596E+04  0.31441348199E+04  0.25500000920E-02 0.  1.
</event>
<event>
 5   0  0.4758908E-07  0.3655348E+04  0.7818609E-02  0.8077930E-01
        2   -1    0    0  501    0  0.00000000000E+00  0.00000000000E+00  0.12760810997E+04  0.12760810997E+04  0.25500000920E-02 0. -1.
       -2   -1    0    0    0  501  0.00000000000E+00  0.00000000000E+00 -0.26176958132E+04  0.26176958132E+04  0.25500000920E-02 0.  1.
    10030    2    1    2    0    0  0.00000000000E+00  0.00000000000E+00 -0.13416147135E+04  0.38937769129E+04  0.36553479462E+04 0.  0.
        2    1    3    3  502    0 -0.15558011003E+04  0.60848681870E+03  0.11891269270E+03  0.16747875987E+04  0.25500000920E-02 0. -1.
       -2    1    3    3    0  502  0.15558011003E+04 -0.60848681870E+03 -0.14605274062E+04  0.22189893142E+04  0.25500000920E-02 0.  1.
</event>
<event>
 5   0  0.4793557E-07  0.3678907E+04  0.7818609E-02  0.8072652E-01
        2   -1    0    0  501    0  0.00000000000E+00  0.00000000000E+00  0.19742875717E+04  0.19742875717E+04  0.25500000920E-02 0.  1.
       -2   -1    0    0    0  501  0.00000000000E+00  0.00000000000E+00 -0.17138280214E+04  0.17138280214E+04  0.25500000920E-02 0. -1.
    10030    2    1    2    0    0  0.00000000000E+00  0.00000000000E+00  0.26045955032E+03  0.36881155931E+04  0.36789071001E+04 0.  0.
        3    1    3    3  502    0 -0.13594429144E+04 -0.10210749062E+04 -0.57360330104E+03  0.17943521835E+04  0.10100000352E+00 0. -1.
       -3    1    3    3    0  502  0.13594429144E+04  0.10210749062E+04  0.83406285136E+03  0.18937634096E+04  0.10100000352E+00 0.  1.
</event>
<event>
 5   0  0.1496000E-07  0.3677745E+04  0.7818609E-02  0.8072912E-01
       -1   -1    0    0    0  501  0.00000000000E+00  0.00000000000E+00  0.15063378454E+04  0.15063378454E+04  0.50400001928E-02 0.  1.
        1   -1    0    0  501    0  0.00000000000E+00  0.00000000000E+00 -0.22448161976E+04  0.22448161976E+04  0.50400001928E-02 0. -1.
    10030    2    1    2    0    0  0.00000000000E+00  0.00000000000E+00 -0.73847835220E+03  0.37511540431E+04  0.36777447408E+04 0.  0.
        2    1    3    3  502    0 -0.41857642411E+03  0.41770393789E+03 -0.21451917135E+04  0.22252034267E+04  0.25500000920E-02 0. -1.
       -2    1    3    3    0  502  0.41857642411E+03 -0.41770393789E+03  0.14067133613E+04  0.15259506163E+04  0.25500000920E-02 0.  1.
</event>
<event>
 5   0  0.4824268E-07  0.3736987E+04  0.7818609E-02  0.8059814E-01
       -2   -1    0    0    0  501  0.00000000000E+00  0.00000000000E+00  0.18737065197E+04  0.18737065197E+04  0.25500000920E-02 0. -1.
        2   -1    0    0  501    0  0.00000000000E+00  0.00000000000E+00 -0.18632953501E+04  0.18632953501E+04  0.25500000920E-02 0.  1.
    10030    2    1    2    0    0  0.00000000000E+00  0.00000000000E+00  0.10411169563E+02  0.37370018698E+04  0.37369873671E+04 0.  0.
        1    1    3    3  502    0 -0.13751903205E+04  0.12604264614E+04 -0.10177783525E+03  0.18682028824E+04  0.50400001928E-02 0.  1.
       -1    1    3    3    0  502  0.13751903205E+04 -0.12604264614E+04  0.11218900481E+03  0.18687989873E+04  0.50400001928E-02 0. -1.
</event>
<event>
 5   0  0.1496000E-07  0.3702633E+04  0.7818609E-02  0.8067378E-01
        1   -1    0    0  501    0  0.00000000000E+00  0.00000000000E+00  0.24222883368E+04  0.24222883368E+04  0.50400001928E-02 0. -1.
       -1   -1    0    0    0  501  0.00000000000E+00  0.00000000000E+00 -0.14149321674E+04  0.14149321674E+04  0.50400001928E-02 0.  1.
    10030    2    1    2    0    0  0.00000000000E+00  0.00000000000E+00  0.10073561695E+04  0.38372205042E+04  0.37026334879E+04 0.  0.
        3    1    3    3  502    0  0.84257884172E+03  0.15806671615E+04  0.18775387363E+02  0.17913124533E+04  0.10100000352E+00 0.  1.
       -3    1    3    3    0  502 -0.84257884172E+03 -0.15806671615E+04  0.98858078209E+03  0.20459080509E+04  0.10100000352E+00 0. -1.
</event>
<event>
 5   0  0.1496000E-07  0.3725667E+04  0.7818609E-02  0.8062297E-01
       -1   -1    0    0    0  501  0.00000000000E+00  0.00000000000E+00  0.14643837857E+04  0.14643837857E+04  0.50400001928E-02 0.  1.
        1   -1    0    0  501    0  0.00000000000E+00  0.00000000000E+00 -0.23696986772E+04  0.23696986772E+04  0.50400001928E-02 0. -1.
    10030    2    1    2    0    0  0.00000000000E+00  0.00000000000E+00 -0.90531489148E+03  0.38340824629E+04  0.37256668234E+04 0.  0.
        3    1    3    3  502    0 -0.53489435032E+03  0.15231172539E+04 -0.14093051770E+04  0.21429277233E+04  0.10100000352E+00 0. -1.
       -3    1    3    3    0  502  0.53489435032E+03 -0.15231172539E+04  0.50399028549E+03  0.16911547396E+04  0.10100000352E+00 0.  1.
</event>
<event>
 5   0  0.1522273E-07  0.3687486E+04  0.7818609E-02  0.8070741E-01
       -1   -1    0    0    0  501  0.00000000000E+00  0.00000000000E+00  0.16079128725E+04  0.16079128725E+04  0.50400001928E-02 0. -1.
        1   -1    0    0  501    0  0.00000000000E+00  0.00000000000E+00 -0.21141622476E+04  0.21141622476E+04  0.50400001928E-02 0.  1.
    10030    2    1    2    0    0  0.00000000000E+00  0.00000000000E+00 -0.50624937515E+03  0.37220751201E+04  0.36874862400E+04 0.  0.
        4    1    3    3  502    0  0.84475680366E+03 -0.88901140526E+03 -0.16427854665E+04  0.20500490331E+04  0.12699999809E+01 0.  1.
       -4    1    3    3    0  502 -0.84475680366E+03  0.88901140526E+03  0.11365360914E+04  0.16720260871E+04  0.12699999809E+01 0. -1.
</event>
<event>
 5   0  0.4687817E-07  0.3672454E+04  0.7818609E-02  0.8074094E-01
       -2   -1    0    0    0  501  0.00000000000E+00  0.00000000000E+00  0.13270305890E+04  0.13270305890E+04  0.25500000920E-02 0.  1.
        2   -1    0    0  501    0  0.00000000000E+00  0.00000000000E+00 -0.25408075080E+04  0.25408075080E+04  0.25500000920E-02 0. -1.
    10030    2    1    2    0    0  0.00000000000E+00  0.00000000000E+00 -0.12137769190E+04  0.38678380970E+04  0.36724538303E+04 0.  0.
        4    1    3    3  502    0  0.16361142265E+04  0.75729094542E+03 -0.23997416200E+03  0.18187766629E+04  0.12699999809E+01 0.  1.
       -4    1    3    3    0  502 -0.16361142265E+04 -0.75729094542E+03 -0.97380275703E+03  0.20490614341E+04  0.12699999809E+01 0. -1.
</event>
<event>
 5   0  0.1496000E-07  0.3725700E+04  0.7818609E-02  0.8062290E-01
       -1   -1    0    0    0  501  0.00000000000E+00  0.00000000000E+00  0.13793104801E+04  0.13793104801E+04  0.50400001928E-02 0. -1.
        1   -1    0    0  501    0  0.00000000000E+00  0.00000000000E+00 -0.25159015039E+04  0.25159015039E+04  0.50400001928E-02 0.  1.
    10030    2    1    2    0    0  0.00000000000E+00  0.00000000000E+00 -0.11365910238E+04  0.38952119841E+04  0.37256995646E+04 0.  0.
        3    1    3    3  502    0 -0.31792210369E+03 -0.39696814077E+02 -0.24868797548E+04  0.25074331947E+04  0.10100000352E+00 0.  1.
       -3    1    3    3    0  502  0.31792210369E+03  0.39696814077E+02  0.13502887310E+04  0.13877787894E+04  0.10100000352E+00 0. -1.
</event>
<event>
 5   0  0.4857514E-07  0.3603160E+04  0.7818609E-02  0.8089768E-01
       -2   -1    0    0    0  501  0.00000000000E+00  0.00000000000E+00  0.14081187509E+04  0.14081187509E+04  0.25500000920E-02 0.  1.
        2   -1    0    0  501    0  0.00000000000E+00  0.00000000000E+00 -0.23049833187E+04  0.23049833187E+04  0.25500000920E-02 0. -1.
    10030    2    1    2    0    0  0.00000000000E+00  0.00000000000E+00 -0.89686456786E+03  0.37131020696E+04  0.36031598530E+04 0.  0.
        5    1    3    3  502    0  0.54451787562E+03 -0.15910287238E+04 -0.11145262654E+04  0.20174397148E+04  0.46999998093E+01 0. -1.
       -5    1    3    3    0  502 -0.54451787562E+03  0.15910287238E+04  0.21766169751E+03  0.16956623547E+04  0.46999998093E+01 0.  1.
</event>
<event>
 5   0  0.1496000E-07  0.3757530E+04  0.7818609E-02  0.8055331E-01
        1   -1    0    0  501    0  0.00000000000E+00  0.00000000000E+00  0.27524617986E+04  0.27524617986E+04  0.50400001928E-02 0. -1.
       -1   -1    0    0    0  501  0.00000000000E+00  0.00000000000E+00 -0.12824006690E+04  0.12824006690E+04  0.50400001928E-02 0.  1.
    10030    2    1    2    0    0  0.00000000000E+00  0.00000000000E+00  0.14700611296E+04  0.40348624676E+04  0.37575304932E+04 0.  0.
        3    1    3    3  502    0  0.11256503048E+04 -0.13003543916E+04  0.15469796766E+04  0.23132566400E+04  0.10100000352E+00 0. -1.
       -3    1    3    3    0  502 -0.11256503048E+04  0.13003543916E+04 -0.76918547008E+02  0.17216058276E+04  0.10100000352E+00 0.  1.
</event>
<event>
 5   0  0.4824268E-07  0.3590125E+04  0.7818609E-02  0.8092757E-01
       -2   -1    0    0    0  501  0.00000000000E+00  0.00000000000E+00  0.18385399323E+04  0.18385399323E+04  0.25500000920E-02 0.  1.
        2   -1    0    0  501    0  0.00000000000E+00  0.00000000000E+00 -0.17526131787E+04  0.17526131787E+04  0.25500000920E-02 0. -1.
    10030    2    1    2    0    0  0.00000000000E+00  0.00000000000E+00  0.85926753536E+02  0.35911531110E+04  0.35901249643E+04 0.  0.
        1    1    3    3  502    0 -0.59723798081E+03  0.10508625329E+04  0.13704621403E+04  0.18273400742E+04  0.50400001928E-02 0.  1.
       -1    1    3    3    0  502  0.59723798081E+03 -0.10508625329E+04 -0.12845353868E+04  0.17638130368E+04  0.50400001928E-02 0. -1.
</event>
<event>
 5   0  0.1496000E-07  0.3704686E+04  0.7818609E-02  0.8066924E-01
        1   -1    0    0  501    0  0.00000000000E+00  0.00000000000E+00  0.20663279890E+04  0.20663279890E+04  0.50400001928E-02 0. -1.
       -1   -1    0    0    0  501  0.00000000000E+00  0.00000000000E+00 -0.16605174926E+04  0.16605174926E+04  0.50400001928E-02 0.  1.
    10030    2    1    2    0    0  0.00000000000E+00  0.00000000000E+00  0.40581049637E+03  0.37268454817E+04  0.37046855582E+04 0.  0.
        3    1    3    3  502    0  0.16948938623E+04 -0.57029603725E+03  0.68877559849E+03  0.19163284191E+04  0.10100000352E+00 0. -1.
       -3    1    3    3    0  502 -0.16948938623E+04  0.57029603725E+03 -0.28296510212E+03  0.18105170626E+04  0.10100000352E+00 0.  1.
</event>
<event>
 5   0  0.4857514E-07  0.3668153E+04  0.7818609E-02  0.8075056E-01
       -2   -1    0    0    0  501  0.00000000000E+00  0.00000000000E+00  0.17573442378E+04  0.17573442378E+04  0.25500000920E-02 0. -1.
        2   -1    0    0  501    0  0.00000000000E+00  0.00000000000E+00 -0.19141591579E+04  0.19141591579E+04  0.25500000920E-02 0.  1.
    10030    2    1    2    0    0  0.00000000000E+00  0.00000000000E+00 -0.15681492004E+03  0.36715033957E+04  0.36681529774E+04 0.  0.
        5    1    3    3  502    0  0.95724817685E+03  0.50179572400E+03  0.14047325501E+04  0.17724047642E+04  0.46999998093E+01 0. -1.
       -5    1    3    3    0  502 -0.95724817685E+03 -0.50179572400E+03 -0.15615474702E+04  0.18990986315E+04  0.46999998093E+01 0.  1.
</event>
<event>
 5   0  0.4793557E-07  0.3609155E+04  0.7818609E-02  0.8088398E-01
        2   -1    0    0  501    0  0.00000000000E+00  0.00000000000E+00  0.20201308425E+04  0.20201308425E+04  0.25500000920E-02 0.  1.
       -2   -1    0    0    0  501  0.00000000000E+00  0.00000000000E+00 -0.16120243156E+04  0.16120243156E+04  0.25500000920E-02 0. -1.
    10030    2    1    2    0    0  0.00000000000E+00  0.00000000000E+00  0.40810652685E+03  0.36321551581E+04  0.36091550473E+04 0.  0.
        3    1    3    3  502    0  0.10562661679E+04 -0.25098616671E+03 -0.12465930356E+04  0.16530839301E+04  0.10100000352E+00 0. -1.
       -3    1    3    3    0  502 -0.10562661679E+04  0.25098616671E+03  0.16546995625E+04  0.19790712280E+04  0.10100000352E+00 0.  1.
</event>
<event>
 5   0  0.4793557E-07  0.3680039E+04  0.7818609E-02  0.8072400E-01
        2   -1    0    0  501    0  0.00000000000E+00  0.00000000000E+00  0.24569073328E+04  0.24569073328E+04  0.25500000920E-02 0.  1.
       -2   -1    0    0    0  501  0.00000000000E+00  0.00000000000E+00 -0.13780219819E+04  0.13780219819E+04  0.25500000920E-02 0. -1.
    10030    2    1    2    0    0  0.00000000000E+00  0.00000000000E+00  0.10788853509E+04  0.38349293147E+04  0.36800392999E+04 0.  0.
        3    1    3    3  502    0 -0.19812231782E+03 -0.14348872310E+04 -0.64300421376E+03  0.15848054289E+04  0.10100000352E+00 0. -1.
       -3    1    3    3    0  502  0.19812231782E+03  0.14348872310E+04  0.17218895646E+04  0.22501238858E+04  0.10100000352E+00 0.  1.
</event>
<event>
 5   0  0.1496287E-07  0.3604320E+04  0.7818609E-02  0.8089503E-01
       -1   -1    0    0    0  501  0.00000000000E+00  0.00000000000E+00  0.27713506824E+04  0.27713506824E+04  0.50400001928E-02 0. -1.
        1   -1    0    0  501    0  0.00000000000E+00  0.00000000000E+00 -0.11719128371E+04  0.11719128371E+04  0.50400001928E-02 0.  1.
    10030    2    1    2    0    0  0.00000000000E+00  0.00000000000E+00  0.15994378453E+04  0.39432635196E+04  0.36043204302E+04 0.  0.
        1    1    3    3  502    0  0.11877067815E+03  0.15121941292E+04 -0.26490085228E+03  0.15398084362E+04  0.50400001928E-02 0.  1.
       -1    1    3    3    0  502 -0.11877067815E+03 -0.15121941292E+04  0.18643386976E+04  0.24034550834E+04  0.50400001928E-02 0. -1.
</event>
<event>
 5   0  0.1522273E-07  0.3684359E+04  0.7818609E-02  0.8071437E-01
       -1   -1    0    0    0  501  0.00000000000E+00  0.00000000000E+00  0.19234047255E+04  0.19234047255E+04  0.50400001928E-02 0.  1.
        1   -1    0    0  501    0  0.00000000000E+00  0.00000000000E+00 -0.17643848381E+04  0.17643848381E+04  0.50400001928E-02 0. -1.
    10030    2    1    2    0    0  0.00000000000E+00  0.00000000000E+00  0.15901988732E+03  0.36877895636E+04  0.36843594478E+04 0.  0.
        4    1    3    3  502    0  0.43493040107E+03  0.15679580875E+04  0.94400814101E+03  0.18811725070E+04  0.12699999809E+01 0.  1.
       -4    1    3    3    0  502 -0.43493040107E+03 -0.15679580875E+04 -0.78498825369E+03  0.18066170566E+04  0.12699999809E+01 0. -1.
</event>
<event>
 5   0  0.1496287E-07  0.3689210E+04  0.7818609E-02  0.8070357E-01
        1   -1    0    0  501    0  0.00000000000E+00  0.00000000000E+00  0.12966292477E+04  0.12966292477E+04  0.50400001928E-02 0. -1.
       -1   -1    0    0    0  501  0.00000000000E+00  0.00000000000E+00 -0.26241641358E+04  0.26241641358E+04  0.50400001928E-02 0.  1.
    10030    2    1    2    0    0  0.00000000000E+00  0.00000000000E+00 -0.13275348881E+04  0.39207933835E+04  0.36892101969E+04 0.  0.
        1    1    3    3  502    0  0.60072205395E+03  0.29284311391E+03  0.11634433391E+04  0.13417244422E+04  0.50400001928E-02 0. -1.
       -1    1    3    3    0  502 -0.60072205395E+03 -0.29284311391E+03 -0.24909782272E+04  0.25790689413E+04  0.50400001928E-02 0.  1.
</event>
<event>
 5   0  0.1496000E-07  0.3725876E+04  0.7818609E-02  0.8062251E-01
       -1   -1    0    0    0  501  0.00000000000E+00  0.00000000000E+00  0.24511051085E+04  0.24511051086E+04  0.50400001928E-02 0. -1.
        1   -1    0    0  501    0  0.00000000000E+00  0.00000000000E+00 -0.14159074642E+04  0.14159074642E+04  0.50400001928E-02 0.  1.
    10030    2    1    2    0    0  0.00000000000E+00  0.00000000000E+00  0.10351976443E+04  0.38670125728E+04  0.37258760145E+04 0.  0.
        5    1    3    3  502    0 -0.11594640669E+04  0.14043235622E+04  0.11025985309E+03  0.18244618152E+04  0.46999998093E+01 0.  1.
       -5    1    3    3    0  502  0.11594640669E+04 -0.14043235622E+04  0.92493779123E+03  0.20425507576E+04  0.46999998093E+01 0. -1.
</event>
<event>
 5   0  0.1522273E-07  0.3599291E+04  0.7818609E-02  0.8090654E-01
        1   -1    0    0  501    0  0.00000000000E+00  0.00000000000E+00  0.17146763989E+04  0.17146763989E+04  0.50400001928E-02 0. -1.
       -1   -1    0    0    0  501  0.00000000000E+00  0.00000000000E+00 -0.18888254064E+04  0.18888254064E+04  0.50400001928E-02 0.  1.
    10030    2    1    2    0    0  0.00000000000E+00  0.00000000000E+00 -0.17414900750E+03  0.36035018052E+04  0.35992912335E+04 0.  0.
        4    1    3    3  502    0  0.83761412467E+02  0.83316139763E+03 -0.16819065753E+04  0.18788254921E+04  0.12699999809E+01 0.  1.
       -4    1    3    3    0  502 -0.83761412467E+02 -0.83316139763E+03  0.15077575678E+04  0.17246763131E+04  0.12699999809E+01 0. -1.
</event>
<event>
 5   0  0.1496000E-07  0.3664028E+04  0.7818609E-02  0.8075981E-01
       -1   -1    0    0    0  501  0.00000000000E+00  0.00000000000E+00  0.29062435707E+04  0.29062435707E+04  0.50400001928E-02 0.  1.
        1   -1    0    0  501    0  0.00000000000E+00  0.00000000000E+00 -0.11548501095E+04  0.11548501096E+04  0.50400001928E-02 0. -1.
    10030    2    1    2    0    0  0.00000000000E+00  0.00000000000E+00  0.17513934612E+04  0.40610936803E+04  0.36640282237E+04 0.  0.
        2    1    3    3  502    0 -0.30725178205E+03 -0.14165291409E+03 -0.11199227827E+04  0.11699129219E+04  0.25500000920E-02 0. -1.
       -2    1    3    3    0  502  0.30725178205E+03  0.14165291409E+03  0.28713162438E+04  0.28911807584E+04  0.25500000920E-02 0.  1.
</event>
<event>
 5   0  0.4758908E-07  0.3696060E+04  0.7818609E-02  0.8068836E-01
        2   -1    0    0  501    0  0.00000000000E+00  0.00000000000E+00  0.24354160444E+04  0.24354160444E+04  0.25500000920E-02 0.  1.
       -2   -1    0    0    0  501  0.00000000000E+00  0.00000000000E+00 -0.14023123890E+04  0.14023123890E+04  0.25500000920E-02 0. -1.
    10030    2    1    2    0    0  0.00000000000E+00  0.00000000000E+00  0.10331036554E+04  0.38377284334E+04  0.36960595728E+04 0.  0.
        2    1    3    3  502    0  0.14873606226E+04  0.10830008037E+04  0.33646304066E+03  0.18703849177E+04  0.25500000920E-02 0.  1.
       -2    1    3    3    0  502 -0.14873606226E+04 -0.10830008037E+04  0.69664061470E+03  0.19673435157E+04  0.25500000920E-02 0. -1.
</event>
<event>
 5   0  0.1496000E-07  0.3381775E+04  0.7818609E-02  0.8142394E-01
       -1   -1    0    0    0  501  0.00000000000E+00  0.00000000000E+00  0.18233411723E+04  0.18233411723E+04  0.50400001928E-02 0. -1.
        1   -1    0    0  501    0  0.00000000000E+00  0.00000000000E+00 -0.15680557723E+04  0.15680557724E+04  0.50400001928E-02 0.  1.
    10030    2    1    2    0    0  0.00000000000E+00  0.00000000000E+00  0.25528539994E+03  0.33913969446E+04  0.33817750665E+04 0.  0.
        5    1    3    3  502    0 -0.10472665966E+04  0.45791209506E+03 -0.11219474082E+04  0.16016363157E+04  0.46999998093E+01 0.  1.
       -5    1    3    3    0  502  0.10472665966E+04 -0.45791209506E+03  0.13772328081E+04  0.17897606289E+04  0.46999998093E+01 0. -1.
</event>
<event>
 5   0  0.1496000E-07  0.3697105E+04  0.7818609E-02  0.8068604E-01
        1   -1    0    0  501    0  0.00000000000E+00  0.00000000000E+00  0.15941745816E+04  0.15941745816E+04  0.50400001928E-02 0.  1.
       -1   -1    0    0    0  501  0.00000000000E+00  0.00000000000E+00 -0.21435203408E+04  0.21435203408E+04  0.50400001928E-02 0. -1.
    10030    2    1    2    0    0  0.00000000000E+00  0.00000000000E+00 -0.54934575923E+03  0.37376949224E+04  0.36971046198E+04 0.  0.
        3    1    3    3  502    0 -0.14303404346E+04 -0.11108151813E+04 -0.64936506267E+03  0.19239176491E+04  0.10100000352E+00 0.  1.
       -3    1    3    3    0  502  0.14303404346E+04  0.11108151813E+04  0.10001930344E+03  0.18137772733E+04  0.10100000352E+00 0. -1.
</event>
<event>
 5   0  0.4758908E-07  0.3701054E+04  0.7818609E-02  0.8067728E-01
       -2   -1    0    0    0  501  0.00000000000E+00  0.00000000000E+00  0.28958690439E+04  0.28958690439E+04  0.25500000920E-02 0. -1.
        2   -1    0    0  501    0  0.00000000000E+00  0.00000000000E+00 -0.11825290763E+04  0.11825290763E+04  0.25500000920E-02 0.  1.
    10030    2    1    2    0    0  0.00000000000E+00  0.00000000000E+00  0.17133399676E+04  0.40783981202E+04  0.37010535504E+04 0.  0.
        2    1    3    3  502    0  0.66433632090E+03  0.71632481289E+03 -0.87518466082E+03  0.13116448358E+04  0.25500000920E-02 0.  1.
       -2    1    3    3    0  502 -0.66433632090E+03 -0.71632481289E+03  0.25885246284E+04  0.27667532844E+04  0.25500000920E-02 0. -1.
</event>
<event>
 5   0  0.1496000E-07  0.3630953E+04  0.7818609E-02  0.8083438E-01
        1   -1    0    0  501    0  0.00000000000E+00  0.00000000000E+00  0.18837735217E+04  0.18837735217E+04  0.50400001928E-02 0.  1.
       -1   -1    0    0    0  501  0.00000000000E+00  0.00000000000E+00 -0.17496555858E+04  0.17496555858E+04  0.50400001928E-02 0. -1.
    10030    2    1    2    0    0  0.00000000000E+00  0.00000000000E+00  0.13411793592E+03  0.36334291075E+04  0.36309529684E+04 0.  0.
        2    1    3    3  502    0 -0.17723067269E+04  0.35735985028E+03  0.23202789965E+03  0.18228039233E+04  0.25500000920E-02 0.  1.
       -2    1    3    3    0  502  0.17723067269E+04 -0.35735985028E+03 -0.97909963729E+02  0.18106251842E+04  0.25500000920E-02 0. -1.
</event>
<event>
 5   0  0.1496000E-07  0.3675519E+04  0.7818609E-02  0.8073409E-01
        1   -1    0    0  501    0  0.00000000000E+00  0.00000000000E+00  0.20862136980E+04  0.20862136980E+04  0.50400001928E-02 0. -1.
       -1   -1    0    0    0  501  0.00000000000E+00  0.00000000000E+00 -0.16188941441E+04  0.16188941441E+04  0.50400001928E-02 0.  1.
    10030    2    1    2    0    0  0.00000000000E+00  0.00000000000E+00  0.46731955387E+03  0.37051078421E+04  0.36755185425E+04 0.  0.
        5    1    3    3  502    0 -0.14683003028E+04 -0.21464786711E+03  0.13265265906E+04  0.19903955315E+04  0.46999998093E+01 0. -1.
       -5    1    3    3    0  502  0.14683003028E+04  0.21464786711E+03 -0.85920703676E+03  0.17147123106E+04  0.46999998093E+01 0.  1.
</event>
<event>
 5   0  0.4824268E-07  0.3715440E+04  0.7818609E-02  0.8064549E-01
        2   -1    0    0  501    0  0.00000000000E+00  0.00000000000E+00  0.16733674922E+04  0.16733674922E+04  0.25500000920E-02 0. -1.
       -2   -1    0    0    0  501  0.00000000000E+00  0.00000000000E+00 -0.20623822262E+04  0.20623822262E+04  0.25500000920E-02 0.  1.
    10030    2    1    2    0    0  0.00000000000E+00  0.00000000000E+00 -0.38901473398E+03  0.37357497184E+04  0.37154398791E+04 0.  0.
        1    1    3    3  502    0 -0.13949922281E+04  0.74769817627E+03 -0.11724842622E+04  0.19697145033E+04  0.50400001928E-02 0.  1.
       -1    1    3    3    0  502  0.13949922281E+04 -0.74769817627E+03  0.78346952820E+03  0.17660352151E+04  0.50400001928E-02 0. -1.
</event>
<event>
 5   0  0.4758908E-07  0.3472069E+04  0.7818609E-02  0.8120441E-01
       -2   -1    0    0    0  501  0.00000000000E+00  0.00000000000E+00  0.16515619295E+04  0.16515619295E+04  0.25500000920E-02 0. -1.
        2   -1    0    0  501    0  0.00000000000E+00  0.00000000000E+00 -0.18248278654E+04  0.18248278654E+04  0.25500000920E-02 0.  1.
    10030    2    1    2    0    0  0.00000000000E+00  0.00000000000E+00 -0.17326593595E+03  0.34763897949E+04  0.34720692565E+04 0.  0.
        2    1    3    3  502    0 -0.13033210374E+04  0.11202469885E+04  0.15906429859E+03  0.17259491571E+04  0.25500000920E-02 0. -1.
       -2    1    3    3    0  502  0.13033210374E+04 -0.11202469885E+04 -0.33233023455E+03  0.17504406378E+04  0.25500000920E-02 0.  1.
</event>
<event>
 5   0  0.4687817E-07  0.3648826E+04  0.7818609E-02  0.8079398E-01
       -2   -1    0    0    0  501  0.00000000000E+00  0.00000000000E+00  0.14140268170E+04  0.14140268170E+04  0.25500000920E-02 0.  1.
        2   -1    0    0  501    0  0.00000000000E+00  0.00000000000E+00 -0.23539036125E+04  0.23539036125E+04  0.25500000920E-02 0. -1.
    10030    2    1    2    0    0  0.00000000000E+00  0.00000000000E+00 -0.93987679546E+03  0.37679304295E+04  0.36488260209E+04 0.  0.
        4    1    3    3  502    0  0.67565830707E+03 -0.27103040803E+03 -0.21974187591E+04  0.23148698550E+04  0.12699999809E+01 0. -1.
       -4    1    3    3    0  502 -0.67565830707E+03  0.27103040803E+03  0.12575419636E+04  0.14530605745E+04  0.12699999809E+01 0.  1.
</event>
<event>
 5   0  0.4857514E-07  0.3655967E+04  0.7818609E-02  0.8077791E-01
       -2   -1    0    0    0  501  0.00000000000E+00  0.00000000000E+00  0.18133616434E+04  0.18133616434E+04  0.25500000920E-02 0. -1.
        2   -1    0    0  501    0  0.00000000000E+00  0.00000000000E+00 -0.18427234301E+04  0.18427234301E+04  0.25500000920E-02 0.  1.
    10030    2    1    2    0    0  0.00000000000E+00  0.00000000000E+00 -0.29361786725E+02  0.36560850735E+04  0.36559671702E+04 0.  0.
        5    1    3    3  502    0  0.85679188471E+03 -0.13894723332E+04  0.80800972363E+03  0.18214355607E+04  0.46999998093E+01 0. -1.
       -5    1    3    3    0  502 -0.85679188471E+03  0.13894723332E+04 -0.83737151035E+03  0.18346495128E+04  0.46999998093E+01 0.  1.
</event>
<event>
 5   0  0.4687817E-07  0.3659005E+04  0.7818609E-02  0.8077108E-01
        2   -1    0    0  501    0  0.00000000000E+00  0.00000000000E+00  0.24405601511E+04  0.24405601511E+04  0.25500000920E-02 0. -1.
       -2   -1    0    0    0  501  0.00000000000E+00  0.00000000000E+00 -0.13714387295E+04  0.13714387295E+04  0.25500000920E-02 0.  1.
    10030    2    1    2    0    0  0.00000000000E+00  0.00000000000E+00  0.10691214216E+04  0.38119988807E+04  0.36590046259E+04 0.  0.
        4    1    3    3  502    0  0.65395113411E+03 -0.14381874588E+04  0.14956533782E+04  0.21755495612E+04  0.12699999809E+01 0.  1.
       -4    1    3    3    0  502 -0.65395113411E+03  0.14381874588E+04 -0.42653195655E+03  0.16364493195E+04  0.12699999809E+01 0. -1.
</event>
<event>
 5   0  0.4824268E-07  0.3682254E+04  0.7818609E-02  0.8071906E-01
       -2   -1    0    0    0  501  0.00000000000E+00  0.00000000000E+00  0.29010241671E+04  0.29010241671E+04  0.25500000920E-02 0.  1.
        2   -1    0    0  501    0  0.00000000000E+00  0.00000000000E+00 -0.11684658771E+04  0.11684658771E+04  0.25500000920E-02 0. -1.
    10030    2    1    2    0    0  0.00000000000E+00  0.00000000000E+00  0.17325582900E+04  0.40694900441E+04  0.36822535208E+04 0.  0.
        1    1    3    3  502    0  0.43329851371E+03 -0.17804080040E+04  0.66812653100E+03  0.19503828660E+04  0.50400001928E-02 0.  1.
       -1    1    3    3    0  502 -0.43329851371E+03  0.17804080040E+04  0.10644317590E+04  0.21191071781E+04  0.50400001928E-02 0. -1.
</event>
<event>
 5   0  0.1522273E-07  0.3725188E+04  0.7818609E-02  0.8062403E-01
       -1   -1    0    0    0  501  0.00000000000E+00  0.00000000000E+00  0.30309969921E+04  0.30309969921E+04  0.50400001928E-02 0.  1.
        1   -1    0    0  501    0  0.00000000000E+00  0.00000000000E+00 -0.11445927613E+04  0.11445927613E+04  0.50400001928E-02 0. -1.
    10030    2    1    2    0    0  0.00000000000E+00  0.00000000000E+00  0.18864042308E+04  0.41755897534E+04  0.37251884338E+04 0.  0.
        4    1    3    3  502    0 -0.84533276624E+02 -0.17976346651E+04  0.40491071752E+03  0.18446112236E+04  0.12699999809E+01 0. -1.
       -4    1    3    3    0  502  0.84533276624E+02  0.17976346651E+04  0.14814935133E+04  0.23309785299E+04  0.12699999809E+01 0.  1.
</event>
<event>
 5   0  0.4758908E-07  0.3620550E+04  0.7818609E-02  0.8085801E-01
       -2   -1    0    0    0  501  0.00000000000E+00  0.00000000000E+00  0.25055581151E+04  0.25055581151E+04  0.25500000920E-02 0.  1.
        2   -1    0    0  501    0  0.00000000000E+00  0.00000000000E+00 -0.13079300940E+04  0.13079300940E+04  0.25500000920E-02 0. -1.
    10030    2    1    2    0    0  0.00000000000E+00  0.00000000000E+00  0.11976280211E+04  0.38134882091E+04  0.36205496052E+04 0.  0.
        2    1    3    3  502    0  0.14716930350E+04  0.38394508830E+03 -0.43523592327E+03  0.15820001672E+04  0.25500000920E-02 0.  1.
       -2    1    3    3    0  502 -0.14716930350E+04 -0.38394508830E+03  0.16328639444E+04  0.22314880419E+04  0.25500000920E-02 0. -1.
</event>
<event>
 5   0  0.4793557E-07  0.3723189E+04  0.7818609E-02  0.8062842E-01
       -2   -1    0    0    0  501  0.00000000000E+00  0.00000000000E+00  0.13441267354E+04  0.13441267354E+04  0.25500000920E-02 0. -1.
        2   -1    0    0  501    0  0.00000000000E+00  0.00000000000E+00 -0.25782789863E+04  0.25782789863E+04  0.25500000920E-02 0.  1.
    10030    2    1    2    0    0  0.00000000000E+00  0.00000000000E+00 -0.12341522509E+04  0.39224057217E+04  0.37231888036E+04 0.  0.
        3    1    3    3  502    0  0.11905627265E+04 -0.93442567886E+03 -0.17590227549E+04  0.23205068450E+04  0.10100000352E+00 0.  1.
       -3    1    3    3    0  502 -0.11905627265E+04  0.93442567886E+03  0.52487050402E+03  0.16018988767E+04  0.10100000352E+00 0. -1.
</event>
<event>
 5   0  0.1496000E-07  0.3682544E+04  0.7818609E-02  0.8071841E-01
       -1   -1    0    0    0  501  0.00000000000E+00  0.00000000000E+00  0.16299869568E+04  0.16299869568E+04  0.50400001928E-02 0. -1.
        1   -1    0    0  501    0  0.00000000000E+00  0.00000000000E+00 -0.20799444295E+04  0.20799444295E+04  0.50400001928E-02 0.  1.
    10030    2    1    2    0    0  0.00000000000E+00  0.00000000000E+00 -0.44995747266E+03  0.37099313863E+04  0.36825438441E+04 0.  0.
        2    1    3    3  502    0 -0.58013314206E+03  0.82329064862E+02  0.15335545675E+04  0.16416827187E+04  0.25500000920E-02 0. -1.
       -2    1    3    3    0  502  0.58013314206E+03 -0.82329064862E+02 -0.19835120401E+04  0.20682486676E+04  0.25500000920E-02 0.  1.
</event>
<event>
 5   0  0.4824268E-07  0.3758718E+04  0.7818609E-02  0.8055072E-01
        2   -1    0    0  501    0  0.00000000000E+00  0.00000000000E+00  0.21546324371E+04  0.21546324371E+04  0.25500000920E-02 0.  1.
       -2   -1    0    0    0  501  0.00000000000E+00  0.00000000000E+00 -0.16392537766E+04  0.16392537766E+04  0.25500000920E-02 0. -1.
    10030    2    1    2    0    0  0.00000000000E+00  0.00000000000E+00  0.51537866053E+03  0.37938862138E+04  0.37587175259E+04 0.  0.
        1    1    3    3  502    0  0.98180049112E+03  0.14678544685E+04 -0.39133590079E+03  0.18087765844E+04  0.50400001928E-02 0.  1.
       -1    1    3    3    0  502 -0.98180049112E+03 -0.14678544685E+04  0.90671456132E+03  0.19851096294E+04  0.50400001928E-02 0. -1.
</event>
<event>
 5   0  0.1496287E-07  0.3798399E+04  0.7818609E-02  0.8046498E-01
        1   -1    0    0  501    0  0.00000000000E+00  0.00000000000E+00  0.14938653603E+04  0.14938653604E+04  0.50400001928E-02 0. -1.
       -1   -1    0    0    0  501  0.00000000000E+00  0.00000000000E+00 -0.24145145334E+04  0.24145145334E+04  0.50400001928E-02 0.  1.
    10030    2    1    2    0    0  0.00000000000E+00  0.00000000000E+00 -0.92064917301E+03  0.39083798937E+04  0.37983994647E+04 0.  0.
        1    1    3    3  502    0  0.14562433680E+04  0.55206852223E+03  0.65813287446E+03  0.16907286241E+04  0.50400001928E-02 0. -1.
       -1    1    3    3    0  502 -0.14562433680E+04 -0.55206852223E+03 -0.15787820475E+04  0.22176512696E+04  0.50400001928E-02 0.  1.
</event>
<event>
 5   0  0.4758908E-07  0.3660830E+04  0.7818609E-02  0.8076698E-01
       -2   -1    0    0    0  501  0.00000000000E+00  0.00000000000E+00  0.16438447953E+04  0.16438447953E+04  0.25500000920E-02 0. -1.
        2   -1    0    0  501    0  0.00000000000E+00  0.00000000000E+00 -0.20381598991E+04  0.20381598991E+04  0.25500000920E-02 0.  1.
    10030    2    1    2    0    0  0.00000000000E+00  0.00000000000E+00 -0.39431510374E+03  0.36820046944E+04  0.36608297104E+04 0.  0.
        2    1    3    3  502    0 -0.74886903452E+03  0.11111251857E+04 -0.14513726850E+04  0.19753193868E+04  0.25500000920E-02 0.  1.
       -2    1    3    3    0  502  0.74886903452E+03 -0.11111251857E+04  0.10570575812E+04  0.17066853076E+04  0.25500000920E-02 0. -1.
</event>
<event>
 5   0  0.1496000E-07  0.3758191E+04  0.7818609E-02  0.8055187E-01
        1   -1    0    0  501    0  0.00000000000E+00  0.00000000000E+00  0.21797169512E+04  0.21797169512E+04  0.50400001928E-02 0.  1.
       -1   -1    0    0    0  501  0.00000000000E+00  0.00000000000E+00 -0.16199349456E+04  0.16199349457E+04  0.50400001928E-02 0. -1.
    10030    2    1    2    0    0  0.00000000000E+00  0.00000000000E+00  0.55978200557E+03  0.37996518969E+04  0.37581908738E+04 0.  0.
        5    1    3    3  502    0 -0.54359087412E+03 -0.66536703765E+02  0.20972362865E+04  0.21675655244E+04  0.46999998093E+01 0.  1.
       -5    1    3    3    0  502  0.54359087412E+03  0.66536703765E+02 -0.15374542809E+04  0.16320863725E+04  0.46999998093E+01 0. -1.
</event>
<event>
 5   0  0.4857514E-07  0.3734490E+04  0.7818609E-02  0.8060361E-01
       -2   -1    0    0    0  501  0.00000000000E+00  0.00000000000E+00  0.16867769532E+04  0.16867769532E+04  0.25500000920E-02 0. -1.
        2   -1    0    0  501    0  0.00000000000E+00  0.00000000000E+00 -0.20670218019E+04  0.20670218019E+04  0.25500000920E-02 0.  1.
    10030    2    1    2    0    0  0.00000000000E+00  0.00000000000E+00 -0.38024484866E+03  0.37537987551E+04  0.37344904537E+04 0.  0.
        5    1    3    3  502    0  0.43108382841E+03 -0.64764480269E+03 -0.18963395361E+04  0.20497323688E+04  0.46999998093E+01 0.  1.
       -5    1    3    3    0  502 -0.43108382841E+03  0.64764480269E+03  0.15160946874E+04  0.17040663863E+04  0.46999998093E+01 0. -1.
</event>
<event>
 5   0  0.1522273E-07  0.4128542E+04  0.7818609E-02  0.7979106E-01
        1   -1    0    0  501    0  0.00000000000E+00  0.00000000000E+00  0.21809436632E+04  0.21809436632E+04  0.50400001928E-02 0. -1.
       -1   -1    0    0    0  501  0.00000000000E+00  0.00000000000E+00 -0.19538398287E+04  0.19538398287E+04  0.50400001928E-02 0.  1.
    10030    2    1    2    0    0  0.00000000000E+00  0.00000000000E+00  0.22710383454E+03  0.41347834919E+04  0.41285419185E+04 0.  0.
        4    1    3    3  502    0  0.12232659075E+04  0.13952144732E+04  0.10194690774E+04  0.21171494325E+04  0.12699999809E+01 0. -1.
       -4    1    3    3    0  502 -0.12232659075E+04 -0.13952144732E+04 -0.79236524290E+03  0.20176340594E+04  0.12699999809E+01 0.  1.
</event>
<event>
 5   0  0.4687817E-07  0.3736732E+04  0.7818609E-02  0.8059870E-01
        2   -1    0    0  501    0  0.00000000000E+00  0.00000000000E+00  0.24216889954E+04  0.24216889954E+04  0.25500000920E-02 0.  1.
       -2   -1    0    0    0  501  0.00000000000E+00  0.00000000000E+00 -0.14414700058E+04  0.14414700058E+04  0.25500000920E-02 0. -1.
    10030    2    1    2    0    0  0.00000000000E+00  0.00000000000E+00  0.98021898965E+03  0.38631590012E+04  0.37367322891E+04 0.  0.
        4    1    3    3  502    0  0.33768473152E+03  0.25898214070E+03 -0.13906969627E+04  0.14543529083E+04  0.12699999809E+01 0. -1.
       -4    1    3    3    0  502 -0.33768473152E+03 -0.25898214070E+03  0.23709159523E+04  0.24088060928E+04  0.12699999809E+01 0.  1.
</event>
<event>
 5   0  0.1496287E-07  0.3729076E+04  0.7818609E-02  0.8061549E-01
        1   -1    0    0  501    0  0.00000000000E+00  0.00000000000E+00  0.19098112399E+04  0.19098112399E+04  0.50400001928E-02 0.  1.
       -1   -1    0    0    0  501  0.00000000000E+00  0.00000000000E+00 -0.18203375972E+04  0.18203375973E+04  0.50400001928E-02 0. -1.
    10030    2    1    2    0    0  0.00000000000E+00  0.00000000000E+00  0.89473642694E+02  0.37301488372E+04  0.37290755979E+04 0.  0.
        1    1    3    3  502    0 -0.90683732518E+03  0.36531165931E+03 -0.15433896840E+04  0.18269806401E+04  0.50400001928E-02 0. -1.
       -1    1    3    3    0  502  0.90683732518E+03 -0.36531165931E+03  0.16328633267E+04  0.19031681971E+04  0.50400001928E-02 0.  1.
</event>
<event>
 5   0  0.4824268E-07  0.3525767E+04  0.7818609E-02  0.8107711E-01
       -2   -1    0    0    0  501  0.00000000000E+00  0.00000000000E+00  0.13549712964E+04  0.13549712964E+04  0.25500000920E-02 0.  1.
        2   -1    0    0  501    0  0.00000000000E+00  0.00000000000E+00 -0.22935968708E+04  0.22935968708E+04  0.25500000920E-02 0. -1.
    10030    2    1    2    0    0  0.00000000000E+00  0.00000000000E+00 -0.93862557439E+03  0.36485681672E+04  0.35257668246E+04 0.  0.
        1    1    3    3  502    0 -0.15448087804E+04  0.16582833787E+03 -0.13312859852E+04  0.20460341102E+04  0.50400001928E-02 0. -1.
       -1    1    3    3    0  502  0.15448087804E+04 -0.16582833787E+03  0.39266041077E+03  0.16025340570E+04  0.50400001928E-02 0.  1.
</event>
<event>
 5   0  0.1522273E-07  0.3714933E+04  0.7818609E-02  0.8064660E-01
        1   -1    0    0  501    0  0.00000000000E+00  0.00000000000E+00  0.21364024969E+04  0.21364024969E+04  0.50400001928E-02 0.  1.
       -1   -1    0    0    0  501  0.00000000000E+00  0.00000000000E+00 -0.16149497355E+04  0.16149497355E+04  0.50400001928E-02 0. -1.
    10030    2    1    2    0    0  0.00000000000E+00  0.00000000000E+00  0.52145276143E+03  0.37513522323E+04  0.37149334568E+04 0.  0.
        4    1    3    3  502    0  0.11606838694E+04  0.61675543702E+03  0.15860742180E+04  0.20599046948E+04  0.12699999809E+01 0. -1.
       -4    1    3    3    0  502 -0.11606838694E+04 -0.61675543702E+03 -0.10646214566E+04  0.16914475376E+04  0.12699999809E+01 0.  1.
</event>
<event>
 5   0  0.4793557E-07  0.3686360E+04  0.7818609E-02  0.8070991E-01
        2   -1    0    0  501    0  0.00000000000E+00  0.00000000000E+00  0.24710702917E+04  0.24710702917E+04  0.25500000920E-02 0.  1.
       -2   -1    0    0    0  501  0.00000000000E+00  0.00000000000E+00 -0.13748344696E+04  0.13748344696E+04  0.25500000920E-02 0. -1.
    10030    2    1    2    0    0  0.00000000000E+00  0.00000000000E+00  0.10962358220E+04  0.38459047613E+04  0.36863600550E+04 0.  0.
        3    1    3    3  502    0  0.66919274913E+02  0.11134944837E+04 -0.98268473106E+03  0.14866127423E+04  0.10100000352E+00 0. -1.
       -3    1    3    3    0  502 -0.66919274913E+02 -0.11134944837E+04  0.20789205531E+04  0.23592920190E+04  0.10100000352E+00 0.  1.
</event>
<event>
 5   0  0.1496000E-07  0.3703655E+04  0.7818609E-02  0.8067152E-01
        1   -1    0    0  501    0  0.00000000000E+00  0.00000000000E+00  0.16311929283E+04  0.16311929284E+04  0.50400001928E-02 0.  1.
       -1   -1    0    0    0  501  0.00000000000E+00  0.00000000000E+00 -0.21023054873E+04  0.21023054873E+04  0.50400001928E-02 0. -1.
    10030    2    1    2    0    0  0.00000000000E+00  0.00000000000E+00 -0.47111255897E+03  0.37334984157E+04  0.37036554074E+04 0.  0.
        3    1    3    3  502    0 -0.75797746457E+03  0.11455551389E+04  0.10164008477E+04  0.17087706418E+04  0.10100000352E+00 0.  1.
       -3    1    3    3    0  502  0.75797746457E+03 -0.11455551389E+04 -0.14875134066E+04  0.20247277738E+04  0.10100000352E+00 0. -1.
</event>
<event>
 5   0  0.4824268E-07  0.3708458E+04  0.7818609E-02  0.8066090E-01
       -2   -1    0    0    0  501  0.00000000000E+00  0.00000000000E+00  0.14547110484E+04  0.14547110484E+04  0.25500000920E-02 0.  1.
        2   -1    0    0  501    0  0.00000000000E+00  0.00000000000E+00 -0.23634695376E+04  0.23634695376E+04  0.25500000920E-02 0. -1.
    10030    2    1    2    0    0  0.00000000000E+00  0.00000000000E+00 -0.90875848917E+03  0.38181805859E+04  0.37084580347E+04 0.  0.
        1    1    3    3  502    0 -0.10276219936E+04  0.61744474707E+03 -0.19107702506E+04  0.22557233713E+04  0.50400001928E-02 0. -1.
       -1    1    3    3    0  502  0.10276219936E+04 -0.61744474707E+03  0.10020117614E+04  0.15624572146E+04  0.50400001928E-02 0.  1.
</event>
<event>
 5   0  0.1522273E-07  0.3707349E+04  0.7818609E-02  0.8066335E-01
        1   -1    0    0  501    0  0.00000000000E+00  0.00000000000E+00  0.28422296333E+04  0.28422296333E+04  0.50400001928E-02 0. -1.
       -1   -1    0    0    0  501  0.00000000000E+00  0.00000000000E+00 -0.12089482327E+04  0.12089482327E+04  0.50400001928E-02 0.  1.
    10030    2    1    2    0    0  0.00000000000E+00  0.00000000000E+00  0.16332814006E+04  0.40511778660E+04  0.37073486441E+04 0.  0.
        4    1    3    3  502    0  0.86031138103E+03 -0.99338298602E+03  0.22452366878E+04  0.26015447001E+04  0.12699999809E+01 0. -1.
       -4    1    3    3    0  502 -0.86031138103E+03  0.99338298602E+03 -0.61195528727E+03  0.14496331659E+04  0.12699999809E+01 0.  1.
</event>
<event>
 5   0  0.4793557E-07  0.3648543E+04  0.7818609E-02  0.8079462E-01
        2   -1    0    0  501    0  0.00000000000E+00  0.00000000000E+00  0.21483669316E+04  0.21483669316E+04  0.25500000920E-02 0. -1.
       -2   -1    0    0    0  501  0.00000000000E+00  0.00000000000E+00 -0.15490681620E+04  0.15490681620E+04  0.25500000920E-02 0.  1.
    10030    2    1    2    0    0  0.00000000000E+00  0.00000000000E+00  0.59929876961E+03  0.36974350936E+04  0.36485431690E+04 0.  0.
        3    1    3    3  502    0  0.10769749163E+04  0.14256258158E+04  0.67293699459E+03  0.19092218693E+04  0.10100000352E+00 0. -1.
       -3    1    3    3    0  502 -0.10769749163E+04 -0.14256258158E+04 -0.73638224977E+02  0.17882132243E+04  0.10100000352E+00 0.  1.
</event>
<event>
 5   0  0.1522273E-07  0.3743588E+04  0.7818609E-02  0.8058370E-01
        1   -1    0    0  501    0  0.00000000000E+00  0.00000000000E+00  0.15320869787E+04  0.15320869787E+04  0.50400001928E-02 0.  1.
       -1   -1    0    0    0  501  0.00000000000E+00  0.00000000000E+00 -0.22868231958E+04  0.22868231958E+04  0.50400001928E-02 0. -1.
    10030    2    1    2    0    0  0.00000000000E+00  0.00000000000E+00 -0.75473621712E+03  0.38189101746E+04  0.37435876060E+04 0.  0.
        4    1    3    3  502    0  0.63426670913E+02  0.13864581437E+04  0.90381595158E+03  0.16562530043E+04  0.12699999809E+01 0. -1.
       -4    1    3    3    0  502 -0.63426670913E+02 -0.13864581437E+04 -0.16585521687E+04  0.21626571703E+04  0.12699999809E+01 0.  1.
</event>
<event>
 5   0  0.1522273E-07  0.3626867E+04  0.7818609E-02  0.8084365E-01
       -1   -1    0    0    0  501  0.00000000000E+00  0.00000000000E+00  0.13604623297E+04  0.13604623298E+04  0.50400001928E-02 0. -1.
        1   -1    0    0  501    0  0.00000000000E+00  0.00000000000E+00 -0.24172228881E+04  0.24172228881E+04  0.50400001928E-02 0.  1.
    10030    2    1    2    0    0  0.00000000000E+00  0.00000000000E+00 -0.10567605583E+04  0.37776852178E+04  0.36268667921E+04 0.  0.
        4    1    3    3  502    0  0.17156862758E+04  0.42658351408E+03 -0.94888371531E+03  0.20064732267E+04  0.12699999809E+01 0.  1.
       -4    1    3    3    0  502 -0.17156862758E+04 -0.42658351408E+03 -0.10787684302E+03  0.17712119911E+04  0.12699999809E+01 0. -1.
</event>
<event>
 5   0  0.1496000E-07  0.3703998E+04  0.7818609E-02  0.8067076E-01
        1   -1    0    0  501    0  0.00000000000E+00  0.00000000000E+00  0.19975021449E+04  0.19975021449E+04  0.50400001928E-02 0.  1.
       -1   -1    0    0    0  501  0.00000000000E+00  0.00000000000E+00 -0.17170950513E+04  0.17170950514E+04  0.50400001928E-02 0. -1.
    10030    2    1    2    0    0  0.00000000000E+00  0.00000000000E+00  0.28040709351E+03  0.37145971962E+04  0.37039984061E+04 0.  0.
        5    1    3    3  502    0  0.15537333665E+04 -0.73776449334E+03 -0.54841631373E+03  0.18053161399E+04  0.46999998093E+01 0. -1.
       -5    1    3    3    0  502 -0.15537333665E+04  0.73776449334E+03  0.82882340725E+03  0.19092810563E+04  0.46999998093E+01 0.  1.
</event>
<event>
 5   0  0.4758908E-07  0.3675793E+04  0.7818609E-02  0.8073348E-01
        2   -1    0    0  501    0  0.00000000000E+00  0.00000000000E+00  0.20029165935E+04  0.20029165935E+04  0.25500000920E-02 0.  1.
       -2   -1    0    0    0  501  0.00000000000E+00  0.00000000000E+00 -0.16864727955E+04  0.16864727955E+04  0.25500000920E-02 0. -1.
    10030    2    1    2    0    0  0.00000000000E+00  0.00000000000E+00  0.31644379803E+03  0.36893893890E+04  0.36757934363E+04 0.  0.
        2    1    3    3  502    0  0.12541537029E+04  0.11018780448E+04 -0.61327429461E+03  0.17785224476E+04  0.25500000920E-02 0. -1.
       -2    1    3    3    0  502 -0.12541537029E+04 -0.11018780448E+04  0.92971809264E+03  0.19108669414E+04  0.25500000920E-02 0.  1.
</event>
<event>
 5   0  0.4687817E-07  0.3716423E+04  0.7818609E-02  0.8064332E-01
       -2   -1    0    0    0  501  0.00000000000E+00  0.00000000000E+00  0.17335355217E+04  0.17335355217E+04  0.25500000920E-02 0. -1.
        2   -1    0    0  501    0  0.00000000000E+00  0.00000000000E+00 -0.19918542250E+04  0.19918542250E+04  0.25500000920E-02 0.  1.
    10030    2    1    2    0    0  0.00000000000E+00  0.00000000000E+00 -0.25831870330E+03  0.37253897468E+04  0.37164230401E+04 0.  0.
        4    1    3    3  502    0  0.11142305735E+04 -0.11730814174E+04 -0.10453221694E+04  0.19262216470E+04  0.12699999809E+01 0.  1.
       -4    1    3    3    0  502 -0.11142305735E+04  0.11730814174E+04  0.78700346612E+03  0.17991680998E+04  0.12699999809E+01 0. -1.
</event>
<event>
 5   0  0.4857514E-07  0.3719961E+04  0.7818609E-02  0.8063553E-01
        2   -1    0    0  501    0  0.00000000000E+00  0.00000000000E+00  0.21047176938E+04  0.21047176938E+04  0.25500000920E-02 0.  1.
       -2   -1    0    0    0  501  0.00000000000E+00  0.00000000000E+00 -0.16437013300E+04  0.16437013300E+04  0.25500000920E-02 0. -1.
    10030    2    1    2    0    0  0.00000000000E+00  0.00000000000E+00  0.46101636380E+03  0.37484190238E+04  0.37199608990E+04 0.  0.
        5    1    3    3  502    0 -0.15790400572E+04 -0.74785691018E+03  0.87323393629E+03  0.19532580623E+04  0.46999998093E+01 0.  1.
       -5    1    3    3    0  502  0.15790400572E+04  0.74785691018E+03 -0.41221757249E+03  0.17951609615E+04  0.46999998093E+01 0. -1.
</event>
<event>
 5   0  0.1496000E-07  0.4136223E+04  0.7818609E-02  0.7977616E-01
        4   -1    0    0  501    0  0.00000000000E+00  0.00000000000E+00  0.21269015438E+04  0.21269019230E+04  0.12699999809E+01 0. -1.
       -4   -1    0    0    0  501  0.00000000000E+00  0.00000000000E+00 -0.20109460913E+04  0.20109464923E+04  0.12699999809E+01 0.  1.
    10030    2    1    2    0    0  0.00000000000E+00  0.00000000000E+00  0.11595545255E+03  0.41378484153E+04  0.41362233790E+04 0.  0.
        2    1    3    3  502    0  0.59274940209E+03 -0.19983758487E+03 -0.19140397548E+04  0.20136621109E+04  0.25500000920E-02 0.  1.
       -2    1    3    3    0  502 -0.59274940209E+03  0.19983758487E+03  0.20299952073E+04  0.21241863044E+04  0.25500000920E-02 0. -1.
</event>
<event>
 5   0  0.1522273E-07  0.3670272E+04  0.7818609E-02  0.8074582E-01
        1   -1    0    0  501    0  0.00000000000E+00  0.00000000000E+00  0.26277255488E+04  0.26277255488E+04  0.50400001928E-02 0. -1.
       -1   -1    0    0    0  501  0.00000000000E+00  0.00000000000E+00 -0.12816120311E+04  0.12816120311E+04  0.50400001928E-02 0.  1.
    10030    2    1    2    0    0  0.00000000000E+00  0.00000000000E+00  0.13461135178E+04  0.39093375799E+04  0.36702722938E+04 0.  0.
        4    1    3    3  502    0 -0.15776769748E+04  0.69685760664E+03  0.52856407534E+01  0.17247332291E+04  0.12699999809E+01 0.  1.
       -4    1    3    3    0  502  0.15776769748E+04 -0.69685760664E+03  0.13408278770E+04  0.21846043508E+04  0.12699999809E+01 0. -1.
</event>
<event>
 5   0  0.1496287E-07  0.3750653E+04  0.7818609E-02  0.8056828E-01
       -1   -1    0    0    0  501  0.00000000000E+00  0.00000000000E+00  0.19401428987E+04  0.19401428987E+04  0.50400001928E-02 0. -1.
        1   -1    0    0  501    0  0.00000000000E+00  0.00000000000E+00 -0.18126755837E+04  0.18126755837E+04  0.50400001928E-02 0.  1.
    10030    2    1    2    0    0  0.00000000000E+00  0.00000000000E+00  0.12746731498E+03  0.37528184825E+04  0.37506530959E+04 0.  0.
        1    1    3    3  502    0  0.10006798182E+04  0.15662375534E+04 -0.18618942923E+03  0.18679204148E+04  0.50400001928E-02 0. -1.
       -1    1    3    3    0  502 -0.10006798182E+04 -0.15662375534E+04  0.31365674421E+03  0.18848980677E+04  0.50400001928E-02 0.  1.
</event>
<event>
 5   0  0.4793557E-07  0.3654835E+04  0.7818609E-02  0.8078045E-01
       -2   -1    0    0    0  501  0.00000000000E+00  0.00000000000E+00  0.11883380423E+04  0.11883380423E+04  0.25500000920E-02 0.  1.
        2   -1    0    0  501    0  0.00000000000E+00  0.00000000000E+00 -0.28101885774E+04  0.28101885774E+04  0.25500000920E-02 0. -1.
    10030    2    1    2    0    0  0.00000000000E+00  0.00000000000E+00 -0.16218505352E+04  0.39985266197E+04  0.36548346023E+04 0.  0.
        3    1    3    3  502    0 -0.14211484892E+04 -0.81915820630E+03  0.70281668271E+02  0.16418351678E+04  0.10100000352E+00 0. -1.
       -3    1    3    3    0  502  0.14211484892E+04  0.81915820630E+03 -0.16921322034E+04  0.23566914519E+04  0.10100000352E+00 0.  1.
</event>
<event>
 5   0  0.4824268E-07  0.3704772E+04  0.7818609E-02  0.8066905E-01
        2   -1    0    0  501    0  0.00000000000E+00  0.00000000000E+00  0.21600069534E+04  0.21600069535E+04  0.25500000920E-02 0.  1.
       -2   -1    0    0    0  501  0.00000000000E+00  0.00000000000E+00 -0.15885750094E+04  0.15885750094E+04  0.25500000920E-02 0. -1.
    10030    2    1    2    0    0  0.00000000000E+00  0.00000000000E+00  0.57143194408E+03  0.37485819628E+04  0.37047715537E+04 0.  0.
        1    1    3    3  502    0  0.10835274569E+03  0.52057736549E+03 -0.15096945603E+04  0.16005995053E+04  0.50400001928E-02 0. -1.
       -1    1    3    3    0  502 -0.10835274569E+03 -0.52057736549E+03  0.20811265043E+04  0.21479824576E+04  0.50400001928E-02 0.  1.
</event>
<event>
 5   0  0.4857514E-07  0.3698087E+04  0.7818609E-02  0.8068386E-01
       -2   -1    0    0    0  501  0.00000000000E+00  0.00000000000E+00  0.19725232691E+04  0.19725232691E+04  0.25500000920E-02 0. -1.
        2   -1    0    0  501    0  0.00000000000E+00  0.00000000000E+00 -0.17332935057E+04  0.17332935057E+04  0.25500000920E-02 0.  1.
    10030    2    1    2    0    0  0.00000000000E+00  0.00000000000E+00  0.23922976336E+03  0.37058167748E+04  0.36980869499E+04 0.  0.
        5    1    3    3  502    0 -0.67151332861E+02  0.11863291017E+04 -0.13000515544E+04  0.17612615289E+04  0.46999998093E+01 0.  1.
       -5    1    3    3    0  502  0.67151332861E+02 -0.11863291017E+04  0.15392813178E+04  0.19445552459E+04  0.46999998093E+01 0. -1.
</event>
<event>
 5   0  0.1496000E-07  0.3647574E+04  0.7818609E-02  0.8079680E-01
        1   -1    0    0  501    0  0.00000000000E+00  0.00000000000E+00  0.16042973382E+04  0.16042973382E+04  0.50400001928E-02 0. -1.
       -1   -1    0    0    0  501  0.00000000000E+00  0.00000000000E+00 -0.20733053865E+04  0.20733053865E+04  0.50400001928E-02 0.  1.
    10030    2    1    2    0    0  0.00000000000E+00  0.00000000000E+00 -0.46900804824E+03  0.36776027247E+04  0.36475736115E+04 0.  0.
        5    1    3    3  502    0 -0.15548621789E+04  0.49622181064E+03 -0.10550491424E+04  0.19434462338E+04  0.46999998093E+01 0.  1.
       -5    1    3    3    0  502  0.15548621789E+04 -0.49622181064E+03  0.58604109417E+03  0.17341564909E+04  0.46999998093E+01 0. -1.
</event>
<event>
 5   0  0.4758908E-07  0.3758538E+04  0.7818609E-02  0.8055111E-01
        2   -1    0    0  501    0  0.00000000000E+00  0.00000000000E+00  0.15742604118E+04  0.15742604118E+04  0.25500000920E-02 0. -1.
       -2   -1    0    0    0  501  0.00000000000E+00  0.00000000000E+00 -0.22433725421E+04  0.22433725421E+04  0.25500000920E-02 0.  1.
    10030    2    1    2    0    0  0.00000000000E+00  0.00000000000E+00 -0.66911213026E+03  0.38176329539E+04  0.37585383233E+04 0.  0.
        2    1    3    3  502    0  0.51547582941E+03  0.63206629705E+03 -0.20542288426E+04  0.22102215438E+04  0.25500000920E-02 0.  1.
       -2    1    3    3    0  502 -0.51547582941E+03 -0.63206629705E+03  0.13851167124E+04  0.16074114101E+04  0.25500000920E-02 0. -1.
</event>
<event>
 5   0  0.1496287E-07  0.3690130E+04  0.7818609E-02  0.8070153E-01
       -1   -1    0    0    0  501  0.00000000000E+00  0.00000000000E+00  0.33984210827E+04  0.33984210827E+04  0.50400001928E-02 0. -1.
        1   -1    0    0  501    0  0.00000000000E+00  0.00000000000E+00 -0.10017194692E+04  0.10017194692E+04  0.50400001928E-02 0.  1.
    10030    2    1    2    0    0  0.00000000000E+00  0.00000000000E+00  0.23967016135E+04  0.44001405519E+04  0.36901298422E+04 0.  0.
        1    1    3    3  502    0  0.11227368297E+04 -0.14583758172E+04  0.10434912439E+04  0.21157202058E+04  0.50400001928E-02 0. -1.
       -1    1    3    3    0  502 -0.11227368297E+04  0.14583758172E+04  0.13532103696E+04  0.22844203461E+04  0.50400001928E-02 0.  1.
</event>
<event>
 5   0  0.4793557E-07  0.3711120E+04  0.7818609E-02  0.8065502E-01
       -2   -1    0    0    0  501  0.00000000000E+00  0.00000000000E+00  0.12605809316E+04  0.12605809316E+04  0.25500000920E-02 0.  1.
        2   -1    0    0  501    0  0.00000000000E+00  0.00000000000E+00 -0.27313619643E+04  0.27313619643E+04  0.25500000920E-02 0. -1.
    10030    2    1    2    0    0  0.00000000000E+00  0.00000000000E+00 -0.14707810327E+04  0.39919428959E+04  0.37111199438E+04 0.  0.
        3    1    3    3  502    0  0.10601897106E+03 -0.89727663126E+03  0.10079784598E+04  0.13536491277E+04  0.10100000352E+00 0.  1.
       -3    1    3    3    0  502 -0.10601897106E+03  0.89727663126E+03 -0.24787594925E+04  0.26382937682E+04  0.10100000352E+00 0. -1.
</event>
<event>
 5   0  0.4758908E-07  0.3739069E+04  0.7818609E-02  0.8059358E-01
       -2   -1    0    0    0  501  0.00000000000E+00  0.00000000000E+00  0.12651251280E+04  0.12651251280E+04  0.25500000920E-02 0.  1.
        2   -1    0    0  501    0  0.00000000000E+00  0.00000000000E+00 -0.27626991806E+04  0.27626991806E+04  0.25500000920E-02 0. -1.
    10030    2    1    2    0    0  0.00000000000E+00  0.00000000000E+00 -0.14975740526E+04  0.40278243087E+04  0.37390694856E+04 0.  0.
        2    1    3    3  502    0 -0.14611485865E+04 -0.83822662650E+02  0.50430960653E+03  0.15480018119E+04  0.25500000920E-02 0.  1.
       -2    1    3    3    0  502  0.14611485865E+04  0.83822662650E+02 -0.20018836591E+04  0.24798224967E+04  0.25500000920E-02 0. -1.
</event>
<event>
 5   0  0.1496000E-07  0.3595527E+04  0.7818609E-02  0.8091517E-01
       -1   -1    0    0    0  501  0.00000000000E+00  0.00000000000E+00  0.17742541847E+04  0.17742541847E+04  0.50400001928E-02 0. -1.
        1   -1    0    0  501    0  0.00000000000E+00  0.00000000000E+00 -0.18215841133E+04  0.18215841133E+04  0.50400001928E-02 0.  1.
    10030    2    1    2    0    0  0.00000000000E+00  0.00000000000E+00 -0.47329928607E+02  0.35958382979E+04  0.35955267963E+04 0.  0.
        3    1    3    3  502    0  0.66967344225E+03 -0.16682398499E+04 -0.45265663092E+02  0.17982034664E+04  0.10100000352E+00 0.  1.
       -3    1    3    3    0  502 -0.66967344225E+03  0.16682398499E+04 -0.20642655154E+01  0.17976348315E+04  0.10100000352E+00 0. -1.
</event>
<event>
 5   0  0.4857514E-07  0.3663204E+04  0.7818609E-02  0.8076165E-01
       -2   -1    0    0    0  501  0.00000000000E+00  0.00000000000E+00  0.16176119517E+04  0.16176119517E+04  0.25500000920E-02 0.  1.
        2   -1    0    0  501    0  0.00000000000E+00  0.00000000000E+00 -0.20739006266E+04  0.20739006266E+04  0.25500000920E-02 0. -1.
    10030    2    1    2    0    0  0.00000000000E+00  0.00000000000E+00 -0.45628867493E+03  0.36915125783E+04  0.36632043023E+04 0.  0.
        5    1    3    3  502    0 -0.57422778106E+03 -0.15712828096E+04  0.52332407854E+03  0.17528711857E+04  0.46999998093E+01 0.  1.
       -5    1    3    3    0  502  0.57422778106E+03  0.15712828096E+04 -0.97961275347E+03  0.19386413926E+04  0.46999998093E+01 0. -1.
</event>
<event>
 5   0  0.4758908E-07  0.3695212E+04  0.7818609E-02  0.8069024E-01
        2   -1    0    0  501    0  0.00000000000E+00  0.00000000000E+00  0.26030646102E+04  0.26030646102E+04  0.25500000920E-02 0. -1.
       -2   -1    0    0    0  501  0.00000000000E+00  0.00000000000E+00 -0.13113955252E+04  0.13113955252E+04  0.25500000920E-02 0.  1.
    10030    2    1    2    0    0  0.00000000000E+00  0.00000000000E+00  0.12916690851E+04  0.39144601354E+04  0.36952116484E+04 0.  0.
        2    1    3    3  502    0 -0.73989148406E+03 -0.47456718758E+02 -0.11468988453E+04  0.13656751113E+04  0.25500000920E-02 0.  1.
       -2    1    3    3    0  502  0.73989148406E+03  0.47456718758E+02  0.24385679303E+04  0.25487850241E+04  0.25500000920E-02 0. -1.
</event>
<event>
 5   0  0.4857514E-07  0.3775026E+04  0.7818609E-02  0.8051536E-01
       -2   -1    0    0    0  501  0.00000000000E+00  0.00000000000E+00  0.15007608701E+04  0.15007608701E+04  0.25500000920E-02 0. -1.
        2   -1    0    0  501    0  0.00000000000E+00  0.00000000000E+00 -0.23739327917E+04  0.23739327917E+04  0.25500000920E-02 0.  1.
    10030    2    1    2    0    0  0.00000000000E+00  0.00000000000E+00 -0.87317192164E+03  0.38746936619E+04  0.37750260620E+04 0.  0.
        5    1    3    3  502    0  0.60029370351E+03  0.46181548984E+03  0.13379489042E+04  0.15374509544E+04  0.46999998093E+01 0. -1.
       -5    1    3    3    0  502 -0.60029370351E+03 -0.46181548984E+03 -0.22111208258E+04  0.23372427074E+04  0.46999998093E+01 0.  1.
</event>
<event>
 5   0  0.1496287E-07  0.3709264E+04  0.7818609E-02  0.8065912E-01
        1   -1    0    0  501    0  0.00000000000E+00  0.00000000000E+00  0.28020001927E+04  0.28020001927E+04  0.50400001928E-02 0.  1.
       -1   -1    0    0    0  501  0.00000000000E+00  0.00000000000E+00 -0.12275732732E+04  0.12275732732E+04  0.50400001928E-02 0. -1.
    10030    2    1    2    0    0  0.00000000000E+00  0.00000000000E+00  0.15744269195E+04  0.40295734659E+04  0.37092643734E+04 0.  0.
        1    1    3    3  502    0  0.15160303896E+04  0.95626401441E+03  0.26977190889E+03  0.18126130007E+04  0.50400001928E-02 0. -1.
       -1    1    3    3    0  502 -0.15160303896E+04 -0.95626401441E+03  0.13046550106E+04  0.22169604652E+04  0.50400001928E-02 0.  1.
</event>
<event>
 5   0  0.4687817E-07  0.3644688E+04  0.7818609E-02  0.8080331E-01
       -2   -1    0    0    0  501  0.00000000000E+00  0.00000000000E+00  0.14608705906E+04  0.14608705906E+04  0.25500000920E-02 0.  1.
        2   -1    0    0  501    0  0.00000000000E+00  0.00000000000E+00 -0.22732590384E+04  0.22732590384E+04  0.25500000920E-02 0. -1.
    10030    2    1    2    0    0  0.00000000000E+00  0.00000000000E+00 -0.81238844774E+03  0.37341296290E+04  0.36446877913E+04 0.  0.
        4    1    3    3  502    0  0.12493836329E+04 -0.11949252538E+04  0.18425560949E+03  0.17386079394E+04  0.12699999809E+01 0.  1.
       -4    1    3    3    0  502 -0.12493836329E+04  0.11949252538E+04 -0.99664405724E+03  0.19955216897E+04  0.12699999809E+01 0. -1.
</event>
<event>
 5   0  0.4793557E-07  0.3686191E+04  0.7818609E-02  0.8071029E-01
       -2   -1    0    0    0  501  0.00000000000E+00  0.00000000000E+00  0.21217660821E+04  0.21217660821E+04  0.25500000920E-02 0. -1.
        2   -1    0    0  501    0  0.00000000000E+00  0.00000000000E+00 -0.16010251333E+04  0.16010251333E+04  0.25500000920E-02 0.  1.
    10030    2    1    2    0    0  0.00000000000E+00  0.00000000000E+00  0.52074094871E+03  0.37227912154E+04  0.36861908928E+04 0.  0.
        3    1    3    3  502    0  0.15678457879E+04 -0.79272201031E+03 -0.30234419815E+03  0.17826835459E+04  0.10100000352E+00 0.  1.
       -3    1    3    3    0  502 -0.15678457879E+04  0.79272201031E+03  0.82308514686E+03  0.19401076696E+04  0.10100000352E+00 0. -1.
</event>
<event>
 5   0  0.4857514E-07  0.3701289E+04  0.7818609E-02  0.8067676E-01
        2   -1    0    0  501    0  0.00000000000E+00  0.00000000000E+00  0.23393882395E+04  0.23393882395E+04  0.25500000920E-02 0.  1.
       -2   -1    0    0    0  501  0.00000000000E+00  0.00000000000E+00 -0.14640090092E+04  0.14640090092E+04  0.25500000920E-02 0. -1.
    10030    2    1    2    0    0  0.00000000000E+00  0.00000000000E+00  0.87537923033E+03  0.38033972487E+04  0.37012892125E+04 0.  0.
        5    1    3    3  502    0 -0.95550346876E+03  0.21653021595E+03  0.20510312782E+04  0.22730208111E+04  0.46999998093E+01 0.  1.
       -5    1    3    3    0  502  0.95550346876E+03 -0.21653021595E+03 -0.11756520479E+04  0.15303764377E+04  0.46999998093E+01 0. -1.
</event>
<event>
 5   0  0.4793557E-07  0.3650676E+04  0.7818609E-02  0.8078981E-01
        2   -1    0    0  501    0  0.00000000000E+00  0.00000000000E+00  0.19455229110E+04  0.19455229110E+04  0.25500000920E-02 0.  1.
       -2   -1    0    0    0  501  0.00000000000E+00  0.00000000000E+00 -0.17125772109E+04  0.17125772109E+04  0.25500000920E-02 0. -1.
    10030    2    1    2    0    0  0.00000000000E+00  0.00000000000E+00  0.23294570011E+03  0.36581001218E+04  0.36506756638E+04 0.  0.
        3    1    3    3  502    0 -0.13090308301E+04  0.98797649517E+03 -0.68653006704E+03  0.17779152996E+04  0.10100000352E+00 0. -1.
       -3    1    3    3    0  502  0.13090308301E+04 -0.98797649517E+03  0.91947576715E+03  0.18801848223E+04  0.10100000352E+00 0.  1.
</event>
<event>
 5   0  0.1496000E-07  0.3703678E+04  0.7818609E-02  0.8067147E-01
       -1   -1    0    0    0  501  0.00000000000E+00  0.00000000000E+00  0.18176471216E+04  0.18176471216E+04  0.50400001928E-02 0. -1.
        1   -1    0    0  501    0  0.00000000000E+00  0.00000000000E+00 -0.18866736669E+04  0.18866736669E+04  0.50400001928E-02 0.  1.
    10030    2    1    2    0    0  0.00000000000E+00  0.00000000000E+00 -0.69026545381E+02  0.37043207885E+04  0.37036776102E+04 0.  0.
        3    1    3    3  502    0 -0.86358212190E+02 -0.10330493545E+04  0.15002427757E+04  0.18235616540E+04  0.10100000352E+00 0. -1.
       -3    1    3    3    0  502  0.86358212190E+02  0.10330493545E+04 -0.15692693211E+04  0.18807591345E+04  0.10100000352E+00 0.  1.
</event>
<event>
 5   0  0.1496000E-07  0.3705837E+04  0.7818609E-02  0.8066670E-01
        1   -1    0    0  501    0  0.00000000000E+00  0.00000000000E+00  0.25301214496E+04  0.25301214496E+04  0.50400001928E-02 0. -1.
       -1   -1    0    0    0  501  0.00000000000E+00  0.00000000000E+00 -0.13569731664E+04  0.13569731664E+04  0.50400001928E-02 0.  1.
    10030    2    1    2    0    0  0.00000000000E+00  0.00000000000E+00  0.11731482832E+04  0.38870946161E+04  0.37058369716E+04 0.  0.
        3    1    3    3  502    0 -0.36389389110E+03  0.17409225073E+04  0.11316821646E+04  0.21080641527E+04  0.10100000352E+00 0. -1.
       -3    1    3    3    0  502  0.36389389110E+03 -0.17409225073E+04  0.41466118615E+02  0.17790304633E+04  0.10100000352E+00 0.  1.
</event>
<event>
 5   0  0.4687817E-07  0.3713158E+04  0.7818609E-02  0.8065052E-01
       -2   -1    0    0    0  501  0.00000000000E+00  0.00000000000E+00  0.10652998724E+04  0.10652998724E+04  0.25500000920E-02 0. -1.
        2   -1    0    0  501    0  0.00000000000E+00  0.00000000000E+00 -0.32356016780E+04  0.32356016780E+04  0.25500000920E-02 0.  1.
    10030    2    1    2    0    0  0.00000000000E+00  0.00000000000E+00 -0.21703018057E+04  0.43009015504E+04  0.37131582539E+04 0.  0.
        4    1    3    3  502    0 -0.45076367590E+03  0.14652275695E+04 -0.22982064766E+04  0.27625774819E+04  0.12699999809E+01 0.  1.
       -4    1    3    3    0  502  0.45076367590E+03 -0.14652275695E+04  0.12790467089E+03  0.15383240685E+04  0.12699999809E+01 0. -1.
</event>
<event>
 5   0  0.1496000E-07  0.3301405E+04  0.7818609E-02  0.8162538E-01
        1   -1    0    0  501    0  0.00000000000E+00  0.00000000000E+00  0.16262043545E+04  0.16262043545E+04  0.50400001928E-02 0.  1.
       -1   -1    0    0    0  501  0.00000000000E+00  0.00000000000E+00 -0.16755692334E+04  0.16755692334E+04  0.50400001928E-02 0. -1.
    10030    2    1    2    0    0  0.00000000000E+00  0.00000000000E+00 -0.49364878887E+02  0.33017735879E+04  0.33014045397E+04 0.  0.
        5    1    3    3  502    0 -0.10968141812E+04  0.67736989326E+03  0.10064345442E+04  0.16354705446E+04  0.46999998093E+01 0.  1.
       -5    1    3    3    0  502  0.10968141812E+04 -0.67736989326E+03 -0.10557994231E+04  0.16663030433E+04  0.46999998093E+01 0. -1.
</event>
<event>
 5   0  0.1496000E-07  0.3632599E+04  0.7818609E-02  0.8083065E-01
       -1   -1    0    0    0  501  0.00000000000E+00  0.00000000000E+00  0.15214899076E+04  0.15214899076E+04  0.50400001928E-02 0.  1.
        1   -1    0    0  501    0  0.00000000000E+00  0.00000000000E+00 -0.21682329731E+04  0.21682329731E+04  0.50400001928E-02 0. -1.
    10030    2    1    2    0    0  0.00000000000E+00  0.00000000000E+00 -0.64674306552E+03  0.36897228807E+04  0.36325993921E+04 0.  0.
        5    1    3    3  502    0  0.16391606384E+04  0.20586391836E+03 -0.10900220380E+04  0.19792416944E+04  0.46999998093E+01 0. -1.
       -5    1    3    3    0  502 -0.16391606384E+04 -0.20586391836E+03  0.44327897251E+03  0.17104811864E+04  0.46999998093E+01 0.  1.
</event>
<event>
 5   0  0.1496000E-07  0.3714972E+04  0.7818609E-02  0.8064652E-01
       -1   -1    0    0    0  501  0.00000000000E+00  0.00000000000E+00  0.15838239209E+04  0.15838239209E+04  0.50400001928E-02 0.  1.
        1   -1    0    0  501    0  0.00000000000E+00  0.00000000000E+00 -0.21784328328E+04  0.21784328328E+04  0.50400001928E-02 0. -1.
    10030    2    1    2    0    0  0.00000000000E+00  0.00000000000E+00 -0.59460891194E+03  0.37622567537E+04  0.37149718872E+04 0.  0.
        3    1    3    3  502    0  0.92391221301E+03 -0.15790714940E+04 -0.62259908763E+03  0.19325398300E+04  0.10100000352E+00 0.  1.
       -3    1    3    3    0  502 -0.92391221301E+03  0.15790714940E+04  0.27990175687E+02  0.18297169237E+04  0.10100000352E+00 0. -1.
</event>
<event>
 5   0  0.4824268E-07  0.3722131E+04  0.7818609E-02  0.8063075E-01
        2   -1    0    0  501    0  0.00000000000E+00  0.00000000000E+00  0.25863780601E+04  0.25863780601E+04  0.25500000920E-02 0. -1.
       -2   -1    0    0    0  501  0.00000000000E+00  0.00000000000E+00 -0.13391565049E+04  0.13391565049E+04  0.25500000920E-02 0.  1.
    10030    2    1    2    0    0  0.00000000000E+00  0.00000000000E+00  0.12472215552E+04  0.39255345650E+04  0.37221311118E+04 0.  0.
        1    1    3    3  502    0  0.16419139344E+04  0.20801338218E+03 -0.27402587300E+03  0.16775700028E+04  0.50400001928E-02 0.  1.
       -1    1    3    3    0  502 -0.16419139344E+04 -0.20801338218E+03  0.15212474282E+04  0.22479645622E+04  0.50400001928E-02 0. -1.
</event>
<event>
 5   0  0.1496000E-07  0.3719092E+04  0.7818609E-02  0.8063744E-01
       -1   -1    0    0    0  501  0.00000000000E+00  0.00000000000E+00  0.17285786245E+04  0.17285786245E+04  0.50400001928E-02 0. -1.
        1   -1    0    0  501    0  0.00000000000E+00  0.00000000000E+00 -0.20004362934E+04  0.20004362934E+04  0.50400001928E-02 0.  1.
    10030    2    1    2    0    0  0.00000000000E+00  0.00000000000E+00 -0.27185766893E+03  0.37290149179E+04  0.37190920486E+04 0.  0.
        2    1    3    3  502    0 -0.37982217843E+03 -0.37655362099E+03 -0.19216505534E+04  0.19946925493E+04  0.25500000920E-02 0.  1.
       -2    1    3    3    0  502  0.37982217843E+03  0.37655362099E+03  0.16497928845E+04  0.17343223686E+04  0.25500000920E-02 0. -1.
</event>
<event>
 5   0  0.1496000E-07  0.3113640E+04  0.7818609E-02  0.8212004E-01
        1   -1    0    0  501    0  0.00000000000E+00  0.00000000000E+00  0.16776923060E+04  0.16776923060E+04  0.50400001928E-02 0. -1.
       -1   -1    0    0    0  501  0.00000000000E+00  0.00000000000E+00 -0.14446561985E+04  0.14446561986E+04  0.50400001928E-02 0.  1.
    10030    2    1    2    0    0  0.00000000000E+00  0.00000000000E+00  0.23303610746E+03  0.31223485046E+04  0.31136400493E+04 0.  0.
        3    1    3    3  502    0  0.51778447417E+03 -0.12519159674E+04 -0.65263056515E+03  0.15037689370E+04  0.10100000352E+00 0.  1.
       -3    1    3    3    0  502 -0.51778447417E+03  0.12519159674E+04  0.88566667260E+03  0.16185795675E+04  0.10100000352E+00 0. -1.
</event>
<event>
 5   0  0.1496000E-07  0.3415942E+04  0.7818609E-02  0.8134005E-01
        1   -1    0    0  501    0  0.00000000000E+00  0.00000000000E+00  0.19644878815E+04  0.19644878815E+04  0.50400001928E-02 0.  1.
       -1   -1    0    0    0  501  0.00000000000E+00  0.00000000000E+00 -0.14849492987E+04  0.14849492987E+04  0.50400001928E-02 0. -1.
    10030    2    1    2    0    0  0.00000000000E+00  0.00000000000E+00  0.47953858280E+03  0.34494371802E+04  0.34159419796E+04 0.  0.
        2    1    3    3  502    0 -0.15562999244E+04  0.33380586800E+03 -0.38571464492E+03  0.16377642075E+04  0.25500000920E-02 0. -1.
       -2    1    3    3    0  502  0.15562999244E+04 -0.33380586800E+03  0.86525322772E+03  0.18116729727E+04  0.25500000920E-02 0.  1.
</event>
<event>
 5   0  0.1496000E-07  0.3635137E+04  0.7818609E-02  0.8082490E-01
       -1   -1    0    0    0  501  0.00000000000E+00  0.00000000000E+00  0.19485362766E+04  0.19485362766E+04  0.50400001928E-02 0. -1.
        1   -1    0    0  501    0  0.00000000000E+00  0.00000000000E+00 -0.16954030536E+04  0.16954030536E+04  0.50400001928E-02 0.  1.
    10030    2    1    2    0    0  0.00000000000E+00  0.00000000000E+00  0.25313322303E+03  0.36439393302E+04  0.36351365055E+04 0.  0.
        3    1    3    3  502    0  0.14633356599E+04 -0.35610739356E+03  0.11465721394E+04  0.18928263022E+04  0.10100000352E+00 0. -1.
       -3    1    3    3    0  502 -0.14633356599E+04  0.35610739356E+03 -0.89343891636E+03  0.17511130280E+04  0.10100000352E+00 0.  1.
</event>
<event>
 5   0  0.4857514E-07  0.3706068E+04  0.7818609E-02  0.8066618E-01
       -2   -1    0    0    0  501  0.00000000000E+00  0.00000000000E+00  0.25328063039E+04  0.25328063039E+04  0.25500000920E-02 0. -1.
        2   -1    0    0  501    0  0.00000000000E+00  0.00000000000E+00 -0.13557036203E+04  0.13557036203E+04  0.25500000920E-02 0.  1.
    10030    2    1    2    0    0  0.00000000000E+00  0.00000000000E+00  0.11771026835E+04  0.38885099242E+04  0.37060678223E+04 0.  0.
        5    1    3    3  502    0  0.66952883822E+03  0.11752372001E+04  0.19174975271E+04  0.23465443098E+04  0.46999998093E+01 0. -1.
       -5    1    3    3    0  502 -0.66952883822E+03 -0.11752372001E+04 -0.74039484353E+03  0.15419656144E+04  0.46999998093E+01 0.  1.
</event>
<event>
 5   0  0.4824268E-07  0.3685437E+04  0.7818609E-02  0.8071197E-01
       -2   -1    0    0    0  501  0.00000000000E+00  0.00000000000E+00  0.11944038569E+04  0.11944038569E+04  0.25500000920E-02 0. -1.
        2   -1    0    0  501    0  0.00000000000E+00  0.00000000000E+00 -0.28429338222E+04  0.28429338222E+04  0.25500000920E-02 0.  1.
    10030    2    1    2    0    0  0.00000000000E+00  0.00000000000E+00 -0.16485299653E+04  0.40373376791E+04  0.36854368111E+04 0.  0.
        1    1    3    3  502    0 -0.88753850423E+03  0.32324839191E+03  0.90902397202E+03  0.13109304715E+04  0.50400001928E-02 0. -1.
       -1    1    3    3    0  502  0.88753850423E+03 -0.32324839191E+03 -0.25575539373E+04  0.27264072076E+04  0.50400001928E-02 0.  1.
</event>
<event>
 5   0  0.1496287E-07  0.3675805E+04  0.7818609E-02  0.8073345E-01
       -1   -1    0    0    0  501  0.00000000000E+00  0.00000000000E+00  0.17530857718E+04  0.17530857718E+04  0.50400001928E-02 0. -1.
        1   -1    0    0  501    0  0.00000000000E+00  0.00000000000E+00 -0.19268224836E+04  0.19268224836E+04  0.50400001928E-02 0.  1.
    10030    2    1    2    0    0  0.00000000000E+00  0.00000000000E+00 -0.17373671177E+03  0.36799082553E+04  0.36758047177E+04 0.  0.
        1    1    3    3  502    0  0.80502365390E+03  0.10612701415E+04  0.11808500375E+04  0.17801023026E+04  0.50400001928E-02 0. -1.
       -1    1    3    3    0  502 -0.80502365390E+03 -0.10612701415E+04 -0.13545867493E+04  0.18998059527E+04  0.50400001928E-02 0.  1.
</event>
<event>
 5   0  0.4758908E-07  0.3438072E+04  0.7818609E-02  0.8128625E-01
       -2   -1    0    0    0  501  0.00000000000E+00  0.00000000000E+00  0.14277093867E+04  0.14277093867E+04  0.25500000920E-02 0.  1.
        2   -1    0    0  501    0  0.00000000000E+00  0.00000000000E+00 -0.20698084373E+04  0.20698084373E+04  0.25500000920E-02 0. -1.
    10030    2    1    2    0    0  0.00000000000E+00  0.00000000000E+00 -0.64209905064E+03  0.34975178240E+04  0.34380720961E+04 0.  0.
        2    1    3    3  502    0  0.13795324765E+04 -0.10209622156E+04 -0.22131751860E+03  0.17304494051E+04  0.25500000920E-02 0. -1.
       -2    1    3    3    0  502 -0.13795324765E+04  0.10209622156E+04 -0.42078153204E+03  0.17670684189E+04  0.25500000920E-02 0.  1.
</event>
<event>
 5   0  0.4857514E-07  0.3626865E+04  0.7818609E-02  0.8084366E-01
       -2   -1    0    0    0  501  0.00000000000E+00  0.00000000000E+00  0.12759929906E+04  0.12759929906E+04  0.25500000920E-02 0. -1.
        2   -1    0    0  501    0  0.00000000000E+00  0.00000000000E+00 -0.25772374015E+04  0.25772374015E+04  0.25500000920E-02 0.  1.
    10030    2    1    2    0    0  0.00000000000E+00  0.00000000000E+00 -0.13012444109E+04  0.38532303921E+04  0.36268646842E+04 0.  0.
        5    1    3    3  502    0  0.50989618317E+03  0.83949260429E+03  0.96891324256E+03  0.13796944995E+04  0.46999998093E+01 0. -1.
       -5    1    3    3    0  502 -0.50989618317E+03 -0.83949260429E+03 -0.22701576535E+04  0.24735358926E+04  0.46999998093E+01 0.  1.
</event>
<event>
 5   0  0.1496000E-07  0.3727489E+04  0.7818609E-02  0.8061897E-01
        1   -1    0    0  501    0  0.00000000000E+00  0.00000000000E+00  0.18028309240E+04  0.18028309240E+04  0.50400001928E-02 0. -1.
       -1   -1    0    0    0  501  0.00000000000E+00  0.00000000000E+00 -0.19267162002E+04  0.19267162002E+04  0.50400001928E-02 0.  1.
    10030    2    1    2    0    0  0.00000000000E+00  0.00000000000E+00 -0.12388527614E+03  0.37295471242E+04  0.37274889926E+04 0.  0.
        2    1    3    3  502    0 -0.10862513848E+04 -0.57105662878E+02  0.14522800468E+04  0.18144752580E+04  0.25500000920E-02 0. -1.
       -2    1    3    3    0  502  0.10862513848E+04  0.57105662878E+02 -0.15761653229E+04  0.19150718662E+04  0.25500000920E-02 0.  1.
</event>
<event>
 5   0  0.4758908E-07  0.3319001E+04  0.7818609E-02  0.8158077E-01
       -2   -1    0    0    0  501  0.00000000000E+00  0.00000000000E+00  0.12234652238E+04  0.12234652238E+04  0.25500000920E-02 0.  1.
        2   -1    0    0  501    0  0.00000000000E+00  0.00000000000E+00 -0.22509365940E+04  0.22509365940E+04  0.25500000920E-02 0. -1.
    10030    2    1    2    0    0  0.00000000000E+00  0.00000000000E+00 -0.10274713702E+04  0.34744018179E+04  0.33190014425E+04 0.  0.
        2    1    3    3  502    0  0.16509312456E+04  0.60965828853E+02 -0.67809609621E+03  0.17858065757E+04  0.25500000920E-02 0. -1.
       -2    1    3    3    0  502 -0.16509312456E+04 -0.60965828853E+02 -0.34937527399E+03  0.16885952422E+04  0.25500000920E-02 0.  1.
</event>
<event>
 5   0  0.4793557E-07  0.3860758E+04  0.7818609E-02  0.8033241E-01
       -2   -1    0    0    0  501  0.00000000000E+00  0.00000000000E+00  0.17122463108E+04  0.17122463108E+04  0.25500000920E-02 0.  1.
        2   -1    0    0  501    0  0.00000000000E+00  0.00000000000E+00 -0.21763005598E+04  0.21763005598E+04  0.25500000920E-02 0. -1.
    10030    2    1    2    0    0  0.00000000000E+00  0.00000000000E+00 -0.46405424907E+03  0.38885468706E+04  0.38607577519E+04 0.  0.
        3    1    3    3  502    0 -0.20091416944E+03  0.38396256762E+03 -0.21266754496E+04  0.21703783621E+04  0.10100000352E+00 0. -1.
       -3    1    3    3    0  502  0.20091416944E+03 -0.38396256762E+03  0.16626212005E+04  0.17181685084E+04  0.10100000352E+00 0.  1.
</event>
<event>
 5   0  0.1496000E-07  0.3809068E+04  0.7818609E-02  0.8044212E-01
       -1   -1    0    0    0  501  0.00000000000E+00  0.00000000000E+00  0.25288688659E+04  0.25288688659E+04  0.50400001928E-02 0. -1.
        1   -1    0    0  501    0  0.00000000000E+00  0.00000000000E+00 -0.14343367252E+04  0.14343367252E+04  0.50400001928E-02 0.  1.
    10030    2    1    2    0    0  0.00000000000E+00  0.00000000000E+00  0.10945321407E+04  0.39632055912E+04  0.38090678585E+04 0.  0.
        5    1    3    3  502    0  0.14980092018E+04 -0.11717742382E+04  0.65204344424E+03  0.20105395239E+04  0.46999998093E+01 0.  1.
       -5    1    3    3    0  502 -0.14980092018E+04  0.11717742382E+04  0.44248869642E+03  0.19526660673E+04  0.46999998093E+01 0. -1.
</event>
<event>
 5   0  0.4824268E-07  0.3769654E+04  0.7818609E-02  0.8052699E-01
        2   -1    0    0  501    0  0.00000000000E+00  0.00000000000E+00  0.24335667991E+04  0.24335667991E+04  0.25500000920E-02 0.  1.
       -2   -1    0    0    0  501  0.00000000000E+00  0.00000000000E+00 -0.14598211580E+04  0.14598211580E+04  0.25500000920E-02 0. -1.
    10030    2    1    2    0    0  0.00000000000E+00  0.00000000000E+00  0.97374564115E+03  0.38933879571E+04  0.37696537256E+04 0.  0.
        1    1    3    3  502    0 -0.14765762559E+04  0.93161918574E+03  0.12203817257E+04  0.21301463103E+04  0.50400001928E-02 0. -1.
       -1    1    3    3    0  502  0.14765762559E+04 -0.93161918574E+03 -0.24663608459E+03  0.17632416468E+04  0.50400001928E-02 0.  1.
</event>
<event>
 5   0  0.1522273E-07  0.3716124E+04  0.7818609E-02  0.8064398E-01
        1   -1    0    0  501    0  0.00000000000E+00  0.00000000000E+00  0.93523657757E+03  0.93523657758E+03  0.50400001928E-02 0. -1.
       -1   -1    0    0    0  501  0.00000000000E+00  0.00000000000E+00 -0.36914662878E+04  0.36914662878E+04  0.50400001928E-02 0.  1.
    10030    2    1    2    0    0  0.00000000000E+00  0.00000000000E+00 -0.27562297102E+04  0.46267028654E+04  0.37161239469E+04 0.  0.
        4    1    3    3  502    0  0.85413768277E+03 -0.14843396176E+04 -0.48067253432E+03  0.17787250995E+04  0.12699999809E+01 0. -1.
       -4    1    3    3    0  502 -0.85413768277E+03  0.14843396176E+04 -0.22755571759E+04  0.28479777659E+04  0.12699999809E+01 0.  1.
</event>
<event>
 5   0  0.1496000E-07  0.3693670E+04  0.7818609E-02  0.8069366E-01
       -1   -1    0    0    0  501  0.00000000000E+00  0.00000000000E+00  0.17510892925E+04  0.17510892925E+04  0.50400001928E-02 0.  1.
        1   -1    0    0  501    0  0.00000000000E+00  0.00000000000E+00 -0.19478156444E+04  0.19478156444E+04  0.50400001928E-02 0. -1.
    10030    2    1    2    0    0  0.00000000000E+00  0.00000000000E+00 -0.19672635186E+03  0.36989049369E+04  0.36936697842E+04 0.  0.
        2    1    3    3  502    0  0.19714795094E+03  0.17452880236E+04 -0.67005014799E+03  0.18798576544E+04  0.25500000920E-02 0. -1.
       -2    1    3    3    0  502 -0.19714795094E+03 -0.17452880236E+04  0.47332379613E+03  0.18190472825E+04  0.25500000920E-02 0.  1.
</event>
<event>
 5   0  0.4687817E-07  0.3260333E+04  0.7818609E-02  0.8173063E-01
        2   -1    0    0  501    0  0.00000000000E+00  0.00000000000E+00  0.23355514560E+04  0.23355514560E+04  0.25500000920E-02 0. -1.
       -2   -1    0    0    0  501  0.00000000000E+00  0.00000000000E+00 -0.11378225105E+04  0.11378225105E+04  0.25500000920E-02 0.  1.
    10030    2    1    2    0    0  0.00000000000E+00  0.00000000000E+00  0.11977289455E+04  0.34733739666E+04  0.32603331248E+04 0.  0.
        4    1    3    3  502    0 -0.59358330478E+03  0.80155496856E+03  0.19725418615E+04  0.22103742931E+04  0.12699999809E+01 0.  1.
       -4    1    3    3    0  502  0.59358330478E+03 -0.80155496856E+03 -0.77481291602E+03  0.12629996734E+04  0.12699999809E+01 0. -1.
</event>
<event>
 5   0  0.4758908E-07  0.3740943E+04  0.7818609E-02  0.8058948E-01
        2   -1    0    0  501    0  0.00000000000E+00  0.00000000000E+00  0.12371881976E+04  0.12371881976E+04  0.25500000920E-02 0.  1.
       -2   -1    0    0    0  501  0.00000000000E+00  0.00000000000E+00 -0.28279161203E+04  0.28279161203E+04  0.25500000920E-02 0. -1.
    10030    2    1    2    0    0  0.00000000000E+00  0.00000000000E+00 -0.15907279227E+04  0.40651043179E+04  0.37409434359E+04 0.  0.
        2    1    3    3  502    0  0.13495175172E+04  0.86462606536E+03 -0.18432306512E+04  0.24425959542E+04  0.25500000920E-02 0. -1.
       -2    1    3    3    0  502 -0.13495175172E+04 -0.86462606536E+03  0.25250272851E+03  0.16225083636E+04  0.25500000920E-02 0.  1.
</event>
<event>
 5   0  0.4857514E-07  0.3708146E+04  0.7818609E-02  0.8066159E-01
        2   -1    0    0  501    0  0.00000000000E+00  0.00000000000E+00  0.21562302634E+04  0.21562302634E+04  0.25500000920E-02 0.  1.
       -2   -1    0    0    0  501  0.00000000000E+00  0.00000000000E+00 -0.15942574569E+04  0.15942574569E+04  0.25500000920E-02 0. -1.
    10030    2    1    2    0    0  0.00000000000E+00  0.00000000000E+00  0.56197280645E+03  0.37504877203E+04  0.37081457232E+04 0.  0.
        5    1    3    3  502    0  0.53343679674E+03 -0.57632582419E+02 -0.15140146434E+04  0.16062810342E+04  0.46999998093E+01 0. -1.
       -5    1    3    3    0  502 -0.53343679674E+03  0.57632582419E+02  0.20759874498E+04  0.21442066860E+04  0.46999998093E+01 0.  1.
</event>
<event>
 5   0  0.1496000E-07  0.3729875E+04  0.7818609E-02  0.8061373E-01
       -1   -1    0    0    0  501  0.00000000000E+00  0.00000000000E+00  0.24338302422E+04  0.24338302422E+04  0.50400001928E-02 0.  1.
        1   -1    0    0  501    0  0.00000000000E+00  0.00000000000E+00 -0.14290195715E+04  0.14290195715E+04  0.50400001928E-02 0. -1.
    10030    2    1    2    0    0  0.00000000000E+00  0.00000000000E+00  0.10048106707E+04  0.38628498136E+04  0.37298745554E+04 0.  0.
        2    1    3    3  502    0  0.75127958294E+03  0.12177989823E+04 -0.73628555648E+03  0.16092146512E+04  0.25500000920E-02 0. -1.
       -2    1    3    3    0  502 -0.75127958294E+03 -0.12177989823E+04  0.17410962272E+04  0.22536351624E+04  0.25500000920E-02 0.  1.
</event>
<event>
 5   0  0.4687817E-07  0.3688636E+04  0.7818609E-02  0.8070485E-01
        2   -1    0    0  501    0  0.00000000000E+00  0.00000000000E+00  0.21378644172E+04  0.21378644172E+04  0.25500000920E-02 0. -1.
       -2   -1    0    0    0  501  0.00000000000E+00  0.00000000000E+00 -0.15910776290E+04  0.15910776290E+04  0.25500000920E-02 0.  1.
    10030    2    1    2    0    0  0.00000000000E+00  0.00000000000E+00  0.54678678817E+03  0.37289420462E+04  0.36886356545E+04 0.  0.
        4    1    3    3  502    0 -0.10499636026E+04 -0.41030607960E+03 -0.12022597482E+04  0.16480912478E+04  0.12699999809E+01 0.  1.
       -4    1    3    3    0  502  0.10499636026E+04  0.41030607960E+03  0.17490465364E+04  0.20808507984E+04  0.12699999809E+01 0. -1.
</event>
<event>
 5   0  0.4793557E-07  0.3664854E+04  0.7818609E-02  0.8075796E-01
       -2   -1    0    0    0  501  0.00000000000E+00  0.00000000000E+00  0.22071581338E+04  0.22071581338E+04  0.25500000920E-02 0. -1.
        2   -1    0    0  501    0  0.00000000000E+00  0.00000000000E+00 -0.15213176035E+04  0.15213176035E+04  0.25500000920E-02 0.  1.
    10030    2    1    2    0    0  0.00000000000E+00  0.00000000000E+00  0.68584053033E+03  0.37284757373E+04  0.36648538976E+04 0.  0.
        3    1    3    3  502    0 -0.16407346446E+04  0.39789908076E+03  0.10676453237E+04  0.19975485976E+04  0.10100000352E+00 0. -1.
       -3    1    3    3    0  502  0.16407346446E+04 -0.39789908076E+03 -0.38180479336E+03  0.17309271397E+04  0.10100000352E+00 0.  1.
</event>
<event>
 5   0  0.1496000E-07  0.3666494E+04  0.7818609E-02  0.8075428E-01
       -1   -1    0    0    0  501  0.00000000000E+00  0.00000000000E+00  0.17132194108E+04  0.17132194108E+04  0.50400001928E-02 0. -1.
        1   -1    0    0  501    0  0.00000000000E+00  0.00000000000E+00 -0.19616838810E+04  0.19616838810E+04  0.50400001928E-02 0.  1.
    10030    2    1    2    0    0  0.00000000000E+00  0.00000000000E+00 -0.24846447017E+03  0.36749032918E+04  0.36664941853E+04 0.  0.
        5    1    3    3  502    0 -0.15377789581E+04 -0.99773280574E+03 -0.10098557013E+03  0.18358799119E+04  0.46999998093E+01 0.  1.
       -5    1    3    3    0  502  0.15377789581E+04  0.99773280574E+03 -0.14747890004E+03  0.18390233798E+04  0.46999998093E+01 0. -1.
</event>
<event>
 5   0  0.4793557E-07  0.3705830E+04  0.7818609E-02  0.8066671E-01
        2   -1    0    0  501    0  0.00000000000E+00  0.00000000000E+00  0.21793668685E+04  0.21793668685E+04  0.25500000920E-02 0. -1.
       -2   -1    0    0    0  501  0.00000000000E+00  0.00000000000E+00 -0.15753629353E+04  0.15753629353E+04  0.25500000920E-02 0.  1.
    10030    2    1    2    0    0  0.00000000000E+00  0.00000000000E+00  0.60400393326E+03  0.37547298038E+04  0.37058298865E+04 0.  0.
        3    1    3    3  502    0  0.37583082584E+03  0.85580904238E+03 -0.13189953750E+04  0.16166034566E+04  0.10100000352E+00 0.  1.
       -3    1    3    3    0  502 -0.37583082584E+03 -0.85580904238E+03  0.19229993082E+04  0.21381263471E+04  0.10100000352E+00 0. -1.
</event>
<event>
 5   0  0.1496000E-07  0.3681783E+04  0.7818609E-02  0.8072011E-01
        1   -1    0    0  501    0  0.00000000000E+00  0.00000000000E+00  0.13997401903E+04  0.13997401903E+04  0.50400001928E-02 0.  1.
       -1   -1    0    0    0  501  0.00000000000E+00  0.00000000000E+00 -0.24210790236E+04  0.24210790236E+04  0.50400001928E-02 0. -1.
    10030    2    1    2    0    0  0.00000000000E+00  0.00000000000E+00 -0.10213388333E+04  0.38208192139E+04  0.36817830535E+04 0.  0.
        2    1    3    3  502    0  0.11393116328E+04 -0.54212806141E+03 -0.19017939928E+04  0.22822695333E+04  0.25500000920E-02 0. -1.
       -2    1    3    3    0  502 -0.11393116328E+04  0.54212806141E+03  0.88045515953E+03  0.15385496805E+04  0.25500000920E-02 0.  1.
</event>
<event>
 5   0  0.1496287E-07  0.3705791E+04  0.7818609E-02  0.8066680E-01
       -1   -1    0    0    0  501  0.00000000000E+00  0.00000000000E+00  0.20411810505E+04  0.20411810505E+04  0.50400001928E-02 0.  1.
        1   -1    0    0  501    0  0.00000000000E+00  0.00000000000E+00 -0.16819777959E+04  0.16819777959E+04  0.50400001928E-02 0. -1.
    10030    2    1    2    0    0  0.00000000000E+00  0.00000000000E+00  0.35920325461E+03  0.37231588464E+04  0.37057907142E+04 0.  0.
        1    1    3    3  502    0 -0.13657482862E+04  0.12459524981E+04  0.30490663138E+03  0.18736686107E+04  0.50400001928E-02 0.  1.
       -1    1    3    3    0  502  0.13657482862E+04 -0.12459524981E+04  0.54296623227E+02  0.18494902357E+04  0.50400001928E-02 0. -1.
</event>
<event>
 5   0  0.4687817E-07  0.3693779E+04  0.7818609E-02  0.8069342E-01
       -2   -1    0    0    0  501  0.00000000000E+00  0.00000000000E+00  0.14517557787E+04  0.14517557787E+04  0.25500000920E-02 0. -1.
        2   -1    0    0  501    0  0.00000000000E+00  0.00000000000E+00 -0.23495694184E+04  0.23495694184E+04  0.25500000920E-02 0.  1.
    10030    2    1    2    0    0  0.00000000000E+00  0.00000000000E+00 -0.89781363966E+03  0.38013251971E+04  0.36937790841E+04 0.  0.
        4    1    3    3  502    0  0.90585426155E+03  0.45559816532E+03 -0.20375017192E+04  0.22758639019E+04  0.12699999809E+01 0.  1.
       -4    1    3    3    0  502 -0.90585426155E+03 -0.45559816532E+03  0.11396880796E+04  0.15254612952E+04  0.12699999809E+01 0. -1.
</event>
<event>
 5   0  0.4687817E-07  0.3654829E+04  0.7818609E-02  0.8078047E-01
        2   -1    0    0  501    0  0.00000000000E+00  0.00000000000E+00  0.15643805050E+04  0.15643805050E+04  0.25500000920E-02 0. -1.
       -2   -1    0    0    0  501  0.00000000000E+00  0.00000000000E+00 -0.21346754496E+04  0.21346754496E+04  0.25500000920E-02 0.  1.
    10030    2    1    2    0    0  0.00000000000E+00  0.00000000000E+00 -0.57029494460E+03  0.36990559546E+04  0.36548294942E+04 0.  0.
        4    1    3    3  502    0 -0.12372929079E+04  0.21110498453E+03  0.10590748389E+04  0.16422850489E+04  0.12699999809E+01 0. -1.
       -4    1    3    3    0  502  0.12372929079E+04 -0.21110498453E+03 -0.16293697835E+04  0.20567709057E+04  0.12699999809E+01 0.  1.
</event>
<event>
 5   0  0.4687817E-07  0.3643760E+04  0.7818609E-02  0.8080541E-01
        2   -1    0    0  501    0  0.00000000000E+00  0.00000000000E+00  0.18453513486E+04  0.18453513486E+04  0.25500000920E-02 0.  1.
       -2   -1    0    0    0  501  0.00000000000E+00  0.00000000000E+00 -0.17987070600E+04  0.17987070600E+04  0.25500000920E-02 0. -1.
    10030    2    1    2    0    0  0.00000000000E+00  0.00000000000E+00  0.46644288581E+02  0.36440584087E+04  0.36437598708E+04 0.  0.
        4    1    3    3  502    0  0.11516475193E+04 -0.11714043320E+04 -0.76462867445E+03  0.18119433601E+04  0.12699999809E+01 0. -1.
       -4    1    3    3    0  502 -0.11516475193E+04  0.11714043320E+04  0.81127296303E+03  0.18321150485E+04  0.12699999809E+01 0.  1.
</event>
<event>
 5   0  0.1496000E-07  0.3693225E+04  0.7818609E-02  0.8069465E-01
        1   -1    0    0  501    0  0.00000000000E+00  0.00000000000E+00  0.21979507390E+04  0.21979507390E+04  0.50400001928E-02 0. -1.
       -1   -1    0    0    0  501  0.00000000000E+00  0.00000000000E+00 -0.15514351415E+04  0.15514351415E+04  0.50400001928E-02 0.  1.
    10030    2    1    2    0    0  0.00000000000E+00  0.00000000000E+00  0.64651559748E+03  0.37493858805E+04  0.36932251574E+04 0.  0.
        3    1    3    3  502    0 -0.18953218787E+03  0.83617859870E+03 -0.13371125006E+04  0.15883913084E+04  0.10100000352E+00 0.  1.
       -3    1    3    3    0  502  0.18953218787E+03 -0.83617859870E+03  0.19836280980E+04  0.21609945721E+04  0.10100000352E+00 0. -1.
</event>
<event>
 5   0  0.4793557E-07  0.3616209E+04  0.7818609E-02  0.8086789E-01
       -2   -1    0    0    0  501  0.00000000000E+00  0.00000000000E+00  0.18181256112E+04  0.18181256112E+04  0.25500000920E-02 0.  1.
        2   -1    0    0  501    0  0.00000000000E+00  0.00000000000E+00 -0.17981390345E+04  0.17981390345E+04  0.25500000920E-02 0. -1.
    10030    2    1    2    0    0  0.00000000000E+00  0.00000000000E+00  0.19986576778E+02  0.36162646457E+04  0.36162094138E+04 0.  0.
        3    1    3    3  502    0  0.54316056354E+03  0.88192199154E+03 -0.14720660622E+04  0.17999411931E+04  0.10100000352E+00 0. -1.
       -3    1    3    3    0  502 -0.54316056354E+03 -0.88192199154E+03  0.14920526389E+04  0.18163234526E+04  0.10100000352E+00 0.  1.
</event>
<event>
 5   0  0.4824268E-07  0.3125172E+04  0.7818609E-02  0.8208863E-01
        2   -1    0    0  501    0  0.00000000000E+00  0.00000000000E+00  0.19962038010E+04  0.19962038010E+04  0.25500000920E-02 0.  1.
       -2   -1    0    0    0  501  0.00000000000E+00  0.00000000000E+00 -0.12231592039E+04  0.12231592039E+04  0.25500000920E-02 0. -1.
    10030    2    1    2    0    0  0.00000000000E+00  0.00000000000E+00  0.77304459710E+03  0.32193630048E+04  0.31251720285E+04 0.  0.
        1    1    3    3  502    0 -0.10515255822E+04  0.39535974400E+03  0.15053787938E+04  0.18783451999E+04  0.50400001928E-02 0.  1.
       -1    1    3    3    0  502  0.10515255822E+04 -0.39535974400E+03 -0.73233419672E+03  0.13410178049E+04  0.50400001928E-02 0. -1.
</event>
<event>
 5   0  0.1496000E-07  0.3632521E+04  0.7818609E-02  0.8083083E-01
       -1   -1    0    0    0  501  0.00000000000E+00  0.00000000000E+00  0.15544378617E+04  0.15544378617E+04  0.50400001928E-02 0. -1.
        1   -1    0    0  501    0  0.00000000000E+00  0.00000000000E+00 -0.21221835947E+04  0.21221835947E+04  0.50400001928E-02 0.  1.
    10030    2    1    2    0    0  0.00000000000E+00  0.00000000000E+00 -0.56774573297E+03  0.36766214564E+04  0.36325211791E+04 0.  0.
        2    1    3    3  502    0 -0.10902247308E+04  0.55688992332E+03  0.10740884886E+04  0.16286136533E+04  0.25500000920E-02 0. -1.
       -2    1    3    3    0  502  0.10902247308E+04 -0.55688992332E+03 -0.16418342216E+04  0.20480078031E+04  0.25500000920E-02 0.  1.
</event>
<event>
 5   0  0.1496287E-07  0.3682721E+04  0.7818609E-02  0.8071802E-01
        1   -1    0    0  501    0  0.00000000000E+00  0.00000000000E+00  0.16957457063E+04  0.16957457063E+04  0.50400001928E-02 0.  1.
       -1   -1    0    0    0  501  0.00000000000E+00  0.00000000000E+00 -0.19994791000E+04  0.19994791000E+04  0.50400001928E-02 0. -1.
    10030    2    1    2    0    0  0.00000000000E+00  0.00000000000E+00 -0.30373339377E+03  0.36952248063E+04  0.36827207869E+04 0.  0.
        1    1    3    3  502    0 -0.73445279439E+03  0.17669170127E+03  0.15331107900E+04  0.17091136765E+04  0.50400001928E-02 0.  1.
       -1    1    3    3    0  502  0.73445279439E+03 -0.17669170127E+03 -0.18368441838E+04  0.19861111298E+04  0.50400001928E-02 0. -1.
</event>
<event>
 5   0  0.1496000E-07  0.3824674E+04  0.7818609E-02  0.8040881E-01
       -1   -1    0    0    0  501  0.00000000000E+00  0.00000000000E+00  0.25006957368E+04  0.25006957368E+04  0.50400001928E-02 0. -1.
        1   -1    0    0  501    0  0.00000000000E+00  0.00000000000E+00 -0.14624059630E+04  0.14624059630E+04  0.50400001928E-02 0.  1.
    10030    2    1    2    0    0  0.00000000000E+00  0.00000000000E+00  0.10382897738E+04  0.39631016998E+04  0.38246737676E+04 0.  0.
        2    1    3    3  502    0  0.18486358928E+04  0.48115287659E+03  0.61222713945E+03  0.20059373931E+04  0.25500000920E-02 0. -1.
       -2    1    3    3    0  502 -0.18486358928E+04 -0.48115287659E+03  0.42606263433E+03  0.19571643066E+04  0.25500000920E-02 0.  1.
</event>
<event>
 5   0  0.4793557E-07  0.3844467E+04  0.7818609E-02  0.8036679E-01
       -2   -1    0    0    0  501  0.00000000000E+00  0.00000000000E+00  0.14256702729E+04  0.14256702729E+04  0.25500000920E-02 0. -1.
        2   -1    0    0  501    0  0.00000000000E+00  0.00000000000E+00 -0.25917500955E+04  0.25917500955E+04  0.25500000920E-02 0.  1.
    10030    2    1    2    0    0  0.00000000000E+00  0.00000000000E+00 -0.11660798226E+04  0.40174203684E+04  0.38444667073E+04 0.  0.
        3    1    3    3  502    0  0.65359280799E+03 -0.17507438000E+04 -0.11257066694E+03  0.18721537269E+04  0.10100000352E+00 0. -1.
       -3    1    3    3    0  502 -0.65359280799E+03  0.17507438000E+04 -0.10535091557E+04  0.21452666415E+04  0.10100000352E+00 0.  1.
</event>
<event>
 5   0  0.1496000E-07  0.3697183E+04  0.7818609E-02  0.8068587E-01
        1   -1    0    0  501    0  0.00000000000E+00  0.00000000000E+00  0.20905250120E+04  0.20905250120E+04  0.50400001928E-02 0. -1.
       -1   -1    0    0    0  501  0.00000000000E+00  0.00000000000E+00 -0.16346561725E+04  0.16346561725E+04  0.50400001928E-02 0.  1.
    10030    2    1    2    0    0  0.00000000000E+00  0.00000000000E+00  0.45586883947E+03  0.37251811845E+04  0.36971825027E+04 0.  0.
        2    1    3    3  502    0 -0.45933688658E+03  0.17156836947E+04  0.74438678320E+03  0.19257914214E+04  0.25500000920E-02 0. -1.
       -2    1    3    3    0  502  0.45933688658E+03 -0.17156836947E+04 -0.28851794373E+03  0.17993897631E+04  0.25500000920E-02 0.  1.
</event>
<event>
 5   0  0.4687817E-07  0.3682664E+04  0.7818609E-02  0.8071815E-01
       -2   -1    0    0    0  501  0.00000000000E+00  0.00000000000E+00  0.11614446111E+04  0.11614446111E+04  0.25500000920E-02 0. -1.
        2   -1    0    0  501    0  0.00000000000E+00  0.00000000000E+00 -0.29192125073E+04  0.29192125073E+04  0.25500000920E-02 0.  1.
    10030    2    1    2    0    0  0.00000000000E+00  0.00000000000E+00 -0.17577678962E+04  0.40806571184E+04  0.36826640549E+04 0.  0.
        4    1    3    3  502    0 -0.14089824410E+04  0.54040588392E+03  0.29024076055E+03  0.15367209735E+04  0.12699999809E+01 0. -1.
       -4    1    3    3    0  502  0.14089824410E+04 -0.54040588392E+03 -0.20480086567E+04  0.25439361449E+04  0.12699999809E+01 0.  1.
</event>
<event>
 5   0  0.1496000E-07  0.3716065E+04  0.7818609E-02  0.8064411E-01
       -1   -1    0    0    0  501  0.00000000000E+00  0.00000000000E+00  0.15334587784E+04  0.15334587784E+04  0.50400001928E-02 0. -1.
        1   -1    0    0  501    0  0.00000000000E+00  0.00000000000E+00 -0.22513059469E+04  0.22513059469E+04  0.50400001928E-02 0.  1.
    10030    2    1    2    0    0  0.00000000000E+00  0.00000000000E+00 -0.71784716850E+03  0.37847647252E+04  0.37160650516E+04 0.  0.
        3    1    3    3  502    0  0.65764232643E+03  0.15098755052E+04 -0.12350993006E+04  0.20585644909E+04  0.10100000352E+00 0.  1.
       -3    1    3    3    0  502 -0.65764232643E+03 -0.15098755052E+04  0.51725213210E+03  0.17262002343E+04  0.10100000352E+00 0. -1.
</event>
<event>
 5   0  0.1496287E-07  0.3689074E+04  0.7818609E-02  0.8070387E-01
        1   -1    0    0  501    0  0.00000000000E+00  0.00000000000E+00  0.21802394354E+04  0.21802394354E+04  0.50400001928E-02 0.  1.
       -1   -1    0    0    0  501  0.00000000000E+00  0.00000000000E+00 -0.15605243750E+04  0.15605243750E+04  0.50400001928E-02 0. -1.
    10030    2    1    2    0    0  0.00000000000E+00  0.00000000000E+00  0.61971506041E+03  0.37407638105E+04  0.36890740206E+04 0.  0.
        1    1    3    3  502    0 -0.33542827500E+03  0.14489274691E+04 -0.79649084671E+03  0.16870982803E+04  0.50400001928E-02 0. -1.
       -1    1    3    3    0  502  0.33542827500E+03 -0.14489274691E+04  0.14162059071E+04  0.20536655302E+04  0.50400001928E-02 0.  1.
</event>
<event>
 5   0  0.4687817E-07  0.3120860E+04  0.7818609E-02  0.8210036E-01
       -2   -1    0    0    0  501  0.00000000000E+00  0.00000000000E+00  0.15720041383E+04  0.15720041383E+04  0.25500000920E-02 0. -1.
        2   -1    0    0  501    0  0.00000000000E+00  0.00000000000E+00 -0.15489407539E+04  0.15489407539E+04  0.25500000920E-02 0.  1.
    10030    2    1    2    0    0  0.00000000000E+00  0.00000000000E+00  0.23063384400E+02  0.31209448923E+04  0.31208596734E+04 0.  0.
        4    1    3    3  502    0 -0.12708163593E+04  0.90228185787E+03 -0.64974594803E+02  0.15599070744E+04  0.12699999809E+01 0.  1.
       -4    1    3    3    0  502  0.12708163593E+04 -0.90228185787E+03  0.88037979203E+02  0.15610378178E+04  0.12699999809E+01 0. -1.
</event>
<event>
 5   0  0.4857514E-07  0.3614941E+04  0.7818609E-02  0.8087078E-01
       -2   -1    0    0    0  501  0.00000000000E+00  0.00000000000E+00  0.13643815300E+04  0.13643815301E+04  0.25500000920E-02 0.  1.
        2   -1    0    0  501    0  0.00000000000E+00  0.00000000000E+00 -0.23944548140E+04  0.23944548140E+04  0.25500000920E-02 0. -1.
    10030    2    1    2    0    0  0.00000000000E+00  0.00000000000E+00 -0.10300732840E+04  0.37588363441E+04  0.36149411740E+04 0.  0.
        5    1    3    3  502    0 -0.11419174642E+04  0.12244195413E+04  0.19306195587E+03  0.16853704984E+04  0.46999998093E+01 0.  1.
       -5    1    3    3    0  502  0.11419174642E+04 -0.12244195413E+04 -0.12231352399E+04  0.20734658457E+04  0.46999998093E+01 0. -1.
</event>
<event>
 5   0  0.1496000E-07  0.3698643E+04  0.7818609E-02  0.8068263E-01
        1   -1    0    0  501    0  0.00000000000E+00  0.00000000000E+00  0.24939866419E+04  0.24939866419E+04  0.50400001928E-02 0.  1.
       -1   -1    0    0    0  501  0.00000000000E+00  0.00000000000E+00 -0.13712946893E+04  0.13712946893E+04  0.50400001928E-02 0. -1.
    10030    2    1    2    0    0  0.00000000000E+00  0.00000000000E+00  0.11226919525E+04  0.38652813312E+04  0.36986433390E+04 0.  0.
        2    1    3    3  502    0  0.46919739143E+02  0.46410034676E+03  0.24314959971E+04  0.24758358948E+04  0.25500000920E-02 0.  1.
       -2    1    3    3    0  502 -0.46919739143E+02 -0.46410034676E+03 -0.13088040446E+04  0.13894454364E+04  0.25500000920E-02 0. -1.
</event>
<event>
 5   0  0.1522273E-07  0.3699648E+04  0.7818609E-02  0.8068040E-01
        1   -1    0    0  501    0  0.00000000000E+00  0.00000000000E+00  0.17356680672E+04  0.17356680673E+04  0.50400001928E-02 0.  1.
       -1   -1    0    0    0  501  0.00000000000E+00  0.00000000000E+00 -0.19714879896E+04  0.19714879896E+04  0.50400001928E-02 0. -1.
    10030    2    1    2    0    0  0.00000000000E+00  0.00000000000E+00 -0.23581992239E+03  0.37071560569E+04  0.36996479555E+04 0.  0.
        4    1    3    3  502    0 -0.38600393487E+03  0.15632113253E+04 -0.10303722967E+04  0.19116216592E+04  0.12699999809E+01 0. -1.
       -4    1    3    3    0  502  0.38600393487E+03 -0.15632113253E+04  0.79455237427E+03  0.17955343977E+04  0.12699999809E+01 0.  1.
</event>
<event>
 5   0  0.1496287E-07  0.3615351E+04  0.7818609E-02  0.8086984E-01
        1   -1    0    0  501    0  0.00000000000E+00  0.00000000000E+00  0.19805592674E+04  0.19805592674E+04  0.50400001928E-02 0.  1.
       -1   -1    0    0    0  501  0.00000000000E+00  0.00000000000E+00 -0.16498830834E+04  0.16498830834E+04  0.50400001928E-02 0. -1.
    10030    2    1    2    0    0  0.00000000000E+00  0.00000000000E+00  0.33067618395E+03  0.36304423508E+04  0.36153512864E+04 0.  0.
        1    1    3    3  502    0  0.25866787976E+02  0.10177933734E+04  0.16652660133E+04  0.19518410121E+04  0.50400001928E-02 0.  1.
       -1    1    3    3    0  502 -0.25866787976E+02 -0.10177933734E+04 -0.13345898293E+04  0.16786013387E+04  0.50400001928E-02 0. -1.
</event>
<event>
 5   0  0.1496000E-07  0.3674119E+04  0.7818609E-02  0.8073722E-01
       -1   -1    0    0    0  501  0.00000000000E+00  0.00000000000E+00  0.29716852634E+04  0.29716852634E+04  0.50400001928E-02 0.  1.
        1   -1    0    0  501    0  0.00000000000E+00  0.00000000000E+00 -0.11356479649E+04  0.11356479650E+04  0.50400001928E-02 0. -1.
    10030    2    1    2    0    0  0.00000000000E+00  0.00000000000E+00  0.18360372985E+04  0.41073332284E+04  0.36741193894E+04 0.  0.
        5    1    3    3  502    0  0.80626415336E+03 -0.16825125074E+03 -0.91766779262E+03  0.12330882515E+04  0.46999998093E+01 0. -1.
       -5    1    3    3    0  502 -0.80626415336E+03  0.16825125074E+03  0.27537050911E+04  0.28742449769E+04  0.46999998093E+01 0.  1.
</event>
<event>
 5   0  0.1496000E-07  0.3606947E+04  0.7818609E-02  0.8088902E-01
       -1   -1    0    0    0  501  0.00000000000E+00  0.00000000000E+00  0.26225725254E+04  0.26225725254E+04  0.50400001928E-02 0. -1.
        1   -1    0    0  501    0  0.00000000000E+00  0.00000000000E+00 -0.12402008667E+04  0.12402008667E+04  0.50400001928E-02 0.  1.
    10030    2    1    2    0    0  0.00000000000E+00  0.00000000000E+00  0.13823716587E+04  0.38627733921E+04  0.36069470298E+04 0.  0.
        3    1    3    3  502    0  0.47699306543E+03  0.44325295286E+03 -0.11099197912E+04  0.12868245870E+04  0.10100000352E+00 0.  1.
       -3    1    3    3    0  502 -0.47699306543E+03 -0.44325295286E+03  0.24922914499E+04  0.25759488050E+04  0.10100000352E+00 0. -1.
</event>
<event>
 5   0  0.4824268E-07  0.3445337E+04  0.7818609E-02  0.8126868E-01
        2   -1    0    0  501    0  0.00000000000E+00  0.00000000000E+00  0.19650024462E+04  0.19650024462E+04  0.25500000920E-02 0. -1.
       -2   -1    0    0    0  501  0.00000000000E+00  0.00000000000E+00 -0.15102204899E+04  0.15102204899E+04  0.25500000920E-02 0.  1.
    10030    2    1    2    0    0  0.00000000000E+00  0.00000000000E+00  0.45478195626E+03  0.34752229361E+04  0.34453371139E+04 0.  0.
        1    1    3    3  502    0  0.75057804497E+03  0.86362821490E+03 -0.10715550968E+04  0.15676260462E+04  0.50400001928E-02 0.  1.
       -1    1    3    3    0  502 -0.75057804497E+03 -0.86362821490E+03  0.15263370530E+04  0.19075968900E+04  0.50400001928E-02 0. -1.
</event>
<event>
 5   0  0.1496000E-07  0.3701820E+04  0.7818609E-02  0.8067559E-01
       -1   -1    0    0    0  501  0.00000000000E+00  0.00000000000E+00  0.25481874216E+04  0.25481874216E+04  0.50400001928E-02 0. -1.
        1   -1    0    0  501    0  0.00000000000E+00  0.00000000000E+00 -0.13444334675E+04  0.13444334675E+04  0.50400001928E-02 0.  1.
    10030    2    1    2    0    0  0.00000000000E+00  0.00000000000E+00  0.12037539541E+04  0.38926208891E+04  0.37018203366E+04 0.  0.
        5    1    3    3  502    0  0.16088648079E+04 -0.88074366434E+03  0.34069834818E+03  0.18655435741E+04  0.46999998093E+01 0. -1.
       -5    1    3    3    0  502 -0.16088648079E+04  0.88074366434E+03  0.86305560588E+03  0.20270773150E+04  0.46999998093E+01 0.  1.
</event>
<event>
 5   0  0.1496287E-07  0.3719958E+04  0.7818609E-02  0.8063553E-01
        1   -1    0    0  501    0  0.00000000000E+00  0.00000000000E+00  0.12354346421E+04  0.12354346421E+04  0.50400001928E-02 0. -1.
       -1   -1    0    0    0  501  0.00000000000E+00  0.00000000000E+00 -0.28002471820E+04  0.28002471820E+04  0.50400001928E-02 0.  1.
    10030    2    1    2    0    0  0.00000000000E+00  0.00000000000E+00 -0.15648125399E+04  0.40356818241E+04  0.37199582659E+04 0.  0.
        1    1    3    3  502    0  0.43488312990E+03 -0.16200473603E+04 -0.16542591370E+04  0.23558968735E+04  0.50400001928E-02 0.  1.
       -1    1    3    3    0  502 -0.43488312990E+03  0.16200473603E+04  0.89446597028E+02  0.16797849506E+04  0.50400001928E-02 0. -1.
</event>
<event>
 5   0  0.1496000E-07  0.3740081E+04  0.7818609E-02  0.8059137E-01
       -1   -1    0    0    0  501  0.00000000000E+00  0.00000000000E+00  0.14156256835E+04  0.14156256836E+04  0.50400001928E-02 0.  1.
        1   -1    0    0  501    0  0.00000000000E+00  0.00000000000E+00 -0.24703219910E+04  0.24703219910E+04  0.50400001928E-02 0. -1.
    10030    2    1    2    0    0  0.00000000000E+00  0.00000000000E+00 -0.10546963075E+04  0.38859476746E+04  0.37400808853E+04 0.  0.
        3    1    3    3  502    0  0.17389272897E+04 -0.58166413339E+03 -0.90888929235E+03  0.20465290222E+04  0.10100000352E+00 0. -1.
       -3    1    3    3    0  502 -0.17389272897E+04  0.58166413339E+03 -0.14580701511E+03  0.18394186524E+04  0.10100000352E+00 0.  1.
</event>
<event>
 5   0  0.1522273E-07  0.3632370E+04  0.7818609E-02  0.8083117E-01
       -1   -1    0    0    0  501  0.00000000000E+00  0.00000000000E+00  0.23192132939E+04  0.23192132939E+04  0.50400001928E-02 0.  1.
        1   -1    0    0  501    0  0.00000000000E+00  0.00000000000E+00 -0.14222614537E+04  0.14222614537E+04  0.50400001928E-02 0. -1.
    10030    2    1    2    0    0  0.00000000000E+00  0.00000000000E+00  0.89695184015E+03  0.37414747476E+04  0.36323698440E+04 0.  0.
        4    1    3    3  502    0 -0.11221846703E+04 -0.73382145991E+03 -0.81336490059E+03  0.15682335425E+04  0.12699999809E+01 0. -1.
       -4    1    3    3    0  502  0.11221846703E+04  0.73382145991E+03  0.17103167407E+04  0.21732412052E+04  0.12699999809E+01 0.  1.
</event>
<event>
 5   0  0.1496000E-07  0.3760486E+04  0.7818609E-02  0.8054688E-01
       -1   -1    0    0    0  501  0.00000000000E+00  0.00000000000E+00  0.16697004936E+04  0.16697004936E+04  0.50400001928E-02 0. -1.
        1   -1    0    0  501    0  0.00000000000E+00  0.00000000000E+00 -0.21173339274E+04  0.21173339274E+04  0.50400001928E-02 0.  1.
    10030    2    1    2    0    0  0.00000000000E+00  0.00000000000E+00 -0.44763343380E+03  0.37870344210E+04  0.37604858748E+04 0.  0.
        3    1    3    3  502    0  0.89880772179E+03  0.13640382344E+04 -0.11614418464E+04  0.20043459777E+04  0.10100000352E+00 0. -1.
       -3    1    3    3    0  502 -0.89880772179E+03 -0.13640382344E+04  0.71380841257E+03  0.17826884433E+04  0.10100000352E+00 0.  1.
</event>
<event>
 5   0  0.4824268E-07  0.3922718E+04  0.7818609E-02  0.8020321E-01
        2   -1    0    0  501    0  0.00000000000E+00  0.00000000000E+00  0.29892844166E+04  0.29892844166E+04  0.25500000920E-02 0.  1.
       -2   -1    0    0    0  501  0.00000000000E+00  0.00000000000E+00 -0.12869066440E+04  0.12869066440E+04  0.25500000920E-02 0. -1.
    10030    2    1    2    0    0  0.00000000000E+00  0.00000000000E+00  0.17023777726E+04  0.42761910607E+04  0.39227184333E+04 0.  0.
        1    1    3    3  502    0 -0.58777390135E+03 -0.18408051909E+04  0.48492509813E+03  0.19922836798E+04  0.50400001928E-02 0. -1.
       -1    1    3    3    0  502  0.58777390135E+03  0.18408051909E+04  0.12174526745E+04  0.22839073809E+04  0.50400001928E-02 0.  1.
</event>
<event>
 5   0  0.4793557E-07  0.3713707E+04  0.7818609E-02  0.8064931E-01
       -2   -1    0    0    0  501  0.00000000000E+00  0.00000000000E+00  0.21083079101E+04  0.21083079101E+04  0.25500000920E-02 0.  1.
        2   -1    0    0  501    0  0.00000000000E+00  0.00000000000E+00 -0.16353899252E+04  0.16353899252E+04  0.25500000920E-02 0. -1.
    10030    2    1    2    0    0  0.00000000000E+00  0.00000000000E+00  0.47291798490E+03  0.37436978354E+04  0.37137073205E+04 0.  0.
        3    1    3    3  502    0 -0.45129116729E+03  0.65682785923E+03 -0.14542310868E+04  0.16582745908E+04  0.10100000352E+00 0. -1.
       -3    1    3    3    0  502  0.45129116729E+03 -0.65682785923E+03  0.19271490717E+04  0.20854232446E+04  0.10100000352E+00 0.  1.
</event>
<event>
 5   0  0.1496000E-07  0.3705511E+04  0.7818609E-02  0.8066742E-01
       -1   -1    0    0    0  501  0.00000000000E+00  0.00000000000E+00  0.29707622326E+04  0.29707622326E+04  0.50400001928E-02 0. -1.
        1   -1    0    0  501    0  0.00000000000E+00  0.00000000000E+00 -0.11554956717E+04  0.11554956717E+04  0.50400001928E-02 0.  1.
    10030    2    1    2    0    0  0.00000000000E+00  0.00000000000E+00  0.18152665609E+04  0.41262579042E+04  0.37055109776E+04 0.  0.
        3    1    3    3  502    0 -0.10972649167E+04  0.14928077728E+04  0.89047067419E+03  0.20555785988E+04  0.10100000352E+00 0.  1.
       -3    1    3    3    0  502  0.10972649167E+04 -0.14928077728E+04  0.92479588671E+03  0.20706793055E+04  0.10100000352E+00 0. -1.
</event>
<event>
 5   0  0.1496000E-07  0.3770444E+04  0.7818609E-02  0.8052527E-01
       -1   -1    0    0    0  501  0.00000000000E+00  0.00000000000E+00  0.19728803302E+04  0.19728803302E+04  0.50400001928E-02 0.  1.
        1   -1    0    0  501    0  0.00000000000E+00  0.00000000000E+00 -0.18014587997E+04  0.18014587997E+04  0.50400001928E-02 0. -1.
    10030    2    1    2    0    0  0.00000000000E+00  0.00000000000E+00  0.17142153045E+03  0.37743391299E+04  0.37704443407E+04 0.  0.
        2    1    3    3  502    0  0.77532249996E+03  0.24298496247E+03 -0.16171919669E+04  0.18098277622E+04  0.25500000920E-02 0. -1.
       -2    1    3    3    0  502 -0.77532249996E+03 -0.24298496247E+03  0.17886134974E+04  0.19645113677E+04  0.25500000920E-02 0.  1.
</event>
<event>
 5   0  0.1522273E-07  0.3666524E+04  0.7818609E-02  0.8075421E-01
       -1   -1    0    0    0  501  0.00000000000E+00  0.00000000000E+00  0.17212295363E+04  0.17212295363E+04  0.50400001928E-02 0. -1.
        1   -1    0    0  501    0  0.00000000000E+00  0.00000000000E+00 -0.19525862984E+04  0.19525862984E+04  0.50400001928E-02 0.  1.
    10030    2    1    2    0    0  0.00000000000E+00  0.00000000000E+00 -0.23135676210E+03  0.36738158347E+04  0.36665238082E+04 0.  0.
        4    1    3    3  502    0 -0.34732756488E+03  0.15792249976E+04  0.74990284420E+03  0.17823983615E+04  0.12699999809E+01 0. -1.
       -4    1    3    3    0  502  0.34732756488E+03 -0.15792249976E+04 -0.98125960629E+03  0.18914174733E+04  0.12699999809E+01 0.  1.
</event>
<event>
 5   0  0.1496000E-07  0.3703743E+04  0.7818609E-02  0.8067133E-01
        1   -1    0    0  501    0  0.00000000000E+00  0.00000000000E+00  0.20040546494E+04  0.20040546494E+04  0.50400001928E-02 0. -1.
       -1   -1    0    0    0  501  0.00000000000E+00  0.00000000000E+00 -0.17112450545E+04  0.17112450545E+04  0.50400001928E-02 0.  1.
    10030    2    1    2    0    0  0.00000000000E+00  0.00000000000E+00  0.29280959498E+03  0.37152997039E+04  0.37037432998E+04 0.  0.
        2    1    3    3  502    0 -0.42824822535E+03 -0.15385758344E+04 -0.79397235116E+03  0.17835370013E+04  0.25500000920E-02 0.  1.
       -2    1    3    3    0  502  0.42824822535E+03  0.15385758344E+04  0.10867819461E+04  0.19317627026E+04  0.25500000920E-02 0. -1.
</event>
<event>
 5   0  0.1496287E-07  0.3670106E+04  0.7818609E-02  0.8074619E-01
        1   -1    0    0  501    0  0.00000000000E+00  0.00000000000E+00  0.13319268169E+04  0.13319268169E+04  0.50400001928E-02 0.  1.
       -1   -1    0    0    0  501  0.00000000000E+00  0.00000000000E+00 -0.25282310972E+04  0.25282310972E+04  0.50400001928E-02 0. -1.
    10030    2    1    2    0    0  0.00000000000E+00  0.00000000000E+00 -0.11963042803E+04  0.38601579140E+04  0.36701056102E+04 0.  0.
        1    1    3    3  502    0 -0.14258237891E+04 -0.77038192860E+03 -0.15035157067E+04  0.22106608228E+04  0.50400001928E-02 0. -1.
       -1    1    3    3    0  502  0.14258237891E+04  0.77038192860E+03  0.30721142637E+03  0.16494970912E+04  0.50400001928E-02 0.  1.
</event>
<event>
 5   0  0.1496000E-07  0.3295781E+04  0.7818609E-02  0.8163970E-01
        1   -1    0    0  501    0  0.00000000000E+00  0.00000000000E+00  0.21290943053E+04  0.21290943053E+04  0.50400001928E-02 0. -1.
       -1   -1    0    0    0  501  0.00000000000E+00  0.00000000000E+00 -0.12754454489E+04  0.12754454489E+04  0.50400001928E-02 0.  1.
    10030    2    1    2    0    0  0.00000000000E+00  0.00000000000E+00  0.85364885635E+03  0.34045397542E+04  0.32957813289E+04 0.  0.
        5    1    3    3  502    0  0.14258752135E+02  0.13782167346E+04 -0.50621862875E+03  0.14683201523E+04  0.46999998093E+01 0.  1.
       -5    1    3    3    0  502 -0.14258752135E+02 -0.13782167346E+04  0.13598674851E+04  0.19362196019E+04  0.46999998093E+01 0. -1.
</event>
<event>
 5   0  0.4857514E-07  0.3694123E+04  0.7818609E-02  0.8069265E-01
       -2   -1    0    0    0  501  0.00000000000E+00  0.00000000000E+00  0.29042669350E+04  0.29042669350E+04  0.25500000920E-02 0.  1.
        2   -1    0    0  501    0  0.00000000000E+00  0.00000000000E+00 -0.11746980116E+04  0.11746980116E+04  0.25500000920E-02 0. -1.
    10030    2    1    2    0    0  0.00000000000E+00  0.00000000000E+00  0.17295689233E+04  0.40789649466E+04  0.36941232214E+04 0.  0.
        5    1    3    3  502    0 -0.52037880610E+03 -0.14830023562E+04  0.19361912365E+04  0.24937820043E+04  0.46999998093E+01 0.  1.
       -5    1    3    3    0  502  0.52037880610E+03  0.14830023562E+04 -0.20662231322E+03  0.15851829423E+04  0.46999998093E+01 0. -1.
</event>
<event>
 5   0  0.4687817E-07  0.3710436E+04  0.7818609E-02  0.8065653E-01
        2   -1    0    0  501    0  0.00000000000E+00  0.00000000000E+00  0.19990446299E+04  0.19990446299E+04  0.25500000920E-02 0. -1.
       -2   -1    0    0    0  501  0.00000000000E+00  0.00000000000E+00 -0.17217390912E+04  0.17217390912E+04  0.25500000920E-02 0.  1.
    10030    2    1    2    0    0  0.00000000000E+00  0.00000000000E+00  0.27730553873E+03  0.37207837212E+04  0.37104357073E+04 0.  0.
        4    1    3    3  502    0  0.24565117512E+03  0.18307764292E+04 -0.34295141062E+02  0.18475022607E+04  0.12699999809E+01 0.  1.
       -4    1    3    3    0  502 -0.24565117512E+03 -0.18307764292E+04  0.31160067979E+03  0.18732814605E+04  0.12699999809E+01 0. -1.
</event>
<event>
 5   0  0.1496000E-07  0.3597484E+04  0.7818609E-02  0.8091068E-01
       -1   -1    0    0    0  501  0.00000000000E+00  0.00000000000E+00  0.15098689247E+04  0.15098689247E+04  0.50400001928E-02 0. -1.
        1   -1    0    0  501    0  0.00000000000E+00  0.00000000000E+00 -0.21428827522E+04  0.21428827523E+04  0.50400001928E-02 0.  1.
    10030    2    1    2    0    0  0.00000000000E+00  0.00000000000E+00 -0.63301382757E+03  0.36527516769E+04  0.35974836077E+04 0.  0.
        5    1    3    3  502    0  0.97850678208E+03 -0.14466016546E+04  0.12059254096E+03  0.17506274648E+04  0.46999998093E+01 0. -1.
       -5    1    3    3    0  502 -0.97850678208E+03  0.14466016546E+04 -0.75360636853E+03  0.19021242121E+04  0.46999998093E+01 0.  1.
</event>
<event>
 5   0  0.4824268E-07  0.3696147E+04  0.7818609E-02  0.8068816E-01
       -2   -1    0    0    0  501  0.00000000000E+00  0.00000000000E+00  0.14464867084E+04  0.14464867084E+04  0.25500000920E-02 0. -1.
        2   -1    0    0  501    0  0.00000000000E+00  0.00000000000E+00 -0.23611524108E+04  0.23611524108E+04  0.25500000920E-02 0.  1.
    10030    2    1    2    0    0  0.00000000000E+00  0.00000000000E+00 -0.91466570237E+03  0.38076391192E+04  0.36961469552E+04 0.  0.
        1    1    3    3  502    0 -0.18135878908E+04  0.95172511200E+02 -0.81002952034E+03  0.19885438563E+04  0.50400001928E-02 0. -1.
       -1    1    3    3    0  502  0.18135878908E+04 -0.95172511200E+02 -0.10463618203E+03  0.18190952628E+04  0.50400001928E-02 0.  1.
</event>
<event>
 5   0  0.4687817E-07  0.3177248E+04  0.7818609E-02  0.8194852E-01
       -2   -1    0    0    0  501  0.00000000000E+00  0.00000000000E+00  0.12526913264E+04  0.12526913264E+04  0.25500000920E-02 0. -1.
        2   -1    0    0  501    0  0.00000000000E+00  0.00000000000E+00 -0.20146436095E+04  0.20146436095E+04  0.25500000920E-02 0.  1.
    10030    2    1    2    0    0  0.00000000000E+00  0.00000000000E+00 -0.76195228312E+03  0.32673349359E+04  0.31772482279E+04 0.  0.
        4    1    3    3  502    0  0.13801545098E+03 -0.10576584785E+04  0.82970463484E+03  0.13513330884E+04  0.12699999809E+01 0. -1.
       -4    1    3    3    0  502 -0.13801545098E+03  0.10576584785E+04 -0.15916569180E+04  0.19160018474E+04  0.12699999809E+01 0.  1.
</event>
<event>
 5   0  0.4687817E-07  0.3708839E+04  0.7818609E-02  0.8066006E-01
       -2   -1    0    0    0  501  0.00000000000E+00  0.00000000000E+00  0.23768107146E+04  0.23768107146E+04  0.25500000920E-02 0. -1.
        2   -1    0    0  501    0  0.00000000000E+00  0.00000000000E+00 -0.14468431531E+04  0.14468431531E+04  0.25500000920E-02 0.  1.
    10030    2    1    2    0    0  0.00000000000E+00  0.00000000000E+00  0.92996756141E+03  0.38236538677E+04  0.37088393380E+04 0.  0.
        4    1    3    3  502    0  0.13208538485E+04 -0.45226000304E+03  0.17232906359E+04  0.22178652412E+04  0.12699999809E+01 0. -1.
       -4    1    3    3    0  502 -0.13208538485E+04  0.45226000304E+03 -0.79332307447E+03  0.16057886265E+04  0.12699999809E+01 0.  1.
</event>
<event>
 5   0  0.1496287E-07  0.3695125E+04  0.7818609E-02  0.8069043E-01
        1   -1    0    0  501    0  0.00000000000E+00  0.00000000000E+00  0.14112341596E+04  0.14112341596E+04  0.50400001928E-02 0. -1.
       -1   -1    0    0    0  501  0.00000000000E+00  0.00000000000E+00 -0.24187961021E+04  0.24187961021E+04  0.50400001928E-02 0.  1.
    10030    2    1    2    0    0  0.00000000000E+00  0.00000000000E+00 -0.10075619424E+04  0.38300302617E+04  0.36951252669E+04 0.  0.
        1    1    3    3  502    0 -0.91446052885E+03  0.38810161189E+03  0.11108546569E+04  0.14902546724E+04  0.50400001928E-02 0. -1.
       -1    1    3    3    0  502  0.91446052885E+03 -0.38810161189E+03 -0.21184165993E+04  0.23397755893E+04  0.50400001928E-02 0.  1.
</event>
<event>
 5   0  0.1496000E-07  0.3673150E+04  0.7818609E-02  0.8073938E-01
       -1   -1    0    0    0  501  0.00000000000E+00  0.00000000000E+00  0.11442958496E+04  0.11442958496E+04  0.50400001928E-02 0. -1.
        1   -1    0    0  501    0  0.00000000000E+00  0.00000000000E+00 -0.29476706595E+04  0.29476706595E+04  0.50400001928E-02 0.  1.
    10030    2    1    2    0    0  0.00000000000E+00  0.00000000000E+00 -0.18033748099E+04  0.40919665091E+04  0.36731497664E+04 0.  0.
        5    1    3    3  502    0 -0.35761439697E+03  0.17640176311E+04 -0.13084789826E+04  0.22252607932E+04  0.46999998093E+01 0.  1.
       -5    1    3    3    0  502  0.35761439697E+03 -0.17640176311E+04 -0.49489582730E+03  0.18667057159E+04  0.46999998093E+01 0. -1.
</event>
<event>
 5   0  0.1496000E-07  0.3713797E+04  0.7818609E-02  0.8064911E-01
        1   -1    0    0  501    0  0.00000000000E+00  0.00000000000E+00  0.29091997324E+04  0.29091997324E+04  0.50400001928E-02 0.  1.
       -1   -1    0    0    0  501  0.00000000000E+00  0.00000000000E+00 -0.11852302472E+04  0.11852302472E+04  0.50400001928E-02 0. -1.
    10030    2    1    2    0    0  0.00000000000E+00  0.00000000000E+00  0.17239694853E+04  0.40944299796E+04  0.37137967192E+04 0.  0.
        3    1    3    3  502    0 -0.88859211132E+03  0.57165265334E+03  0.25454750280E+04  0.27560525802E+04  0.10100000352E+00 0.  1.
       -3    1    3    3    0  502  0.88859211132E+03 -0.57165265334E+03 -0.82150554273E+03  0.13383773994E+04  0.10100000352E+00 0. -1.
</event>
<event>
 5   0  0.4687817E-07  0.3721733E+04  0.7818609E-02  0.8063162E-01
       -2   -1    0    0    0  501  0.00000000000E+00  0.00000000000E+00  0.29445830576E+04  0.29445830576E+04  0.25500000920E-02 0.  1.
        2   -1    0    0  501    0  0.00000000000E+00  0.00000000000E+00 -0.11759982341E+04  0.11759982342E+04  0.25500000920E-02 0. -1.
    10030    2    1    2    0    0  0.00000000000E+00  0.00000000000E+00  0.17685848234E+04  0.41205812917E+04  0.37217331855E+04 0.  0.
        4    1    3    3  502    0 -0.16539238528E+02 -0.22144145785E+03 -0.11612761099E+04  0.11823170818E+04  0.12699999809E+01 0. -1.
       -4    1    3    3    0  502  0.16539238528E+02  0.22144145785E+03  0.29298609333E+04  0.29382642099E+04  0.12699999809E+01 0.  1.
</event>
<event>
 5   0  0.1522273E-07  0.3673843E+04  0.7818609E-02  0.8073783E-01
       -1   -1    0    0    0  501  0.00000000000E+00  0.00000000000E+00  0.27166187946E+04  0.27166187946E+04  0.50400001928E-02 0. -1.
        1   -1    0    0  501    0  0.00000000000E+00  0.00000000000E+00 -0.12420883778E+04  0.12420883778E+04  0.50400001928E-02 0.  1.
    10030    2    1    2    0    0  0.00000000000E+00  0.00000000000E+00  0.14745304168E+04  0.39587071725E+04  0.36738430189E+04 0.  0.
        4    1    3    3  502    0 -0.57061163008E+02  0.89649555867E+03 -0.98925902931E+03  0.13362616896E+04  0.12699999809E+01 0.  1.
       -4    1    3    3    0  502  0.57061163008E+02 -0.89649555867E+03  0.24637894461E+04  0.26224454829E+04  0.12699999809E+01 0. -1.
</event>
<event>
 5   0  0.4824268E-07  0.3723754E+04  0.7818609E-02  0.8062718E-01
       -2   -1    0    0    0  501  0.00000000000E+00  0.00000000000E+00  0.13629093963E+04  0.13629093963E+04  0.25500000920E-02 0.  1.
        2   -1    0    0  501    0  0.00000000000E+00  0.00000000000E+00 -0.25435183369E+04  0.25435183369E+04  0.25500000920E-02 0. -1.
    10030    2    1    2    0    0  0.00000000000E+00  0.00000000000E+00 -0.11806089406E+04  0.39064277331E+04  0.37237535047E+04 0.  0.
        1    1    3    3  502    0 -0.72455910315E+03 -0.72011680224E+03  0.10426660675E+04  0.14596940197E+04  0.50400001928E-02 0.  1.
       -1    1    3    3    0  502  0.72455910315E+03  0.72011680224E+03 -0.22232750081E+04  0.24467337134E+04  0.50400001928E-02 0. -1.
</event>
<event>
 5   0  0.1496000E-07  0.3279637E+04  0.7818609E-02  0.8168096E-01
        1   -1    0    0  501    0  0.00000000000E+00  0.00000000000E+00  0.22840441907E+04  0.22840441907E+04  0.50400001928E-02 0.  1.
       -1   -1    0    0    0  501  0.00000000000E+00  0.00000000000E+00 -0.11772995989E+04  0.11772995989E+04  0.50400001928E-02 0. -1.
    10030    2    1    2    0    0  0.00000000000E+00  0.00000000000E+00  0.11067445918E+04  0.34613437896E+04  0.32796367540E+04 0.  0.
        5    1    3    3  502    0  0.28829425007E+03 -0.10674556318E+04 -0.72467307625E+03  0.13220243031E+04  0.46999998093E+01 0. -1.
       -5    1    3    3    0  502 -0.28829425007E+03  0.10674556318E+04  0.18314176681E+04  0.21393194865E+04  0.46999998093E+01 0.  1.
</event>
<event>
 5   0  0.4793557E-07  0.3723581E+04  0.7818609E-02  0.8062756E-01
        2   -1    0    0  501    0  0.00000000000E+00  0.00000000000E+00  0.20246307405E+04  0.20246307405E+04  0.25500000920E-02 0. -1.
       -2   -1    0    0    0  501  0.00000000000E+00  0.00000000000E+00 -0.17120471278E+04  0.17120471278E+04  0.25500000920E-02 0.  1.
    10030    2    1    2    0    0  0.00000000000E+00  0.00000000000E+00  0.31258361265E+03  0.37366778683E+04  0.37235806660E+04 0.  0.
        3    1    3    3  502    0 -0.39762953299E+03  0.25541338398E+03  0.19634362893E+04  0.20195116525E+04  0.10100000352E+00 0. -1.
       -3    1    3    3    0  502  0.39762953299E+03 -0.25541338398E+03 -0.16508526767E+04  0.17171662158E+04  0.10100000352E+00 0.  1.
</event>
<event>
 5   0  0.4824268E-07  0.3562668E+04  0.7818609E-02  0.8099097E-01
       -2   -1    0    0    0  501  0.00000000000E+00  0.00000000000E+00  0.11964690776E+04  0.11964690776E+04  0.25500000920E-02 0.  1.
        2   -1    0    0  501    0  0.00000000000E+00  0.00000000000E+00 -0.26520952283E+04  0.26520952283E+04  0.25500000920E-02 0. -1.
    10030    2    1    2    0    0  0.00000000000E+00  0.00000000000E+00 -0.14556261507E+04  0.38485643059E+04  0.35626675015E+04 0.  0.
        1    1    3    3  502    0  0.46016590659E+03  0.15661711161E+04  0.42506970404E+02  0.16329272700E+04  0.50400001928E-02 0.  1.
       -1    1    3    3    0  502 -0.46016590659E+03 -0.15661711161E+04 -0.14981331211E+04  0.22156370359E+04  0.50400001928E-02 0. -1.
</event>
<event>
 5   0  0.1496000E-07  0.3673354E+04  0.7818609E-02  0.8073893E-01
       -1   -1    0    0    0  501  0.00000000000E+00  0.00000000000E+00  0.18195710858E+04  0.18195710858E+04  0.50400001928E-02 0. -1.
        1   -1    0    0  501    0  0.00000000000E+00  0.00000000000E+00 -0.18539435302E+04  0.18539435302E+04  0.50400001928E-02 0.  1.
    10030    2    1    2    0    0  0.00000000000E+00  0.00000000000E+00 -0.34372444451E+02  0.36735146160E+04  0.36733538039E+04 0.  0.
        5    1    3    3  502    0 -0.12204973778E+04  0.10916116797E+04  0.81479373252E+03  0.18289726147E+04  0.46999998093E+01 0. -1.
       -5    1    3    3    0  502  0.12204973778E+04 -0.10916116797E+04 -0.84916617697E+03  0.18445420013E+04  0.46999998093E+01 0.  1.
</event>
<event>
 5   0  0.1496000E-07  0.3726041E+04  0.7818609E-02  0.8062215E-01
       -1   -1    0    0    0  501  0.00000000000E+00  0.00000000000E+00  0.16546127683E+04  0.16546127683E+04  0.50400001928E-02 0. -1.
        1   -1    0    0  501    0  0.00000000000E+00  0.00000000000E+00 -0.20976778338E+04  0.20976778338E+04  0.50400001928E-02 0.  1.
    10030    2    1    2    0    0  0.00000000000E+00  0.00000000000E+00 -0.44306506549E+03  0.37522906020E+04  0.37260405406E+04 0.  0.
        2    1    3    3  502    0 -0.18016729974E+04  0.46875416204E+03 -0.14969644852E+03  0.18676629997E+04  0.25500000920E-02 0. -1.
       -2    1    3    3    0  502  0.18016729974E+04 -0.46875416204E+03 -0.29336861697E+03  0.18846276023E+04  0.25500000920E-02 0.  1.
</event>
<event>
 5   0  0.4758908E-07  0.3691035E+04  0.7818609E-02  0.8069951E-01
       -2   -1    0    0    0  501  0.00000000000E+00  0.00000000000E+00  0.16250988112E+04  0.16250988112E+04  0.25500000920E-02 0. -1.
        2   -1    0    0  501    0  0.00000000000E+00  0.00000000000E+00 -0.20958325298E+04  0.20958325298E+04  0.25500000920E-02 0.  1.
    10030    2    1    2    0    0  0.00000000000E+00  0.00000000000E+00 -0.47073371862E+03  0.37209313409E+04  0.36910350595E+04 0.  0.
        2    1    3    3  502    0 -0.17793736588E+03 -0.14304404452E+04  0.92640555962E+03  0.17134902493E+04  0.25500000920E-02 0. -1.
       -2    1    3    3    0  502  0.17793736588E+03  0.14304404452E+04 -0.13971392782E+04  0.20074410916E+04  0.25500000920E-02 0.  1.
</event>
<event>
 5   0  0.4758908E-07  0.3739861E+04  0.7818609E-02  0.8059185E-01
        2   -1    0    0  501    0  0.00000000000E+00  0.00000000000E+00  0.11208759071E+04  0.11208759071E+04  0.25500000920E-02 0. -1.
       -2   -1    0    0    0  501  0.00000000000E+00  0.00000000000E+00 -0.31195604547E+04  0.31195604547E+04  0.25500000920E-02 0.  1.
    10030    2    1    2    0    0  0.00000000000E+00  0.00000000000E+00 -0.19986845476E+04  0.42404363619E+04  0.37398610426E+04 0.  0.
        2    1    3    3  502    0 -0.16552152069E+04 -0.23716261429E+03 -0.19484329646E+04  0.25675619767E+04  0.25500000920E-02 0. -1.
       -2    1    3    3    0  502  0.16552152069E+04  0.23716261429E+03 -0.50251583070E+02  0.16728743851E+04  0.25500000920E-02 0.  1.
</event>
<event>
 5   0  0.1496000E-07  0.3685171E+04  0.7818609E-02  0.8071256E-01
       -1   -1    0    0    0  501  0.00000000000E+00  0.00000000000E+00  0.23508970699E+04  0.23508970699E+04  0.50400001928E-02 0. -1.
        1   -1    0    0  501    0  0.00000000000E+00  0.00000000000E+00 -0.14441813295E+04  0.14441813295E+04  0.50400001928E-02 0.  1.
    10030    2    1    2    0    0  0.00000000000E+00  0.00000000000E+00  0.90671574036E+03  0.37950783994E+04  0.36851711797E+04 0.  0.
        3    1    3    3  502    0 -0.12714623635E+04  0.81032615434E+03 -0.63741828663E+03  0.16369322223E+04  0.10100000352E+00 0.  1.
       -3    1    3    3    0  502  0.12714623635E+04 -0.81032615434E+03  0.15441340270E+04  0.21581461771E+04  0.10100000352E+00 0. -1.
</event>
<event>
 5   0  0.1496000E-07  0.3070269E+04  0.7818609E-02  0.8223945E-01
        1   -1    0    0  501    0  0.00000000000E+00  0.00000000000E+00  0.12799947147E+04  0.12799947147E+04  0.50400001928E-02 0. -1.
       -1   -1    0    0    0  501  0.00000000000E+00  0.00000000000E+00 -0.18411313587E+04  0.18411313587E+04  0.50400001928E-02 0.  1.
    10030    2    1    2    0    0  0.00000000000E+00  0.00000000000E+00 -0.56113664398E+03  0.31211260735E+04  0.30702693096E+04 0.  0.
        2    1    3    3  502    0  0.79332966255E+02  0.71447543833E+03 -0.16594542982E+04  0.18084682578E+04  0.25500000920E-02 0.  1.
       -2    1    3    3    0  502 -0.79332966255E+02 -0.71447543833E+03  0.10983176542E+04  0.13126578157E+04  0.25500000920E-02 0. -1.
</event>
<event>
 5   0  0.4824268E-07  0.3739969E+04  0.7818609E-02  0.8059162E-01
        2   -1    0    0  501    0  0.00000000000E+00  0.00000000000E+00  0.14729544319E+04  0.14729544319E+04  0.25500000920E-02 0.  1.
       -2   -1    0    0    0  501  0.00000000000E+00  0.00000000000E+00 -0.23740322562E+04  0.23740322562E+04  0.25500000920E-02 0. -1.
    10030    2    1    2    0    0  0.00000000000E+00  0.00000000000E+00 -0.90107782436E+03  0.38469866881E+04  0.37399686272E+04 0.  0.
        1    1    3    3  502    0  0.49328645304E+03  0.76273427073E+03  0.12307808894E+04  0.15296786232E+04  0.50400001928E-02 0.  1.
       -1    1    3    3    0  502 -0.49328645304E+03 -0.76273427073E+03 -0.21318587137E+04  0.23173080649E+04  0.50400001928E-02 0. -1.
</event>
<event>
 5   0  0.1522273E-07  0.3684074E+04  0.7818609E-02  0.8071500E-01
       -1   -1    0    0    0  501  0.00000000000E+00  0.00000000000E+00  0.12563065724E+04  0.12563065724E+04  0.50400001928E-02 0.  1.
        1   -1    0    0  501    0  0.00000000000E+00  0.00000000000E+00 -0.27008543047E+04  0.27008543047E+04  0.50400001928E-02 0. -1.
    10030    2    1    2    0    0  0.00000000000E+00  0.00000000000E+00 -0.14445477323E+04  0.39571608772E+04  0.36840743827E+04 0.  0.
        4    1    3    3  502    0  0.43454659633E+03  0.78723197003E+03 -0.24490915281E+04  0.26089491840E+04  0.12699999809E+01 0. -1.
       -4    1    3    3    0  502 -0.43454659633E+03 -0.78723197003E+03  0.10045437958E+04  0.13482116931E+04  0.12699999809E+01 0.  1.
</event>
<event>
 5   0  0.4824268E-07  0.3742664E+04  0.7818609E-02  0.8058572E-01
        2   -1    0    0  501    0  0.00000000000E+00  0.00000000000E+00  0.23605249788E+04  0.23605249788E+04  0.25500000920E-02 0.  1.
       -2   -1    0    0    0  501  0.00000000000E+00  0.00000000000E+00 -0.14835190585E+04  0.14835190585E+04  0.25500000920E-02 0. -1.
    10030    2    1    2    0    0  0.00000000000E+00  0.00000000000E+00  0.87700592032E+03  0.38440440372E+04  0.37426641816E+04 0.  0.
        1    1    3    3  502    0 -0.65705542989E+03 -0.79185437035E+03 -0.11668874277E+04  0.15557575167E+04  0.50400001928E-02 0. -1.
       -1    1    3    3    0  502  0.65705542989E+03  0.79185437035E+03  0.20438933481E+04  0.22882865205E+04  0.50400001928E-02 0.  1.
</event>
<event>
 5   0  0.1496287E-07  0.3723183E+04  0.7818609E-02  0.8062843E-01
       -1   -1    0    0    0  501  0.00000000000E+00  0.00000000000E+00  0.10896183461E+04  0.10896183462E+04  0.50400001928E-02 0.  1.
        1   -1    0    0  501    0  0.00000000000E+00  0.00000000000E+00 -0.31804932926E+04  0.31804932926E+04  0.50400001928E-02 0. -1.
    10030    2    1    2    0    0  0.00000000000E+00  0.00000000000E+00 -0.20908749464E+04  0.42701116387E+04  0.37231834988E+04 0.  0.
        1    1    3    3  502    0 -0.11525709160E+04  0.14618705229E+04 -0.10383027694E+04  0.21315622869E+04  0.50400001928E-02 0.  1.
       -1    1    3    3    0  502  0.11525709160E+04 -0.14618705229E+04 -0.10525721770E+04  0.21385493518E+04  0.50400001928E-02 0. -1.
</event>
<event>
 5   0  0.4687817E-07  0.3705727E+04  0.7818609E-02  0.8066694E-01
       -2   -1    0    0    0  501  0.00000000000E+00  0.00000000000E+00  0.13378233984E+04  0.13378233984E+04  0.25500000920E-02 0. -1.
        2   -1    0    0  501    0  0.00000000000E+00  0.00000000000E+00 -0.25661849838E+04  0.25661849838E+04  0.25500000920E-02 0.  1.
    10030    2    1    2    0    0  0.00000000000E+00  0.00000000000E+00 -0.12283615854E+04  0.39040083822E+04  0.37057265500E+04 0.  0.
        4    1    3    3  502    0  0.36620140401E+03  0.17504117157E+04 -0.11249481086E+04  0.21127125935E+04  0.12699999809E+01 0. -1.
       -4    1    3    3    0  502 -0.36620140401E+03 -0.17504117157E+04 -0.10341347680E+03  0.17912957887E+04  0.12699999809E+01 0.  1.
</event>
<event>
 5   0  0.4793557E-07  0.3721940E+04  0.7818609E-02  0.8063117E-01
        2   -1    0    0  501    0  0.00000000000E+00  0.00000000000E+00  0.22192418269E+04  0.22192418269E+04  0.25500000920E-02 0. -1.
       -2   -1    0    0    0  501  0.00000000000E+00  0.00000000000E+00 -0.15605372826E+04  0.15605372826E+04  0.25500000920E-02 0.  1.
    10030    2    1    2    0    0  0.00000000000E+00  0.00000000000E+00  0.65870454425E+03  0.37797791095E+04  0.37219401446E+04 0.  0.
        3    1    3    3  502    0 -0.16864569578E+04 -0.78111277486E+03  0.23335627680E+03  0.18731602707E+04  0.10100000352E+00 0. -1.
       -3    1    3    3    0  502  0.16864569578E+04  0.78111277486E+03  0.42534826745E+03  0.19066188388E+04  0.10100000352E+00 0.  1.
</event>
<event>
 5   0  0.4758908E-07  0.3710710E+04  0.7818609E-02  0.8065593E-01
        2   -1    0    0  501    0  0.00000000000E+00  0.00000000000E+00  0.24826877410E+04  0.24826877410E+04  0.25500000920E-02 0. -1.
       -2   -1    0    0    0  501  0.00000000000E+00  0.00000000000E+00 -0.13865384542E+04  0.13865384542E+04  0.25500000920E-02 0.  1.
    10030    2    1    2    0    0  0.00000000000E+00  0.00000000000E+00  0.10961492869E+04  0.38692261952E+04  0.37107099173E+04 0.  0.
        2    1    3    3  502    0  0.39715747385E+03  0.17672637939E+04  0.12918375574E+03  0.18159415791E+04  0.25500000920E-02 0.  1.
       -2    1    3    3    0  502 -0.39715747385E+03 -0.17672637939E+04  0.96696553112E+03  0.20532846160E+04  0.25500000920E-02 0. -1.
</event>
<event>
 5   0  0.4824268E-07  0.3709935E+04  0.7818609E-02  0.8065764E-01
        2   -1    0    0  501    0  0.00000000000E+00  0.00000000000E+00  0.26572024282E+04  0.26572024282E+04  0.25500000920E-02 0. -1.
       -2   -1    0    0    0  501  0.00000000000E+00  0.00000000000E+00 -0.12949352712E+04  0.12949352712E+04  0.25500000920E-02 0.  1.
    10030    2    1    2    0    0  0.00000000000E+00  0.00000000000E+00  0.13622671570E+04  0.39521376994E+04  0.37099353886E+04 0.  0.
        1    1    3    3  502    0  0.49348617186E+03  0.11395770183E+04  0.21490406372E+04  0.24820435216E+04  0.50400001928E-02 0. -1.
       -1    1    3    3    0  502 -0.49348617186E+03 -0.11395770183E+04 -0.78677348019E+03  0.14700941778E+04  0.50400001928E-02 0.  1.
</event>
<event>
 5   0  0.1522273E-07  0.3392807E+04  0.7818609E-02  0.8139674E-01
        1   -1    0    0  501    0  0.00000000000E+00  0.00000000000E+00  0.14992345258E+04  0.14992345258E+04  0.50400001928E-02 0. -1.
       -1   -1    0    0    0  501  0.00000000000E+00  0.00000000000E+00 -0.19195027467E+04  0.19195027467E+04  0.50400001928E-02 0.  1.
    10030    2    1    2    0    0  0.00000000000E+00  0.00000000000E+00 -0.42026822085E+03  0.34187372725E+04  0.33928069737E+04 0.  0.
        4    1    3    3  502    0 -0.11319324302E+04 -0.83722163215E+03  0.74344526626E+03  0.15921443291E+04  0.12699999809E+01 0. -1.
       -4    1    3    3    0  502  0.11319324302E+04  0.83722163215E+03 -0.11637134871E+04  0.18265929434E+04  0.12699999809E+01 0.  1.
</event>
<event>
 5   0  0.4758908E-07  0.3376442E+04  0.7818609E-02  0.8143713E-01
       -2   -1    0    0    0  501  0.00000000000E+00  0.00000000000E+00  0.33184477659E+04  0.33184477659E+04  0.25500000920E-02 0.  1.
        2   -1    0    0  501    0  0.00000000000E+00  0.00000000000E+00 -0.85886244845E+03  0.85886244845E+03  0.25500000920E-02 0. -1.
    10030    2    1    2    0    0  0.00000000000E+00  0.00000000000E+00  0.24595853175E+04  0.41773102144E+04  0.33764420168E+04 0.  0.
        2    1    3    3  502    0  0.14036820880E+04 -0.29775958696E+03  0.12938204567E+03  0.14407372729E+04  0.25500000920E-02 0. -1.
       -2    1    3    3    0  502 -0.14036820880E+04  0.29775958696E+03  0.23302032718E+04  0.27365729414E+04  0.25500000920E-02 0.  1.
</event>
<event>
 5   0  0.1496000E-07  0.3560008E+04  0.7818609E-02  0.8099714E-01
       -1   -1    0    0    0  501  0.00000000000E+00  0.00000000000E+00  0.20068228058E+04  0.20068228058E+04  0.50400001928E-02 0.  1.
        1   -1    0    0  501    0  0.00000000000E+00  0.00000000000E+00 -0.15788207088E+04  0.15788207088E+04  0.50400001928E-02 0. -1.
    10030    2    1    2    0    0  0.00000000000E+00  0.00000000000E+00  0.42800209700E+03  0.35856435145E+04  0.35600075307E+04 0.  0.
        5    1    3    3  502    0  0.69472390028E+03  0.38951085143E+03 -0.13893262304E+04  0.16014398101E+04  0.46999998093E+01 0. -1.
       -5    1    3    3    0  502 -0.69472390028E+03 -0.38951085143E+03  0.18173283274E+04  0.19842037044E+04  0.46999998093E+01 0.  1.
</event>
<event>
 5   0  0.1522273E-07  0.3674404E+04  0.7818609E-02  0.8073658E-01
       -1   -1    0    0    0  501  0.00000000000E+00  0.00000000000E+00  0.10858918737E+04  0.10858918737E+04  0.50400001928E-02 0. -1.
        1   -1    0    0  501    0  0.00000000000E+00  0.00000000000E+00 -0.31083304885E+04  0.31083304885E+04  0.50400001928E-02 0.  1.
    10030    2    1    2    0    0  0.00000000000E+00  0.00000000000E+00 -0.20224386148E+04  0.41942223623E+04  0.36744037984E+04 0.  0.
        4    1    3    3  502    0 -0.77341827483E+03 -0.15895678467E+04 -0.15824192865E+04  0.23725417126E+04  0.12699999809E+01 0.  1.
       -4    1    3    3    0  502  0.77341827483E+03  0.15895678467E+04 -0.44001932829E+03  0.18216806496E+04  0.12699999809E+01 0. -1.
</event>
<event>
 5   0  0.1496000E-07  0.3691162E+04  0.7818609E-02  0.8069923E-01
        1   -1    0    0  501    0  0.00000000000E+00  0.00000000000E+00  0.18365077321E+04  0.18365077321E+04  0.50400001928E-02 0. -1.
       -1   -1    0    0    0  501  0.00000000000E+00  0.00000000000E+00 -0.18546993885E+04  0.18546993885E+04  0.50400001928E-02 0.  1.
    10030    2    1    2    0    0  0.00000000000E+00  0.00000000000E+00 -0.18191656367E+02  0.36912071206E+04  0.36911622927E+04 0.  0.
        2    1    3    3  502    0 -0.64477009334E+03  0.13915047778E+04 -0.10358291688E+04  0.18506636882E+04  0.25500000920E-02 0.  1.
       -2    1    3    3    0  502  0.64477009334E+03 -0.13915047778E+04  0.10176375124E+04  0.18405434324E+04  0.25500000920E-02 0. -1.
</event>
<event>
 5   0  0.1496000E-07  0.3809671E+04  0.7818609E-02  0.8044083E-01
       -1   -1    0    0    0  501  0.00000000000E+00  0.00000000000E+00  0.19390004313E+04  0.19390004313E+04  0.50400001928E-02 0. -1.
        1   -1    0    0  501    0  0.00000000000E+00  0.00000000000E+00 -0.18712728342E+04  0.18712728342E+04  0.50400001928E-02 0.  1.
    10030    2    1    2    0    0  0.00000000000E+00  0.00000000000E+00  0.67727597105E+02  0.38102732654E+04  0.38096712890E+04 0.  0.
        5    1    3    3  502    0 -0.15481655733E+04  0.81612157825E+03 -0.71825613723E+03  0.18917677029E+04  0.46999998093E+01 0.  1.
       -5    1    3    3    0  502  0.15481655733E+04 -0.81612157825E+03  0.78598373434E+03  0.19185055626E+04  0.46999998093E+01 0. -1.
</event>
<event>
 5   0  0.4793557E-07  0.3471322E+04  0.7818609E-02  0.8120620E-01
        2   -1    0    0  501    0  0.00000000000E+00  0.00000000000E+00  0.15623156347E+04  0.15623156347E+04  0.25500000920E-02 0. -1.
       -2   -1    0    0    0  501  0.00000000000E+00  0.00000000000E+00 -0.19282402792E+04  0.19282402792E+04  0.25500000920E-02 0.  1.
    10030    2    1    2    0    0  0.00000000000E+00  0.00000000000E+00 -0.36592464451E+03  0.34905559140E+04  0.34713224775E+04 0.  0.
        3    1    3    3  502    0  0.20902281346E+02 -0.16684289982E+04 -0.66355153728E+03  0.17956594555E+04  0.10100000352E+00 0.  1.
       -3    1    3    3    0  502 -0.20902281346E+02  0.16684289982E+04  0.29762689277E+03  0.16948964585E+04  0.10100000352E+00 0. -1.
</event>
<event>
 5   0  0.4687817E-07  0.3703502E+04  0.7818609E-02  0.8067186E-01
        2   -1    0    0  501    0  0.00000000000E+00  0.00000000000E+00  0.16677340690E+04  0.16677340690E+04  0.25500000920E-02 0.  1.
       -2   -1    0    0    0  501  0.00000000000E+00  0.00000000000E+00 -0.20560720110E+04  0.20560720110E+04  0.25500000920E-02 0. -1.
    10030    2    1    2    0    0  0.00000000000E+00  0.00000000000E+00 -0.38833794201E+03  0.37238060800E+04  0.37035017705E+04 0.  0.
        4    1    3    3  502    0  0.32029142421E+03 -0.11029914838E+04  0.12663104586E+04  0.17095966191E+04  0.12699999809E+01 0.  1.
       -4    1    3    3    0  502 -0.32029142421E+03  0.11029914838E+04 -0.16546484006E+04  0.20142094609E+04  0.12699999809E+01 0. -1.
</event>
<event>
 5   0  0.4857514E-07  0.3723265E+04  0.7818609E-02  0.8062825E-01
        2   -1    0    0  501    0  0.00000000000E+00  0.00000000000E+00  0.25043682451E+04  0.25043682451E+04  0.25500000920E-02 0.  1.
       -2   -1    0    0    0  501  0.00000000000E+00  0.00000000000E+00 -0.13838522877E+04  0.13838522877E+04  0.25500000920E-02 0. -1.
    10030    2    1    2    0    0  0.00000000000E+00  0.00000000000E+00  0.11205159574E+04  0.38882205328E+04  0.37232650860E+04 0.  0.
        5    1    3    3  502    0  0.35971611418E+03  0.59883761064E+03  0.23622956383E+04  0.24634254483E+04  0.46999998093E+01 0.  1.
       -5    1    3    3    0  502 -0.35971611418E+03 -0.59883761064E+03 -0.12417796809E+04  0.14247950844E+04  0.46999998093E+01 0. -1.
</event>
<event>
 5   0  0.1496000E-07  0.3839489E+04  0.7818609E-02  0.8037733E-01
        1   -1    0    0  501    0  0.00000000000E+00  0.00000000000E+00  0.23144014163E+04  0.23144014163E+04  0.50400001928E-02 0. -1.
       -1   -1    0    0    0  501  0.00000000000E+00  0.00000000000E+00 -0.15923852999E+04  0.15923852999E+04  0.50400001928E-02 0.  1.
    10030    2    1    2    0    0  0.00000000000E+00  0.00000000000E+00  0.72201611638E+03  0.39067867162E+04  0.38394889209E+04 0.  0.
        2    1    3    3  502    0 -0.38531682016E+03  0.16638086687E+04 -0.53110937874E+03  0.17885204807E+04  0.25500000920E-02 0. -1.
       -2    1    3    3    0  502  0.38531682016E+03 -0.16638086687E+04  0.12531254951E+04  0.21182662355E+04  0.25500000920E-02 0.  1.
</event>
<event>
 5   0  0.1496000E-07  0.3770039E+04  0.7818609E-02  0.8052615E-01
        1   -1    0    0  501    0  0.00000000000E+00  0.00000000000E+00  0.13172781343E+04  0.13172781343E+04  0.50400001928E-02 0.  1.
       -1   -1    0    0    0  501  0.00000000000E+00  0.00000000000E+00 -0.26974549971E+04  0.26974549971E+04  0.50400001928E-02 0. -1.
    10030    2    1    2    0    0  0.00000000000E+00  0.00000000000E+00 -0.13801768628E+04  0.40147331314E+04  0.37700389844E+04 0.  0.
        2    1    3    3  502    0  0.64235493214E+02  0.10157995291E+03  0.13131938579E+04  0.13186822186E+04  0.25500000920E-02 0.  1.
       -2    1    3    3    0  502 -0.64235493214E+02 -0.10157995291E+03 -0.26933707207E+04  0.26960509128E+04  0.25500000920E-02 0. -1.
</event>
<event>
 5   0  0.1522273E-07  0.3593698E+04  0.7818609E-02  0.8091937E-01
       -1   -1    0    0    0  501  0.00000000000E+00  0.00000000000E+00  0.15575260793E+04  0.15575260794E+04  0.50400001928E-02 0. -1.
        1   -1    0    0  501    0  0.00000000000E+00  0.00000000000E+00 -0.20729451884E+04  0.20729451884E+04  0.50400001928E-02 0.  1.
    10030    2    1    2    0    0  0.00000000000E+00  0.00000000000E+00 -0.51541910908E+03  0.36304712678E+04  0.35936979239E+04 0.  0.
        4    1    3    3  502    0  0.10625075380E+04  0.73988509199E+03 -0.15163769815E+04  0.19939290310E+04  0.12699999809E+01 0.  1.
       -4    1    3    3    0  502 -0.10625075380E+04 -0.73988509199E+03  0.10009578724E+04  0.16365422368E+04  0.12699999809E+01 0. -1.
</event>
<event>
 5   0  0.1496000E-07  0.3333360E+04  0.7818609E-02  0.8154458E-01
        1   -1    0    0  501    0  0.00000000000E+00  0.00000000000E+00  0.24754593983E+04  0.24754593984E+04  0.50400001928E-02 0.  1.
       -1   -1    0    0    0  501  0.00000000000E+00  0.00000000000E+00 -0.11221444450E+04  0.11221444450E+04  0.50400001928E-02 0. -1.
    10030    2    1    2    0    0  0.00000000000E+00  0.00000000000E+00  0.13533149534E+04  0.35976038433E+04  0.33333604741E+04 0.  0.
        3    1    3    3  502    0 -0.98645064788E+03 -0.12789565399E+04  0.23296193798E+03  0.16318964386E+04  0.10100000352E+00 0. -1.
       -3    1    3    3    0  502  0.98645064788E+03  0.12789565399E+04  0.11203530154E+04  0.19657074047E+04  0.10100000352E+00 0.  1.
</event>
<event>
 5   0  0.4687817E-07  0.3688787E+04  0.7818609E-02  0.8070451E-01
        2   -1    0    0  501    0  0.00000000000E+00  0.00000000000E+00  0.20693505681E+04  0.20693505681E+04  0.25500000920E-02 0. -1.
       -2   -1    0    0    0  501  0.00000000000E+00  0.00000000000E+00 -0.16438916756E+04  0.16438916756E+04  0.25500000920E-02 0.  1.
    10030    2    1    2    0    0  0.00000000000E+00  0.00000000000E+00  0.42545889251E+03  0.37132422437E+04  0.36887874283E+04 0.  0.
        4    1    3    3  502    0 -0.83408169157E+03  0.10272348179E+04 -0.10806554667E+04  0.17084266124E+04  0.12699999809E+01 0.  1.
       -4    1    3    3    0  502  0.83408169157E+03 -0.10272348179E+04  0.15061143592E+04  0.20048156313E+04  0.12699999809E+01 0. -1.
</event>
<event>
 5   0  0.4857514E-07  0.3684428E+04  0.7818609E-02  0.8071422E-01
       -2   -1    0    0    0  501  0.00000000000E+00  0.00000000000E+00  0.12503330800E+04  0.12503330800E+04  0.25500000920E-02 0. -1.
        2   -1    0    0  501    0  0.00000000000E+00  0.00000000000E+00 -0.27142786813E+04  0.27142786813E+04  0.25500000920E-02 0.  1.
    10030    2    1    2    0    0  0.00000000000E+00  0.00000000000E+00 -0.14639456014E+04  0.39646117613E+04  0.36844280009E+04 0.  0.
        5    1    3    3  502    0 -0.14097820780E+04 -0.86672331104E+02 -0.20045905028E+04  0.24522240465E+04  0.46999998093E+01 0.  1.
       -5    1    3    3    0  502  0.14097820780E+04  0.86672331104E+02  0.54064490138E+03  0.15123877148E+04  0.46999998093E+01 0. -1.
</event>
<event>
 5   0  0.1496000E-07  0.3697771E+04  0.7818609E-02  0.8068456E-01
       -1   -1    0    0    0  501  0.00000000000E+00  0.00000000000E+00  0.18125645525E+04  0.18125645525E+04  0.50400001928E-02 0.  1.
        1   -1    0    0  501    0  0.00000000000E+00  0.00000000000E+00 -0.18859339637E+04  0.18859339637E+04  0.50400001928E-02 0. -1.
    10030    2    1    2    0    0  0.00000000000E+00  0.00000000000E+00 -0.73369411202E+02  0.36984985162E+04  0.36977707073E+04 0.  0.
        5    1    3    3  502    0  0.24105808326E+03  0.88882168341E+03  0.15668282645E+04  0.18174393758E+04  0.46999998093E+01 0.  1.
       -5    1    3    3    0  502 -0.24105808326E+03 -0.88882168341E+03 -0.16401976757E+04  0.18810591404E+04  0.46999998093E+01 0. -1.
</event>
<event>
 5   0  0.4824268E-07  0.3365118E+04  0.7818609E-02  0.8146521E-01
        2   -1    0    0  501    0  0.00000000000E+00  0.00000000000E+00  0.18882488967E+04  0.18882488967E+04  0.25500000920E-02 0.  1.
       -2   -1    0    0    0  501  0.00000000000E+00  0.00000000000E+00 -0.14992752375E+04  0.14992752376E+04  0.25500000920E-02 0. -1.
    10030    2    1    2    0    0  0.00000000000E+00  0.00000000000E+00  0.38897365913E+03  0.33875241342E+04  0.33651180146E+04 0.  0.
        1    1    3    3  502    0  0.10734115672E+04 -0.58472964705E+03 -0.96944864833E+03  0.15601127634E+04  0.50400001928E-02 0. -1.
       -1    1    3    3    0  502 -0.10734115672E+04  0.58472964705E+03  0.13584223075E+04  0.18274113708E+04  0.50400001928E-02 0.  1.
</event>
<event>
 5   0  0.4758908E-07  0.3799853E+04  0.7818609E-02  0.8046186E-01
        2   -1    0    0  501    0  0.00000000000E+00  0.00000000000E+00  0.27950216790E+04  0.27950216790E+04  0.25500000920E-02 0. -1.
       -2   -1    0    0    0  501  0.00000000000E+00  0.00000000000E+00 -0.12914824773E+04  0.12914824773E+04  0.25500000920E-02 0.  1.
    10030    2    1    2    0    0  0.00000000000E+00  0.00000000000E+00  0.15035392017E+04  0.40865041564E+04  0.37998534299E+04 0.  0.
        2    1    3    3  502    0  0.11518319334E+04 -0.25645662022E+03  0.23531368249E+04  0.26324398792E+04  0.25500000920E-02 0. -1.
       -2    1    3    3    0  502 -0.11518319334E+04  0.25645662022E+03 -0.84959762318E+03  0.14540642772E+04  0.25500000920E-02 0.  1.
</event>
<event>
 5   0  0.4758908E-07  0.3689345E+04  0.7818609E-02  0.8070327E-01
        2   -1    0    0  501    0  0.00000000000E+00  0.00000000000E+00  0.20672717540E+04  0.20672717540E+04  0.25500000920E-02 0. -1.
       -2   -1    0    0    0  501  0.00000000000E+00  0.00000000000E+00 -0.16460421450E+04  0.16460421450E+04  0.25500000920E-02 0.  1.
    10030    2    1    2    0    0  0.00000000000E+00  0.00000000000E+00  0.42122960902E+03  0.37133138991E+04  0.36893448916E+04 0.  0.
        2    1    3    3  502    0 -0.13613205112E+04 -0.95508501589E+03  0.10141974216E+04  0.19478134746E+04  0.25500000920E-02 0. -1.
       -2    1    3    3    0  502  0.13613205112E+04  0.95508501589E+03 -0.59296781262E+03  0.17655004244E+04  0.25500000920E-02 0.  1.
</event>
<event>
 5   0  0.1522273E-07  0.3660897E+04  0.7818609E-02  0.8076683E-01
       -1   -1    0    0    0  501  0.00000000000E+00  0.00000000000E+00  0.25038453731E+04  0.25038453731E+04  0.50400001928E-02 0.  1.
        1   -1    0    0  501    0  0.00000000000E+00  0.00000000000E+00 -0.13381581769E+04  0.13381581769E+04  0.50400001928E-02 0. -1.
    10030    2    1    2    0    0  0.00000000000E+00  0.00000000000E+00  0.11656871962E+04  0.38420035500E+04  0.36608966988E+04 0.  0.
        4    1    3    3  502    0  0.14589741110E+04  0.73867781127E+03  0.14458946923E+04  0.21828567153E+04  0.12699999809E+01 0. -1.
       -4    1    3    3    0  502 -0.14589741110E+04 -0.73867781127E+03 -0.28020749613E+03  0.16591468347E+04  0.12699999809E+01 0.  1.
</event>
<event>
 5   0  0.1496287E-07  0.3666198E+04  0.7818609E-02  0.8075494E-01
       -1   -1    0    0    0  501  0.00000000000E+00  0.00000000000E+00  0.12607397565E+04  0.12607397565E+04  0.50400001928E-02 0.  1.
        1   -1    0    0  501    0  0.00000000000E+00  0.00000000000E+00 -0.26653019794E+04  0.26653019794E+04  0.50400001928E-02 0. -1.
    10030    2    1    2    0    0  0.00000000000E+00  0.00000000000E+00 -0.14045622229E+04  0.39260417359E+04  0.36661981226E+04 0.  0.
        1    1    3    3  502    0  0.45433327761E+03 -0.17702651680E+04 -0.55085660363E+03  0.19088479484E+04  0.50400001928E-02 0.  1.
       -1    1    3    3    0  502 -0.45433327761E+03  0.17702651680E+04 -0.85370561928E+03  0.20171937876E+04  0.50400001928E-02 0. -1.
</event>
<event>
 5   0  0.4857514E-07  0.3579659E+04  0.7818609E-02  0.8095167E-01
       -2   -1    0    0    0  501  0.00000000000E+00  0.00000000000E+00  0.16023605981E+04  0.16023605981E+04  0.25500000920E-02 0.  1.
        2   -1    0    0  501    0  0.00000000000E+00  0.00000000000E+00 -0.19992309070E+04  0.19992309070E+04  0.25500000920E-02 0. -1.
    10030    2    1    2    0    0  0.00000000000E+00  0.00000000000E+00 -0.39687030893E+03  0.36015915051E+04  0.35796585490E+04 0.  0.
        5    1    3    3  502    0 -0.75735625001E+03 -0.13178184075E+04 -0.11493359381E+04  0.19055783985E+04  0.46999998093E+01 0. -1.
       -5    1    3    3    0  502  0.75735625001E+03  0.13178184075E+04  0.75246562912E+03  0.16960131065E+04  0.46999998093E+01 0.  1.
</event>
<event>
 5   0  0.1496000E-07  0.3384834E+04  0.7818609E-02  0.8141639E-01
        1   -1    0    0  501    0  0.00000000000E+00  0.00000000000E+00  0.27585439817E+04  0.27585439817E+04  0.50400001928E-02 0.  1.
       -1   -1    0    0    0  501  0.00000000000E+00  0.00000000000E+00 -0.10383284662E+04  0.10383284662E+04  0.50400001928E-02 0. -1.
    10030    2    1    2    0    0  0.00000000000E+00  0.00000000000E+00  0.17202155155E+04  0.37968724479E+04  0.33848336688E+04 0.  0.
        5    1    3    3  502    0  0.28593040877E+03 -0.73045380920E+03 -0.82208980802E+03  0.11362978080E+04  0.46999998093E+01 0. -1.
       -5    1    3    3    0  502 -0.28593040877E+03  0.73045380920E+03  0.25423053236E+04  0.26605746399E+04  0.46999998093E+01 0.  1.
</event>
<event>
 5   0  0.4758908E-07  0.3733163E+04  0.7818609E-02  0.8060652E-01
        2   -1    0    0  501    0  0.00000000000E+00  0.00000000000E+00  0.15165789152E+04  0.15165789152E+04  0.25500000920E-02 0. -1.
       -2   -1    0    0    0  501  0.00000000000E+00  0.00000000000E+00 -0.22973588542E+04  0.22973588542E+04  0.25500000920E-02 0.  1.
    10030    2    1    2    0    0  0.00000000000E+00  0.00000000000E+00 -0.78077993899E+03  0.38139377694E+04  0.37331627336E+04 0.  0.
        2    1    3    3  502    0  0.41894955092E+03 -0.16786234489E+04  0.32536190020E+03  0.17604419262E+04  0.25500000920E-02 0. -1.
       -2    1    3    3    0  502 -0.41894955092E+03  0.16786234489E+04 -0.11061418392E+04  0.20534958432E+04  0.25500000920E-02 0.  1.
</event>
<event>
 5   0  0.4687817E-07  0.3703422E+04  0.7818609E-02  0.8067204E-01
       -2   -1    0    0    0  501  0.00000000000E+00  0.00000000000E+00  0.18392608459E+04  0.18392608459E+04  0.25500000920E-02 0.  1.
        2   -1    0    0  501    0  0.00000000000E+00  0.00000000000E+00 -0.18642452043E+04  0.18642452043E+04  0.25500000920E-02 0. -1.
    10030    2    1    2    0    0  0.00000000000E+00  0.00000000000E+00 -0.24984358449E+02  0.37035060502E+04  0.37034217753E+04 0.  0.
        4    1    3    3  502    0 -0.11696507795E+04 -0.91707015145E+03  0.10919472727E+04  0.18443023255E+04  0.12699999809E+01 0. -1.
       -4    1    3    3    0  502  0.11696507795E+04  0.91707015145E+03 -0.11169316311E+04  0.18592037247E+04  0.12699999809E+01 0.  1.
</event>
<event>
 5   0  0.1522273E-07  0.3711648E+04  0.7818609E-02  0.8065385E-01
        1   -1    0    0  501    0  0.00000000000E+00  0.00000000000E+00  0.18779983424E+04  0.18779983424E+04  0.50400001928E-02 0. -1.
       -1   -1    0    0    0  501  0.00000000000E+00  0.00000000000E+00 -0.18339114997E+04  0.18339114997E+04  0.50400001928E-02 0.  1.
    10030    2    1    2    0    0  0.00000000000E+00  0.00000000000E+00  0.44086842661E+02  0.37119098421E+04  0.37116480202E+04 0.  0.
        4    1    3    3  502    0  0.76374161054E+03 -0.14728728600E+04  0.85362203138E+03  0.18658316898E+04  0.12699999809E+01 0. -1.
       -4    1    3    3    0  502 -0.76374161054E+03  0.14728728600E+04 -0.80953518872E+03  0.18460781522E+04  0.12699999809E+01 0.  1.
</event>
<event>
 5   0  0.4857514E-07  0.3737382E+04  0.7818609E-02  0.8059728E-01
        2   -1    0    0  501    0  0.00000000000E+00  0.00000000000E+00  0.15594234965E+04  0.15594234965E+04  0.25500000920E-02 0.  1.
       -2   -1    0    0    0  501  0.00000000000E+00  0.00000000000E+00 -0.22392925618E+04  0.22392925618E+04  0.25500000920E-02 0. -1.
    10030    2    1    2    0    0  0.00000000000E+00  0.00000000000E+00 -0.67986906525E+03  0.37987160583E+04  0.37373816698E+04 0.  0.
        5    1    3    3  502    0  0.48231669600E+02  0.91759004234E+03 -0.19938091631E+04  0.21953575674E+04  0.46999998093E+01 0. -1.
       -5    1    3    3    0  502 -0.48231669600E+02 -0.91759004234E+03  0.13139400979E+04  0.16033584910E+04  0.46999998093E+01 0.  1.
</event>
<event>
 5   0  0.4793557E-07  0.3694839E+04  0.7818609E-02  0.8069106E-01
        2   -1    0    0  501    0  0.00000000000E+00  0.00000000000E+00  0.17104094825E+04  0.17104094825E+04  0.25500000920E-02 0.  1.
       -2   -1    0    0    0  501  0.00000000000E+00  0.00000000000E+00 -0.19954046535E+04  0.19954046535E+04  0.25500000920E-02 0. -1.
    10030    2    1    2    0    0  0.00000000000E+00  0.00000000000E+00 -0.28499517103E+03  0.37058141360E+04  0.36948391255E+04 0.  0.
        3    1    3    3  502    0  0.19502918967E+03 -0.40139989159E+03 -0.19405302418E+04  0.19911845438E+04  0.10100000352E+00 0. -1.
       -3    1    3    3    0  502 -0.19502918967E+03  0.40139989159E+03  0.16555350708E+04  0.17146295922E+04  0.10100000352E+00 0.  1.
</event>
<event>
 5   0  0.4687817E-07  0.3678966E+04  0.7818609E-02  0.8072639E-01
       -2   -1    0    0    0  501  0.00000000000E+00  0.00000000000E+00  0.14540635123E+04  0.14540635123E+04  0.25500000920E-02 0. -1.
        2   -1    0    0  501    0  0.00000000000E+00  0.00000000000E+00 -0.23270629177E+04  0.23270629177E+04  0.25500000920E-02 0.  1.
    10030    2    1    2    0    0  0.00000000000E+00  0.00000000000E+00 -0.87299940539E+03  0.37811264299E+04  0.36789657673E+04 0.  0.
        4    1    3    3  502    0 -0.70037079666E+03 -0.44743657362E+03 -0.21230984311E+04  0.22799708992E+04  0.12699999809E+01 0.  1.
       -4    1    3    3    0  502  0.70037079666E+03  0.44743657362E+03  0.12500990257E+04  0.15011555307E+04  0.12699999809E+01 0. -1.
</event>
<event>
 5   0  0.1496000E-07  0.3677362E+04  0.7818609E-02  0.8072997E-01
        1   -1    0    0  501    0  0.00000000000E+00  0.00000000000E+00  0.20635711921E+04  0.20635711921E+04  0.50400001928E-02 0.  1.
       -1   -1    0    0    0  501  0.00000000000E+00  0.00000000000E+00 -0.16382993510E+04  0.16382993510E+04  0.50400001928E-02 0. -1.
    10030    2    1    2    0    0  0.00000000000E+00  0.00000000000E+00  0.42527184110E+03  0.37018705431E+04  0.36773617416E+04 0.  0.
        2    1    3    3  502    0 -0.43148071245E+03 -0.17844134432E+04  0.31549520674E+03  0.18627517728E+04  0.25500000920E-02 0. -1.
       -2    1    3    3    0  502  0.43148071245E+03  0.17844134432E+04  0.10977663436E+03  0.18391187703E+04  0.25500000920E-02 0.  1.
</event>
<event>
 5   0  0.4857514E-07  0.3690000E+04  0.7818609E-02  0.8070182E-01
        2   -1    0    0  501    0  0.00000000000E+00  0.00000000000E+00  0.28955681626E+04  0.28955681626E+04  0.25500000920E-02 0. -1.
       -2   -1    0    0    0  501  0.00000000000E+00  0.00000000000E+00 -0.11755983112E+04  0.11755983112E+04  0.25500000920E-02 0.  1.
    10030    2    1    2    0    0  0.00000000000E+00  0.00000000000E+00  0.17199698513E+04  0.40711664738E+04  0.36900000228E+04 0.  0.
        5    1    3    3  502    0 -0.16028925313E+03  0.18369781454E+04  0.92818975733E+03  0.20643981367E+04  0.46999998093E+01 0.  1.
       -5    1    3    3    0  502  0.16028925313E+03 -0.18369781454E+04  0.79178009399E+03  0.20067683371E+04  0.46999998093E+01 0. -1.
</event>
<event>
 5   0  0.1496000E-07  0.3580618E+04  0.7818609E-02  0.8094946E-01
       -1   -1    0    0    0  501  0.00000000000E+00  0.00000000000E+00  0.19262016513E+04  0.19262016513E+04  0.50400001928E-02 0.  1.
        1   -1    0    0  501    0  0.00000000000E+00  0.00000000000E+00 -0.16640037406E+04  0.16640037406E+04  0.50400001928E-02 0. -1.
    10030    2    1    2    0    0  0.00000000000E+00  0.00000000000E+00  0.26219791071E+03  0.35902053920E+04  0.35806182444E+04 0.  0.
        5    1    3    3  502    0 -0.83376893050E+03  0.12921634088E+04  0.10502473427E+04  0.18622294368E+04  0.46999998093E+01 0.  1.
       -5    1    3    3    0  502  0.83376893050E+03 -0.12921634088E+04 -0.78804943195E+03  0.17279759552E+04  0.46999998093E+01 0. -1.
</event>
<event>
 5   0  0.4687817E-07  0.3679156E+04  0.7818609E-02  0.8072597E-01
       -2   -1    0    0    0  501  0.00000000000E+00  0.00000000000E+00  0.19363179646E+04  0.19363179646E+04  0.25500000920E-02 0.  1.
        2   -1    0    0  501    0  0.00000000000E+00  0.00000000000E+00 -0.17476708169E+04  0.17476708169E+04  0.25500000920E-02 0. -1.
    10030    2    1    2    0    0  0.00000000000E+00  0.00000000000E+00  0.18864714768E+03  0.36839887815E+04  0.36791555548E+04 0.  0.
        4    1    3    3  502    0 -0.13660857430E+04  0.67467334708E+03 -0.93788970429E+03  0.17891375277E+04  0.12699999809E+01 0. -1.
       -4    1    3    3    0  502  0.13660857430E+04 -0.67467334708E+03  0.11265368520E+04  0.18948512539E+04  0.12699999809E+01 0.  1.
</event>
<event>
 5   0  0.1496287E-07  0.3640282E+04  0.7818609E-02  0.8081326E-01
        1   -1    0    0  501    0  0.00000000000E+00  0.00000000000E+00  0.16839914158E+04  0.16839914158E+04  0.50400001928E-02 0.  1.
       -1   -1    0    0    0  501  0.00000000000E+00  0.00000000000E+00 -0.19672981106E+04  0.19672981106E+04  0.50400001928E-02 0. -1.
    10030    2    1    2    0    0  0.00000000000E+00  0.00000000000E+00 -0.28330669479E+03  0.36512895264E+04  0.36402819289E+04 0.  0.
        1    1    3    3  502    0  0.61331252003E+03 -0.77405225796E+03 -0.16751990422E+04  0.19446338926E+04  0.50400001928E-02 0. -1.
       -1    1    3    3    0  502 -0.61331252003E+03  0.77405225796E+03  0.13918923474E+04  0.17066556337E+04  0.50400001928E-02 0.  1.
</event>
<event>
 5   0  0.4857514E-07  0.3692435E+04  0.7818609E-02  0.8069640E-01
       -2   -1    0    0    0  501  0.00000000000E+00  0.00000000000E+00  0.11531916268E+04  0.11531916268E+04  0.25500000920E-02 0. -1.
        2   -1    0    0  501    0  0.00000000000E+00  0.00000000000E+00 -0.29557261865E+04  0.29557261865E+04  0.25500000920E-02 0.  1.
    10030    2    1    2    0    0  0.00000000000E+00  0.00000000000E+00 -0.18025345597E+04  0.41089178133E+04  0.36924348007E+04 0.  0.
        5    1    3    3  502    0 -0.12171041088E+04  0.52700023620E+03  0.52789286812E+03  0.14275029355E+04  0.46999998093E+01 0. -1.
       -5    1    3    3    0  502  0.12171041088E+04 -0.52700023620E+03 -0.23304274278E+04  0.26814148778E+04  0.46999998093E+01 0.  1.
</event>
<event>
 5   0  0.1496000E-07  0.3700092E+04  0.7818609E-02  0.8067941E-01
       -1   -1    0    0    0  501  0.00000000000E+00  0.00000000000E+00  0.25303713137E+04  0.25303713137E+04  0.50400001928E-02 0. -1.
        1   -1    0    0  501    0  0.00000000000E+00  0.00000000000E+00 -0.13526357188E+04  0.13526357188E+04  0.50400001928E-02 0.  1.
    10030    2    1    2    0    0  0.00000000000E+00  0.00000000000E+00  0.11777355949E+04  0.38830070325E+04  0.37000922262E+04 0.  0.
        5    1    3    3  502    0 -0.31708078703E+03 -0.10901373545E+04 -0.94406532269E+03  0.14765571782E+04  0.46999998093E+01 0.  1.
       -5    1    3    3    0  502  0.31708078703E+03  0.10901373545E+04  0.21218009176E+04  0.24064498542E+04  0.46999998093E+01 0. -1.
</event>
<event>
 5   0  0.1496000E-07  0.3438360E+04  0.7818609E-02  0.8128555E-01
        1   -1    0    0  501    0  0.00000000000E+00  0.00000000000E+00  0.18788189031E+04  0.18788189031E+04  0.50400001928E-02 0.  1.
       -1   -1    0    0    0  501  0.00000000000E+00  0.00000000000E+00 -0.15731049015E+04  0.15731049015E+04  0.50400001928E-02 0. -1.
    10030    2    1    2    0    0  0.00000000000E+00  0.00000000000E+00  0.30571400166E+03  0.34519238046E+04  0.34383596237E+04 0.  0.
        5    1    3    3  502    0  0.70972202381E+03 -0.56937725025E+03  0.16172618316E+04  0.18556545277E+04  0.46999998093E+01 0.  1.
       -5    1    3    3    0  502 -0.70972202381E+03  0.56937725025E+03 -0.13115478300E+04  0.15962692769E+04  0.46999998093E+01 0. -1.
</event>
<event>
 5   0  0.4857514E-07  0.3732052E+04  0.7818609E-02  0.8060896E-01
       -2   -1    0    0    0  501  0.00000000000E+00  0.00000000000E+00  0.13412814444E+04  0.13412814444E+04  0.25500000920E-02 0.  1.
        2   -1    0    0  501    0  0.00000000000E+00  0.00000000000E+00 -0.25960647198E+04  0.25960647198E+04  0.25500000920E-02 0. -1.
    10030    2    1    2    0    0  0.00000000000E+00  0.00000000000E+00 -0.12547832753E+04  0.39373461642E+04  0.37320522167E+04 0.  0.
        5    1    3    3  502    0 -0.14481682950E+04  0.59619554499E+02 -0.18673228862E+04  0.23638237568E+04  0.46999998093E+01 0. -1.
       -5    1    3    3    0  502  0.14481682950E+04 -0.59619554499E+02  0.61253961083E+03  0.15735224074E+04  0.46999998093E+01 0.  1.
</event>
<event>
 5   0  0.1496287E-07  0.3647239E+04  0.7818609E-02  0.8079756E-01
       -1   -1    0    0    0  501  0.00000000000E+00  0.00000000000E+00  0.21926490254E+04  0.21926490254E+04  0.50400001928E-02 0. -1.
        1   -1    0    0  501    0  0.00000000000E+00  0.00000000000E+00 -0.15166991401E+04  0.15166991401E+04  0.50400001928E-02 0.  1.
    10030    2    1    2    0    0  0.00000000000E+00  0.00000000000E+00  0.67594988522E+03  0.37093481655E+04  0.36472394445E+04 0.  0.
        1    1    3    3  502    0  0.19985049040E+03  0.16320910184E+04 -0.46407835945E+03  0.17085169109E+04  0.50400001928E-02 0.  1.
       -1    1    3    3    0  502 -0.19985049040E+03 -0.16320910184E+04  0.11400282447E+04  0.20008312547E+04  0.50400001928E-02 0. -1.
</event>
<event>
 5   0  0.1522273E-07  0.3700255E+04  0.7818609E-02  0.8067905E-01
       -1   -1    0    0    0  501  0.00000000000E+00  0.00000000000E+00  0.18775194864E+04  0.18775194864E+04  0.50400001928E-02 0.  1.
        1   -1    0    0  501    0  0.00000000000E+00  0.00000000000E+00 -0.18231353338E+04  0.18231353338E+04  0.50400001928E-02 0. -1.
    10030    2    1    2    0    0  0.00000000000E+00  0.00000000000E+00  0.54384152611E+02  0.37006548201E+04  0.37002551887E+04 0.  0.
        4    1    3    3  502    0  0.32628462248E+03 -0.15946257441E+04  0.90687651334E+03  0.18632550931E+04  0.12699999809E+01 0. -1.
       -4    1    3    3    0  502 -0.32628462248E+03  0.15946257441E+04 -0.85249236073E+03  0.18373997270E+04  0.12699999809E+01 0.  1.
</event>
<event>
 5   0  0.1496000E-07  0.3650002E+04  0.7818609E-02  0.8079133E-01
        1   -1    0    0  501    0  0.00000000000E+00  0.00000000000E+00  0.13932803934E+04  0.13932803934E+04  0.50400001928E-02 0. -1.
       -1   -1    0    0    0  501  0.00000000000E+00  0.00000000000E+00 -0.23904936189E+04  0.23904936189E+04  0.50400001928E-02 0.  1.
    10030    2    1    2    0    0  0.00000000000E+00  0.00000000000E+00 -0.99721322548E+03  0.37837740123E+04  0.36500015834E+04 0.  0.
        5    1    3    3  502    0  0.47183002066E+03 -0.60445848788E+03 -0.22153853920E+04  0.23443438649E+04  0.46999998093E+01 0.  1.
       -5    1    3    3    0  502 -0.47183002066E+03  0.60445848788E+03  0.12181721665E+04  0.14394301474E+04  0.46999998093E+01 0. -1.
</event>
<event>
 5   0  0.1522273E-07  0.3699818E+04  0.7818609E-02  0.8068002E-01
       -1   -1    0    0    0  501  0.00000000000E+00  0.00000000000E+00  0.17310713562E+04  0.17310713562E+04  0.50400001928E-02 0.  1.
        1   -1    0    0  501    0  0.00000000000E+00  0.00000000000E+00 -0.19769045017E+04  0.19769045017E+04  0.50400001928E-02 0. -1.
    10030    2    1    2    0    0  0.00000000000E+00  0.00000000000E+00 -0.24583314553E+03  0.37079758579E+04  0.36998177019E+04 0.  0.
        4    1    3    3  502    0 -0.17585745648E+04  0.38486601484E+03  0.30399781943E+03  0.18256841557E+04  0.12699999809E+01 0.  1.
       -4    1    3    3    0  502  0.17585745648E+04 -0.38486601484E+03 -0.54983096496E+03  0.18822917022E+04  0.12699999809E+01 0. -1.
</event>
<event>
 5   0  0.1522273E-07  0.3712092E+04  0.7818609E-02  0.8065287E-01
        1   -1    0    0  501    0  0.00000000000E+00  0.00000000000E+00  0.16265289366E+04  0.16265289366E+04  0.50400001928E-02 0.  1.
       -1   -1    0    0    0  501  0.00000000000E+00  0.00000000000E+00 -0.21179503769E+04  0.21179503769E+04  0.50400001928E-02 0. -1.
    10030    2    1    2    0    0  0.00000000000E+00  0.00000000000E+00 -0.49142144028E+03  0.37444793135E+04  0.37120924419E+04 0.  0.
        4    1    3    3  502    0 -0.43267330727E+03  0.76333924989E+03  0.14041056100E+04  0.16557195349E+04  0.12699999809E+01 0.  1.
       -4    1    3    3    0  502  0.43267330727E+03 -0.76333924989E+03 -0.18955270503E+04  0.20887597786E+04  0.12699999809E+01 0. -1.
</event>
<event>
 5   0  0.1522273E-07  0.3706654E+04  0.7818609E-02  0.8066489E-01
        1   -1    0    0  501    0  0.00000000000E+00  0.00000000000E+00  0.15305561532E+04  0.15305561532E+04  0.50400001928E-02 0.  1.
       -1   -1    0    0    0  501  0.00000000000E+00  0.00000000000E+00 -0.22441656652E+04  0.22441656652E+04  0.50400001928E-02 0. -1.
    10030    2    1    2    0    0  0.00000000000E+00  0.00000000000E+00 -0.71360951200E+03  0.37747218184E+04  0.37066543231E+04 0.  0.
        4    1    3    3  502    0 -0.91430094855E+03  0.95086290737E+02 -0.19956528070E+04  0.21971844179E+04  0.12699999809E+01 0. -1.
       -4    1    3    3    0  502  0.91430094855E+03 -0.95086290737E+02  0.12820432950E+04  0.15775374006E+04  0.12699999809E+01 0.  1.
</event>
<event>
 5   0  0.1496000E-07  0.3715763E+04  0.7818609E-02  0.8064478E-01
        1   -1    0    0  501    0  0.00000000000E+00  0.00000000000E+00  0.12523156480E+04  0.12523156480E+04  0.50400001928E-02 0. -1.
       -1   -1    0    0    0  501  0.00000000000E+00  0.00000000000E+00 -0.27562729123E+04  0.27562729123E+04  0.50400001928E-02 0.  1.
    10030    2    1    2    0    0  0.00000000000E+00  0.00000000000E+00 -0.15039572643E+04  0.40085885603E+04  0.37157630163E+04 0.  0.
        3    1    3    3  502    0  0.24805806863E+03 -0.50437769374E+03 -0.26623475308E+04  0.27210336360E+04  0.10100000352E+00 0.  1.
       -3    1    3    3    0  502 -0.24805806863E+03  0.50437769374E+03  0.11583902665E+04  0.12875549243E+04  0.10100000352E+00 0. -1.
</event>
<event>
 5   0  0.4758908E-07  0.3729991E+04  0.7818609E-02  0.8061348E-01
       -2   -1    0    0    0  501  0.00000000000E+00  0.00000000000E+00  0.26181443954E+04  0.26181443954E+04  0.25500000920E-02 0. -1.
        2   -1    0    0  501    0  0.00000000000E+00  0.00000000000E+00 -0.13285012431E+04  0.13285012431E+04  0.25500000920E-02 0.  1.
    10030    2    1    2    0    0  0.00000000000E+00  0.00000000000E+00  0.12896431523E+04  0.39466456385E+04  0.37299909297E+04 0.  0.
        2    1    3    3  502    0 -0.18164776086E+04  0.42229587003E+03  0.62700990936E+03  0.19675025110E+04  0.25500000920E-02 0.  1.
       -2    1    3    3    0  502  0.18164776086E+04 -0.42229587003E+03  0.66263324289E+03  0.19791431275E+04  0.25500000920E-02 0. -1.
</event>
<event>
 5   0  0.1496000E-07  0.3753386E+04  0.7818609E-02  0.8056233E-01
       -1   -1    0    0    0  501  0.00000000000E+00  0.00000000000E+00  0.13635741855E+04  0.13635741855E+04  0.50400001928E-02 0.  1.
        1   -1    0    0  501    0  0.00000000000E+00  0.00000000000E+00 -0.25829005852E+04  0.25829005852E+04  0.50400001928E-02 0. -1.
    10030    2    1    2    0    0  0.00000000000E+00  0.00000000000E+00 -0.12193263996E+04  0.39464747707E+04  0.37533859710E+04 0.  0.
        3    1    3    3  502    0  0.74141186028E+03 -0.77970476371E+02  0.12012045332E+04  0.14137408824E+04  0.10100000352E+00 0.  1.
       -3    1    3    3    0  502 -0.74141186028E+03  0.77970476371E+02 -0.24205309329E+04  0.25327338883E+04  0.10100000352E+00 0. -1.
</event>
<event>
 5   0  0.1496287E-07  0.4008081E+04  0.7818609E-02  0.8002918E-01
       -1   -1    0    0    0  501  0.00000000000E+00  0.00000000000E+00  0.12896284737E+04  0.12896284737E+04  0.50400001928E-02 0. -1.
        1   -1    0    0  501    0  0.00000000000E+00  0.00000000000E+00 -0.31142127991E+04  0.31142127992E+04  0.50400001928E-02 0.  1.
    10030    2    1    2    0    0  0.00000000000E+00  0.00000000000E+00 -0.18245843255E+04  0.44038412728E+04  0.40080805875E+04 0.  0.
        1    1    3    3  502    0  0.10517546992E+04  0.10590330992E+04  0.55708136417E+03  0.15931348652E+04  0.50400001928E-02 0. -1.
       -1    1    3    3    0  502 -0.10517546992E+04 -0.10590330992E+04 -0.23816656896E+04  0.28107064076E+04  0.50400001928E-02 0.  1.
</event>
<event>
 5   0  0.4857514E-07  0.3530545E+04  0.7818609E-02  0.8106589E-01
       -2   -1    0    0    0  501  0.00000000000E+00  0.00000000000E+00  0.17299674544E+04  0.17299674544E+04  0.25500000920E-02 0.  1.
        2   -1    0    0  501    0  0.00000000000E+00  0.00000000000E+00 -0.18012980160E+04  0.18012980160E+04  0.25500000920E-02 0. -1.
    10030    2    1    2    0    0  0.00000000000E+00  0.00000000000E+00 -0.71330561577E+02  0.35312654704E+04  0.35305449683E+04 0.  0.
        5    1    3    3  502    0 -0.90288730647E+03  0.14933094125E+04  0.23082175423E+03  0.17602497726E+04  0.46999998093E+01 0.  1.
       -5    1    3    3    0  502  0.90288730647E+03 -0.14933094125E+04 -0.30215231581E+03  0.17710156978E+04  0.46999998093E+01 0. -1.
</event>
<event>
 5   0  0.1496000E-07  0.3680952E+04  0.7818609E-02  0.8072196E-01
        1   -1    0    0  501    0  0.00000000000E+00  0.00000000000E+00  0.20036243849E+04  0.20036243849E+04  0.50400001928E-02 0. -1.
       -1   -1    0    0    0  501  0.00000000000E+00  0.00000000000E+00 -0.16906126645E+04  0.16906126645E+04  0.50400001928E-02 0.  1.
    10030    2    1    2    0    0  0.00000000000E+00  0.00000000000E+00  0.31301172042E+03  0.36942370494E+04  0.36809524637E+04 0.  0.
        2    1    3    3  502    0 -0.32313985340E+03 -0.80324957307E+02  0.19731438716E+04  0.20010417791E+04  0.25500000920E-02 0. -1.
       -2    1    3    3    0  502  0.32313985340E+03  0.80324957307E+02 -0.16601321512E+04  0.16931952702E+04  0.25500000920E-02 0.  1.
</event>
<event>
 5   0  0.1496000E-07  0.3708970E+04  0.7818609E-02  0.8065977E-01
       -1   -1    0    0    0  501  0.00000000000E+00  0.00000000000E+00  0.14368804428E+04  0.14368804428E+04  0.50400001928E-02 0. -1.
        1   -1    0    0  501    0  0.00000000000E+00  0.00000000000E+00 -0.23934590574E+04  0.23934590574E+04  0.50400001928E-02 0.  1.
    10030    2    1    2    0    0  0.00000000000E+00  0.00000000000E+00 -0.95657861456E+03  0.38303395002E+04  0.37089699434E+04 0.  0.
        5    1    3    3  502    0  0.12420379156E+04  0.75508631467E+03  0.71103798332E+03  0.16181503731E+04  0.46999998093E+01 0. -1.
       -5    1    3    3    0  502 -0.12420379156E+04 -0.75508631467E+03 -0.16676165979E+04  0.22121891271E+04  0.46999998093E+01 0.  1.
</event>
<event>
 5   0  0.1522273E-07  0.3489871E+04  0.7818609E-02  0.8116195E-01
        1   -1    0    0  501    0  0.00000000000E+00  0.00000000000E+00  0.25932748393E+04  0.25932748393E+04  0.50400001928E-02 0. -1.
       -1   -1    0    0    0  501  0.00000000000E+00  0.00000000000E+00 -0.11741139510E+04  0.11741139510E+04  0.50400001928E-02 0.  1.
    10030    2    1    2    0    0  0.00000000000E+00  0.00000000000E+00  0.14191608883E+04  0.37673887903E+04  0.34898711538E+04 0.  0.
        4    1    3    3  502    0  0.52819686919E+03 -0.15525488363E+04  0.13531403591E+04  0.21261209435E+04  0.12699999809E+01 0. -1.
       -4    1    3    3    0  502 -0.52819686919E+03  0.15525488363E+04  0.66020529218E+02  0.16412678468E+04  0.12699999809E+01 0.  1.
</event>
<event>
 5   0  0.1522273E-07  0.3692216E+04  0.7818609E-02  0.8069689E-01
       -1   -1    0    0    0  501  0.00000000000E+00  0.00000000000E+00  0.16787529439E+04  0.16787529439E+04  0.50400001928E-02 0. -1.
        1   -1    0    0  501    0  0.00000000000E+00  0.00000000000E+00 -0.20301461818E+04  0.20301461818E+04  0.50400001928E-02 0.  1.
    10030    2    1    2    0    0  0.00000000000E+00  0.00000000000E+00 -0.35139323783E+03  0.37088991257E+04  0.36922155296E+04 0.  0.
        4    1    3    3  502    0  0.23674399822E+03  0.96781795290E+03 -0.17368726492E+04  0.20023604878E+04  0.12699999809E+01 0.  1.
       -4    1    3    3    0  502 -0.23674399822E+03 -0.96781795290E+03  0.13854794113E+04  0.17065386379E+04  0.12699999809E+01 0. -1.
</event>
<event>
 5   0  0.4687817E-07  0.3699930E+04  0.7818609E-02  0.8067977E-01
       -2   -1    0    0    0  501  0.00000000000E+00  0.00000000000E+00  0.13337173835E+04  0.13337173835E+04  0.25500000920E-02 0.  1.
        2   -1    0    0  501    0  0.00000000000E+00  0.00000000000E+00 -0.25660382712E+04  0.25660382712E+04  0.25500000920E-02 0. -1.
    10030    2    1    2    0    0  0.00000000000E+00  0.00000000000E+00 -0.12323208877E+04  0.38997556546E+04  0.36999296474E+04 0.  0.
        4    1    3    3  502    0 -0.68901295415E+03  0.33332880594E+02  0.11930892255E+04  0.13781558129E+04  0.12699999809E+01 0.  1.
       -4    1    3    3    0  502  0.68901295415E+03 -0.33332880594E+02 -0.24254101131E+04  0.25215998417E+04  0.12699999809E+01 0. -1.
</event>
<event>
 5   0  0.1496000E-07  0.3747095E+04  0.7818609E-02  0.8057604E-01
        1   -1    0    0  501    0  0.00000000000E+00  0.00000000000E+00  0.21718252663E+04  0.21718252663E+04  0.50400001928E-02 0.  1.
       -1   -1    0    0    0  501  0.00000000000E+00  0.00000000000E+00 -0.16162349392E+04  0.16162349392E+04  0.50400001928E-02 0. -1.
    10030    2    1    2    0    0  0.00000000000E+00  0.00000000000E+00  0.55559032710E+03  0.37880602056E+04  0.37470948092E+04 0.  0.
        3    1    3    3  502    0 -0.14226170313E+04 -0.12184076647E+04  0.32096342988E+03  0.19003615415E+04  0.10100000352E+00 0.  1.
       -3    1    3    3    0  502  0.14226170313E+04  0.12184076647E+04  0.23462689721E+03  0.18876986640E+04  0.10100000352E+00 0. -1.
</event>
<event>
 5   0  0.4758908E-07  0.3710421E+04  0.7818609E-02  0.8065656E-01
        2   -1    0    0  501    0  0.00000000000E+00  0.00000000000E+00  0.22469168155E+04  0.22469168155E+04  0.25500000920E-02 0. -1.
       -2   -1    0    0    0  501  0.00000000000E+00  0.00000000000E+00 -0.15317907684E+04  0.15317907684E+04  0.25500000920E-02 0.  1.
    10030    2    1    2    0    0  0.00000000000E+00  0.00000000000E+00  0.71512604717E+03  0.37787075839E+04  0.37104212350E+04 0.  0.
        2    1    3    3  502    0  0.11042066946E+04  0.97600848350E+03  0.15052195160E+04  0.21065494951E+04  0.25500000920E-02 0. -1.
       -2    1    3    3    0  502 -0.11042066946E+04 -0.97600848350E+03 -0.79009346880E+03  0.16721580887E+04  0.25500000920E-02 0.  1.
</event>
<event>
 5   0  0.4857514E-07  0.3685410E+04  0.7818609E-02  0.8071203E-01
       -2   -1    0    0    0  501  0.00000000000E+00  0.00000000000E+00  0.25613992161E+04  0.25613992161E+04  0.25500000920E-02 0.  1.
        2   -1    0    0  501    0  0.00000000000E+00  0.00000000000E+00 -0.13256667015E+04  0.13256667015E+04  0.25500000920E-02 0. -1.
    10030    2    1    2    0    0  0.00000000000E+00  0.00000000000E+00  0.12357325146E+04  0.38870659176E+04  0.36854099636E+04 0.  0.
        5    1    3    3  502    0 -0.18290647478E+04 -0.11742283092E+03  0.81874378448E+03  0.20073936952E+04  0.46999998093E+01 0.  1.
       -5    1    3    3    0  502  0.18290647478E+04  0.11742283092E+03  0.41698873015E+03  0.18796722224E+04  0.46999998093E+01 0. -1.
</event>
<event>
 5   0  0.4793557E-07  0.3755249E+04  0.7818609E-02  0.8055827E-01
        2   -1    0    0  501    0  0.00000000000E+00  0.00000000000E+00  0.22985926193E+04  0.22985926193E+04  0.25500000920E-02 0.  1.
       -2   -1    0    0    0  501  0.00000000000E+00  0.00000000000E+00 -0.15337530967E+04  0.15337530967E+04  0.25500000920E-02 0. -1.
    10030    2    1    2    0    0  0.00000000000E+00  0.00000000000E+00  0.76483952266E+03  0.38323457160E+04  0.37552488854E+04 0.  0.
        3    1    3    3  502    0 -0.77075832929E+03 -0.29639547412E+03 -0.13384846965E+04  0.15727237431E+04  0.10100000352E+00 0. -1.
       -3    1    3    3    0  502  0.77075832929E+03  0.29639547412E+03  0.21033242191E+04  0.22596219729E+04  0.10100000352E+00 0.  1.
</event>
<event>
 5   0  0.1496000E-07  0.4149100E+04  0.7818609E-02  0.7975126E-01
       -1   -1    0    0    0  501  0.00000000000E+00  0.00000000000E+00  0.18743507031E+04  0.18743507031E+04  0.50400001928E-02 0.  1.
        1   -1    0    0  501    0  0.00000000000E+00  0.00000000000E+00 -0.22961321892E+04  0.22961321892E+04  0.50400001928E-02 0. -1.
    10030    2    1    2    0    0  0.00000000000E+00  0.00000000000E+00 -0.42178148609E+03  0.41704828923E+04  0.41490996533E+04 0.  0.
        2    1    3    3  502    0 -0.19863107708E+04 -0.31247391239E+03 -0.72409682916E+03  0.21371445066E+04  0.25500000920E-02 0. -1.
       -2    1    3    3    0  502  0.19863107708E+04  0.31247391239E+03  0.30231534307E+03  0.20333383857E+04  0.25500000920E-02 0.  1.
</event>
<event>
 5   0  0.4793557E-07  0.3698356E+04  0.7818609E-02  0.8068326E-01
        2   -1    0    0  501    0  0.00000000000E+00  0.00000000000E+00  0.19582716132E+04  0.19582716132E+04  0.25500000920E-02 0. -1.
       -2   -1    0    0    0  501  0.00000000000E+00  0.00000000000E+00 -0.17461618808E+04  0.17461618808E+04  0.25500000920E-02 0.  1.
    10030    2    1    2    0    0  0.00000000000E+00  0.00000000000E+00  0.21210973241E+03  0.37044334940E+04  0.36983559825E+04 0.  0.
        3    1    3    3  502    0  0.13261640574E+04  0.62694131397E+03  0.12338236985E+04  0.19167909243E+04  0.10100000352E+00 0. -1.
       -3    1    3    3    0  502 -0.13261640574E+04 -0.62694131397E+03 -0.10217139661E+04  0.17876425697E+04  0.10100000352E+00 0.  1.
</event>
<event>
 5   0  0.1496000E-07  0.3653143E+04  0.7818609E-02  0.8078426E-01
        1   -1    0    0  501    0  0.00000000000E+00  0.00000000000E+00  0.19561536876E+04  0.19561536876E+04  0.50400001928E-02 0. -1.
       -1   -1    0    0    0  501  0.00000000000E+00  0.00000000000E+00 -0.17055733252E+04  0.17055733252E+04  0.50400001928E-02 0.  1.
    10030    2    1    2    0    0  0.00000000000E+00  0.00000000000E+00  0.25058036231E+03  0.36617270128E+04  0.36531430575E+04 0.  0.
        5    1    3    3  502    0 -0.94752774153E+03 -0.32985252036E+03  0.16552219967E+04  0.19355602430E+04  0.46999998093E+01 0. -1.
       -5    1    3    3    0  502  0.94752774153E+03  0.32985252036E+03 -0.14046416344E+04  0.17261667698E+04  0.46999998093E+01 0.  1.
</event>
<event>
 5   0  0.1496000E-07  0.3725762E+04  0.7818609E-02  0.8062277E-01
        1   -1    0    0  501    0  0.00000000000E+00  0.00000000000E+00  0.26058014473E+04  0.26058014473E+04  0.50400001928E-02 0.  1.
       -1   -1    0    0    0  501  0.00000000000E+00  0.00000000000E+00 -0.13317686872E+04  0.13317686872E+04  0.50400001928E-02 0. -1.
    10030    2    1    2    0    0  0.00000000000E+00  0.00000000000E+00  0.12740327601E+04  0.39375701345E+04  0.37257615450E+04 0.  0.
        3    1    3    3  502    0 -0.10824669483E+04  0.15040563078E+04  0.83866345302E+03  0.20340296135E+04  0.10100000352E+00 0.  1.
       -3    1    3    3    0  502  0.10824669483E+04 -0.15040563078E+04  0.43536930706E+03  0.19035405209E+04  0.10100000352E+00 0. -1.
</event>
<event>
 5   0  0.1496287E-07  0.3782060E+04  0.7818609E-02  0.8050016E-01
        1   -1    0    0  501    0  0.00000000000E+00  0.00000000000E+00  0.19806167273E+04  0.19806167273E+04  0.50400001928E-02 0. -1.
       -1   -1    0    0    0  501  0.00000000000E+00  0.00000000000E+00 -0.18054958685E+04  0.18054958685E+04  0.50400001928E-02 0.  1.
    10030    2    1    2    0    0  0.00000000000E+00  0.00000000000E+00  0.17512085881E+03  0.37861125959E+04  0.37820604534E+04 0.  0.
        1    1    3    3  502    0  0.88229914302E+03 -0.59604941431E+02  0.17608748128E+04  0.19704529005E+04  0.50400001928E-02 0. -1.
       -1    1    3    3    0  502 -0.88229914302E+03  0.59604941431E+02 -0.15857539540E+04  0.18156596954E+04  0.50400001928E-02 0.  1.
</event>
<event>
 5   0  0.4687817E-07  0.3711192E+04  0.7818609E-02  0.8065486E-01
        2   -1    0    0  501    0  0.00000000000E+00  0.00000000000E+00  0.25016447623E+04  0.25016447623E+04  0.25500000920E-02 0. -1.
       -2   -1    0    0    0  501  0.00000000000E+00  0.00000000000E+00 -0.13763888467E+04  0.13763888467E+04  0.25500000920E-02 0.  1.
    10030    2    1    2    0    0  0.00000000000E+00  0.00000000000E+00  0.11252559156E+04  0.38780336090E+04  0.37111916950E+04 0.  0.
        4    1    3    3  502    0  0.11337572279E+04  0.60758070755E+02 -0.97105247073E+03  0.14940018436E+04  0.12699999809E+01 0.  1.
       -4    1    3    3    0  502 -0.11337572279E+04 -0.60758070755E+02  0.20963083864E+04  0.23840317654E+04  0.12699999809E+01 0. -1.
</event>
<event>
 5   0  0.1496287E-07  0.3696244E+04  0.7818609E-02  0.8068795E-01
        1   -1    0    0  501    0  0.00000000000E+00  0.00000000000E+00  0.28998759036E+04  0.28998759036E+04  0.50400001928E-02 0. -1.
       -1   -1    0    0    0  501  0.00000000000E+00  0.00000000000E+00 -0.11778280074E+04  0.11778280074E+04  0.50400001928E-02 0.  1.
    10030    2    1    2    0    0  0.00000000000E+00  0.00000000000E+00  0.17220478961E+04  0.40777039110E+04  0.36962440706E+04 0.  0.
        1    1    3    3  502    0 -0.14741726436E+03 -0.15046185099E+03 -0.11645416093E+04  0.11834389626E+04  0.50400001928E-02 0.  1.
       -1    1    3    3    0  502  0.14741726436E+03  0.15046185099E+03  0.28865895054E+04  0.28942649484E+04  0.50400001928E-02 0. -1.
</event>
<event>
 5   0  0.1496000E-07  0.3625124E+04  0.7818609E-02  0.8084761E-01
        1   -1    0    0  501    0  0.00000000000E+00  0.00000000000E+00  0.16667774702E+04  0.16667774702E+04  0.50400001928E-02 0. -1.
       -1   -1    0    0    0  501  0.00000000000E+00  0.00000000000E+00 -0.19710976141E+04  0.19710976142E+04  0.50400001928E-02 0.  1.
    10030    2    1    2    0    0  0.00000000000E+00  0.00000000000E+00 -0.30432014394E+03  0.36378750844E+04  0.36251240502E+04 0.  0.
        2    1    3    3  502    0 -0.45496518635E+03 -0.11673034078E+04  0.11623291905E+04  0.17089762180E+04  0.25500000920E-02 0. -1.
       -2    1    3    3    0  502  0.45496518635E+03  0.11673034078E+04 -0.14666493344E+04  0.19288988664E+04  0.25500000920E-02 0.  1.
</event>
<event>
 5   0  0.1496000E-07  0.3691079E+04  0.7818609E-02  0.8069942E-01
       -1   -1    0    0    0  501  0.00000000000E+00  0.00000000000E+00  0.18779787911E+04  0.18779787912E+04  0.50400001928E-02 0.  1.
        1   -1    0    0  501    0  0.00000000000E+00  0.00000000000E+00 -0.18136607270E+04  0.18136607270E+04  0.50400001928E-02 0. -1.
    10030    2    1    2    0    0  0.00000000000E+00  0.00000000000E+00  0.64318064159E+02  0.36916395181E+04  0.36910791808E+04 0.  0.
        5    1    3    3  502    0 -0.14182584111E+04 -0.99795441428E+03  0.66362193226E+03  0.18568215026E+04  0.46999998093E+01 0. -1.
       -5    1    3    3    0  502  0.14182584111E+04  0.99795441428E+03 -0.59930386810E+03  0.18348180155E+04  0.46999998093E+01 0.  1.
</event>
<event>
 5   0  0.4758908E-07  0.3683067E+04  0.7818609E-02  0.8071725E-01
        2   -1    0    0  501    0  0.00000000000E+00  0.00000000000E+00  0.30882211113E+04  0.30882211113E+04  0.25500000920E-02 0.  1.
       -2   -1    0    0    0  501  0.00000000000E+00  0.00000000000E+00 -0.10981227382E+04  0.10981227382E+04  0.25500000920E-02 0. -1.
    10030    2    1    2    0    0  0.00000000000E+00  0.00000000000E+00  0.19900983731E+04  0.41863438495E+04  0.36830671039E+04 0.  0.
        2    1    3    3  502    0  0.42968097528E+01  0.17826891128E+04  0.47016122096E+03  0.18436514066E+04  0.25500000920E-02 0. -1.
       -2    1    3    3    0  502 -0.42968097528E+01 -0.17826891128E+04  0.15199371522E+04  0.23426924429E+04  0.25500000920E-02 0.  1.
</event>
<event>
 5   0  0.4687817E-07  0.3655386E+04  0.7818609E-02  0.8077921E-01
       -2   -1    0    0    0  501  0.00000000000E+00  0.00000000000E+00  0.19519579414E+04  0.19519579414E+04  0.25500000920E-02 0.  1.
        2   -1    0    0  501    0  0.00000000000E+00  0.00000000000E+00 -0.17113386244E+04  0.17113386244E+04  0.25500000920E-02 0. -1.
    10030    2    1    2    0    0  0.00000000000E+00  0.00000000000E+00  0.24061931699E+03  0.36632965657E+04  0.36553856257E+04 0.  0.
        4    1    3    3  502    0 -0.33635623924E+03  0.45942684865E+03  0.18608039701E+04  0.19459706002E+04  0.12699999809E+01 0.  1.
       -4    1    3    3    0  502  0.33635623924E+03 -0.45942684865E+03 -0.16201846531E+04  0.17173259655E+04  0.12699999809E+01 0. -1.
</event>
<event>
 5   0  0.4758908E-07  0.3285287E+04  0.7818609E-02  0.8166649E-01
       -2   -1    0    0    0  501  0.00000000000E+00  0.00000000000E+00  0.13891632566E+04  0.13891632566E+04  0.25500000920E-02 0.  1.
        2   -1    0    0  501    0  0.00000000000E+00  0.00000000000E+00 -0.19423765126E+04  0.19423765126E+04  0.25500000920E-02 0. -1.
    10030    2    1    2    0    0  0.00000000000E+00  0.00000000000E+00 -0.55321325601E+03  0.33315397693E+04  0.32852872519E+04 0.  0.
        2    1    3    3  502    0  0.58881191105E+03  0.21150534322E+03  0.12636063431E+04  0.14100123996E+04  0.25500000920E-02 0.  1.
       -2    1    3    3    0  502 -0.58881191105E+03 -0.21150534322E+03 -0.18168195991E+04  0.19215273697E+04  0.25500000920E-02 0. -1.
</event>
<event>
 5   0  0.1522273E-07  0.3701142E+04  0.7818609E-02  0.8067709E-01
       -1   -1    0    0    0  501  0.00000000000E+00  0.00000000000E+00  0.17177350274E+04  0.17177350274E+04  0.50400001928E-02 0.  1.
        1   -1    0    0  501    0  0.00000000000E+00  0.00000000000E+00 -0.19936793306E+04  0.19936793306E+04  0.50400001928E-02 0. -1.
    10030    2    1    2    0    0  0.00000000000E+00  0.00000000000E+00 -0.27594430317E+03  0.37114143581E+04  0.37011418885E+04 0.  0.
        4    1    3    3  502    0  0.90682309589E+02  0.30538599315E+03  0.16900320908E+04  0.17197947456E+04  0.12699999809E+01 0.  1.
       -4    1    3    3    0  502 -0.90682309589E+02 -0.30538599315E+03 -0.19659763940E+04  0.19916196125E+04  0.12699999809E+01 0. -1.
</event>
<event>
 5   0  0.4857514E-07  0.3708593E+04  0.7818609E-02  0.8066060E-01
        2   -1    0    0  501    0  0.00000000000E+00  0.00000000000E+00  0.11898656799E+04  0.11898656799E+04  0.25500000920E-02 0. -1.
       -2   -1    0    0    0  501  0.00000000000E+00  0.00000000000E+00 -0.28897510355E+04  0.28897510355E+04  0.25500000920E-02 0.  1.
    10030    2    1    2    0    0  0.00000000000E+00  0.00000000000E+00 -0.16998853556E+04  0.40796167154E+04  0.37085930381E+04 0.  0.
        5    1    3    3  502    0 -0.10992383315E+04  0.35099857416E+02 -0.24922305939E+04  0.27241131277E+04  0.46999998093E+01 0.  1.
       -5    1    3    3    0  502  0.10992383315E+04 -0.35099857416E+02  0.79234523831E+03  0.13555035877E+04  0.46999998093E+01 0. -1.
</event>
<event>
 5   0  0.1496000E-07  0.3712555E+04  0.7818609E-02  0.8065185E-01
        1   -1    0    0  501    0  0.00000000000E+00  0.00000000000E+00  0.18013731846E+04  0.18013731846E+04  0.50400001928E-02 0.  1.
       -1   -1    0    0    0  501  0.00000000000E+00  0.00000000000E+00 -0.19128548407E+04  0.19128548407E+04  0.50400001928E-02 0. -1.
    10030    2    1    2    0    0  0.00000000000E+00  0.00000000000E+00 -0.11148165609E+03  0.37142280253E+04  0.37125546009E+04 0.  0.
        2    1    3    3  502    0 -0.14995955497E+04 -0.10645383578E+04  0.19683422878E+03  0.18495330334E+04  0.25500000920E-02 0. -1.
       -2    1    3    3    0  502  0.14995955497E+04  0.10645383578E+04 -0.30831588487E+03  0.18646949919E+04  0.25500000920E-02 0.  1.
</event>
<event>
 5   0  0.1496287E-07  0.3748357E+04  0.7818609E-02  0.8057329E-01
       -1   -1    0    0    0  501  0.00000000000E+00  0.00000000000E+00  0.21586760723E+04  0.21586760723E+04  0.50400001928E-02 0. -1.
        1   -1    0    0  501    0  0.00000000000E+00  0.00000000000E+00 -0.16271760287E+04  0.16271760287E+04  0.50400001928E-02 0.  1.
    10030    2    1    2    0    0  0.00000000000E+00  0.00000000000E+00  0.53150004363E+03  0.37858521010E+04  0.37483574848E+04 0.  0.
        1    1    3    3  502    0 -0.10590823867E+03 -0.54274534001E+03 -0.15429046699E+04  0.16390069797E+04  0.50400001928E-02 0.  1.
       -1    1    3    3    0  502  0.10590823867E+03  0.54274534001E+03  0.20744047135E+04  0.21468451213E+04  0.50400001928E-02 0. -1.
</event>
<event>
 5   0  0.1496000E-07  0.3199378E+04  0.7818609E-02  0.8188981E-01
        1   -1    0    0  501    0  0.00000000000E+00  0.00000000000E+00  0.12517451273E+04  0.12517451273E+04  0.50400001928E-02 0. -1.
       -1   -1    0    0    0  501  0.00000000000E+00  0.00000000000E+00 -0.20443500678E+04  0.20443500678E+04  0.50400001928E-02 0.  1.
    10030    2    1    2    0    0  0.00000000000E+00  0.00000000000E+00 -0.79260494055E+03  0.32960951951E+04  0.31993782120E+04 0.  0.
        5    1    3    3  502    0  0.11739533488E+04  0.98499537569E+03 -0.86908798477E+03  0.17617373160E+04  0.46999998093E+01 0. -1.
       -5    1    3    3    0  502 -0.11739533488E+04 -0.98499537569E+03  0.76483044218E+02  0.15343578791E+04  0.46999998093E+01 0.  1.
</event>
<event>
 5   0  0.1522273E-07  0.3634482E+04  0.7818609E-02  0.8082639E-01
        1   -1    0    0  501    0  0.00000000000E+00  0.00000000000E+00  0.23621550409E+04  0.23621550409E+04  0.50400001928E-02 0. -1.
       -1   -1    0    0    0  501  0.00000000000E+00  0.00000000000E+00 -0.13980304961E+04  0.13980304961E+04  0.50400001928E-02 0.  1.
    10030    2    1    2    0    0  0.00000000000E+00  0.00000000000E+00  0.96412454475E+03  0.37601855370E+04  0.36344819624E+04 0.  0.
        4    1    3    3  502    0 -0.10582695826E+04 -0.60447285471E+03 -0.91253607962E+03  0.15225129395E+04  0.12699999809E+01 0.  1.
       -4    1    3    3    0  502  0.10582695826E+04  0.60447285471E+03  0.18766606244E+04  0.22376725975E+04  0.12699999809E+01 0. -1.
</event>
<event>
 5   0  0.4824268E-07  0.3482617E+04  0.7818609E-02  0.8117922E-01
        2   -1    0    0  501    0  0.00000000000E+00  0.00000000000E+00  0.30764757014E+04  0.30764757014E+04  0.25500000920E-02 0.  1.
       -2   -1    0    0    0  501  0.00000000000E+00  0.00000000000E+00 -0.98559368752E+03  0.98559368753E+03  0.25500000920E-02 0. -1.
    10030    2    1    2    0    0  0.00000000000E+00  0.00000000000E+00  0.20908820139E+04  0.40620693890E+04  0.34826168501E+04 0.  0.
        1    1    3    3  502    0 -0.16171828116E+04  0.50784155979E+03  0.58038891970E+03  0.17916569410E+04  0.50400001928E-02 0.  1.
       -1    1    3    3    0  502  0.16171828116E+04 -0.50784155979E+03  0.15104930942E+04  0.22704124480E+04  0.50400001928E-02 0. -1.
</event>
<event>
 5   0  0.1496287E-07  0.3631483E+04  0.7818609E-02  0.8083318E-01
       -1   -1    0    0    0  501  0.00000000000E+00  0.00000000000E+00  0.20794032244E+04  0.20794032244E+04  0.50400001928E-02 0. -1.
        1   -1    0    0  501    0  0.00000000000E+00  0.00000000000E+00 -0.15855110269E+04  0.15855110269E+04  0.50400001928E-02 0.  1.
    10030    2    1    2    0    0  0.00000000000E+00  0.00000000000E+00  0.49389219752E+03  0.36649142512E+04  0.36314827504E+04 0.  0.
        1    1    3    3  502    0  0.84095343200E+03 -0.14312775566E+04 -0.49546101325E+03  0.17324086511E+04  0.50400001928E-02 0.  1.
       -1    1    3    3    0  502 -0.84095343200E+03  0.14312775566E+04  0.98935321076E+03  0.19325056001E+04  0.50400001928E-02 0. -1.
</event>
<event>
 5   0  0.4793557E-07  0.3705646E+04  0.7818609E-02  0.8066712E-01
        2   -1    0    0  501    0  0.00000000000E+00  0.00000000000E+00  0.17383239997E+04  0.17383239997E+04  0.25500000920E-02 0. -1.
       -2   -1    0    0    0  501  0.00000000000E+00  0.00000000000E+00 -0.19748640186E+04  0.19748640186E+04  0.25500000920E-02 0.  1.
    10030    2    1    2    0    0  0.00000000000E+00  0.00000000000E+00 -0.23654001886E+03  0.37131880184E+04  0.37056462431E+04 0.  0.
        3    1    3    3  502    0  0.67458923650E+03 -0.63449511967E+03  0.14897698033E+04  0.17541575676E+04  0.10100000352E+00 0. -1.
       -3    1    3    3    0  502 -0.67458923650E+03  0.63449511967E+03 -0.17263098221E+04  0.19590304508E+04  0.10100000352E+00 0.  1.
</event>
<event>
 5   0  0.4824268E-07  0.3702514E+04  0.7818609E-02  0.8067405E-01
       -2   -1    0    0    0  501  0.00000000000E+00  0.00000000000E+00  0.31085941958E+04  0.31085941958E+04  0.25500000920E-02 0. -1.
        2   -1    0    0  501    0  0.00000000000E+00  0.00000000000E+00 -0.11024763658E+04  0.11024763658E+04  0.25500000920E-02 0.  1.
    10030    2    1    2    0    0  0.00000000000E+00  0.00000000000E+00  0.20061178300E+04  0.42110705616E+04  0.37025135418E+04 0.  0.
        1    1    3    3  502    0  0.27533658141E+03 -0.13480655382E+04 -0.40563661196E+03  0.14344448366E+04  0.50400001928E-02 0.  1.
       -1    1    3    3    0  502 -0.27533658141E+03  0.13480655382E+04  0.24117544420E+04  0.27766257250E+04  0.50400001928E-02 0. -1.
</event>
<event>
 5   0  0.4824268E-07  0.3622408E+04  0.7818609E-02  0.8085378E-01
        2   -1    0    0  501    0  0.00000000000E+00  0.00000000000E+00  0.27878941298E+04  0.27878941298E+04  0.25500000920E-02 0. -1.
       -2   -1    0    0    0  501  0.00000000000E+00  0.00000000000E+00 -0.11766799273E+04  0.11766799273E+04  0.25500000920E-02 0.  1.
    10030    2    1    2    0    0  0.00000000000E+00  0.00000000000E+00  0.16112142025E+04  0.39645740571E+04  0.36224075209E+04 0.  0.
        1    1    3    3  502    0  0.17634661808E+04  0.36538950132E+03  0.10165186286E+04  0.20680020747E+04  0.50400001928E-02 0. -1.
       -1    1    3    3    0  502 -0.17634661808E+04 -0.36538950132E+03  0.59469557388E+03  0.18965719824E+04  0.50400001928E-02 0.  1.
</event>
<event>
 5   0  0.4857514E-07  0.3722315E+04  0.7818609E-02  0.8063034E-01
       -2   -1    0    0    0  501  0.00000000000E+00  0.00000000000E+00  0.16666552376E+04  0.16666552376E+04  0.25500000920E-02 0.  1.
        2   -1    0    0  501    0  0.00000000000E+00  0.00000000000E+00 -0.20783590981E+04  0.20783590981E+04  0.25500000920E-02 0. -1.
    10030    2    1    2    0    0  0.00000000000E+00  0.00000000000E+00 -0.41170386045E+03  0.37450143357E+04  0.37223154496E+04 0.  0.
        5    1    3    3  502    0 -0.36082110943E+03 -0.14319709407E+04  0.93381930954E+03  0.17472187158E+04  0.46999998093E+01 0.  1.
       -5    1    3    3    0  502  0.36082110943E+03  0.14319709407E+04 -0.13455231700E+04  0.19977956199E+04  0.46999998093E+01 0. -1.
</event>
<event>
 5   0  0.1496000E-07  0.3463944E+04  0.7818609E-02  0.8122388E-01
        1   -1    0    0  501    0  0.00000000000E+00  0.00000000000E+00  0.19218321263E+04  0.19218321263E+04  0.50400001928E-02 0. -1.
       -1   -1    0    0    0  501  0.00000000000E+00  0.00000000000E+00 -0.15608679540E+04  0.15608679540E+04  0.50400001928E-02 0.  1.
    10030    2    1    2    0    0  0.00000000000E+00  0.00000000000E+00  0.36096417236E+03  0.34827000803E+04  0.34639435209E+04 0.  0.
        5    1    3    3  502    0 -0.44864704802E+03 -0.85089058864E+03  0.16285604399E+04  0.18914360058E+04  0.46999998093E+01 0. -1.
       -5    1    3    3    0  502  0.44864704802E+03  0.85089058864E+03 -0.12675962675E+04  0.15912640746E+04  0.46999998093E+01 0.  1.
</event>
<event>
 5   0  0.4793557E-07  0.3705448E+04  0.7818609E-02  0.8066756E-01
       -2   -1    0    0    0  501  0.00000000000E+00  0.00000000000E+00  0.17124361350E+04  0.17124361350E+04  0.25500000920E-02 0. -1.
        2   -1    0    0  501    0  0.00000000000E+00  0.00000000000E+00 -0.20045045305E+04  0.20045045305E+04  0.25500000920E-02 0.  1.
    10030    2    1    2    0    0  0.00000000000E+00  0.00000000000E+00 -0.29206839545E+03  0.37169406655E+04  0.37054478762E+04 0.  0.
        3    1    3    3  502    0 -0.15319348648E+04  0.10398796461E+04 -0.21266213742E+03  0.18637057985E+04  0.10100000352E+00 0.  1.
       -3    1    3    3    0  502  0.15319348648E+04 -0.10398796461E+04 -0.79406258024E+02  0.18532348670E+04  0.10100000352E+00 0. -1.
</event>
<event>
 5   0  0.1522273E-07  0.3666751E+04  0.7818609E-02  0.8075370E-01
        1   -1    0    0  501    0  0.00000000000E+00  0.00000000000E+00  0.21881776748E+04  0.21881776748E+04  0.50400001928E-02 0.  1.
       -1   -1    0    0    0  501  0.00000000000E+00  0.00000000000E+00 -0.15361025148E+04  0.15361025148E+04  0.50400001928E-02 0. -1.
    10030    2    1    2    0    0  0.00000000000E+00  0.00000000000E+00  0.65207516004E+03  0.37242801896E+04  0.36667507300E+04 0.  0.
        4    1    3    3  502    0  0.15588436407E+04  0.91995759870E+03  0.30006105590E+02  0.18103086640E+04  0.12699999809E+01 0. -1.
       -4    1    3    3    0  502 -0.15588436407E+04 -0.91995759870E+03  0.62206905445E+03  0.19139715256E+04  0.12699999809E+01 0.  1.
</event>
<event>
 5   0  0.1496287E-07  0.3718860E+04  0.7818609E-02  0.8063795E-01
        1   -1    0    0  501    0  0.00000000000E+00  0.00000000000E+00  0.30567608260E+04  0.30567608260E+04  0.50400001928E-02 0.  1.
       -1   -1    0    0    0  501  0.00000000000E+00  0.00000000000E+00 -0.11310925365E+04  0.11310925365E+04  0.50400001928E-02 0. -1.
    10030    2    1    2    0    0  0.00000000000E+00  0.00000000000E+00  0.19256682894E+04  0.41878533625E+04  0.37188596942E+04 0.  0.
        1    1    3    3  502    0 -0.34429879958E+03  0.90457581829E+03 -0.82505486600E+03  0.12718154765E+04  0.50400001928E-02 0. -1.
       -1    1    3    3    0  502  0.34429879958E+03 -0.90457581829E+03  0.27507231554E+04  0.29160378860E+04  0.50400001928E-02 0.  1.
</event>
<event>
 5   0  0.1496000E-07  0.3791183E+04  0.7818609E-02  0.8048050E-01
       -1   -1    0    0    0  501  0.00000000000E+00  0.00000000000E+00  0.15319813964E+04  0.15319813965E+04  0.50400001928E-02 0.  1.
        1   -1    0    0  501    0  0.00000000000E+00  0.00000000000E+00 -0.23455027348E+04  0.23455027348E+04  0.50400001928E-02 0. -1.
    10030    2    1    2    0    0  0.00000000000E+00  0.00000000000E+00 -0.81352133837E+03  0.38774841313E+04  0.37911826941E+04 0.  0.
        3    1    3    3  502    0  0.79103230685E+03  0.57755973649E+02  0.13541161277E+04  0.15692986843E+04  0.10100000352E+00 0.  1.
       -3    1    3    3    0  502 -0.79103230685E+03 -0.57755973649E+02 -0.21676374661E+04  0.23081854470E+04  0.10100000352E+00 0. -1.
</event>
<event>
 5   0  0.1496000E-07  0.3727193E+04  0.7818609E-02  0.8061962E-01
       -1   -1    0    0    0  501  0.00000000000E+00  0.00000000000E+00  0.14708062825E+04  0.14708062826E+04  0.50400001928E-02 0. -1.
        1   -1    0    0  501    0  0.00000000000E+00  0.00000000000E+00 -0.23612842943E+04  0.23612842943E+04  0.50400001928E-02 0.  1.
    10030    2    1    2    0    0  0.00000000000E+00  0.00000000000E+00 -0.89047801177E+03  0.38320905769E+04  0.37271929250E+04 0.  0.
        3    1    3    3  502    0 -0.29482781332E+02 -0.17935797731E+04 -0.96462380026E+03  0.20367367830E+04  0.10100000352E+00 0.  1.
       -3    1    3    3    0  502  0.29482781332E+02  0.17935797731E+04  0.74145788490E+02  0.17953537939E+04  0.10100000352E+00 0. -1.
</event>
<event>
 5   0  0.4758908E-07  0.3509626E+04  0.7818609E-02  0.8111513E-01
        2   -1    0    0  501    0  0.00000000000E+00  0.00000000000E+00  0.21765274457E+04  0.21765274457E+04  0.25500000920E-02 0.  1.
       -2   -1    0    0    0  501  0.00000000000E+00  0.00000000000E+00 -0.14148080149E+04  0.14148080149E+04  0.25500000920E-02 0. -1.
    10030    2    1    2    0    0  0.00000000000E+00  0.00000000000E+00  0.76171943081E+03  0.35913354606E+04  0.35096258917E+04 0.  0.
        2    1    3    3  502    0 -0.13567195245E+04  0.98066609907E+03  0.91939619513E+03  0.19098908947E+04  0.25500000920E-02 0. -1.
       -2    1    3    3    0  502  0.13567195245E+04 -0.98066609907E+03 -0.15767676432E+03  0.16814445659E+04  0.25500000920E-02 0.  1.
</event>
<event>
 5   0  0.1496000E-07  0.3695333E+04  0.7818609E-02  0.8068997E-01
       -1   -1    0    0    0  501  0.00000000000E+00  0.00000000000E+00  0.14543542853E+04  0.14543542853E+04  0.50400001928E-02 0.  1.
        1   -1    0    0  501    0  0.00000000000E+00  0.00000000000E+00 -0.23473456696E+04  0.23473456696E+04  0.50400001928E-02 0. -1.
    10030    2    1    2    0    0  0.00000000000E+00  0.00000000000E+00 -0.89299138432E+03  0.38016999549E+04  0.36953333997E+04 0.  0.
        5    1    3    3  502    0 -0.15381043353E+04  0.70205815282E+03  0.32006891217E+03  0.17207895847E+04  0.46999998093E+01 0.  1.
       -5    1    3    3    0  502  0.15381043353E+04 -0.70205815282E+03 -0.12130602965E+04  0.20809103703E+04  0.46999998093E+01 0. -1.
</event>
<event>
 5   0  0.4857514E-07  0.3484080E+04  0.7818609E-02  0.8117573E-01
       -2   -1    0    0    0  501  0.00000000000E+00  0.00000000000E+00  0.18440555099E+04  0.18440555099E+04  0.25500000920E-02 0.  1.
        2   -1    0    0  501    0  0.00000000000E+00  0.00000000000E+00 -0.16456679188E+04  0.16456679188E+04  0.25500000920E-02 0. -1.
    10030    2    1    2    0    0  0.00000000000E+00  0.00000000000E+00  0.19838759112E+03  0.34897234287E+04  0.34840797885E+04 0.  0.
        5    1    3    3  502    0 -0.10454277204E+04 -0.13835877096E+04 -0.66745425157E+02  0.17354282211E+04  0.46999998093E+01 0.  1.
       -5    1    3    3    0  502  0.10454277204E+04  0.13835877096E+04  0.26513301627E+03  0.17542952076E+04  0.46999998093E+01 0. -1.
</event>
<event>
 5   0  0.1496000E-07  0.3742871E+04  0.7818609E-02  0.8058527E-01
        1   -1    0    0  501    0  0.00000000000E+00  0.00000000000E+00  0.20532999680E+04  0.20532999680E+04  0.50400001928E-02 0.  1.
       -1   -1    0    0    0  501  0.00000000000E+00  0.00000000000E+00 -0.17056792555E+04  0.17056792555E+04  0.50400001928E-02 0. -1.
    10030    2    1    2    0    0  0.00000000000E+00  0.00000000000E+00  0.34762071255E+03  0.37589792235E+04  0.37428711763E+04 0.  0.
        2    1    3    3  502    0 -0.64258206230E+03 -0.83425148039E+02  0.19370426136E+04  0.20425487874E+04  0.25500000920E-02 0.  1.
       -2    1    3    3    0  502  0.64258206230E+03  0.83425148039E+02 -0.15894219011E+04  0.17164304360E+04  0.25500000920E-02 0. -1.
</event>
<event>
 5   0  0.1496000E-07  0.3759187E+04  0.7818609E-02  0.8054970E-01
        1   -1    0    0  501    0  0.00000000000E+00  0.00000000000E+00  0.22900801798E+04  0.22900801798E+04  0.50400001928E-02 0.  1.
       -1   -1    0    0    0  501  0.00000000000E+00  0.00000000000E+00 -0.15426846231E+04  0.15426846231E+04  0.50400001928E-02 0. -1.
    10030    2    1    2    0    0  0.00000000000E+00  0.00000000000E+00  0.74739555678E+03  0.38327648029E+04  0.37591868690E+04 0.  0.
        2    1    3    3  502    0 -0.16167829757E+04 -0.60206787334E+03 -0.38682329945E+03  0.17680795173E+04  0.25500000920E-02 0. -1.
       -2    1    3    3    0  502  0.16167829757E+04  0.60206787334E+03  0.11342188562E+04  0.20646852856E+04  0.25500000920E-02 0.  1.
</event>
<event>
 5   0  0.1496287E-07  0.3590593E+04  0.7818609E-02  0.8092650E-01
        1   -1    0    0  501    0  0.00000000000E+00  0.00000000000E+00  0.22213608798E+04  0.22213608798E+04  0.50400001928E-02 0.  1.
       -1   -1    0    0    0  501  0.00000000000E+00  0.00000000000E+00 -0.14509523678E+04  0.14509523678E+04  0.50400001928E-02 0. -1.
    10030    2    1    2    0    0  0.00000000000E+00  0.00000000000E+00  0.77040851203E+03  0.36723132476E+04  0.35905926131E+04 0.  0.
        1    1    3    3  502    0  0.62449033111E+03 -0.49840890711E+03 -0.12590832304E+04  0.14912042763E+04  0.50400001928E-02 0. -1.
       -1    1    3    3    0  502 -0.62449033111E+03  0.49840890711E+03  0.20294917425E+04  0.21811089714E+04  0.50400001928E-02 0.  1.
</event>
<event>
 5   0  0.1496000E-07  0.3688919E+04  0.7818609E-02  0.8070422E-01
        1   -1    0    0  501    0  0.00000000000E+00  0.00000000000E+00  0.18427562757E+04  0.18427562758E+04  0.50400001928E-02 0. -1.
       -1   -1    0    0    0  501  0.00000000000E+00  0.00000000000E+00 -0.18461638194E+04  0.18461638194E+04  0.50400001928E-02 0.  1.
    10030    2    1    2    0    0  0.00000000000E+00  0.00000000000E+00 -0.34075436432E+01  0.36889200952E+04  0.36889185213E+04 0.  0.
        2    1    3    3  502    0  0.54121245197E+03  0.27690618042E+03  0.17396877984E+04  0.18428514826E+04  0.25500000920E-02 0. -1.
       -2    1    3    3    0  502 -0.54121245197E+03 -0.27690618042E+03 -0.17430953420E+04  0.18460686126E+04  0.25500000920E-02 0.  1.
</event>
<event>
 5   0  0.4824268E-07  0.3632158E+04  0.7818609E-02  0.8083165E-01
       -2   -1    0    0    0  501  0.00000000000E+00  0.00000000000E+00  0.13322644348E+04  0.13322644348E+04  0.25500000920E-02 0.  1.
        2   -1    0    0  501    0  0.00000000000E+00  0.00000000000E+00 -0.24755921333E+04  0.24755921333E+04  0.25500000920E-02 0. -1.
    10030    2    1    2    0    0  0.00000000000E+00  0.00000000000E+00 -0.11433276985E+04  0.38078565680E+04  0.36321582312E+04 0.  0.
        1    1    3    3  502    0  0.16209403953E+04 -0.21776031684E+03 -0.13993316027E+04  0.21524396055E+04  0.50400001928E-02 0. -1.
       -1    1    3    3    0  502 -0.16209403953E+04  0.21776031684E+03  0.25600390423E+03  0.16554169625E+04  0.50400001928E-02 0.  1.
</event>
<event>
 5   0  0.4824268E-07  0.3693242E+04  0.7818609E-02  0.8069461E-01
       -2   -1    0    0    0  501  0.00000000000E+00  0.00000000000E+00  0.21437182175E+04  0.21437182175E+04  0.25500000920E-02 0.  1.
        2   -1    0    0  501    0  0.00000000000E+00  0.00000000000E+00 -0.15906980370E+04  0.15906980370E+04  0.25500000920E-02 0. -1.
    10030    2    1    2    0    0  0.00000000000E+00  0.00000000000E+00  0.55302018048E+03  0.37344162546E+04  0.36932415900E+04 0.  0.
        1    1    3    3  502    0  0.14403961117E+04 -0.11552898731E+04  0.25231190115E+03  0.18636246792E+04  0.50400001928E-02 0. -1.
       -1    1    3    3    0  502 -0.14403961117E+04  0.11552898731E+04  0.30070827933E+03  0.18707915754E+04  0.50400001928E-02 0.  1.
</event>
<event>
 5   0  0.1522273E-07  0.3685365E+04  0.7818609E-02  0.8071213E-01
       -1   -1    0    0    0  501  0.00000000000E+00  0.00000000000E+00  0.23781103004E+04  0.23781103004E+04  0.50400001928E-02 0. -1.
        1   -1    0    0  501    0  0.00000000000E+00  0.00000000000E+00 -0.14278055620E+04  0.14278055620E+04  0.50400001928E-02 0.  1.
    10030    2    1    2    0    0  0.00000000000E+00  0.00000000000E+00  0.95030473843E+03  0.38059158624E+04  0.36853651727E+04 0.  0.
        4    1    3    3  502    0  0.29725739711E+02  0.31996196548E+03  0.23489511969E+04  0.23708295209E+04  0.12699999809E+01 0. -1.
       -4    1    3    3    0  502 -0.29725739711E+02 -0.31996196548E+03 -0.13986464585E+04  0.14350863415E+04  0.12699999809E+01 0.  1.
</event>
<event>
 5   0  0.4857514E-07  0.3596900E+04  0.7818609E-02  0.8091202E-01
        2   -1    0    0  501    0  0.00000000000E+00  0.00000000000E+00  0.12635469799E+04  0.12635469799E+04  0.25500000920E-02 0.  1.
       -2   -1    0    0    0  501  0.00000000000E+00  0.00000000000E+00 -0.25597963770E+04  0.25597963770E+04  0.25500000920E-02 0. -1.
    10030    2    1    2    0    0  0.00000000000E+00  0.00000000000E+00 -0.12962493972E+04  0.38233433569E+04  0.35969003218E+04 0.  0.
        5    1    3    3  502    0  0.30451916910E+03 -0.17744180122E+03  0.12264722113E+04  0.12761166452E+04  0.46999998093E+01 0.  1.
       -5    1    3    3    0  502 -0.30451916910E+03  0.17744180122E+03 -0.25227216084E+04  0.25472267117E+04  0.46999998093E+01 0. -1.
</event>
<event>
 5   0  0.1496000E-07  0.3659669E+04  0.7818609E-02  0.8076959E-01
       -1   -1    0    0    0  501  0.00000000000E+00  0.00000000000E+00  0.16436298678E+04  0.16436298678E+04  0.50400001928E-02 0. -1.
        1   -1    0    0  501    0  0.00000000000E+00  0.00000000000E+00 -0.20371344538E+04  0.20371344538E+04  0.50400001928E-02 0.  1.
    10030    2    1    2    0    0  0.00000000000E+00  0.00000000000E+00 -0.39350458598E+03  0.36807643216E+04  0.36596694020E+04 0.  0.
        5    1    3    3  502    0  0.15499809172E+04 -0.45869192189E+03  0.66576528450E+03  0.17481717956E+04  0.46999998093E+01 0.  1.
       -5    1    3    3    0  502 -0.15499809172E+04  0.45869192189E+03 -0.10592698705E+04  0.19325925260E+04  0.46999998093E+01 0. -1.
</event>
<event>
 5   0  0.1496000E-07  0.3855590E+04  0.7818609E-02  0.8034330E-01
        1   -1    0    0  501    0  0.00000000000E+00  0.00000000000E+00  0.15121486625E+04  0.15121486625E+04  0.50400001928E-02 0.  1.
       -1   -1    0    0    0  501  0.00000000000E+00  0.00000000000E+00 -0.24576904090E+04  0.24576904090E+04  0.50400001928E-02 0. -1.
    10030    2    1    2    0    0  0.00000000000E+00  0.00000000000E+00 -0.94554174653E+03  0.39698390715E+04  0.38555898458E+04 0.  0.
        2    1    3    3  502    0 -0.96773911756E+03  0.79117653352E+03 -0.19838814636E+04  0.23448379408E+04  0.25500000920E-02 0. -1.
       -2    1    3    3    0  502  0.96773911756E+03 -0.79117653352E+03  0.10383397171E+04  0.16250011307E+04  0.25500000920E-02 0.  1.
</event>
<event>
 5   0  0.4857514E-07  0.3692355E+04  0.7818609E-02  0.8069658E-01
        2   -1    0    0  501    0  0.00000000000E+00  0.00000000000E+00  0.19273950379E+04  0.19273950379E+04  0.25500000920E-02 0. -1.
       -2   -1    0    0    0  501  0.00000000000E+00  0.00000000000E+00 -0.17683826624E+04  0.17683826624E+04  0.25500000920E-02 0.  1.
    10030    2    1    2    0    0  0.00000000000E+00  0.00000000000E+00  0.15901237556E+03  0.36957777003E+04  0.36923553288E+04 0.  0.
        5    1    3    3  502    0  0.18230870300E+04  0.18825815008E+03  0.30166332084E+03  0.18574472534E+04  0.46999998093E+01 0. -1.
       -5    1    3    3    0  502 -0.18230870300E+04 -0.18825815008E+03 -0.14265094528E+03  0.18383304469E+04  0.46999998093E+01 0.  1.
</event>
<event>
 5   0  0.4824268E-07  0.3525567E+04  0.7818609E-02  0.8107758E-01
        2   -1    0    0  501    0  0.00000000000E+00  0.00000000000E+00  0.21430948377E+04  0.21430948378E+04  0.25500000920E-02 0.  1.
       -2   -1    0    0    0  501  0.00000000000E+00  0.00000000000E+00 -0.14499614043E+04  0.14499614043E+04  0.25500000920E-02 0. -1.
    10030    2    1    2    0    0  0.00000000000E+00  0.00000000000E+00  0.69313343349E+03  0.35930562420E+04  0.35255665079E+04 0.  0.
        1    1    3    3  502    0  0.26776239977E+02 -0.13641791699E+04 -0.79090960016E+03  0.15770985291E+04  0.50400001928E-02 0. -1.
       -1    1    3    3    0  502 -0.26776239977E+02  0.13641791699E+04  0.14840430336E+04  0.20159577130E+04  0.50400001928E-02 0.  1.
</event>
<event>
 5   0  0.1522273E-07  0.3684101E+04  0.7818609E-02  0.8071494E-01
       -1   -1    0    0    0  501  0.00000000000E+00  0.00000000000E+00  0.32642670945E+04  0.32642670945E+04  0.50400001928E-02 0. -1.
        1   -1    0    0  501    0  0.00000000000E+00  0.00000000000E+00 -0.10394830390E+04  0.10394830390E+04  0.50400001928E-02 0.  1.
    10030    2    1    2    0    0  0.00000000000E+00  0.00000000000E+00  0.22247840555E+04  0.43037501336E+04  0.36841011276E+04 0.  0.
        4    1    3    3  502    0 -0.50267741506E+03 -0.61835159193E+03  0.30524778184E+04  0.31547845758E+04  0.12699999809E+01 0. -1.
       -4    1    3    3    0  502  0.50267741506E+03  0.61835159193E+03 -0.82769376290E+03  0.11489655578E+04  0.12699999809E+01 0.  1.
</event>
<event>
 5   0  0.1496000E-07  0.3695976E+04  0.7818609E-02  0.8068854E-01
       -3   -1    0    0    0  501  0.00000000000E+00  0.00000000000E+00  0.14913058009E+04  0.14913058043E+04  0.10100000352E+00 0. -1.
        3   -1    0    0  501    0  0.00000000000E+00  0.00000000000E+00 -0.22899790258E+04  0.22899790281E+04  0.10100000352E+00 0.  1.
    10030    2    1    2    0    0  0.00000000000E+00  0.00000000000E+00 -0.79867322491E+03  0.37812848324E+04  0.36959756579E+04 0.  0.
        1    1    3    3  502    0 -0.99019483756E+03 -0.29350666560E+02 -0.19953806084E+04  0.22277547105E+04  0.50400001928E-02 0.  1.
       -1    1    3    3    0  502  0.99019483756E+03  0.29350666560E+02  0.11967073834E+04  0.15535301219E+04  0.50400001928E-02 0. -1.
</event>
<event>
 5   0  0.1496000E-07  0.3665840E+04  0.7818609E-02  0.8075574E-01
       -1   -1    0    0    0  501  0.00000000000E+00  0.00000000000E+00  0.14378479274E+04  0.14378479274E+04  0.50400001928E-02 0. -1.
        1   -1    0    0  501    0  0.00000000000E+00  0.00000000000E+00 -0.23365451206E+04  0.23365451206E+04  0.50400001928E-02 0.  1.
    10030    2    1    2    0    0  0.00000000000E+00  0.00000000000E+00 -0.89869719324E+03  0.37743930480E+04  0.36658404542E+04 0.  0.
        5    1    3    3  502    0 -0.16091376902E+03 -0.12632739981E+04 -0.18066489551E+04  0.22103748489E+04  0.46999998093E+01 0.  1.
       -5    1    3    3    0  502  0.16091376902E+03  0.12632739981E+04  0.90795176188E+03  0.15640181992E+04  0.46999998093E+01 0. -1.
</event>
<event>
 5   0  0.1496000E-07  0.3696140E+04  0.7818609E-02  0.8068818E-01
       -1   -1    0    0    0  501  0.00000000000E+00  0.00000000000E+00  0.22423865278E+04  0.22423865278E+04  0.50400001928E-02 0.  1.
        1   -1    0    0  501    0  0.00000000000E+00  0.00000000000E+00 -0.15230931119E+04  0.15230931119E+04  0.50400001928E-02 0. -1.
    10030    2    1    2    0    0  0.00000000000E+00  0.00000000000E+00  0.71929341591E+03  0.37654796397E+04  0.36961404058E+04 0.  0.
        3    1    3    3  502    0 -0.12357115026E+04 -0.13690686066E+04  0.48032438672E+03  0.19057920385E+04  0.10100000352E+00 0.  1.
       -3    1    3    3    0  502  0.12357115026E+04  0.13690686066E+04  0.23896902919E+03  0.18596876013E+04  0.10100000352E+00 0. -1.
</event>
<event>
 5   0  0.1496000E-07  0.3840270E+04  0.7818609E-02  0.8037568E-01
       -1   -1    0    0    0  501  0.00000000000E+00  0.00000000000E+00  0.18000820436E+04  0.18000820437E+04  0.50400001928E-02 0.  1.
        1   -1    0    0  501    0  0.00000000000E+00  0.00000000000E+00 -0.20481945793E+04  0.20481945793E+04  0.50400001928E-02 0. -1.
    10030    2    1    2    0    0  0.00000000000E+00  0.00000000000E+00 -0.24811253569E+03  0.38482766230E+04  0.38402699302E+04 0.  0.
        5    1    3    3  502    0  0.17613519093E+04  0.64167812410E+03  0.29248433097E+03  0.18972824084E+04  0.46999998093E+01 0. -1.
       -5    1    3    3    0  502 -0.17613519093E+04 -0.64167812410E+03 -0.54059686665E+03  0.19509942146E+04  0.46999998093E+01 0.  1.
</event>
<event>
 5   0  0.1522273E-07  0.3677998E+04  0.7818609E-02  0.8072855E-01
       -1   -1    0    0    0  501  0.00000000000E+00  0.00000000000E+00  0.14391897138E+04  0.14391897138E+04  0.50400001928E-02 0. -1.
        1   -1    0    0  501    0  0.00000000000E+00  0.00000000000E+00 -0.23498765825E+04  0.23498765825E+04  0.50400001928E-02 0.  1.
    10030    2    1    2    0    0  0.00000000000E+00  0.00000000000E+00 -0.91068686869E+03  0.37890662962E+04  0.36779984808E+04 0.  0.
        4    1    3    3  502    0 -0.48632053461E+02  0.13651611829E+04  0.81305003027E+03  0.15896798723E+04  0.12699999809E+01 0. -1.
       -4    1    3    3    0  502  0.48632053461E+02 -0.13651611829E+04 -0.17237368990E+04  0.21993864239E+04  0.12699999809E+01 0.  1.
</event>
<event>
 5   0  0.1496000E-07  0.3705194E+04  0.7818609E-02  0.8066812E-01
       -1   -1    0    0    0  501  0.00000000000E+00  0.00000000000E+00  0.30540239607E+04  0.30540239607E+04  0.50400001928E-02 0.  1.
        1   -1    0    0  501    0  0.00000000000E+00  0.00000000000E+00 -0.11238011941E+04  0.11238011942E+04  0.50400001928E-02 0. -1.
    10030    2    1    2    0    0  0.00000000000E+00  0.00000000000E+00  0.19302227666E+04  0.41778251549E+04  0.37051940700E+04 0.  0.
        5    1    3    3  502    0 -0.15238918409E+04  0.51655159196E+02 -0.22133532823E+03  0.15407550148E+04  0.46999998093E+01 0. -1.
       -5    1    3    3    0  502  0.15238918409E+04 -0.51655159196E+02  0.21515580948E+04  0.26370701401E+04  0.46999998093E+01 0.  1.
</event>
<event>
 5   0  0.4687817E-07  0.3716488E+04  0.7818609E-02  0.8064318E-01
       -2   -1    0    0    0  501  0.00000000000E+00  0.00000000000E+00  0.21174035286E+04  0.21174035286E+04  0.25500000920E-02 0. -1.
        2   -1    0    0  501    0  0.00000000000E+00  0.00000000000E+00 -0.16308043414E+04  0.16308043414E+04  0.25500000920E-02 0.  1.
    10030    2    1    2    0    0  0.00000000000E+00  0.00000000000E+00  0.48659918726E+03  0.37482078700E+04  0.37164880556E+04 0.  0.
        4    1    3    3  502    0  0.88953352690E+03 -0.11033021922E+04 -0.96884171632E+03  0.17167415376E+04  0.12699999809E+01 0.  1.
       -4    1    3    3    0  502 -0.88953352690E+03  0.11033021922E+04  0.14554409036E+04  0.20314663324E+04  0.12699999809E+01 0. -1.
</event>
<event>
 5   0  0.1496000E-07  0.3723938E+04  0.7818609E-02  0.8062678E-01
       -1   -1    0    0    0  501  0.00000000000E+00  0.00000000000E+00  0.13590823400E+04  0.13590823400E+04  0.50400001928E-02 0. -1.
        1   -1    0    0  501    0  0.00000000000E+00  0.00000000000E+00 -0.25509328324E+04  0.25509328324E+04  0.50400001928E-02 0.  1.
    10030    2    1    2    0    0  0.00000000000E+00  0.00000000000E+00 -0.11918504923E+04  0.39100151724E+04  0.37239375736E+04 0.  0.
        5    1    3    3  502    0  0.10506877527E+04 -0.96083982502E+03 -0.18557764486E+04  0.23390353226E+04  0.46999998093E+01 0.  1.
       -5    1    3    3    0  502 -0.10506877527E+04  0.96083982502E+03  0.66392595630E+03  0.15709798498E+04  0.46999998093E+01 0. -1.
</event>
<event>
 5   0  0.4793557E-07  0.3760816E+04  0.7818609E-02  0.8054616E-01
        2   -1    0    0  501    0  0.00000000000E+00  0.00000000000E+00  0.19508264323E+04  0.19508264323E+04  0.25500000920E-02 0.  1.
       -2   -1    0    0    0  501  0.00000000000E+00  0.00000000000E+00 -0.18125315967E+04  0.18125315967E+04  0.25500000920E-02 0. -1.
    10030    2    1    2    0    0  0.00000000000E+00  0.00000000000E+00  0.13829483565E+03  0.37633580290E+04  0.37608161605E+04 0.  0.
        3    1    3    3  502    0  0.28393078614E+03 -0.14478581251E+04  0.12357074884E+04  0.19245474400E+04  0.10100000352E+00 0.  1.
       -3    1    3    3    0  502 -0.28393078614E+03  0.14478581251E+04 -0.10974126528E+04  0.18388105890E+04  0.10100000352E+00 0. -1.
</event>
<event>
 5   0  0.4793557E-07  0.3677795E+04  0.7818609E-02  0.8072901E-01
       -2   -1    0    0    0  501  0.00000000000E+00  0.00000000000E+00  0.16463035674E+04  0.16463035674E+04  0.25500000920E-02 0. -1.
        2   -1    0    0  501    0  0.00000000000E+00  0.00000000000E+00 -0.20540217079E+04  0.20540217079E+04  0.25500000920E-02 0.  1.
    10030    2    1    2    0    0  0.00000000000E+00  0.00000000000E+00 -0.40771814046E+03  0.37003252753E+04  0.36777945920E+04 0.  0.
        3    1    3    3  502    0  0.22097746074E+03 -0.18081845174E+04  0.49039031430E+02  0.18222972107E+04  0.10100000352E+00 0. -1.
       -3    1    3    3    0  502 -0.22097746074E+03  0.18081845174E+04 -0.45675717189E+03  0.18780280646E+04  0.10100000352E+00 0.  1.
</event>
<event>
 5   0  0.1496000E-07  0.3592504E+04  0.7818609E-02  0.8092211E-01
        1   -1    0    0  501    0  0.00000000000E+00  0.00000000000E+00  0.21358258583E+04  0.21358258583E+04  0.50400001928E-02 0.  1.
       -1   -1    0    0    0  501  0.00000000000E+00  0.00000000000E+00 -0.15106672055E+04  0.15106672055E+04  0.50400001928E-02 0. -1.
    10030    2    1    2    0    0  0.00000000000E+00  0.00000000000E+00  0.62515865278E+03  0.36464930639E+04  0.35925044640E+04 0.  0.
        2    1    3    3  502    0  0.17296475695E+04  0.36735108404E+03 -0.82314639378E+01  0.17682463885E+04  0.25500000920E-02 0. -1.
       -2    1    3    3    0  502 -0.17296475695E+04 -0.36735108404E+03  0.63339011672E+03  0.18782466753E+04  0.25500000920E-02 0.  1.
</event>
<event>
 5   0  0.4857514E-07  0.3734443E+04  0.7818609E-02  0.8060371E-01
        2   -1    0    0  501    0  0.00000000000E+00  0.00000000000E+00  0.24057400650E+04  0.24057400650E+04  0.25500000920E-02 0.  1.
       -2   -1    0    0    0  501  0.00000000000E+00  0.00000000000E+00 -0.14492488968E+04  0.14492488968E+04  0.25500000920E-02 0. -1.
    10030    2    1    2    0    0  0.00000000000E+00  0.00000000000E+00  0.95649116820E+03  0.38549889619E+04  0.37344430028E+04 0.  0.
        5    1    3    3  502    0  0.39442346302E+03  0.11345647013E+04 -0.99747626365E+03  0.15613417038E+04  0.46999998093E+01 0. -1.
       -5    1    3    3    0  502 -0.39442346302E+03 -0.11345647013E+04  0.19539674319E+04  0.22936472580E+04  0.46999998093E+01 0.  1.
</event>
<event>
 5   0  0.1496000E-07  0.3711510E+04  0.7818609E-02  0.8065416E-01
        1   -1    0    0  501    0  0.00000000000E+00  0.00000000000E+00  0.15674014581E+04  0.15674014581E+04  0.50400001928E-02 0. -1.
       -1   -1    0    0    0  501  0.00000000000E+00  0.00000000000E+00 -0.21971572696E+04  0.21971572696E+04  0.50400001928E-02 0.  1.
    10030    2    1    2    0    0  0.00000000000E+00  0.00000000000E+00 -0.62975581144E+03  0.37645587277E+04  0.37115104785E+04 0.  0.
        5    1    3    3  502    0  0.87584189845E+03 -0.20102830515E+03  0.13319958426E+04  0.16067813869E+04  0.46999998093E+01 0. -1.
       -5    1    3    3    0  502 -0.87584189845E+03  0.20102830515E+03 -0.19617516540E+04  0.21577773408E+04  0.46999998093E+01 0.  1.
</event>
<event>
 5   0  0.1496000E-07  0.3689207E+04  0.7818609E-02  0.8070358E-01
        1   -1    0    0  501    0  0.00000000000E+00  0.00000000000E+00  0.27988530102E+04  0.27988530102E+04  0.50400001928E-02 0.  1.
       -1   -1    0    0    0  501  0.00000000000E+00  0.00000000000E+00 -0.12156985041E+04  0.12156985041E+04  0.50400001928E-02 0. -1.
    10030    2    1    2    0    0  0.00000000000E+00  0.00000000000E+00  0.15831545061E+04  0.40145515143E+04  0.36892066452E+04 0.  0.
        2    1    3    3  502    0 -0.18873302949E+03 -0.12824703040E+04 -0.63648537858E+03  0.14441135254E+04  0.25500000920E-02 0. -1.
       -2    1    3    3    0  502  0.18873302949E+03  0.12824703040E+04  0.22196398846E+04  0.25704379889E+04  0.25500000920E-02 0.  1.
</event>
<event>
 5   0  0.4857514E-07  0.3668615E+04  0.7818609E-02  0.8074953E-01
        2   -1    0    0  501    0  0.00000000000E+00  0.00000000000E+00  0.18229306556E+04  0.18229306556E+04  0.25500000920E-02 0. -1.
       -2   -1    0    0    0  501  0.00000000000E+00  0.00000000000E+00 -0.18457549958E+04  0.18457549958E+04  0.25500000920E-02 0.  1.
    10030    2    1    2    0    0  0.00000000000E+00  0.00000000000E+00 -0.22824340114E+02  0.36686856514E+04  0.36686146511E+04 0.  0.
        5    1    3    3  502    0 -0.12012211144E+02  0.11918966525E+04 -0.14056770638E+04  0.18430170974E+04  0.46999998093E+01 0.  1.
       -5    1    3    3    0  502  0.12012211144E+02 -0.11918966525E+04  0.13828527237E+04  0.18256685540E+04  0.46999998093E+01 0. -1.
</event>
<event>
 5   0  0.4824268E-07  0.3495684E+04  0.7818609E-02  0.8114813E-01
        2   -1    0    0  501    0  0.00000000000E+00  0.00000000000E+00  0.18272028013E+04  0.18272028013E+04  0.25500000920E-02 0.  1.
       -2   -1    0    0    0  501  0.00000000000E+00  0.00000000000E+00 -0.16719283244E+04  0.16719283244E+04  0.25500000920E-02 0. -1.
    10030    2    1    2    0    0  0.00000000000E+00  0.00000000000E+00  0.15527447684E+03  0.34991311257E+04  0.34956842637E+04 0.  0.
        1    1    3    3  502    0 -0.62394829078E+03  0.14872939343E+04  0.75179772886E+03  0.17794815373E+04  0.50400001928E-02 0.  1.
       -1    1    3    3    0  502  0.62394829078E+03 -0.14872939343E+04 -0.59652325201E+03  0.17196495884E+04  0.50400001928E-02 0. -1.
</event>
<event>
 5   0  0.1496000E-07  0.3715942E+04  0.7818609E-02  0.8064438E-01
       -1   -1    0    0    0  501  0.00000000000E+00  0.00000000000E+00  0.17402107626E+04  0.17402107627E+04  0.50400001928E-02 0. -1.
        1   -1    0    0  501    0  0.00000000000E+00  0.00000000000E+00 -0.19836997646E+04  0.19836997646E+04  0.50400001928E-02 0.  1.
    10030    2    1    2    0    0  0.00000000000E+00  0.00000000000E+00 -0.24348900191E+03  0.37239105272E+04  0.37159417004E+04 0.  0.
        2    1    3    3  502    0  0.16403638713E+04 -0.86787330602E+03 -0.31785776476E+02  0.18560732855E+04  0.25500000920E-02 0. -1.
       -2    1    3    3    0  502 -0.16403638713E+04  0.86787330602E+03 -0.21170322543E+03  0.18678372417E+04  0.25500000920E-02 0.  1.
</event>
<event>
 5   0  0.4824268E-07  0.3716942E+04  0.7818609E-02  0.8064218E-01
       -2   -1    0    0    0  501  0.00000000000E+00  0.00000000000E+00  0.23331641605E+04  0.23331641605E+04  0.25500000920E-02 0.  1.
        2   -1    0    0  501    0  0.00000000000E+00  0.00000000000E+00 -0.14803562657E+04  0.14803562657E+04  0.25500000920E-02 0. -1.
    10030    2    1    2    0    0  0.00000000000E+00  0.00000000000E+00  0.85280789476E+03  0.38135204262E+04  0.37169418526E+04 0.  0.
        1    1    3    3  502    0  0.11726541479E+04 -0.11670761486E+04  0.12950003162E+04  0.21010022147E+04  0.50400001928E-02 0.  1.
       -1    1    3    3    0  502 -0.11726541479E+04  0.11670761486E+04 -0.44219242143E+03  0.17125182115E+04  0.50400001928E-02 0. -1.
</event>
<event>
 5   0  0.1522273E-07  0.3677901E+04  0.7818609E-02  0.8072877E-01
       -1   -1    0    0    0  501  0.00000000000E+00  0.00000000000E+00  0.28061549773E+04  0.28061549773E+04  0.50400001928E-02 0. -1.
        1   -1    0    0  501    0  0.00000000000E+00  0.00000000000E+00 -0.12051148914E+04  0.12051148914E+04  0.50400001928E-02 0.  1.
    10030    2    1    2    0    0  0.00000000000E+00  0.00000000000E+00  0.16010400859E+04  0.40112698687E+04  0.36779011138E+04 0.  0.
        4    1    3    3  502    0  0.17314653010E+04 -0.61571977032E+03  0.72611135340E+03  0.19759357870E+04  0.12699999809E+01 0.  1.
       -4    1    3    3    0  502 -0.17314653010E+04  0.61571977032E+03  0.87492873254E+03  0.20353340817E+04  0.12699999809E+01 0. -1.
</event>
<event>
 5   0  0.4793557E-07  0.3589224E+04  0.7818609E-02  0.8092965E-01
        2   -1    0    0  501    0  0.00000000000E+00  0.00000000000E+00  0.20831702690E+04  0.20831702690E+04  0.25500000920E-02 0.  1.
       -2   -1    0    0    0  501  0.00000000000E+00  0.00000000000E+00 -0.15460244214E+04  0.15460244214E+04  0.25500000920E-02 0. -1.
    10030    2    1    2    0    0  0.00000000000E+00  0.00000000000E+00  0.53714584755E+03  0.36291946904E+04  0.35892239328E+04 0.  0.
        3    1    3    3  502    0 -0.17048616283E+04 -0.42241766999E+03 -0.10382494667E+03  0.17594798917E+04  0.10100000352E+00 0.  1.
       -3    1    3    3    0  502  0.17048616283E+04  0.42241766999E+03  0.64097079423E+03  0.18697147988E+04  0.10100000352E+00 0. -1.
</event>
<event>
 5   0  0.1522273E-07  0.3732163E+04  0.7818609E-02  0.8060871E-01
        1   -1    0    0  501    0  0.00000000000E+00  0.00000000000E+00  0.25660817757E+04  0.25660817757E+04  0.50400001928E-02 0. -1.
       -1   -1    0    0    0  501  0.00000000000E+00  0.00000000000E+00 -0.13570340969E+04  0.13570340969E+04  0.50400001928E-02 0.  1.
    10030    2    1    2    0    0  0.00000000000E+00  0.00000000000E+00  0.12090476788E+04  0.39231158726E+04  0.37321631610E+04 0.  0.
        4    1    3    3  502    0  0.17768679138E+04  0.55097986986E+03  0.75836935107E+03  0.20089709021E+04  0.12699999809E+01 0. -1.
       -4    1    3    3    0  502 -0.17768679138E+04 -0.55097986986E+03  0.45067832771E+03  0.19141449705E+04  0.12699999809E+01 0.  1.
</event>
<event>
 5   0  0.4793557E-07  0.3380127E+04  0.7818609E-02  0.8142801E-01
       -2   -1    0    0    0  501  0.00000000000E+00  0.00000000000E+00  0.15592545241E+04  0.15592545241E+04  0.25500000920E-02 0.  1.
        2   -1    0    0  501    0  0.00000000000E+00  0.00000000000E+00 -0.18318466907E+04  0.18318466907E+04  0.25500000920E-02 0. -1.
    10030    2    1    2    0    0  0.00000000000E+00  0.00000000000E+00 -0.27259216660E+03  0.33911012148E+04  0.33801273585E+04 0.  0.
        3    1    3    3  502    0  0.92668883383E+02 -0.12803051906E+04 -0.12392042171E+04  0.17842073884E+04  0.10100000352E+00 0. -1.
       -3    1    3    3    0  502 -0.92668883383E+02  0.12803051906E+04  0.96661205053E+03  0.16068938264E+04  0.10100000352E+00 0.  1.
</event>
<event>
 5   0  0.4687817E-07  0.3642846E+04  0.7818609E-02  0.8080747E-01
       -2   -1    0    0    0  501  0.00000000000E+00  0.00000000000E+00  0.27926448920E+04  0.27926448920E+04  0.25500000920E-02 0.  1.
        2   -1    0    0  501    0  0.00000000000E+00  0.00000000000E+00 -0.11879715404E+04  0.11879715404E+04  0.25500000920E-02 0. -1.
    10030    2    1    2    0    0  0.00000000000E+00  0.00000000000E+00  0.16046733516E+04  0.39806164324E+04  0.36428464992E+04 0.  0.
        4    1    3    3  502    0  0.16519116549E+04 -0.22849621020E+01 -0.36118740793E+02  0.16523085405E+04  0.12699999809E+01 0. -1.
       -4    1    3    3    0  502 -0.16519116549E+04  0.22849621020E+01  0.16407920924E+04  0.23283078920E+04  0.12699999809E+01 0.  1.
</event>
<event>
 5   0  0.4758908E-07  0.3677097E+04  0.7818609E-02  0.8073056E-01
        2   -1    0    0  501    0  0.00000000000E+00  0.00000000000E+00  0.23451507489E+04  0.23451507489E+04  0.25500000920E-02 0.  1.
       -2   -1    0    0    0  501  0.00000000000E+00  0.00000000000E+00 -0.14413831556E+04  0.14413831556E+04  0.25500000920E-02 0. -1.
    10030    2    1    2    0    0  0.00000000000E+00  0.00000000000E+00  0.90376759326E+03  0.37865339046E+04  0.36770971088E+04 0.  0.
        2    1    3    3  502    0  0.13505483995E+04  0.30562615421E+03 -0.79360545127E+03  0.15959943414E+04  0.25500000920E-02 0. -1.
       -2    1    3    3    0  502 -0.13505483995E+04 -0.30562615421E+03  0.16973730445E+04  0.21905395632E+04  0.25500000920E-02 0.  1.
</event>
<event>
 5   0  0.4758908E-07  0.3653951E+04  0.7818609E-02  0.8078244E-01
       -2   -1    0    0    0  501  0.00000000000E+00  0.00000000000E+00  0.13168683682E+04  0.13168683682E+04  0.25500000920E-02 0.  1.
        2   -1    0    0  501    0  0.00000000000E+00  0.00000000000E+00 -0.25346794216E+04  0.25346794216E+04  0.25500000920E-02 0. -1.
    10030    2    1    2    0    0  0.00000000000E+00  0.00000000000E+00 -0.12178110535E+04  0.38515477898E+04  0.36539508228E+04 0.  0.
        2    1    3    3  502    0 -0.13439302989E+04  0.53438577297E+03 -0.17855707985E+04  0.22978206803E+04  0.25500000920E-02 0. -1.
       -2    1    3    3    0  502  0.13439302989E+04 -0.53438577297E+03  0.56775974500E+03  0.15537271095E+04  0.25500000920E-02 0.  1.
</event>
<event>
 5   0  0.1522273E-07  0.3061929E+04  0.7818609E-02  0.8226264E-01
       -1   -1    0    0    0  501  0.00000000000E+00  0.00000000000E+00  0.10905282406E+04  0.10905282406E+04  0.50400001928E-02 0. -1.
        1   -1    0    0  501    0  0.00000000000E+00  0.00000000000E+00 -0.21492817860E+04  0.21492817860E+04  0.50400001928E-02 0.  1.
    10030    2    1    2    0    0  0.00000000000E+00  0.00000000000E+00 -0.10587535454E+04  0.32398100266E+04  0.30619291204E+04 0.  0.
        4    1    3    3  502    0 -0.18528854256E+03  0.94770897383E+03  0.72764948489E+03  0.12091151843E+04  0.12699999809E+01 0. -1.
       -4    1    3    3    0  502  0.18528854256E+03 -0.94770897383E+03 -0.17864030303E+04  0.20306948423E+04  0.12699999809E+01 0.  1.
</event>
<event>
 5   0  0.4758908E-07  0.3694100E+04  0.7818609E-02  0.8069271E-01
        2   -1    0    0  501    0  0.00000000000E+00  0.00000000000E+00  0.16655239487E+04  0.16655239487E+04  0.25500000920E-02 0.  1.
       -2   -1    0    0    0  501  0.00000000000E+00  0.00000000000E+00 -0.20483605979E+04  0.20483605979E+04  0.25500000920E-02 0. -1.
    10030    2    1    2    0    0  0.00000000000E+00  0.00000000000E+00 -0.38283664925E+03  0.37138845466E+04  0.36940999615E+04 0.  0.
        2    1    3    3  502    0 -0.13590048863E+04  0.70417308346E+03  0.84796567583E+03  0.17497999313E+04  0.25500000920E-02 0.  1.
       -2    1    3    3    0  502  0.13590048863E+04 -0.70417308346E+03 -0.12308023251E+04  0.19640846152E+04  0.25500000920E-02 0. -1.
</event>
<event>
 5   0  0.4857514E-07  0.3613770E+04  0.7818609E-02  0.8087345E-01
        2   -1    0    0  501    0  0.00000000000E+00  0.00000000000E+00  0.22648147802E+04  0.22648147802E+04  0.25500000920E-02 0.  1.
       -2   -1    0    0    0  501  0.00000000000E+00  0.00000000000E+00 -0.14415454526E+04  0.14415454526E+04  0.25500000920E-02 0. -1.
    10030    2    1    2    0    0  0.00000000000E+00  0.00000000000E+00  0.82326932759E+03  0.37063602328E+04  0.36137700244E+04 0.  0.
        5    1    3    3  502    0 -0.15240446601E+04  0.70872916923E+03  0.10918020645E+04  0.20042612104E+04  0.46999998093E+01 0.  1.
       -5    1    3    3    0  502  0.15240446601E+04 -0.70872916923E+03 -0.26853273690E+03  0.17020990224E+04  0.46999998093E+01 0. -1.
</event>
<event>
 5   0  0.4857514E-07  0.3714093E+04  0.7818609E-02  0.8064846E-01
       -2   -1    0    0    0  501  0.00000000000E+00  0.00000000000E+00  0.27633617397E+04  0.27633617397E+04  0.25500000920E-02 0. -1.
        2   -1    0    0  501    0  0.00000000000E+00  0.00000000000E+00 -0.12479802243E+04  0.12479802243E+04  0.25500000920E-02 0.  1.
    10030    2    1    2    0    0  0.00000000000E+00  0.00000000000E+00  0.15153815155E+04  0.40113419640E+04  0.37140925157E+04 0.  0.
        5    1    3    3  502    0  0.43243469354E+03 -0.77892615030E+03  0.25174726510E+04  0.26704711851E+04  0.46999998093E+01 0. -1.
       -5    1    3    3    0  502 -0.43243469354E+03  0.77892615030E+03 -0.10020911356E+04  0.13408707789E+04  0.46999998093E+01 0.  1.
</event>
<event>
 5   0  0.4793557E-07  0.3789842E+04  0.7818609E-02  0.8048338E-01
        2   -1    0    0  501    0  0.00000000000E+00  0.00000000000E+00  0.17049750433E+04  0.17049750433E+04  0.25500000920E-02 0.  1.
       -2   -1    0    0    0  501  0.00000000000E+00  0.00000000000E+00 -0.21060280748E+04  0.21060280749E+04  0.25500000920E-02 0. -1.
    10030    2    1    2    0    0  0.00000000000E+00  0.00000000000E+00 -0.40105303152E+03  0.38110031182E+04  0.37898418480E+04 0.  0.
        3    1    3    3  502    0  0.10718223261E+04  0.12931879957E+04 -0.10826859448E+04  0.19983360970E+04  0.10100000352E+00 0. -1.
       -3    1    3    3    0  502 -0.10718223261E+04 -0.12931879957E+04  0.68163291328E+03  0.18126670212E+04  0.10100000352E+00 0.  1.
</event>
<event>
 5   0  0.1496000E-07  0.3685010E+04  0.7818609E-02  0.8071292E-01
       -1   -1    0    0    0  501  0.00000000000E+00  0.00000000000E+00  0.14526789261E+04  0.14526789261E+04  0.50400001928E-02 0.  1.
        1   -1    0    0  501    0  0.00000000000E+00  0.00000000000E+00 -0.23369412076E+04  0.23369412076E+04  0.50400001928E-02 0. -1.
    10030    2    1    2    0    0  0.00000000000E+00  0.00000000000E+00 -0.88426228150E+03  0.37896201338E+04  0.36850103088E+04 0.  0.
        5    1    3    3  502    0 -0.74936591050E+03  0.38814634146E+03  0.12422277484E+04  0.15017851774E+04  0.46999998093E+01 0.  1.
       -5    1    3    3    0  502  0.74936591050E+03 -0.38814634146E+03 -0.21264900299E+04  0.22878349564E+04  0.46999998093E+01 0. -1.
</event>
<event>
 5   0  0.1496287E-07  0.3700693E+04  0.7818609E-02  0.8067808E-01
       -1   -1    0    0    0  501  0.00000000000E+00  0.00000000000E+00  0.13836670285E+04  0.13836670285E+04  0.50400001928E-02 0. -1.
        1   -1    0    0  501    0  0.00000000000E+00  0.00000000000E+00 -0.24744265416E+04  0.24744265416E+04  0.50400001928E-02 0.  1.
    10030    2    1    2    0    0  0.00000000000E+00  0.00000000000E+00 -0.10907595131E+04  0.38580935701E+04  0.37006931351E+04 0.  0.
        1    1    3    3  502    0  0.41941741816E+03  0.14219642522E+04 -0.16996706682E+04  0.22553877018E+04  0.50400001928E-02 0. -1.
       -1    1    3    3    0  502 -0.41941741816E+03 -0.14219642522E+04  0.60891115509E+03  0.16027058682E+04  0.50400001928E-02 0.  1.
</event>
<event>
 5   0  0.4793557E-07  0.3549543E+04  0.7818609E-02  0.8102148E-01
       -2   -1    0    0    0  501  0.00000000000E+00  0.00000000000E+00  0.11642094012E+04  0.11642094012E+04  0.25500000920E-02 0. -1.
        2   -1    0    0  501    0  0.00000000000E+00  0.00000000000E+00 -0.27055393239E+04  0.27055393239E+04  0.25500000920E-02 0.  1.
    10030    2    1    2    0    0  0.00000000000E+00  0.00000000000E+00 -0.15413299227E+04  0.38697487250E+04  0.35495432472E+04 0.  0.
        3    1    3    3  502    0  0.30881420382E+03 -0.66647915314E+03 -0.25320392326E+04  0.26364338338E+04  0.10100000352E+00 0.  1.
       -3    1    3    3    0  502 -0.30881420382E+03  0.66647915314E+03  0.99070930991E+03  0.12333148913E+04  0.10100000352E+00 0. -1.
</event>
<event>
 5   0  0.1496000E-07  0.3664973E+04  0.7818609E-02  0.8075769E-01
       -1   -1    0    0    0  501  0.00000000000E+00  0.00000000000E+00  0.16571869376E+04  0.16571869376E+04  0.50400001928E-02 0.  1.
        1   -1    0    0  501    0  0.00000000000E+00  0.00000000000E+00 -0.20263292638E+04  0.20263292638E+04  0.50400001928E-02 0. -1.
    10030    2    1    2    0    0  0.00000000000E+00  0.00000000000E+00 -0.36914232623E+03  0.36835162014E+04  0.36649727896E+04 0.  0.
        2    1    3    3  502    0 -0.13988741388E+04 -0.36618080650E+03  0.94676582938E+03  0.17283815479E+04  0.25500000920E-02 0.  1.
       -2    1    3    3    0  502  0.13988741388E+04  0.36618080650E+03 -0.13159081556E+04  0.19551346535E+04  0.25500000920E-02 0. -1.
</event>
<event>
 5   0  0.4687817E-07  0.3956944E+04  0.7818609E-02  0.8013289E-01
        2   -1    0    0  501    0  0.00000000000E+00  0.00000000000E+00  0.18872925410E+04  0.18872925410E+04  0.25500000920E-02 0.  1.
       -2   -1    0    0    0  501  0.00000000000E+00  0.00000000000E+00 -0.20740569430E+04  0.20740569430E+04  0.25500000920E-02 0. -1.
    10030    2    1    2    0    0  0.00000000000E+00  0.00000000000E+00 -0.18676440203E+03  0.39613494840E+04  0.39569443757E+04 0.  0.
        4    1    3    3  502    0  0.10255753082E+04 -0.16900016766E+04 -0.13041970516E+02  0.19768869684E+04  0.12699999809E+01 0.  1.
       -4    1    3    3    0  502 -0.10255753082E+04  0.16900016766E+04 -0.17372243151E+03  0.19844625156E+04  0.12699999809E+01 0. -1.
</event>
<event>
 5   0  0.1522273E-07  0.3680040E+04  0.7818609E-02  0.8072400E-01
        1   -1    0    0  501    0  0.00000000000E+00  0.00000000000E+00  0.25058413084E+04  0.25058413084E+04  0.50400001928E-02 0.  1.
       -1   -1    0    0    0  501  0.00000000000E+00  0.00000000000E+00 -0.13511125635E+04  0.13511125636E+04  0.50400001928E-02 0. -1.
    10030    2    1    2    0    0  0.00000000000E+00  0.00000000000E+00  0.11547287449E+04  0.38569538720E+04  0.36800400400E+04 0.  0.
        4    1    3    3  502    0 -0.10461023377E+04 -0.15134871998E+04  0.60506320586E+03  0.19367696561E+04  0.12699999809E+01 0. -1.
       -4    1    3    3    0  502  0.10461023377E+04  0.15134871998E+04  0.54966553901E+03  0.19201842158E+04  0.12699999809E+01 0.  1.
</event>
<event>
 5   0  0.4687817E-07  0.3710178E+04  0.7818609E-02  0.8065710E-01
       -2   -1    0    0    0  501  0.00000000000E+00  0.00000000000E+00  0.15093648540E+04  0.15093648540E+04  0.25500000920E-02 0.  1.
        2   -1    0    0  501    0  0.00000000000E+00  0.00000000000E+00 -0.22800023675E+04  0.22800023675E+04  0.25500000920E-02 0. -1.
    10030    2    1    2    0    0  0.00000000000E+00  0.00000000000E+00 -0.77063751348E+03  0.37893672214E+04  0.37101781307E+04 0.  0.
        4    1    3    3  502    0  0.46530270033E+03 -0.12344494194E+04  0.94673506658E+03  0.16237859684E+04  0.12699999809E+01 0.  1.
       -4    1    3    3    0  502 -0.46530270033E+03  0.12344494194E+04 -0.17173725801E+04  0.21655812530E+04  0.12699999809E+01 0. -1.
</event>
<event>
 5   0  0.4824268E-07  0.3649667E+04  0.7818609E-02  0.8079209E-01
        2   -1    0    0  501    0  0.00000000000E+00  0.00000000000E+00  0.23263050504E+04  0.23263050504E+04  0.25500000920E-02 0.  1.
       -2   -1    0    0    0  501  0.00000000000E+00  0.00000000000E+00 -0.14314623873E+04  0.14314623873E+04  0.25500000920E-02 0. -1.
    10030    2    1    2    0    0  0.00000000000E+00  0.00000000000E+00  0.89484266308E+03  0.37577674377E+04  0.36496674814E+04 0.  0.
        1    1    3    3  502    0  0.53369772430E+03  0.91493293588E+03 -0.10825534159E+04  0.15145485917E+04  0.50400001928E-02 0. -1.
       -1    1    3    3    0  502 -0.53369772430E+03 -0.91493293588E+03  0.19773960790E+04  0.22432188461E+04  0.50400001928E-02 0.  1.
</event>
<event>
 5   0  0.4758908E-07  0.3709918E+04  0.7818609E-02  0.8065767E-01
       -2   -1    0    0    0  501  0.00000000000E+00  0.00000000000E+00  0.14887971263E+04  0.14887971263E+04  0.25500000920E-02 0. -1.
        2   -1    0    0  501    0  0.00000000000E+00  0.00000000000E+00 -0.23111763597E+04  0.23111763597E+04  0.25500000920E-02 0.  1.
    10030    2    1    2    0    0  0.00000000000E+00  0.00000000000E+00 -0.82237923343E+03  0.37999734861E+04  0.37099179090E+04 0.  0.
        2    1    3    3  502    0 -0.35984309675E+03 -0.16710849857E+04  0.32661544368E+03  0.17403131131E+04  0.25500000920E-02 0.  1.
       -2    1    3    3    0  502  0.35984309675E+03  0.16710849857E+04 -0.11489946771E+04  0.20596603729E+04  0.25500000920E-02 0. -1.
</event>
<event>
 5   0  0.1496000E-07  0.3756084E+04  0.7818609E-02  0.8055645E-01
        1   -1    0    0  501    0  0.00000000000E+00  0.00000000000E+00  0.22187007973E+04  0.22187007973E+04  0.50400001928E-02 0.  1.
       -1   -1    0    0    0  501  0.00000000000E+00  0.00000000000E+00 -0.15896876107E+04  0.15896876107E+04  0.50400001928E-02 0. -1.
    10030    2    1    2    0    0  0.00000000000E+00  0.00000000000E+00  0.62901318658E+03  0.38083884080E+04  0.37560836888E+04 0.  0.
        3    1    3    3  502    0  0.64750432672E+02  0.14438613282E+04 -0.90140634951E+03  0.17033677145E+04  0.10100000352E+00 0. -1.
       -3    1    3    3    0  502 -0.64750432672E+02 -0.14438613282E+04  0.15304195361E+04  0.21050206935E+04  0.10100000352E+00 0.  1.
</event>
<event>
 5   0  0.1496287E-07  0.3699285E+04  0.7818609E-02  0.8068120E-01
        1   -1    0    0  501    0  0.00000000000E+00  0.00000000000E+00  0.15967759692E+04  0.15967759692E+04  0.50400001928E-02 0.  1.
       -1   -1    0    0    0  501  0.00000000000E+00  0.00000000000E+00 -0.21425532939E+04  0.21425532939E+04  0.50400001928E-02 0. -1.
    10030    2    1    2    0    0  0.00000000000E+00  0.00000000000E+00 -0.54577732474E+03  0.37393292632E+04  0.36992851269E+04 0.  0.
        1    1    3    3  502    0 -0.13540972456E+04 -0.43348208100E+03 -0.14687809685E+04  0.20442122196E+04  0.50400001928E-02 0. -1.
       -1    1    3    3    0  502  0.13540972456E+04  0.43348208100E+03  0.92300364381E+03  0.16951170436E+04  0.50400001928E-02 0.  1.
</event>
<event>
 5   0  0.1496000E-07  0.3924904E+04  0.7818609E-02  0.8019870E-01
        1   -1    0    0  501    0  0.00000000000E+00  0.00000000000E+00  0.19068033839E+04  0.19068033839E+04  0.50400001928E-02 0. -1.
       -1   -1    0    0    0  501  0.00000000000E+00  0.00000000000E+00 -0.20197244453E+04  0.20197244453E+04  0.50400001928E-02 0.  1.
    10030    2    1    2    0    0  0.00000000000E+00  0.00000000000E+00 -0.11292106139E+03  0.39265278293E+04  0.39249037731E+04 0.  0.
        2    1    3    3  502    0  0.17044608768E+03 -0.10933887719E+04 -0.16778305434E+04  0.20098920886E+04  0.25500000920E-02 0.  1.
       -2    1    3    3    0  502 -0.17044608768E+03  0.10933887719E+04  0.15649094821E+04  0.19166357407E+04  0.25500000920E-02 0. -1.
</event>
<event>
 5   0  0.4758908E-07  0.3604163E+04  0.7818609E-02  0.8089539E-01
       -2   -1    0    0    0  501  0.00000000000E+00  0.00000000000E+00  0.11344168261E+04  0.11344168261E+04  0.25500000920E-02 0.  1.
        2   -1    0    0  501    0  0.00000000000E+00  0.00000000000E+00 -0.28627019081E+04  0.28627019081E+04  0.25500000920E-02 0. -1.
    10030    2    1    2    0    0  0.00000000000E+00  0.00000000000E+00 -0.17282850820E+04  0.39971187341E+04  0.36041627114E+04 0.  0.
        2    1    3    3  502    0  0.16222278555E+04  0.52080216594E+03 -0.21307666330E+03  0.17170497301E+04  0.25500000920E-02 0. -1.
       -2    1    3    3    0  502 -0.16222278555E+04 -0.52080216594E+03 -0.15152084187E+04  0.22800690041E+04  0.25500000920E-02 0.  1.
</event>
<event>
 5   0  0.4857514E-07  0.3698070E+04  0.7818609E-02  0.8068390E-01
       -2   -1    0    0    0  501  0.00000000000E+00  0.00000000000E+00  0.16849024013E+04  0.16849024013E+04  0.25500000920E-02 0. -1.
        2   -1    0    0  501    0  0.00000000000E+00  0.00000000000E+00 -0.20291559250E+04  0.20291559251E+04  0.25500000920E-02 0.  1.
    10030    2    1    2    0    0  0.00000000000E+00  0.00000000000E+00 -0.34425352376E+03  0.37140583263E+04  0.36980695995E+04 0.  0.
        5    1    3    3  502    0  0.32847641522E+03 -0.16244662027E+04 -0.99550081742E+03  0.19333471407E+04  0.46999998093E+01 0.  1.
       -5    1    3    3    0  502 -0.32847641522E+03  0.16244662027E+04  0.65124729367E+03  0.17807111856E+04  0.46999998093E+01 0. -1.
</event>
<event>
 5   0  0.1496287E-07  0.3781889E+04  0.7818609E-02  0.8050053E-01
        1   -1    0    0  501    0  0.00000000000E+00  0.00000000000E+00  0.11752273907E+04  0.11752273907E+04  0.50400001928E-02 0.  1.
       -1   -1    0    0    0  501  0.00000000000E+00  0.00000000000E+00 -0.30425354207E+04  0.30425354207E+04  0.50400001928E-02 0. -1.
    10030    2    1    2    0    0  0.00000000000E+00  0.00000000000E+00 -0.18673080300E+04  0.42177628114E+04  0.37818889267E+04 0.  0.
        1    1    3    3  502    0 -0.60204621938E+03  0.15689791657E+04 -0.19004668560E+04  0.25369133891E+04  0.50400001928E-02 0. -1.
       -1    1    3    3    0  502  0.60204621938E+03 -0.15689791657E+04  0.33158826032E+02  0.16808494223E+04  0.50400001928E-02 0.  1.
</event>
<event>
 5   0  0.4824268E-07  0.3716265E+04  0.7818609E-02  0.8064367E-01
       -2   -1    0    0    0  501  0.00000000000E+00  0.00000000000E+00  0.14173632946E+04  0.14173632946E+04  0.25500000920E-02 0.  1.
        2   -1    0    0  501    0  0.00000000000E+00  0.00000000000E+00 -0.24359712552E+04  0.24359712552E+04  0.25500000920E-02 0. -1.
    10030    2    1    2    0    0  0.00000000000E+00  0.00000000000E+00 -0.10186079607E+04  0.38533345498E+04  0.37162649226E+04 0.  0.
        1    1    3    3  502    0 -0.24410222213E+03  0.60713669702E+03 -0.23125444319E+04  0.24033440480E+04  0.50400001928E-02 0. -1.
       -1    1    3    3    0  502  0.24410222213E+03 -0.60713669702E+03  0.12939364712E+04  0.14499905018E+04  0.50400001928E-02 0.  1.
</event>
<event>
 5   0  0.1496287E-07  0.3675955E+04  0.7818609E-02  0.8073311E-01
        1   -1    0    0  501    0  0.00000000000E+00  0.00000000000E+00  0.11743624563E+04  0.11743624564E+04  0.50400001928E-02 0.  1.
       -1   -1    0    0    0  501  0.00000000000E+00  0.00000000000E+00 -0.28765919212E+04  0.28765919212E+04  0.50400001928E-02 0. -1.
    10030    2    1    2    0    0  0.00000000000E+00  0.00000000000E+00 -0.17022294649E+04  0.40509543776E+04  0.36759551437E+04 0.  0.
        1    1    3    3  502    0  0.14934442201E+04 -0.10430123905E+04 -0.11208518326E+04  0.21388219458E+04  0.50400001928E-02 0.  1.
       -1    1    3    3    0  502 -0.14934442201E+04  0.10430123905E+04 -0.58137763233E+03  0.19121324318E+04  0.50400001928E-02 0. -1.
</event>
<event>
 5   0  0.4857514E-07  0.3639403E+04  0.7818609E-02  0.8081525E-01
       -2   -1    0    0    0  501  0.00000000000E+00  0.00000000000E+00  0.12728622721E+04  0.12728622721E+04  0.25500000920E-02 0.  1.
        2   -1    0    0  501    0  0.00000000000E+00  0.00000000000E+00 -0.26014702115E+04  0.26014702115E+04  0.25500000920E-02 0. -1.
    10030    2    1    2    0    0  0.00000000000E+00  0.00000000000E+00 -0.13286079394E+04  0.38743324835E+04  0.36394028544E+04 0.  0.
        5    1    3    3  502    0  0.47670663497E+03  0.10887065406E+04 -0.21312083279E+04  0.24402053549E+04  0.46999998093E+01 0. -1.
       -5    1    3    3    0  502 -0.47670663497E+03 -0.10887065406E+04  0.80260038851E+03  0.14341271286E+04  0.46999998093E+01 0.  1.
</event>
<event>
 5   0  0.4824268E-07  0.3735942E+04  0.7818609E-02  0.8060043E-01
       -2   -1    0    0    0  501  0.00000000000E+00  0.00000000000E+00  0.28724359023E+04  0.28724359023E+04  0.25500000920E-02 0.  1.
        2   -1    0    0  501    0  0.00000000000E+00  0.00000000000E+00 -0.12147583573E+04  0.12147583573E+04  0.25500000920E-02 0. -1.
    10030    2    1    2    0    0  0.00000000000E+00  0.00000000000E+00  0.16576775450E+04  0.40871942596E+04  0.37359419257E+04 0.  0.
        1    1    3    3  502    0 -0.88100496984E+03 -0.55106494838E+03 -0.86935096373E+03  0.13548481215E+04  0.50400001928E-02 0. -1.
       -1    1    3    3    0  502  0.88100496984E+03  0.55106494838E+03  0.25270285087E+04  0.27323461381E+04  0.50400001928E-02 0.  1.
</event>
<event>
 5   0  0.4857514E-07  0.3720812E+04  0.7818609E-02  0.8063365E-01
       -2   -1    0    0    0  501  0.00000000000E+00  0.00000000000E+00  0.18353463804E+04  0.18353463804E+04  0.25500000920E-02 0. -1.
        2   -1    0    0  501    0  0.00000000000E+00  0.00000000000E+00 -0.18858082777E+04  0.18858082777E+04  0.25500000920E-02 0.  1.
    10030    2    1    2    0    0  0.00000000000E+00  0.00000000000E+00 -0.50461897257E+02  0.37211546582E+04  0.37208124901E+04 0.  0.
        5    1    3    3  502    0 -0.44260276777E+03 -0.17325952011E+04  0.48794971704E+03  0.18536181800E+04  0.46999998093E+01 0. -1.
       -5    1    3    3    0  502  0.44260276777E+03  0.17325952011E+04 -0.53841161430E+03  0.18675364782E+04  0.46999998093E+01 0.  1.
</event>
<event>
 5   0  0.4857514E-07  0.3674857E+04  0.7818609E-02  0.8073557E-01
       -2   -1    0    0    0  501  0.00000000000E+00  0.00000000000E+00  0.18377396181E+04  0.18377396181E+04  0.25500000920E-02 0. -1.
        2   -1    0    0  501    0  0.00000000000E+00  0.00000000000E+00 -0.18371177750E+04  0.18371177750E+04  0.25500000920E-02 0.  1.
    10030    2    1    2    0    0  0.00000000000E+00  0.00000000000E+00  0.62184305209E+00  0.36748573931E+04  0.36748573405E+04 0.  0.
        5    1    3    3  502    0  0.15703653801E+04 -0.93307158494E+03 -0.19831440378E+03  0.18373950861E+04  0.46999998093E+01 0. -1.
       -5    1    3    3    0  502 -0.15703653801E+04  0.93307158494E+03  0.19893624683E+03  0.18374623071E+04  0.46999998093E+01 0.  1.
</event>
<event>
 5   0  0.1496000E-07  0.3686593E+04  0.7818609E-02  0.8070939E-01
       -1   -1    0    0    0  501  0.00000000000E+00  0.00000000000E+00  0.14877552623E+04  0.14877552623E+04  0.50400001928E-02 0. -1.
        1   -1    0    0  501    0  0.00000000000E+00  0.00000000000E+00 -0.22838047201E+04  0.22838047201E+04  0.50400001928E-02 0.  1.
    10030    2    1    2    0    0  0.00000000000E+00  0.00000000000E+00 -0.79604945784E+03  0.37715599824E+04  0.36865932732E+04 0.  0.
        2    1    3    3  502    0  0.57357495282E+03  0.38409491349E+03 -0.21465758098E+04  0.22548403128E+04  0.25500000920E-02 0.  1.
       -2    1    3    3    0  502 -0.57357495282E+03 -0.38409491349E+03  0.13505263519E+04  0.15167196696E+04  0.25500000920E-02 0. -1.
</event>
<event>
 5   0  0.4824268E-07  0.3719581E+04  0.7818609E-02  0.8063636E-01
        2   -1    0    0  501    0  0.00000000000E+00  0.00000000000E+00  0.31630235093E+04  0.31630235093E+04  0.25500000920E-02 0. -1.
       -2   -1    0    0    0  501  0.00000000000E+00  0.00000000000E+00 -0.10935170899E+04  0.10935170899E+04  0.25500000920E-02 0.  1.
    10030    2    1    2    0    0  0.00000000000E+00  0.00000000000E+00  0.20695064194E+04  0.42565405992E+04  0.37195807630E+04 0.  0.
        1    1    3    3  502    0 -0.91216641933E+03 -0.13745927689E+04  0.52156502389E+02  0.16505372330E+04  0.50400001928E-02 0.  1.
       -1    1    3    3    0  502  0.91216641933E+03  0.13745927689E+04  0.20173499170E+04  0.26060033662E+04  0.50400001928E-02 0. -1.
</event>
<event>
 5   0  0.1496000E-07  0.3392204E+04  0.7818609E-02  0.8139822E-01
        1   -1    0    0  501    0  0.00000000000E+00  0.00000000000E+00  0.20674242512E+04  0.20674242512E+04  0.50400001928E-02 0. -1.
       -1   -1    0    0    0  501  0.00000000000E+00  0.00000000000E+00 -0.13914716802E+04  0.13914716803E+04  0.50400001928E-02 0.  1.
    10030    2    1    2    0    0  0.00000000000E+00  0.00000000000E+00  0.67595257094E+03  0.34588959314E+04  0.33922041782E+04 0.  0.
        2    1    3    3  502    0 -0.10933667855E+04  0.21388984263E+03  0.16420107920E+04  0.19842880924E+04  0.25500000920E-02 0. -1.
       -2    1    3    3    0  502  0.10933667855E+04 -0.21388984263E+03 -0.96605822106E+03  0.14746078391E+04  0.25500000920E-02 0.  1.
</event>
<event>
 5   0  0.4687817E-07  0.3783962E+04  0.7818609E-02  0.8049605E-01
       -2   -1    0    0    0  501  0.00000000000E+00  0.00000000000E+00  0.14420221452E+04  0.14420221452E+04  0.25500000920E-02 0.  1.
        2   -1    0    0  501    0  0.00000000000E+00  0.00000000000E+00 -0.24823419467E+04  0.24823419467E+04  0.25500000920E-02 0. -1.
    10030    2    1    2    0    0  0.00000000000E+00  0.00000000000E+00 -0.10403198015E+04  0.39243640919E+04  0.37839619761E+04 0.  0.
        4    1    3    3  502    0  0.10104929303E+04 -0.85971179246E+03  0.87873615391E+03  0.15913450818E+04  0.12699999809E+01 0.  1.
       -4    1    3    3    0  502 -0.10104929303E+04  0.85971179246E+03 -0.19190559555E+04  0.23330190101E+04  0.12699999809E+01 0. -1.
</event>
<event>
 5   0  0.1496000E-07  0.3705356E+04  0.7818609E-02  0.8066776E-01
        1   -1    0    0  501    0  0.00000000000E+00  0.00000000000E+00  0.15455373895E+04  0.15455373895E+04  0.50400001928E-02 0.  1.
       -1   -1    0    0    0  501  0.00000000000E+00  0.00000000000E+00 -0.22208559507E+04  0.22208559507E+04  0.50400001928E-02 0. -1.
    10030    2    1    2    0    0  0.00000000000E+00  0.00000000000E+00 -0.67531856122E+03  0.37663933402E+04  0.37053560739E+04 0.  0.
        3    1    3    3  502    0  0.13136006501E+04  0.12328959675E+04  0.10170717102E+03  0.18044177713E+04  0.10100000352E+00 0.  1.
       -3    1    3    3    0  502 -0.13136006501E+04 -0.12328959675E+04 -0.77702573224E+03  0.19619755690E+04  0.10100000352E+00 0. -1.
</event>
<event>
 5   0  0.4793557E-07  0.3744398E+04  0.7818609E-02  0.8058193E-01
       -2   -1    0    0    0  501  0.00000000000E+00  0.00000000000E+00  0.29262503643E+04  0.29262503643E+04  0.25500000920E-02 0. -1.
        2   -1    0    0  501    0  0.00000000000E+00  0.00000000000E+00 -0.11978224419E+04  0.11978224419E+04  0.25500000920E-02 0.  1.
    10030    2    1    2    0    0  0.00000000000E+00  0.00000000000E+00  0.17284279224E+04  0.41240728062E+04  0.37443976055E+04 0.  0.
        3    1    3    3  502    0 -0.13242438613E+04  0.23532482526E+03  0.22986255164E+04  0.26632083758E+04  0.10100000352E+00 0. -1.
       -3    1    3    3    0  502  0.13242438613E+04 -0.23532482526E+03 -0.57019759404E+03  0.14608644304E+04  0.10100000352E+00 0.  1.
</event>
<event>
 5   0  0.1522273E-07  0.3709587E+04  0.7818609E-02  0.8065841E-01
        1   -1    0    0  501    0  0.00000000000E+00  0.00000000000E+00  0.22233818568E+04  0.22233818568E+04  0.50400001928E-02 0.  1.
       -1   -1    0    0    0  501  0.00000000000E+00  0.00000000000E+00 -0.15473092012E+04  0.15473092012E+04  0.50400001928E-02 0. -1.
    10030    2    1    2    0    0  0.00000000000E+00  0.00000000000E+00  0.67607265560E+03  0.37706910580E+04  0.37095871495E+04 0.  0.
        4    1    3    3  502    0 -0.10816050892E+04 -0.79788754080E+02  0.18674876971E+04  0.21595711903E+04  0.12699999809E+01 0.  1.
       -4    1    3    3    0  502  0.10816050892E+04  0.79788754080E+02 -0.11914150415E+04  0.16111198677E+04  0.12699999809E+01 0. -1.
</event>
<event>
 5   0  0.4824268E-07  0.3647765E+04  0.7818609E-02  0.8079637E-01
        2   -1    0    0  501    0  0.00000000000E+00  0.00000000000E+00  0.26420624242E+04  0.26420624242E+04  0.25500000920E-02 0.  1.
       -2   -1    0    0    0  501  0.00000000000E+00  0.00000000000E+00 -0.12590722508E+04  0.12590722508E+04  0.25500000920E-02 0. -1.
    10030    2    1    2    0    0  0.00000000000E+00  0.00000000000E+00  0.13829901734E+04  0.39011346750E+04  0.36477650600E+04 0.  0.
        1    1    3    3  502    0 -0.16787209600E+04  0.44669081042E+03  0.97092639035E+02  0.17398458904E+04  0.50400001928E-02 0.  1.
       -1    1    3    3    0  502  0.16787209600E+04 -0.44669081042E+03  0.12858975343E+04  0.21612887846E+04  0.50400001928E-02 0. -1.
</event>
<event>
 5   0  0.1496000E-07  0.3731555E+04  0.7818609E-02  0.8061005E-01
       -1   -1    0    0    0  501  0.00000000000E+00  0.00000000000E+00  0.16253503221E+04  0.16253503221E+04  0.50400001928E-02 0.  1.
        1   -1    0    0  501    0  0.00000000000E+00  0.00000000000E+00 -0.21417691122E+04  0.21417691122E+04  0.50400001928E-02 0. -1.
    10030    2    1    2    0    0  0.00000000000E+00  0.00000000000E+00 -0.51641879011E+03  0.37671194343E+04  0.37315546982E+04 0.  0.
        5    1    3    3  502    0  0.15859195134E+04 -0.42843202562E+03  0.63475945254E+03  0.17611463188E+04  0.46999998093E+01 0.  1.
       -5    1    3    3    0  502 -0.15859195134E+04  0.42843202562E+03 -0.11511782426E+04  0.20059731155E+04  0.46999998093E+01 0. -1.
</event>
<event>
 5   0  0.1522273E-07  0.3676481E+04  0.7818609E-02  0.8073194E-01
        1   -1    0    0  501    0  0.00000000000E+00  0.00000000000E+00  0.19343541665E+04  0.19343541665E+04  0.50400001928E-02 0.  1.
       -1   -1    0    0    0  501  0.00000000000E+00  0.00000000000E+00 -0.17469026839E+04  0.17469026839E+04  0.50400001928E-02 0. -1.
    10030    2    1    2    0    0  0.00000000000E+00  0.00000000000E+00  0.18745148269E+03  0.36812568504E+04  0.36764811900E+04 0.  0.
        4    1    3    3  502    0  0.53116392157E+03 -0.16739292327E+04 -0.45007519200E+03  0.18129378034E+04  0.12699999809E+01 0. -1.
       -4    1    3    3    0  502 -0.53116392157E+03  0.16739292327E+04  0.63752667469E+03  0.18683190470E+04  0.12699999809E+01 0.  1.
</event>
<event>
 5   0  0.4793557E-07  0.3690184E+04  0.7818609E-02  0.8070141E-01
        2   -1    0    0  501    0  0.00000000000E+00  0.00000000000E+00  0.24530353441E+04  0.24530353441E+04  0.25500000920E-02 0.  1.
       -2   -1    0    0    0  501  0.00000000000E+00  0.00000000000E+00 -0.13878173241E+04  0.13878173241E+04  0.25500000920E-02 0. -1.
    10030    2    1    2    0    0  0.00000000000E+00  0.00000000000E+00  0.10652180200E+04  0.38408526682E+04  0.36901842486E+04 0.  0.
        3    1    3    3  502    0  0.17083113700E+04 -0.10050398111E+03  0.12506577824E+04  0.21195692218E+04  0.10100000352E+00 0. -1.
       -3    1    3    3    0  502 -0.17083113700E+04  0.10050398111E+03 -0.18543976234E+03  0.17212834464E+04  0.10100000352E+00 0.  1.
</event>
<event>
 5   0  0.1496000E-07  0.3328765E+04  0.7818609E-02  0.8155614E-01
        3   -1    0    0  501    0  0.00000000000E+00  0.00000000000E+00  0.16110966884E+04  0.16110966915E+04  0.10100000352E+00 0.  1.
       -3   -1    0    0    0  501  0.00000000000E+00  0.00000000000E+00 -0.17194309619E+04  0.17194309649E+04  0.10100000352E+00 0. -1.
    10030    2    1    2    0    0  0.00000000000E+00  0.00000000000E+00 -0.10833427353E+03  0.33305276564E+04  0.33287652598E+04 0.  0.
        2    1    3    3  502    0  0.10217950787E+04 -0.19062784567E+03  0.12464308519E+04  0.16229584181E+04  0.25500000920E-02 0.  1.
       -2    1    3    3    0  502 -0.10217950787E+04  0.19062784567E+03 -0.13547651254E+04  0.17075692383E+04  0.25500000920E-02 0. -1.
</event>
<event>
 5   0  0.1496000E-07  0.3717451E+04  0.7818609E-02  0.8064105E-01
        1   -1    0    0  501    0  0.00000000000E+00  0.00000000000E+00  0.24009182160E+04  0.24009182160E+04  0.50400001928E-02 0. -1.
       -1   -1    0    0    0  501  0.00000000000E+00  0.00000000000E+00 -0.14389749676E+04  0.14389749676E+04  0.50400001928E-02 0.  1.
    10030    2    1    2    0    0  0.00000000000E+00  0.00000000000E+00  0.96194324839E+03  0.38398931835E+04  0.37174513915E+04 0.  0.
        3    1    3    3  502    0 -0.12266390492E+04  0.12778469270E+04 -0.10089847603E+03  0.17741805541E+04  0.10100000352E+00 0.  1.
       -3    1    3    3    0  502  0.12266390492E+04 -0.12778469270E+04  0.10628417244E+04  0.20657126294E+04  0.10100000352E+00 0. -1.
</event>
<event>
 5   0  0.1496000E-07  0.3778885E+04  0.7818609E-02  0.8050701E-01
       -1   -1    0    0    0  501  0.00000000000E+00  0.00000000000E+00  0.14185917466E+04  0.14185917466E+04  0.50400001928E-02 0.  1.
        1   -1    0    0  501    0  0.00000000000E+00  0.00000000000E+00 -0.25165755877E+04  0.25165755877E+04  0.50400001928E-02 0. -1.
    10030    2    1    2    0    0  0.00000000000E+00  0.00000000000E+00 -0.10979838411E+04  0.39351673342E+04  0.37788852104E+04 0.  0.
        2    1    3    3  502    0  0.63478421496E+01 -0.15291930995E+04  0.60664260625E+03  0.16451404446E+04  0.25500000920E-02 0.  1.
       -2    1    3    3    0  502 -0.63478421496E+01  0.15291930995E+04 -0.17046264473E+04  0.22900268897E+04  0.25500000920E-02 0. -1.
</event>
<event>
 5   0  0.4758908E-07  0.3681803E+04  0.7818609E-02  0.8072007E-01
       -2   -1    0    0    0  501  0.00000000000E+00  0.00000000000E+00  0.16214031246E+04  0.16214031246E+04  0.25500000920E-02 0. -1.
        2   -1    0    0  501    0  0.00000000000E+00  0.00000000000E+00 -0.20901144211E+04  0.20901144211E+04  0.25500000920E-02 0.  1.
    10030    2    1    2    0    0  0.00000000000E+00  0.00000000000E+00 -0.46871129651E+03  0.37115175457E+04  0.36818028482E+04 0.  0.
        2    1    3    3  502    0 -0.10986189272E+04  0.12668466780E+04 -0.10001271793E+04  0.19524647059E+04  0.25500000920E-02 0.  1.
       -2    1    3    3    0  502  0.10986189272E+04 -0.12668466780E+04  0.53141588281E+03  0.17590528398E+04  0.25500000920E-02 0. -1.
</event>
<event>
 5   0  0.1522273E-07  0.3655738E+04  0.7818609E-02  0.8077842E-01
       -1   -1    0    0    0  501  0.00000000000E+00  0.00000000000E+00  0.12535111544E+04  0.12535111544E+04  0.50400001928E-02 0. -1.
        1   -1    0    0  501    0  0.00000000000E+00  0.00000000000E+00 -0.26653972290E+04  0.26653972290E+04  0.50400001928E-02 0.  1.
    10030    2    1    2    0    0  0.00000000000E+00  0.00000000000E+00 -0.14118860746E+04  0.39189083834E+04  0.36557380418E+04 0.  0.
        4    1    3    3  502    0 -0.44144027140E+03 -0.13988722768E+04 -0.18750446355E+04  0.23806526747E+04  0.12699999809E+01 0.  1.
       -4    1    3    3    0  502  0.44144027140E+03  0.13988722768E+04  0.46315856088E+03  0.15382557087E+04  0.12699999809E+01 0. -1.
</event>
<event>
 5   0  0.1496000E-07  0.3695071E+04  0.7818609E-02  0.8069055E-01
       -1   -1    0    0    0  501  0.00000000000E+00  0.00000000000E+00  0.13375000832E+04  0.13375000832E+04  0.50400001928E-02 0.  1.
        1   -1    0    0  501    0  0.00000000000E+00  0.00000000000E+00 -0.25520653306E+04  0.25520653306E+04  0.50400001928E-02 0. -1.
    10030    2    1    2    0    0  0.00000000000E+00  0.00000000000E+00 -0.12145652474E+04  0.38895654139E+04  0.36950710911E+04 0.  0.
        2    1    3    3  502    0 -0.11242400995E+04  0.72954781035E+03 -0.19459245263E+04  0.23627903146E+04  0.25500000920E-02 0. -1.
       -2    1    3    3    0  502  0.11242400995E+04 -0.72954781035E+03  0.73135927884E+03  0.15267750993E+04  0.25500000920E-02 0.  1.
</event>
<event>
 5   0  0.1496000E-07  0.3745665E+04  0.7818609E-02  0.8057917E-01
        1   -1    0    0  501    0  0.00000000000E+00  0.00000000000E+00  0.17364648586E+04  0.17364648586E+04  0.50400001928E-02 0.  1.
       -1   -1    0    0    0  501  0.00000000000E+00  0.00000000000E+00 -0.20199090864E+04  0.20199090864E+04  0.50400001928E-02 0. -1.
    10030    2    1    2    0    0  0.00000000000E+00  0.00000000000E+00 -0.28344422777E+03  0.37563739450E+04  0.37456647721E+04 0.  0.
        3    1    3    3  502    0 -0.57734958851E+03 -0.42774584429E+03  0.15927319019E+04  0.17473104979E+04  0.10100000352E+00 0.  1.
       -3    1    3    3    0  502  0.57734958851E+03  0.42774584429E+03 -0.18761761297E+04  0.20090634471E+04  0.10100000352E+00 0. -1.
</event>
<event>
 5   0  0.4824268E-07  0.3516776E+04  0.7818609E-02  0.8109826E-01
       -2   -1    0    0    0  501  0.00000000000E+00  0.00000000000E+00  0.19261786177E+04  0.19261786177E+04  0.25500000920E-02 0.  1.
        2   -1    0    0  501    0  0.00000000000E+00  0.00000000000E+00 -0.16052140373E+04  0.16052140373E+04  0.25500000920E-02 0. -1.
    10030    2    1    2    0    0  0.00000000000E+00  0.00000000000E+00  0.32096458045E+03  0.35313926550E+04  0.35167763394E+04 0.  0.
        1    1    3    3  502    0  0.50874487696E+03  0.13685225455E+04 -0.82351577243E+03  0.16762617740E+04  0.50400001928E-02 0. -1.
       -1    1    3    3    0  502 -0.50874487696E+03 -0.13685225455E+04  0.11444803529E+04  0.18551308810E+04  0.50400001928E-02 0.  1.
</event>
<event>
 5   0  0.4687817E-07  0.3703932E+04  0.7818609E-02  0.8067091E-01
        2   -1    0    0  501    0  0.00000000000E+00  0.00000000000E+00  0.27854523539E+04  0.27854523539E+04  0.25500000920E-02 0.  1.
       -2   -1    0    0    0  501  0.00000000000E+00  0.00000000000E+00 -0.12313183681E+04  0.12313183681E+04  0.25500000920E-02 0. -1.
    10030    2    1    2    0    0  0.00000000000E+00  0.00000000000E+00  0.15541339858E+04  0.40167707220E+04  0.37039323141E+04 0.  0.
        4    1    3    3  502    0 -0.13018255232E+03  0.18282633431E+04  0.10645672081E+04  0.21196224433E+04  0.12699999809E+01 0.  1.
       -4    1    3    3    0  502  0.13018255232E+03 -0.18282633431E+04  0.48956677771E+03  0.18971482787E+04  0.12699999809E+01 0. -1.
</event>
<event>
 5   0  0.1496287E-07  0.3657914E+04  0.7818609E-02  0.8077353E-01
        1   -1    0    0  501    0  0.00000000000E+00  0.00000000000E+00  0.11123465942E+04  0.11123465942E+04  0.50400001928E-02 0. -1.
       -1   -1    0    0    0  501  0.00000000000E+00  0.00000000000E+00 -0.30072322564E+04  0.30072322564E+04  0.50400001928E-02 0.  1.
    10030    2    1    2    0    0  0.00000000000E+00  0.00000000000E+00 -0.18948856621E+04  0.41195788506E+04  0.36579144651E+04 0.  0.
        1    1    3    3  502    0  0.23914853789E+02  0.16925374016E+04 -0.16732020457E+03  0.17009558568E+04  0.50400001928E-02 0.  1.
       -1    1    3    3    0  502 -0.23914853789E+02 -0.16925374016E+04 -0.17275654576E+04  0.24186229938E+04  0.50400001928E-02 0. -1.
</event>
<event>
 5   0  0.4824268E-07  0.3723354E+04  0.7818609E-02  0.8062806E-01
        2   -1    0    0  501    0  0.00000000000E+00  0.00000000000E+00  0.22478288722E+04  0.22478288722E+04  0.25500000920E-02 0.  1.
       -2   -1    0    0    0  501  0.00000000000E+00  0.00000000000E+00 -0.15418620018E+04  0.15418620018E+04  0.25500000920E-02 0. -1.
    10030    2    1    2    0    0  0.00000000000E+00  0.00000000000E+00  0.70596687044E+03  0.37896908740E+04  0.37233543611E+04 0.  0.
        1    1    3    3  502    0 -0.81745252622E+03 -0.13259699564E+04 -0.68469864188E+03  0.17015396522E+04  0.50400001928E-02 0. -1.
       -1    1    3    3    0  502  0.81745252622E+03  0.13259699564E+04  0.13906655123E+04  0.20881512218E+04  0.50400001928E-02 0.  1.
</event>
<event>
 5   0  0.4687817E-07  0.3703690E+04  0.7818609E-02  0.8067144E-01
        2   -1    0    0  501    0  0.00000000000E+00  0.00000000000E+00  0.14544138516E+04  0.14544138516E+04  0.25500000920E-02 0. -1.
       -2   -1    0    0    0  501  0.00000000000E+00  0.00000000000E+00 -0.23578781972E+04  0.23578781972E+04  0.25500000920E-02 0.  1.
    10030    2    1    2    0    0  0.00000000000E+00  0.00000000000E+00 -0.90346434561E+03  0.38122920489E+04  0.37036904355E+04 0.  0.
        4    1    3    3  502    0  0.10439774195E+04 -0.10987489135E+04  0.64351299538E+03  0.16465869596E+04  0.12699999809E+01 0. -1.
       -4    1    3    3    0  502 -0.10439774195E+04  0.10987489135E+04 -0.15469773410E+04  0.21657050893E+04  0.12699999809E+01 0.  1.
</event>
<event>
 5   0  0.4857514E-07  0.3652636E+04  0.7818609E-02  0.8078540E-01
        2   -1    0    0  501    0  0.00000000000E+00  0.00000000000E+00  0.26281491117E+04  0.26281491117E+04  0.25500000920E-02 0.  1.
       -2   -1    0    0    0  501  0.00000000000E+00  0.00000000000E+00 -0.12691202764E+04  0.12691202764E+04  0.25500000920E-02 0. -1.
    10030    2    1    2    0    0  0.00000000000E+00  0.00000000000E+00  0.13590288353E+04  0.38972693881E+04  0.36526359397E+04 0.  0.
        5    1    3    3  502    0 -0.68554729363E+02 -0.39339433697E+03  0.25809924083E+04  0.26117049521E+04  0.46999998093E+01 0.  1.
       -5    1    3    3    0  502  0.68554729363E+02  0.39339433697E+03 -0.12219635730E+04  0.12855644360E+04  0.46999998093E+01 0. -1.
</event>
<event>
 5   0  0.4824268E-07  0.3705688E+04  0.7818609E-02  0.8066702E-01
       -2   -1    0    0    0  501  0.00000000000E+00  0.00000000000E+00  0.29349779959E+04  0.29349779959E+04  0.25500000920E-02 0.  1.
        2   -1    0    0  501    0  0.00000000000E+00  0.00000000000E+00 -0.11696956982E+04  0.11696956982E+04  0.25500000920E-02 0. -1.
    10030    2    1    2    0    0  0.00000000000E+00  0.00000000000E+00  0.17652822978E+04  0.41046736941E+04  0.37056881337E+04 0.  0.
        1    1    3    3  502    0  0.14450225124E+04  0.67775171838E+03  0.19250234440E+04  0.25006304631E+04  0.50400001928E-02 0.  1.
       -1    1    3    3    0  502 -0.14450225124E+04 -0.67775171838E+03 -0.15974114626E+03  0.16040432310E+04  0.50400001928E-02 0. -1.
</event>
<event>
 5   0  0.4857514E-07  0.3663833E+04  0.7818609E-02  0.8076024E-01
        2   -1    0    0  501    0  0.00000000000E+00  0.00000000000E+00  0.18868861205E+04  0.18868861205E+04  0.25500000920E-02 0.  1.
       -2   -1    0    0    0  501  0.00000000000E+00  0.00000000000E+00 -0.17785482068E+04  0.17785482068E+04  0.25500000920E-02 0. -1.
    10030    2    1    2    0    0  0.00000000000E+00  0.00000000000E+00  0.10833791371E+03  0.36654343272E+04  0.36638329252E+04 0.  0.
        5    1    3    3  502    0 -0.12944285807E+04 -0.77236465262E+03 -0.98734482687E+03  0.18019335183E+04  0.46999998093E+01 0. -1.
       -5    1    3    3    0  502  0.12944285807E+04  0.77236465262E+03  0.10956827406E+04  0.18635008090E+04  0.46999998093E+01 0.  1.
</event>
<event>
 5   0  0.4824268E-07  0.3711704E+04  0.7818609E-02  0.8065373E-01
        2   -1    0    0  501    0  0.00000000000E+00  0.00000000000E+00  0.22042793407E+04  0.22042793407E+04  0.25500000920E-02 0.  1.
       -2   -1    0    0    0  501  0.00000000000E+00  0.00000000000E+00 -0.15624996839E+04  0.15624996839E+04  0.25500000920E-02 0. -1.
    10030    2    1    2    0    0  0.00000000000E+00  0.00000000000E+00  0.64177965679E+03  0.37667790246E+04  0.37117035297E+04 0.  0.
        1    1    3    3  502    0 -0.56249643880E+03  0.13757075802E+04 -0.80700251044E+03  0.16912204593E+04  0.50400001928E-02 0. -1.
       -1    1    3    3    0  502  0.56249643880E+03 -0.13757075802E+04  0.14487821672E+04  0.20755585653E+04  0.50400001928E-02 0.  1.
</event>
<event>
 5   0  0.1522273E-07  0.3713516E+04  0.7818609E-02  0.8064973E-01
       -1   -1    0    0    0  501  0.00000000000E+00  0.00000000000E+00  0.13510691767E+04  0.13510691767E+04  0.50400001928E-02 0.  1.
        1   -1    0    0  501    0  0.00000000000E+00  0.00000000000E+00 -0.25517196865E+04  0.25517196866E+04  0.50400001928E-02 0. -1.
    10030    2    1    2    0    0  0.00000000000E+00  0.00000000000E+00 -0.12006505098E+04  0.39027888633E+04  0.37135157553E+04 0.  0.
        4    1    3    3  502    0 -0.13130089572E+04  0.11047530693E+04 -0.13457550222E+04  0.21807177851E+04  0.12699999809E+01 0. -1.
       -4    1    3    3    0  502  0.13130089572E+04 -0.11047530693E+04  0.14510451238E+03  0.17220710781E+04  0.12699999809E+01 0.  1.
</event>
<event>
 5   0  0.1496000E-07  0.3708406E+04  0.7818609E-02  0.8066102E-01
       -1   -1    0    0    0  501  0.00000000000E+00  0.00000000000E+00  0.19401530369E+04  0.19401530369E+04  0.50400001928E-02 0. -1.
        1   -1    0    0  501    0  0.00000000000E+00  0.00000000000E+00 -0.17720602553E+04  0.17720602553E+04  0.50400001928E-02 0.  1.
    10030    2    1    2    0    0  0.00000000000E+00  0.00000000000E+00  0.16809278162E+03  0.37122132922E+04  0.37084056336E+04 0.  0.
        3    1    3    3  502    0 -0.44485335794E+03 -0.29685847358E+03  0.18612702814E+04  0.19365811458E+04  0.10100000352E+00 0. -1.
       -3    1    3    3    0  502  0.44485335794E+03  0.29685847358E+03 -0.16931774998E+04  0.17756321464E+04  0.10100000352E+00 0.  1.
</event>
<event>
 5   0  0.4824268E-07  0.3831804E+04  0.7818609E-02  0.8039364E-01
       -2   -1    0    0    0  501  0.00000000000E+00  0.00000000000E+00  0.16445561506E+04  0.16445561506E+04  0.25500000920E-02 0.  1.
        2   -1    0    0  501    0  0.00000000000E+00  0.00000000000E+00 -0.22320192588E+04  0.22320192588E+04  0.25500000920E-02 0. -1.
    10030    2    1    2    0    0  0.00000000000E+00  0.00000000000E+00 -0.58746310812E+03  0.38765754094E+04  0.38318042749E+04 0.  0.
        1    1    3    3  502    0  0.17346087624E+04  0.76168560620E+03 -0.46509403068E+01  0.18944799161E+04  0.50400001928E-02 0.  1.
       -1    1    3    3    0  502 -0.17346087624E+04 -0.76168560620E+03 -0.58281216781E+03  0.19820954933E+04  0.50400001928E-02 0. -1.
</event>
<event>
 5   0  0.1496000E-07  0.3679292E+04  0.7818609E-02  0.8072567E-01
       -1   -1    0    0    0  501  0.00000000000E+00  0.00000000000E+00  0.15275197752E+04  0.15275197752E+04  0.50400001928E-02 0. -1.
        1   -1    0    0  501    0  0.00000000000E+00  0.00000000000E+00 -0.22155501808E+04  0.22155501808E+04  0.50400001928E-02 0.  1.
    10030    2    1    2    0    0  0.00000000000E+00  0.00000000000E+00 -0.68803040552E+03  0.37430699560E+04  0.36792916243E+04 0.  0.
        2    1    3    3  502    0 -0.16562837945E+04  0.79585654836E+03 -0.25513335144E+03  0.18551972080E+04  0.25500000920E-02 0.  1.
       -2    1    3    3    0  502  0.16562837945E+04 -0.79585654836E+03 -0.43289705408E+03  0.18878727481E+04  0.25500000920E-02 0. -1.
</event>
<event>
 5   0  0.4758908E-07  0.3831542E+04  0.7818609E-02  0.8039420E-01
        2   -1    0    0  501    0  0.00000000000E+00  0.00000000000E+00  0.16201850144E+04  0.16201850144E+04  0.25500000920E-02 0.  1.
       -2   -1    0    0    0  501  0.00000000000E+00  0.00000000000E+00 -0.22652833707E+04  0.22652833707E+04  0.25500000920E-02 0. -1.
    10030    2    1    2    0    0  0.00000000000E+00  0.00000000000E+00 -0.64509835630E+03  0.38854683852E+04  0.38315418154E+04 0.  0.
        2    1    3    3  502    0 -0.49112081300E+03 -0.67568943301E+03 -0.20708858456E+04  0.22330078478E+04  0.25500000920E-02 0. -1.
       -2    1    3    3    0  502  0.49112081300E+03  0.67568943301E+03  0.14257874893E+04  0.16524605374E+04  0.25500000920E-02 0.  1.
</event>
<event>
 5   0  0.1522273E-07  0.3701733E+04  0.7818609E-02  0.8067578E-01
        1   -1    0    0  501    0  0.00000000000E+00  0.00000000000E+00  0.23909685772E+04  0.23909685772E+04  0.50400001928E-02 0. -1.
       -1   -1    0    0    0  501  0.00000000000E+00  0.00000000000E+00 -0.14327697357E+04  0.14327697358E+04  0.50400001928E-02 0.  1.
    10030    2    1    2    0    0  0.00000000000E+00  0.00000000000E+00  0.95819884146E+03  0.38237383130E+04  0.37017333327E+04 0.  0.
        4    1    3    3  502    0  0.13833023142E+04 -0.11475095394E+04  0.22486765062E+02  0.17974456050E+04  0.12699999809E+01 0. -1.
       -4    1    3    3    0  502 -0.13833023142E+04  0.11475095394E+04  0.93571207639E+03  0.20262927080E+04  0.12699999809E+01 0.  1.
</event>
<event>
 5   0  0.4857514E-07  0.3647153E+04  0.7818609E-02  0.8079775E-01
        2   -1    0    0  501    0  0.00000000000E+00  0.00000000000E+00  0.13567321257E+04  0.13567321257E+04  0.25500000920E-02 0.  1.
       -2   -1    0    0    0  501  0.00000000000E+00  0.00000000000E+00 -0.24510602245E+04  0.24510602245E+04  0.25500000920E-02 0. -1.
    10030    2    1    2    0    0  0.00000000000E+00  0.00000000000E+00 -0.10943280988E+04  0.38077923502E+04  0.36471534921E+04 0.  0.
        5    1    3    3  502    0  0.14761884010E+04  0.92561922646E+03 -0.11089212961E+04  0.20653405721E+04  0.46999998093E+01 0. -1.
       -5    1    3    3    0  502 -0.14761884010E+04 -0.92561922646E+03  0.14593197340E+02  0.17424517781E+04  0.46999998093E+01 0.  1.
</event>
<event>
 5   0  0.1496287E-07  0.3711751E+04  0.7818609E-02  0.8065363E-01
        1   -1    0    0  501    0  0.00000000000E+00  0.00000000000E+00  0.15023049419E+04  0.15023049419E+04  0.50400001928E-02 0.  1.
       -1   -1    0    0    0  501  0.00000000000E+00  0.00000000000E+00 -0.22926599207E+04  0.22926599207E+04  0.50400001928E-02 0. -1.
    10030    2    1    2    0    0  0.00000000000E+00  0.00000000000E+00 -0.79035497881E+03  0.37949648625E+04  0.37117512464E+04 0.  0.
        1    1    3    3  502    0 -0.10509069395E+04 -0.73533583690E+03  0.97621763019E+03  0.16118700475E+04  0.50400001928E-02 0. -1.
       -1    1    3    3    0  502  0.10509069395E+04  0.73533583690E+03 -0.17665726090E+04  0.21830948150E+04  0.50400001928E-02 0.  1.
</event>
<event>
 5   0  0.4824268E-07  0.3593561E+04  0.7818609E-02  0.8091968E-01
        2   -1    0    0  501    0  0.00000000000E+00  0.00000000000E+00  0.21781898935E+04  0.21781898935E+04  0.25500000920E-02 0.  1.
       -2   -1    0    0    0  501  0.00000000000E+00  0.00000000000E+00 -0.14821576719E+04  0.14821576719E+04  0.25500000920E-02 0. -1.
    10030    2    1    2    0    0  0.00000000000E+00  0.00000000000E+00  0.69603222170E+03  0.36603475654E+04  0.35935613875E+04 0.  0.
        1    1    3    3  502    0 -0.37662619216E+02 -0.14141261150E+04  0.14764178011E+04  0.20447446456E+04  0.50400001928E-02 0.  1.
       -1    1    3    3    0  502  0.37662619216E+02  0.14141261150E+04 -0.78038557943E+03  0.16156029198E+04  0.50400001928E-02 0. -1.
</event>
<event>
 5   0  0.1496000E-07  0.3698222E+04  0.7818609E-02  0.8068356E-01
        1   -1    0    0  501    0  0.00000000000E+00  0.00000000000E+00  0.12543845743E+04  0.12543845743E+04  0.50400001928E-02 0.  1.
       -1   -1    0    0    0  501  0.00000000000E+00  0.00000000000E+00 -0.27258073613E+04  0.27258073613E+04  0.50400001928E-02 0. -1.
    10030    2    1    2    0    0  0.00000000000E+00  0.00000000000E+00 -0.14714227871E+04  0.39801919356E+04  0.36982215761E+04 0.  0.
        2    1    3    3  502    0  0.15488701433E+04  0.84823610183E+03 -0.14553311908E+03  0.17719150922E+04  0.25500000920E-02 0. -1.
       -2    1    3    3    0  502 -0.15488701433E+04 -0.84823610183E+03 -0.13258896680E+04  0.22082768434E+04  0.25500000920E-02 0.  1.
</event>
<event>
 5   0  0.1496000E-07  0.3684993E+04  0.7818609E-02  0.8071296E-01
       -1   -1    0    0    0  501  0.00000000000E+00  0.00000000000E+00  0.14598849027E+04  0.14598849027E+04  0.50400001928E-02 0.  1.
        1   -1    0    0  501    0  0.00000000000E+00  0.00000000000E+00 -0.23253837294E+04  0.23253837294E+04  0.50400001928E-02 0. -1.
    10030    2    1    2    0    0  0.00000000000E+00  0.00000000000E+00 -0.86549882672E+03  0.37852686321E+04  0.36849925913E+04 0.  0.
        2    1    3    3  502    0 -0.11866581662E+04  0.99075051232E+03  0.59705222641E+03  0.16571709454E+04  0.25500000920E-02 0.  1.
       -2    1    3    3    0  502  0.11866581662E+04 -0.99075051232E+03 -0.14625510531E+04  0.21280976867E+04  0.25500000920E-02 0. -1.
</event>
<event>
 5   0  0.1496000E-07  0.3665252E+04  0.7818609E-02  0.8075706E-01
       -1   -1    0    0    0  501  0.00000000000E+00  0.00000000000E+00  0.29155212202E+04  0.29155212202E+04  0.50400001928E-02 0.  1.
        1   -1    0    0  501    0  0.00000000000E+00  0.00000000000E+00 -0.11519440162E+04  0.11519440162E+04  0.50400001928E-02 0. -1.
    10030    2    1    2    0    0  0.00000000000E+00  0.00000000000E+00  0.17635772040E+04  0.40674652364E+04  0.36652515459E+04 0.  0.
        5    1    3    3  502    0 -0.41855419395E+03 -0.12300597359E+04  0.23159967260E+04  0.26555785606E+04  0.46999998093E+01 0.  1.
       -5    1    3    3    0  502  0.41855419395E+03  0.12300597359E+04 -0.55241952194E+03  0.14118866758E+04  0.46999998093E+01 0. -1.
</event>
<event>
 5   0  0.1496000E-07  0.3806923E+04  0.7818609E-02  0.8044671E-01
       -1   -1    0    0    0  501  0.00000000000E+00  0.00000000000E+00  0.15586523353E+04  0.15586523353E+04  0.50400001928E-02 0. -1.
        1   -1    0    0  501    0  0.00000000000E+00  0.00000000000E+00 -0.23245504665E+04  0.23245504665E+04  0.50400001928E-02 0.  1.
    10030    2    1    2    0    0  0.00000000000E+00  0.00000000000E+00 -0.76589813118E+03  0.38832028019E+04  0.38069231740E+04 0.  0.
        5    1    3    3  502    0 -0.10960997098E+04 -0.78429828080E+03 -0.17539736002E+04  0.22120135278E+04  0.46999998093E+01 0.  1.
       -5    1    3    3    0  502  0.10960997098E+04  0.78429828080E+03  0.98807546900E+03  0.16711892740E+04  0.46999998093E+01 0. -1.
</event>
<event>
 5   0  0.1522273E-07  0.3693887E+04  0.7818609E-02  0.8069318E-01
       -1   -1    0    0    0  501  0.00000000000E+00  0.00000000000E+00  0.16095763699E+04  0.16095763699E+04  0.50400001928E-02 0.  1.
        1   -1    0    0  501    0  0.00000000000E+00  0.00000000000E+00 -0.21193158235E+04  0.21193158235E+04  0.50400001928E-02 0. -1.
    10030    2    1    2    0    0  0.00000000000E+00  0.00000000000E+00 -0.50973945358E+03  0.37288921934E+04  0.36938872045E+04 0.  0.
        4    1    3    3  502    0  0.13595059186E+04  0.13103654757E+02  0.10070852791E+04  0.16919368844E+04  0.12699999809E+01 0.  1.
       -4    1    3    3    0  502 -0.13595059186E+04 -0.13103654757E+02 -0.15168247327E+04  0.20369553090E+04  0.12699999809E+01 0. -1.
</event>
<event>
 5   0  0.4687817E-07  0.3702152E+04  0.7818609E-02  0.8067485E-01
        2   -1    0    0  501    0  0.00000000000E+00  0.00000000000E+00  0.23582903893E+04  0.23582903893E+04  0.25500000920E-02 0. -1.
       -2   -1    0    0    0  501  0.00000000000E+00  0.00000000000E+00 -0.14529518506E+04  0.14529518506E+04  0.25500000920E-02 0.  1.
    10030    2    1    2    0    0  0.00000000000E+00  0.00000000000E+00  0.90533853866E+03  0.38112422400E+04  0.37021520150E+04 0.  0.
        4    1    3    3  502    0 -0.16339187014E+04  0.85256257188E+03  0.27457596032E+03  0.18633160850E+04  0.12699999809E+01 0.  1.
       -4    1    3    3    0  502  0.16339187014E+04 -0.85256257188E+03  0.63076257834E+03  0.19479261549E+04  0.12699999809E+01 0. -1.
</event>
<event>
 5   0  0.4824268E-07  0.3673798E+04  0.7818609E-02  0.8073793E-01
       -2   -1    0    0    0  501  0.00000000000E+00  0.00000000000E+00  0.19139732278E+04  0.19139732278E+04  0.25500000920E-02 0.  1.
        2   -1    0    0  501    0  0.00000000000E+00  0.00000000000E+00 -0.17629286854E+04  0.17629286854E+04  0.25500000920E-02 0. -1.
    10030    2    1    2    0    0  0.00000000000E+00  0.00000000000E+00  0.15104454233E+03  0.36769019132E+04  0.36737982015E+04 0.  0.
        1    1    3    3  502    0 -0.33837881919E+03 -0.47366371014E+03  0.18192170818E+04  0.19100807120E+04  0.50400001928E-02 0.  1.
       -1    1    3    3    0  502  0.33837881919E+03  0.47366371014E+03 -0.16681725395E+04  0.17668212012E+04  0.50400001928E-02 0. -1.
</event>
<event>
 5   0  0.4857514E-07  0.3703509E+04  0.7818609E-02  0.8067185E-01
        2   -1    0    0  501    0  0.00000000000E+00  0.00000000000E+00  0.17673960576E+04  0.17673960576E+04  0.25500000920E-02 0. -1.
       -2   -1    0    0    0  501  0.00000000000E+00  0.00000000000E+00 -0.19401392899E+04  0.19401392899E+04  0.25500000920E-02 0.  1.
    10030    2    1    2    0    0  0.00000000000E+00  0.00000000000E+00 -0.17274323227E+03  0.37075353475E+04  0.37035088941E+04 0.  0.
        5    1    3    3  502    0 -0.10788389954E+04  0.14821051243E+04  0.17552945023E+03  0.18415650560E+04  0.46999998093E+01 0. -1.
       -5    1    3    3    0  502  0.10788389954E+04 -0.14821051243E+04 -0.34827268250E+03  0.18659702915E+04  0.46999998093E+01 0.  1.
</event>
<event>
 5   0  0.4758908E-07  0.3708867E+04  0.7818609E-02  0.8066000E-01
        2   -1    0    0  501    0  0.00000000000E+00  0.00000000000E+00  0.26544259732E+04  0.26544259732E+04  0.25500000920E-02 0.  1.
       -2   -1    0    0    0  501  0.00000000000E+00  0.00000000000E+00 -0.12955435653E+04  0.12955435653E+04  0.25500000920E-02 0. -1.
    10030    2    1    2    0    0  0.00000000000E+00  0.00000000000E+00  0.13588824079E+04  0.39499695385E+04  0.37088674763E+04 0.  0.
        2    1    3    3  502    0  0.54077817057E+02 -0.16472527358E+04 -0.22585133057E+03  0.16635428487E+04  0.25500000920E-02 0. -1.
       -2    1    3    3    0  502 -0.54077817057E+02  0.16472527358E+04  0.15847337385E+04  0.22864266898E+04  0.25500000920E-02 0.  1.
</event>
<event>
 5   0  0.1496000E-07  0.3694786E+04  0.7818609E-02  0.8069118E-01
       -1   -1    0    0    0  501  0.00000000000E+00  0.00000000000E+00  0.15531243157E+04  0.15531243157E+04  0.50400001928E-02 0.  1.
        1   -1    0    0  501    0  0.00000000000E+00  0.00000000000E+00 -0.21974164288E+04  0.21974164288E+04  0.50400001928E-02 0. -1.
    10030    2    1    2    0    0  0.00000000000E+00  0.00000000000E+00 -0.64429211316E+03  0.37505407445E+04  0.36947859950E+04 0.  0.
        2    1    3    3  502    0 -0.13842033241E+04  0.11937489106E+04 -0.50136785954E+02  0.18285428629E+04  0.25500000920E-02 0.  1.
       -2    1    3    3    0  502  0.13842033241E+04 -0.11937489106E+04 -0.59415532721E+03  0.19219978816E+04  0.25500000920E-02 0. -1.
</event>
<event>
 5   0  0.1496287E-07  0.3579863E+04  0.7818609E-02  0.8095120E-01
        1   -1    0    0  501    0  0.00000000000E+00  0.00000000000E+00  0.19629025143E+04  0.19629025143E+04  0.50400001928E-02 0. -1.
       -1   -1    0    0    0  501  0.00000000000E+00  0.00000000000E+00 -0.16322029421E+04  0.16322029421E+04  0.50400001928E-02 0.  1.
    10030    2    1    2    0    0  0.00000000000E+00  0.00000000000E+00  0.33069957224E+03  0.35951054564E+04  0.35798632705E+04 0.  0.
        1    1    3    3  502    0 -0.78034096468E+03  0.54720271153E+03  0.16868889211E+04  0.19375131125E+04  0.50400001928E-02 0. -1.
       -1    1    3    3    0  502  0.78034096468E+03 -0.54720271153E+03 -0.13561893489E+04  0.16575923440E+04  0.50400001928E-02 0.  1.
</event>
<event>
 5   0  0.4857514E-07  0.3692232E+04  0.7818609E-02  0.8069686E-01
        2   -1    0    0  501    0  0.00000000000E+00  0.00000000000E+00  0.30620063186E+04  0.30620063186E+04  0.25500000920E-02 0. -1.
       -2   -1    0    0    0  501  0.00000000000E+00  0.00000000000E+00 -0.11130425969E+04  0.11130425969E+04  0.25500000920E-02 0.  1.
    10030    2    1    2    0    0  0.00000000000E+00  0.00000000000E+00  0.19489637217E+04  0.41750489156E+04  0.36922315554E+04 0.  0.
        5    1    3    3  502    0  0.13824849125E+02  0.61355066692E+03  0.29432764611E+04  0.30065817740E+04  0.46999998093E+01 0. -1.
       -5    1    3    3    0  502 -0.13824849125E+02 -0.61355066692E+03 -0.99431273936E+03  0.11684671416E+04  0.46999998093E+01 0.  1.
</event>
<event>
 5   0  0.4824268E-07  0.3702923E+04  0.7818609E-02  0.8067314E-01
       -2   -1    0    0    0  501  0.00000000000E+00  0.00000000000E+00  0.17072531088E+04  0.17072531088E+04  0.25500000920E-02 0.  1.
        2   -1    0    0  501    0  0.00000000000E+00  0.00000000000E+00 -0.20078511509E+04  0.20078511509E+04  0.25500000920E-02 0. -1.
    10030    2    1    2    0    0  0.00000000000E+00  0.00000000000E+00 -0.30059804212E+03  0.37151042597E+04  0.37029232341E+04 0.  0.
        1    1    3    3  502    0  0.12629415488E+04  0.70637268878E+02  0.12061466745E+04  0.17477988385E+04  0.50400001928E-02 0.  1.
       -1    1    3    3    0  502 -0.12629415488E+04 -0.70637268878E+02 -0.15067447166E+04  0.19673054213E+04  0.50400001928E-02 0. -1.
</event>
<event>
 5   0  0.1496000E-07  0.3711445E+04  0.7818609E-02  0.8065430E-01
       -3   -1    0    0    0  501  0.00000000000E+00  0.00000000000E+00  0.21901292753E+04  0.21901292776E+04  0.10100000352E+00 0. -1.
        3   -1    0    0  501    0  0.00000000000E+00  0.00000000000E+00 -0.15723758958E+04  0.15723758991E+04  0.10100000352E+00 0.  1.
    10030    2    1    2    0    0  0.00000000000E+00  0.00000000000E+00  0.61775337949E+03  0.37625051767E+04  0.37114452666E+04 0.  0.
        4    1    3    3  502    0 -0.55206792589E+03  0.94499313723E+03  0.18281314050E+04  0.21306940351E+04  0.12699999809E+01 0. -1.
       -4    1    3    3    0  502  0.55206792589E+03 -0.94499313723E+03 -0.12103780256E+04  0.16318111416E+04  0.12699999809E+01 0.  1.
</event>
<event>
 5   0  0.1496000E-07  0.3707547E+04  0.7818609E-02  0.8066291E-01
        1   -1    0    0  501    0  0.00000000000E+00  0.00000000000E+00  0.30144364909E+04  0.30144364909E+04  0.50400001928E-02 0. -1.
       -1   -1    0    0    0  501  0.00000000000E+00  0.00000000000E+00 -0.11400062309E+04  0.11400062309E+04  0.50400001928E-02 0.  1.
    10030    2    1    2    0    0  0.00000000000E+00  0.00000000000E+00  0.18744302599E+04  0.41544427218E+04  0.37075471042E+04 0.  0.
        3    1    3    3  502    0 -0.13225282469E+03  0.39691785988E+03  0.29608442163E+04  0.29902563570E+04  0.10100000352E+00 0. -1.
       -3    1    3    3    0  502  0.13225282469E+03 -0.39691785988E+03 -0.10864139564E+04  0.11641863648E+04  0.10100000352E+00 0.  1.
</event>
<event>
 5   0  0.4857514E-07  0.3726629E+04  0.7818609E-02  0.8062086E-01
       -2   -1    0    0    0  501  0.00000000000E+00  0.00000000000E+00  0.32917112814E+04  0.32917112814E+04  0.25500000920E-02 0.  1.
        2   -1    0    0  501    0  0.00000000000E+00  0.00000000000E+00 -0.10547525769E+04  0.10547525769E+04  0.25500000920E-02 0. -1.
    10030    2    1    2    0    0  0.00000000000E+00  0.00000000000E+00  0.22369587045E+04  0.43464638583E+04  0.37266290164E+04 0.  0.
        5    1    3    3  502    0 -0.18449472062E+04 -0.11544490542E+03  0.13914124335E+04  0.23137001469E+04  0.46999998093E+01 0. -1.
       -5    1    3    3    0  502  0.18449472062E+04  0.11544490542E+03  0.84554627104E+03  0.20327637114E+04  0.46999998093E+01 0.  1.
</event>
<event>
 5   0  0.1496000E-07  0.3772013E+04  0.7818609E-02  0.8052188E-01
       -1   -1    0    0    0  501  0.00000000000E+00  0.00000000000E+00  0.13509615984E+04  0.13509615984E+04  0.50400001928E-02 0.  1.
        1   -1    0    0  501    0  0.00000000000E+00  0.00000000000E+00 -0.26329550632E+04  0.26329550632E+04  0.50400001928E-02 0. -1.
    10030    2    1    2    0    0  0.00000000000E+00  0.00000000000E+00 -0.12819934647E+04  0.39839166616E+04  0.37720133514E+04 0.  0.
        3    1    3    3  502    0 -0.67401647314E+03 -0.94300994208E+03 -0.22123447905E+04  0.24976059416E+04  0.10100000352E+00 0. -1.
       -3    1    3    3    0  502  0.67401647314E+03  0.94300994208E+03  0.93035132581E+03  0.14863107201E+04  0.10100000352E+00 0.  1.
</event>
<event>
 5   0  0.4857514E-07  0.3712471E+04  0.7818609E-02  0.8065204E-01
        2   -1    0    0  501    0  0.00000000000E+00  0.00000000000E+00  0.30128801842E+04  0.30128801842E+04  0.25500000920E-02 0. -1.
       -2   -1    0    0    0  501  0.00000000000E+00  0.00000000000E+00 -0.11436268650E+04  0.11436268650E+04  0.25500000920E-02 0.  1.
    10030    2    1    2    0    0  0.00000000000E+00  0.00000000000E+00  0.18692533192E+04  0.41565070492E+04  0.37124712631E+04 0.  0.
        5    1    3    3  502    0  0.87360800919E+03  0.16310099232E+04  0.76779286534E+03  0.20032254734E+04  0.46999998093E+01 0.  1.
       -5    1    3    3    0  502 -0.87360800919E+03 -0.16310099232E+04  0.11014604538E+04  0.21532815758E+04  0.46999998093E+01 0. -1.
</event>
<event>
 5   0  0.1496000E-07  0.3622311E+04  0.7818609E-02  0.8085400E-01
       -1   -1    0    0    0  501  0.00000000000E+00  0.00000000000E+00  0.11672298411E+04  0.11672298411E+04  0.50400001928E-02 0. -1.
        1   -1    0    0  501    0  0.00000000000E+00  0.00000000000E+00 -0.28103155670E+04  0.28103155670E+04  0.50400001928E-02 0.  1.
    10030    2    1    2    0    0  0.00000000000E+00  0.00000000000E+00 -0.16430857259E+04  0.39775454082E+04  0.36223109711E+04 0.  0.
        2    1    3    3  502    0  0.97138564570E+02  0.18047504086E+04 -0.69290352466E+03  0.19356330315E+04  0.25500000920E-02 0. -1.
       -2    1    3    3    0  502 -0.97138564570E+02 -0.18047504086E+04 -0.95018220128E+03  0.20419123766E+04  0.25500000920E-02 0.  1.
</event>
<event>
 5   0  0.4824268E-07  0.3687874E+04  0.7818609E-02  0.8070654E-01
        2   -1    0    0  501    0  0.00000000000E+00  0.00000000000E+00  0.16712713123E+04  0.16712713123E+04  0.25500000920E-02 0. -1.
       -2   -1    0    0    0  501  0.00000000000E+00  0.00000000000E+00 -0.20344411388E+04  0.20344411388E+04  0.25500000920E-02 0.  1.
    10030    2    1    2    0    0  0.00000000000E+00  0.00000000000E+00 -0.36316982653E+03  0.37057124510E+04  0.36878737027E+04 0.  0.
        1    1    3    3  502    0  0.88781625098E+03 -0.43322158703E+03  0.13829321399E+04  0.16995293297E+04  0.50400001928E-02 0. -1.
       -1    1    3    3    0  502 -0.88781625098E+03  0.43322158703E+03 -0.17461019664E+04  0.20061831213E+04  0.50400001928E-02 0.  1.
</event>
<event>
 5   0  0.1496000E-07  0.3697655E+04  0.7818609E-02  0.8068482E-01
       -1   -1    0    0    0  501  0.00000000000E+00  0.00000000000E+00  0.13451618284E+04  0.13451618284E+04  0.50400001928E-02 0.  1.
        1   -1    0    0  501    0  0.00000000000E+00  0.00000000000E+00 -0.25410800453E+04  0.25410800453E+04  0.50400001928E-02 0. -1.
    10030    2    1    2    0    0  0.00000000000E+00  0.00000000000E+00 -0.11959182169E+04  0.38862418737E+04  0.36976554084E+04 0.  0.
        2    1    3    3  502    0 -0.16560606619E+04 -0.70117820959E+03 -0.14715893542E+03  0.18043956190E+04  0.25500000920E-02 0.  1.
       -2    1    3    3    0  502  0.16560606619E+04  0.70117820959E+03 -0.10487592815E+04  0.20818462547E+04  0.25500000920E-02 0. -1.
</event>
<event>
 5   0  0.4687817E-07  0.3698837E+04  0.7818609E-02  0.8068220E-01
       -2   -1    0    0    0  501  0.00000000000E+00  0.00000000000E+00  0.16982964331E+04  0.16982964331E+04  0.25500000920E-02 0. -1.
        2   -1    0    0  501    0  0.00000000000E+00  0.00000000000E+00 -0.20139883864E+04  0.20139883864E+04  0.25500000920E-02 0.  1.
    10030    2    1    2    0    0  0.00000000000E+00  0.00000000000E+00 -0.31569195333E+03  0.37122848195E+04  0.36988372730E+04 0.  0.
        4    1    3    3  502    0 -0.54984163490E+03 -0.16916856207E+04 -0.66586964759E+03  0.18993446404E+04  0.12699999809E+01 0.  1.
       -4    1    3    3    0  502  0.54984163490E+03  0.16916856207E+04  0.35017769426E+03  0.18129401791E+04  0.12699999809E+01 0. -1.
</event>
<event>
 5   0  0.1522273E-07  0.3772375E+04  0.7818609E-02  0.8052109E-01
        1   -1    0    0  501    0  0.00000000000E+00  0.00000000000E+00  0.25282040557E+04  0.25282040557E+04  0.50400001928E-02 0.  1.
       -1   -1    0    0    0  501  0.00000000000E+00  0.00000000000E+00 -0.14072059523E+04  0.14072059524E+04  0.50400001928E-02 0. -1.
    10030    2    1    2    0    0  0.00000000000E+00  0.00000000000E+00  0.11209981033E+04  0.39354100080E+04  0.37723752708E+04 0.  0.
        4    1    3    3  502    0  0.11315288433E+04  0.64251173577E+03 -0.86398964458E+03  0.15619406431E+04  0.12699999809E+01 0. -1.
       -4    1    3    3    0  502 -0.11315288433E+04 -0.64251173577E+03  0.19849877479E+04  0.23734693649E+04  0.12699999809E+01 0.  1.
</event>
<event>
 5   0  0.1496000E-07  0.3636156E+04  0.7818609E-02  0.8082260E-01
       -1   -1    0    0    0  501  0.00000000000E+00  0.00000000000E+00  0.30118123457E+04  0.30118123457E+04  0.50400001928E-02 0.  1.
        1   -1    0    0  501    0  0.00000000000E+00  0.00000000000E+00 -0.10974810165E+04  0.10974810165E+04  0.50400001928E-02 0. -1.
    10030    2    1    2    0    0  0.00000000000E+00  0.00000000000E+00  0.19143313291E+04  0.41092933622E+04  0.36361555933E+04 0.  0.
        2    1    3    3  502    0  0.44394500910E+03  0.49917541982E+03 -0.95375506818E+03  0.11644363447E+04  0.25500000920E-02 0. -1.
       -2    1    3    3    0  502 -0.44394500910E+03 -0.49917541982E+03  0.28680863973E+04  0.29448570175E+04  0.25500000920E-02 0.  1.
</event>
<event>
 5   0  0.1496000E-07  0.3686785E+04  0.7818609E-02  0.8070897E-01
       -1   -1    0    0    0  501  0.00000000000E+00  0.00000000000E+00  0.20665650721E+04  0.20665650721E+04  0.50400001928E-02 0.  1.
        1   -1    0    0  501    0  0.00000000000E+00  0.00000000000E+00 -0.16443207776E+04  0.16443207776E+04  0.50400001928E-02 0. -1.
    10030    2    1    2    0    0  0.00000000000E+00  0.00000000000E+00  0.42224429448E+03  0.37108858497E+04  0.36867849877E+04 0.  0.
        5    1    3    3  502    0  0.48540359247E+03 -0.14012064975E+04  0.13133043949E+04  0.19808550729E+04  0.46999998093E+01 0.  1.
       -5    1    3    3    0  502 -0.48540359247E+03  0.14012064975E+04 -0.89106010042E+03  0.17300307768E+04  0.46999998093E+01 0. -1.
</event>
<event>
 5   0  0.1496000E-07  0.3619207E+04  0.7818609E-02  0.8086106E-01
        1   -1    0    0  501    0  0.00000000000E+00  0.00000000000E+00  0.27444032326E+04  0.27444032326E+04  0.50400001928E-02 0. -1.
       -1   -1    0    0    0  501  0.00000000000E+00  0.00000000000E+00 -0.11932158163E+04  0.11932158164E+04  0.50400001928E-02 0.  1.
    10030    2    1    2    0    0  0.00000000000E+00  0.00000000000E+00  0.15511874163E+04  0.39376190490E+04  0.36192072854E+04 0.  0.
        2    1    3    3  502    0 -0.47452576802E+03 -0.64178779843E+03  0.25425452108E+04  0.26648831928E+04  0.25500000920E-02 0. -1.
       -2    1    3    3    0  502  0.47452576802E+03  0.64178779843E+03 -0.99135779450E+03  0.12727358561E+04  0.25500000920E-02 0.  1.
</event>
<event>
 5   0  0.1496000E-07  0.3691116E+04  0.7818609E-02  0.8069934E-01
       -1   -1    0    0    0  501  0.00000000000E+00  0.00000000000E+00  0.17420079355E+04  0.17420079355E+04  0.50400001928E-02 0. -1.
        1   -1    0    0  501    0  0.00000000000E+00  0.00000000000E+00 -0.19552631015E+04  0.19552631015E+04  0.50400001928E-02 0.  1.
    10030    2    1    2    0    0  0.00000000000E+00  0.00000000000E+00 -0.21325516602E+03  0.36972710370E+04  0.36911157331E+04 0.  0.
        3    1    3    3  502    0  0.73965000709E+03 -0.16188114091E+04  0.38250150338E+03  0.18204230062E+04  0.10100000352E+00 0.  1.
       -3    1    3    3    0  502 -0.73965000709E+03  0.16188114091E+04 -0.59575666940E+03  0.18768480308E+04  0.10100000352E+00 0. -1.
</event>
<event>
 5   0  0.1496000E-07  0.3632792E+04  0.7818609E-02  0.8083021E-01
        1   -1    0    0  501    0  0.00000000000E+00  0.00000000000E+00  0.22106612830E+04  0.22106612830E+04  0.50400001928E-02 0. -1.
       -1   -1    0    0    0  501  0.00000000000E+00  0.00000000000E+00 -0.14924469012E+04  0.14924469012E+04  0.50400001928E-02 0.  1.
    10030    2    1    2    0    0  0.00000000000E+00  0.00000000000E+00  0.71821438177E+03  0.37031081842E+04  0.36327920840E+04 0.  0.
        5    1    3    3  502    0  0.38611212183E+03  0.44173442941E+03  0.21114095844E+04  0.21914115085E+04  0.46999998093E+01 0. -1.
       -5    1    3    3    0  502 -0.38611212183E+03 -0.44173442941E+03 -0.13931952026E+04  0.15116966757E+04  0.46999998093E+01 0.  1.
</event>
<event>
 5   0  0.1496000E-07  0.3549982E+04  0.7818609E-02  0.8102046E-01
        1   -1    0    0  501    0  0.00000000000E+00  0.00000000000E+00  0.26270662732E+04  0.26270662732E+04  0.50400001928E-02 0. -1.
       -1   -1    0    0    0  501  0.00000000000E+00  0.00000000000E+00 -0.11992818130E+04  0.11992818130E+04  0.50400001928E-02 0.  1.
    10030    2    1    2    0    0  0.00000000000E+00  0.00000000000E+00  0.14277844602E+04  0.38263480861E+04  0.35499818607E+04 0.  0.
        5    1    3    3  502    0  0.68771160365E+02 -0.10949438470E+04  0.22178461768E+04  0.24743676474E+04  0.46999998093E+01 0. -1.
       -5    1    3    3    0  502 -0.68771160365E+02  0.10949438470E+04 -0.79006171659E+03  0.13519804387E+04  0.46999998093E+01 0.  1.
</event>
<event>
 5   0  0.1496000E-07  0.3729069E+04  0.7818609E-02  0.8061550E-01
       -1   -1    0    0    0  501  0.00000000000E+00  0.00000000000E+00  0.25079885095E+04  0.25079885095E+04  0.50400001928E-02 0.  1.
        1   -1    0    0  501    0  0.00000000000E+00  0.00000000000E+00 -0.13861664021E+04  0.13861664021E+04  0.50400001928E-02 0. -1.
    10030    2    1    2    0    0  0.00000000000E+00  0.00000000000E+00  0.11218221074E+04  0.38941549116E+04  0.37290692719E+04 0.  0.
        5    1    3    3  502    0  0.17707302736E+04 -0.55991793611E+03  0.38782186579E+03  0.18972141910E+04  0.46999998093E+01 0. -1.
       -5    1    3    3    0  502 -0.17707302736E+04  0.55991793611E+03  0.73400024163E+03  0.19969407206E+04  0.46999998093E+01 0.  1.
</event>
<event>
 5   0  0.4687817E-07  0.3245250E+04  0.7818609E-02  0.8176968E-01
       -2   -1    0    0    0  501  0.00000000000E+00  0.00000000000E+00  0.16625295181E+04  0.16625295181E+04  0.25500000920E-02 0.  1.
        2   -1    0    0  501    0  0.00000000000E+00  0.00000000000E+00 -0.15836779614E+04  0.15836779614E+04  0.25500000920E-02 0. -1.
    10030    2    1    2    0    0  0.00000000000E+00  0.00000000000E+00  0.78851556701E+02  0.32462074795E+04  0.32452496718E+04 0.  0.
        4    1    3    3  502    0 -0.43429394503E+03  0.12297321396E+04  0.10051419054E+04  0.16465613346E+04  0.12699999809E+01 0.  1.
       -4    1    3    3    0  502  0.43429394503E+03 -0.12297321396E+04 -0.92629034867E+03  0.15996461449E+04  0.12699999809E+01 0. -1.
</event>
<event>
 5   0  0.1522273E-07  0.3699671E+04  0.7818609E-02  0.8068035E-01
       -1   -1    0    0    0  501  0.00000000000E+00  0.00000000000E+00  0.13539969170E+04  0.13539969170E+04  0.50400001928E-02 0.  1.
        1   -1    0    0  501    0  0.00000000000E+00  0.00000000000E+00 -0.25272522590E+04  0.25272522590E+04  0.50400001928E-02 0. -1.
    10030    2    1    2    0    0  0.00000000000E+00  0.00000000000E+00 -0.11732553420E+04  0.38812491759E+04  0.36996712108E+04 0.  0.
        4    1    3    3  502    0 -0.71852698579E+01  0.17103234827E+04  0.15268098881E+03  0.17171403964E+04  0.12699999809E+01 0.  1.
       -4    1    3    3    0  502  0.71852698579E+01 -0.17103234827E+04 -0.13259363308E+04  0.21641087796E+04  0.12699999809E+01 0. -1.
</event>
<event>
 5   0  0.4793557E-07  0.3603655E+04  0.7818609E-02  0.8089655E-01
       -2   -1    0    0    0  501  0.00000000000E+00  0.00000000000E+00  0.18735767104E+04  0.18735767104E+04  0.25500000920E-02 0.  1.
        2   -1    0    0  501    0  0.00000000000E+00  0.00000000000E+00 -0.17328259505E+04  0.17328259505E+04  0.25500000920E-02 0. -1.
    10030    2    1    2    0    0  0.00000000000E+00  0.00000000000E+00  0.14075075988E+03  0.36064026608E+04  0.36036550023E+04 0.  0.
        3    1    3    3  502    0  0.14147387081E+04  0.77808534897E+03  0.87078511830E+03  0.18344397387E+04  0.10100000352E+00 0.  1.
       -3    1    3    3    0  502 -0.14147387081E+04 -0.77808534897E+03 -0.73003435842E+03  0.17719629221E+04  0.10100000352E+00 0. -1.
</event>
<event>
 5   0  0.4824268E-07  0.3318806E+04  0.7818609E-02  0.8158127E-01
       -2   -1    0    0    0  501  0.00000000000E+00  0.00000000000E+00  0.13377847310E+04  0.13377847310E+04  0.25500000920E-02 0. -1.
        2   -1    0    0  501    0  0.00000000000E+00  0.00000000000E+00 -0.20583424330E+04  0.20583424330E+04  0.25500000920E-02 0.  1.
    10030    2    1    2    0    0  0.00000000000E+00  0.00000000000E+00 -0.72055770203E+03  0.33961271640E+04  0.33188064589E+04 0.  0.
        1    1    3    3  502    0 -0.61352464588E+02  0.15959549230E+04  0.10052660666E+03  0.16002942978E+04  0.50400001928E-02 0. -1.
       -1    1    3    3    0  502  0.61352464588E+02 -0.15959549230E+04 -0.82108430869E+03  0.17958328661E+04  0.50400001928E-02 0.  1.
</event>
<event>
 5   0  0.1522273E-07  0.3706700E+04  0.7818609E-02  0.8066479E-01
       -1   -1    0    0    0  501  0.00000000000E+00  0.00000000000E+00  0.15516346395E+04  0.15516346395E+04  0.50400001928E-02 0. -1.
        1   -1    0    0  501    0  0.00000000000E+00  0.00000000000E+00 -0.22137339199E+04  0.22137339199E+04  0.50400001928E-02 0.  1.
    10030    2    1    2    0    0  0.00000000000E+00  0.00000000000E+00 -0.66209928041E+03  0.37653685594E+04  0.37067000055E+04 0.  0.
        4    1    3    3  502    0 -0.18521108917E+04  0.32285984832E+02 -0.39155307546E+03  0.18933231535E+04  0.12699999809E+01 0.  1.
       -4    1    3    3    0  502  0.18521108917E+04 -0.32285984832E+02 -0.27054620495E+03  0.18720454059E+04  0.12699999809E+01 0. -1.
</event>
<event>
 5   0  0.4824268E-07  0.3630104E+04  0.7818609E-02  0.8083631E-01
       -2   -1    0    0    0  501  0.00000000000E+00  0.00000000000E+00  0.12410841225E+04  0.12410841225E+04  0.25500000920E-02 0.  1.
        2   -1    0    0  501    0  0.00000000000E+00  0.00000000000E+00 -0.26544638977E+04  0.26544638977E+04  0.25500000920E-02 0. -1.
    10030    2    1    2    0    0  0.00000000000E+00  0.00000000000E+00 -0.14133797752E+04  0.38955480202E+04  0.36301035783E+04 0.  0.
        1    1    3    3  502    0 -0.11330379985E+04  0.95942275787E+03  0.41375848652E+03  0.15412537817E+04  0.50400001928E-02 0.  1.
       -1    1    3    3    0  502  0.11330379985E+04 -0.95942275787E+03 -0.18271382617E+04  0.23542942385E+04  0.50400001928E-02 0. -1.
</event>
<event>
 5   0  0.4793557E-07  0.3689639E+04  0.7818609E-02  0.8070262E-01
        2   -1    0    0  501    0  0.00000000000E+00  0.00000000000E+00  0.24513940672E+04  0.24513940672E+04  0.25500000920E-02 0.  1.
       -2   -1    0    0    0  501  0.00000000000E+00  0.00000000000E+00 -0.13883360615E+04  0.13883360615E+04  0.25500000920E-02 0. -1.
    10030    2    1    2    0    0  0.00000000000E+00  0.00000000000E+00  0.10630580057E+04  0.38397301288E+04  0.36896388900E+04 0.  0.
        3    1    3    3  502    0  0.12225888649E+04 -0.51175297351E+03 -0.80392797328E+03  0.15501338119E+04  0.10100000352E+00 0. -1.
       -3    1    3    3    0  502 -0.12225888649E+04  0.51175297351E+03  0.18669859790E+04  0.22895963169E+04  0.10100000352E+00 0.  1.
</event>
<event>
 5   0  0.1496000E-07  0.3699263E+04  0.7818609E-02  0.8068125E-01
       -1   -1    0    0    0  501  0.00000000000E+00  0.00000000000E+00  0.18062719933E+04  0.18062719933E+04  0.50400001928E-02 0.  1.
        1   -1    0    0  501    0  0.00000000000E+00  0.00000000000E+00 -0.18940313619E+04  0.18940313619E+04  0.50400001928E-02 0. -1.
    10030    2    1    2    0    0  0.00000000000E+00  0.00000000000E+00 -0.87759368587E+02  0.37003033552E+04  0.36992625229E+04 0.  0.
        2    1    3    3  502    0  0.86130511291E+03  0.68831841136E+03  0.14416331353E+04  0.18149200615E+04  0.25500000920E-02 0.  1.
       -2    1    3    3    0  502 -0.86130511291E+03 -0.68831841136E+03 -0.15293925039E+04  0.18853832936E+04  0.25500000920E-02 0. -1.
</event>
<event>
 5   0  0.4793557E-07  0.3753333E+04  0.7818609E-02  0.8056244E-01
       -2   -1    0    0    0  501  0.00000000000E+00  0.00000000000E+00  0.13919700404E+04  0.13919700404E+04  0.25500000920E-02 0.  1.
        2   -1    0    0  501    0  0.00000000000E+00  0.00000000000E+00 -0.25301391329E+04  0.25301391329E+04  0.25500000920E-02 0. -1.
    10030    2    1    2    0    0  0.00000000000E+00  0.00000000000E+00 -0.11381690925E+04  0.39221091734E+04  0.37533333831E+04 0.  0.
        3    1    3    3  502    0 -0.13623195080E+04 -0.12479241845E+04 -0.22464365711E+03  0.18611002109E+04  0.10100000352E+00 0.  1.
       -3    1    3    3    0  502  0.13623195080E+04  0.12479241845E+04 -0.91352543537E+03  0.20610089625E+04  0.10100000352E+00 0. -1.
</event>
<event>
 5   0  0.1496287E-07  0.3691806E+04  0.7818609E-02  0.8069780E-01
        1   -1    0    0  501    0  0.00000000000E+00  0.00000000000E+00  0.22471900783E+04  0.22471900783E+04  0.50400001928E-02 0.  1.
       -1   -1    0    0    0  501  0.00000000000E+00  0.00000000000E+00 -0.15162748954E+04  0.15162748954E+04  0.50400001928E-02 0. -1.
    10030    2    1    2    0    0  0.00000000000E+00  0.00000000000E+00  0.73091518283E+03  0.37634649737E+04  0.36918060084E+04 0.  0.
        1    1    3    3  502    0 -0.57767937907E+03  0.51967696575E+03 -0.13414322944E+04  0.15502316647E+04  0.50400001928E-02 0. -1.
       -1    1    3    3    0  502  0.57767937907E+03 -0.51967696575E+03  0.20723474772E+04  0.22132333090E+04  0.50400001928E-02 0.  1.
</event>
<event>
 5   0  0.1496000E-07  0.3625827E+04  0.7818609E-02  0.8084601E-01
        1   -1    0    0  501    0  0.00000000000E+00  0.00000000000E+00  0.14584586034E+04  0.14584586034E+04  0.50400001928E-02 0. -1.
       -1   -1    0    0    0  501  0.00000000000E+00  0.00000000000E+00 -0.22535130038E+04  0.22535130038E+04  0.50400001928E-02 0.  1.
    10030    2    1    2    0    0  0.00000000000E+00  0.00000000000E+00 -0.79505440044E+03  0.37119716072E+04  0.36258270385E+04 0.  0.
        2    1    3    3  502    0 -0.17180161384E+04 -0.52505116170E+03 -0.14802134269E+03  0.18025450042E+04  0.25500000920E-02 0.  1.
       -2    1    3    3    0  502  0.17180161384E+04  0.52505116170E+03 -0.64703305775E+03  0.19094266030E+04  0.25500000920E-02 0. -1.
</event>
<event>
 5   0  0.1496287E-07  0.3545059E+04  0.7818609E-02  0.8103194E-01
        1   -1    0    0  501    0  0.00000000000E+00  0.00000000000E+00  0.12680067273E+04  0.12680067273E+04  0.50400001928E-02 0. -1.
       -1   -1    0    0    0  501  0.00000000000E+00  0.00000000000E+00 -0.24777950597E+04  0.24777950597E+04  0.50400001928E-02 0.  1.
    10030    2    1    2    0    0  0.00000000000E+00  0.00000000000E+00 -0.12097883324E+04  0.37458017870E+04  0.35450589865E+04 0.  0.
        1    1    3    3  502    0 -0.91195730476E+03 -0.11956093540E+04  0.38671040034E+03  0.15526405852E+04  0.50400001928E-02 0.  1.
       -1    1    3    3    0  502  0.91195730476E+03  0.11956093540E+04 -0.15964987327E+04  0.21931612017E+04  0.50400001928E-02 0. -1.
</event>
<event>
 5   0  0.4824268E-07  0.3478412E+04  0.7818609E-02  0.8118925E-01
        2   -1    0    0  501    0  0.00000000000E+00  0.00000000000E+00  0.16638453471E+04  0.16638453471E+04  0.25500000920E-02 0.  1.
       -2   -1    0    0    0  501  0.00000000000E+00  0.00000000000E+00 -0.18179800117E+04  0.18179800117E+04  0.25500000920E-02 0. -1.
    10030    2    1    2    0    0  0.00000000000E+00  0.00000000000E+00 -0.15413466465E+03  0.34818253588E+04  0.34784120421E+04 0.  0.
        1    1    3    3  502    0  0.89463415223E+03  0.95948918822E+03 -0.12200493818E+04  0.17915106091E+04  0.50400001928E-02 0. -1.
       -1    1    3    3    0  502 -0.89463415223E+03 -0.95948918822E+03  0.10659147171E+04  0.16903147497E+04  0.50400001928E-02 0.  1.
</event>
<event>
 5   0  0.1496287E-07  0.3695745E+04  0.7818609E-02  0.8068906E-01
       -1   -1    0    0    0  501  0.00000000000E+00  0.00000000000E+00  0.29960213135E+04  0.29960213135E+04  0.50400001928E-02 0. -1.
        1   -1    0    0  501    0  0.00000000000E+00  0.00000000000E+00 -0.11397221996E+04  0.11397221997E+04  0.50400001928E-02 0.  1.
    10030    2    1    2    0    0  0.00000000000E+00  0.00000000000E+00  0.18562991139E+04  0.41357435132E+04  0.36957445808E+04 0.  0.
        1    1    3    3  502    0  0.12232040924E+04  0.27252911563E+03  0.24478136676E+04  0.27499622037E+04  0.50400001928E-02 0. -1.
       -1    1    3    3    0  502 -0.12232040924E+04 -0.27252911563E+03 -0.59151455372E+03  0.13857813095E+04  0.50400001928E-02 0.  1.
</event>
<event>
 5   0  0.1522273E-07  0.3687501E+04  0.7818609E-02  0.8070737E-01
       -1   -1    0    0    0  501  0.00000000000E+00  0.00000000000E+00  0.17202170499E+04  0.17202170499E+04  0.50400001928E-02 0. -1.
        1   -1    0    0  501    0  0.00000000000E+00  0.00000000000E+00 -0.19761553088E+04  0.19761553088E+04  0.50400001928E-02 0.  1.
    10030    2    1    2    0    0  0.00000000000E+00  0.00000000000E+00 -0.25593825891E+03  0.36963723588E+04  0.36875010810E+04 0.  0.
        4    1    3    3  502    0 -0.11330041764E+04  0.93344796385E+03  0.99023725366E+03  0.17707611348E+04  0.12699999809E+01 0. -1.
       -4    1    3    3    0  502  0.11330041764E+04 -0.93344796385E+03 -0.12461755126E+04  0.19256112240E+04  0.12699999809E+01 0.  1.
</event>
<event>
 5   0  0.4758908E-07  0.3746367E+04  0.7818609E-02  0.8057763E-01
        2   -1    0    0  501    0  0.00000000000E+00  0.00000000000E+00  0.22759911614E+04  0.22759911614E+04  0.25500000920E-02 0.  1.
       -2   -1    0    0    0  501  0.00000000000E+00  0.00000000000E+00 -0.15416654541E+04  0.15416654541E+04  0.25500000920E-02 0. -1.
    10030    2    1    2    0    0  0.00000000000E+00  0.00000000000E+00  0.73432570729E+03  0.38176566155E+04  0.37463672790E+04 0.  0.
        2    1    3    3  502    0 -0.17637879952E+04  0.62841350737E+03  0.31167189521E+03  0.18981546298E+04  0.25500000920E-02 0.  1.
       -2    1    3    3    0  502  0.17637879952E+04 -0.62841350737E+03  0.42265381208E+03  0.19195019857E+04  0.25500000920E-02 0. -1.
</event>
<event>
 5   0  0.4758908E-07  0.3705115E+04  0.7818609E-02  0.8066829E-01
       -2   -1    0    0    0  501  0.00000000000E+00  0.00000000000E+00  0.13415554410E+04  0.13415554410E+04  0.25500000920E-02 0. -1.
        2   -1    0    0  501    0  0.00000000000E+00  0.00000000000E+00 -0.25582019945E+04  0.25582019945E+04  0.25500000920E-02 0.  1.
    10030    2    1    2    0    0  0.00000000000E+00  0.00000000000E+00 -0.12166465535E+04  0.38997574355E+04  0.37051152775E+04 0.  0.
        2    1    3    3  502    0 -0.13618675768E+03 -0.15659484232E+04  0.42360423524E+03  0.16279379120E+04  0.25500000920E-02 0. -1.
       -2    1    3    3    0  502  0.13618675768E+03  0.15659484232E+04 -0.16402507888E+04  0.22718195235E+04  0.25500000920E-02 0.  1.
</event>
<event>
 5   0  0.1496000E-07  0.3758650E+04  0.7818609E-02  0.8055087E-01
        1   -1    0    0  501    0  0.00000000000E+00  0.00000000000E+00  0.16601503622E+04  0.16601503622E+04  0.50400001928E-02 0. -1.
       -1   -1    0    0    0  501  0.00000000000E+00  0.00000000000E+00 -0.21274352977E+04  0.21274352977E+04  0.50400001928E-02 0.  1.
    10030    2    1    2    0    0  0.00000000000E+00  0.00000000000E+00 -0.46728493554E+03  0.37875856599E+04  0.37586500130E+04 0.  0.
        2    1    3    3  502    0 -0.19027785733E+03  0.36981185752E+02  0.16500499900E+04  0.16613964731E+04  0.25500000920E-02 0. -1.
       -2    1    3    3    0  502  0.19027785733E+03 -0.36981185752E+02 -0.21173349256E+04  0.21261891868E+04  0.25500000920E-02 0.  1.
</event>
<event>
 5   0  0.4824268E-07  0.3717232E+04  0.7818609E-02  0.8064154E-01
        2   -1    0    0  501    0  0.00000000000E+00  0.00000000000E+00  0.14590616203E+04  0.14590616203E+04  0.25500000920E-02 0. -1.
       -2   -1    0    0    0  501  0.00000000000E+00  0.00000000000E+00 -0.23675856195E+04  0.23675856195E+04  0.25500000920E-02 0.  1.
    10030    2    1    2    0    0  0.00000000000E+00  0.00000000000E+00 -0.90852399913E+03  0.38266472398E+04  0.37172319326E+04 0.  0.
        1    1    3    3  502    0  0.78188405930E+03  0.14281000784E+04  0.46858511002E+03  0.16942209188E+04  0.50400001928E-02 0. -1.
       -1    1    3    3    0  502 -0.78188405930E+03 -0.14281000784E+04 -0.13771091091E+04  0.21324263211E+04  0.50400001928E-02 0.  1.
</event>
<event>
 5   0  0.1496000E-07  0.3616210E+04  0.7818609E-02  0.8086789E-01
        1   -1    0    0  501    0  0.00000000000E+00  0.00000000000E+00  0.24814706236E+04  0.24814706236E+04  0.50400001928E-02 0. -1.
       -1   -1    0    0    0  501  0.00000000000E+00  0.00000000000E+00 -0.13174621801E+04  0.13174621801E+04  0.50400001928E-02 0.  1.
    10030    2    1    2    0    0  0.00000000000E+00  0.00000000000E+00  0.11640084435E+04  0.37989328037E+04  0.36162100037E+04 0.  0.
        3    1    3    3  502    0 -0.43217703987E+01  0.12170857619E+04  0.19867019862E+04  0.23298715032E+04  0.10100000352E+00 0. -1.
       -3    1    3    3    0  502  0.43217703987E+01 -0.12170857619E+04 -0.82269354262E+03  0.14690613005E+04  0.10100000352E+00 0.  1.
</event>
<event>
 5   0  0.4687817E-07  0.3695561E+04  0.7818609E-02  0.8068946E-01
       -2   -1    0    0    0  501  0.00000000000E+00  0.00000000000E+00  0.21602438701E+04  0.21602438701E+04  0.25500000920E-02 0.  1.
        2   -1    0    0  501    0  0.00000000000E+00  0.00000000000E+00 -0.15805129574E+04  0.15805129574E+04  0.25500000920E-02 0. -1.
    10030    2    1    2    0    0  0.00000000000E+00  0.00000000000E+00  0.57973091268E+03  0.37407568276E+04  0.36955613527E+04 0.  0.
        4    1    3    3  502    0 -0.88158839446E+02 -0.12194328277E+04  0.16922706287E+04  0.20877188259E+04  0.12699999809E+01 0.  1.
       -4    1    3    3    0  502  0.88158839446E+02  0.12194328277E+04 -0.11125397160E+04  0.16530380017E+04  0.12699999809E+01 0. -1.
</event>
<event>
 5   0  0.4857514E-07  0.3731102E+04  0.7818609E-02  0.8061104E-01
        2   -1    0    0  501    0  0.00000000000E+00  0.00000000000E+00  0.22538885965E+04  0.22538885965E+04  0.25500000920E-02 0. -1.
       -2   -1    0    0    0  501  0.00000000000E+00  0.00000000000E+00 -0.15441226451E+04  0.15441226451E+04  0.25500000920E-02 0.  1.
    10030    2    1    2    0    0  0.00000000000E+00  0.00000000000E+00  0.70976595142E+03  0.37980112416E+04  0.37311019399E+04 0.  0.
        5    1    3    3  502    0  0.16412653544E+04  0.86979538549E+03  0.53108346305E+03  0.19319336715E+04  0.46999998093E+01 0. -1.
       -5    1    3    3    0  502 -0.16412653544E+04 -0.86979538549E+03  0.17868248837E+03  0.18660775702E+04  0.46999998093E+01 0.  1.
</event>
<event>
 5   0  0.4793557E-07  0.3740418E+04  0.7818609E-02  0.8059063E-01
       -2   -1    0    0    0  501  0.00000000000E+00  0.00000000000E+00  0.16343579390E+04  0.16343579390E+04  0.25500000920E-02 0. -1.
        2   -1    0    0  501    0  0.00000000000E+00  0.00000000000E+00 -0.21400955703E+04  0.21400955703E+04  0.25500000920E-02 0.  1.
    10030    2    1    2    0    0  0.00000000000E+00  0.00000000000E+00 -0.50573763127E+03  0.37744535093E+04  0.37404182577E+04 0.  0.
        3    1    3    3  502    0  0.61769308361E+03  0.15469112840E+04  0.60528274091E+03  0.17722433446E+04  0.10100000352E+00 0.  1.
       -3    1    3    3    0  502 -0.61769308361E+03 -0.15469112840E+04 -0.11110203722E+04  0.20022101647E+04  0.10100000352E+00 0. -1.
</event>
<event>
 5   0  0.1496287E-07  0.3735940E+04  0.7818609E-02  0.8060043E-01
       -1   -1    0    0    0  501  0.00000000000E+00  0.00000000000E+00  0.13095458062E+04  0.13095458062E+04  0.50400001928E-02 0. -1.
        1   -1    0    0  501    0  0.00000000000E+00  0.00000000000E+00 -0.26645206894E+04  0.26645206894E+04  0.50400001928E-02 0.  1.
    10030    2    1    2    0    0  0.00000000000E+00  0.00000000000E+00 -0.13549748832E+04  0.39740664956E+04  0.37359399858E+04 0.  0.
        1    1    3    3  502    0 -0.17645532529E+04  0.58104717768E+03 -0.46999583956E+03  0.19162881031E+04  0.50400001928E-02 0.  1.
       -1    1    3    3    0  502  0.17645532529E+04 -0.58104717768E+03 -0.88497904367E+03  0.20577783925E+04  0.50400001928E-02 0. -1.
</event>
<event>
 5   0  0.1496000E-07  0.3584131E+04  0.7818609E-02  0.8094136E-01
        1   -1    0    0  501    0  0.00000000000E+00  0.00000000000E+00  0.16241857419E+04  0.16241857419E+04  0.50400001928E-02 0. -1.
       -1   -1    0    0    0  501  0.00000000000E+00  0.00000000000E+00 -0.19772977162E+04  0.19772977162E+04  0.50400001928E-02 0.  1.
    10030    2    1    2    0    0  0.00000000000E+00  0.00000000000E+00 -0.35311197422E+03  0.36014834581E+04  0.35841310011E+04 0.  0.
        2    1    3    3  502    0 -0.49605336804E+03 -0.32116381801E+03 -0.18765754044E+04  0.19674222705E+04  0.25500000920E-02 0.  1.
       -2    1    3    3    0  502  0.49605336804E+03  0.32116381801E+03  0.15234634302E+04  0.16340611877E+04  0.25500000920E-02 0. -1.
</event>
<event>
 5   0  0.1496000E-07  0.3558137E+04  0.7818609E-02  0.8100149E-01
        1   -1    0    0  501    0  0.00000000000E+00  0.00000000000E+00  0.16372541055E+04  0.16372541055E+04  0.50400001928E-02 0.  1.
       -1   -1    0    0    0  501  0.00000000000E+00  0.00000000000E+00 -0.19331669169E+04  0.19331669169E+04  0.50400001928E-02 0. -1.
    10030    2    1    2    0    0  0.00000000000E+00  0.00000000000E+00 -0.29591281142E+03  0.35704210224E+04  0.35581374180E+04 0.  0.
        2    1    3    3  502    0  0.11403471720E+04  0.36895418975E+03  0.11713320835E+04  0.16758692421E+04  0.25500000920E-02 0.  1.
       -2    1    3    3    0  502 -0.11403471720E+04 -0.36895418975E+03 -0.14672448949E+04  0.18945517803E+04  0.25500000920E-02 0. -1.
</event>
<event>
 5   0  0.4758908E-07  0.3679466E+04  0.7818609E-02  0.8072528E-01
       -2   -1    0    0    0  501  0.00000000000E+00  0.00000000000E+00  0.15729023549E+04  0.15729023549E+04  0.25500000920E-02 0.  1.
        2   -1    0    0  501    0  0.00000000000E+00  0.00000000000E+00 -0.21518297606E+04  0.21518297606E+04  0.25500000920E-02 0. -1.
    10030    2    1    2    0    0  0.00000000000E+00  0.00000000000E+00 -0.57892740573E+03  0.37247321155E+04  0.36794663188E+04 0.  0.
        2    1    3    3  502    0 -0.52163985298E+03  0.13554069331E+04  0.85375772125E+03  0.16846775173E+04  0.25500000920E-02 0.  1.
       -2    1    3    3    0  502  0.52163985298E+03 -0.13554069331E+04 -0.14326851270E+04  0.20400545982E+04  0.25500000920E-02 0. -1.
</event>
<event>
 5   0  0.4687817E-07  0.3717803E+04  0.7818609E-02  0.8064028E-01
        2   -1    0    0  501    0  0.00000000000E+00  0.00000000000E+00  0.28298847128E+04  0.28298847128E+04  0.25500000920E-02 0. -1.
       -2   -1    0    0    0  501  0.00000000000E+00  0.00000000000E+00 -0.12210794267E+04  0.12210794267E+04  0.25500000920E-02 0.  1.
    10030    2    1    2    0    0  0.00000000000E+00  0.00000000000E+00  0.16088052862E+04  0.40509641395E+04  0.37178025782E+04 0.  0.
        4    1    3    3  502    0 -0.57534816914E+03  0.15480524724E+04 -0.12529954676E+03  0.16562589056E+04  0.12699999809E+01 0. -1.
       -4    1    3    3    0  502  0.57534816914E+03 -0.15480524724E+04  0.17341048329E+04  0.23947052339E+04  0.12699999809E+01 0.  1.
</event>
<event>
 5   0  0.4857514E-07  0.3696505E+04  0.7818609E-02  0.8068737E-01
       -2   -1    0    0    0  501  0.00000000000E+00  0.00000000000E+00  0.22607712680E+04  0.22607712680E+04  0.25500000920E-02 0.  1.
        2   -1    0    0  501    0  0.00000000000E+00  0.00000000000E+00 -0.15110048978E+04  0.15110048978E+04  0.25500000920E-02 0. -1.
    10030    2    1    2    0    0  0.00000000000E+00  0.00000000000E+00  0.74976637021E+03  0.37717761659E+04  0.36965045429E+04 0.  0.
        5    1    3    3  502    0  0.44226088143E+02 -0.15940954790E+04  0.13282090991E+04  0.20753934191E+04  0.46999998093E+01 0.  1.
       -5    1    3    3    0  502 -0.44226088143E+02  0.15940954790E+04 -0.57844272891E+03  0.16963827468E+04  0.46999998093E+01 0. -1.
</event>
<event>
 5   0  0.1496287E-07  0.3683374E+04  0.7818609E-02  0.8071656E-01
        1   -1    0    0  501    0  0.00000000000E+00  0.00000000000E+00  0.19714291696E+04  0.19714291696E+04  0.50400001928E-02 0. -1.
       -1   -1    0    0    0  501  0.00000000000E+00  0.00000000000E+00 -0.17204837346E+04  0.17204837346E+04  0.50400001928E-02 0.  1.
    10030    2    1    2    0    0  0.00000000000E+00  0.00000000000E+00  0.25094543493E+03  0.36919129042E+04  0.36833744421E+04 0.  0.
        1    1    3    3  502    0 -0.17411752668E+04 -0.39166046019E+03  0.58119425110E+03  0.18769325996E+04  0.50400001928E-02 0. -1.
       -1    1    3    3    0  502  0.17411752668E+04  0.39166046019E+03 -0.33024881617E+03  0.18149803047E+04  0.50400001928E-02 0.  1.
</event>
<event>
 5   0  0.1522273E-07  0.3660097E+04  0.7818609E-02  0.8076863E-01
        1   -1    0    0  501    0  0.00000000000E+00  0.00000000000E+00  0.26322392082E+04  0.26322392082E+04  0.50400001928E-02 0. -1.
       -1   -1    0    0    0  501  0.00000000000E+00  0.00000000000E+00 -0.12723304005E+04  0.12723304006E+04  0.50400001928E-02 0.  1.
    10030    2    1    2    0    0  0.00000000000E+00  0.00000000000E+00  0.13599088077E+04  0.39045696088E+04  0.36600972480E+04 0.  0.
        4    1    3    3  502    0  0.78963385190E+03  0.15817210506E+04  0.17537862422E+03  0.17765478819E+04  0.12699999809E+01 0.  1.
       -4    1    3    3    0  502 -0.78963385190E+03 -0.15817210506E+04  0.11845301835E+04  0.21280217269E+04  0.12699999809E+01 0. -1.
</event>
<event>
 5   0  0.4758908E-07  0.3690740E+04  0.7818609E-02  0.8070017E-01
        2   -1    0    0  501    0  0.00000000000E+00  0.00000000000E+00  0.10055874128E+04  0.10055874128E+04  0.25500000920E-02 0. -1.
       -2   -1    0    0    0  501  0.00000000000E+00  0.00000000000E+00 -0.33864685429E+04  0.33864685429E+04  0.25500000920E-02 0.  1.
    10030    2    1    2    0    0  0.00000000000E+00  0.00000000000E+00 -0.23808811301E+04  0.43920559558E+04  0.36907398395E+04 0.  0.
        2    1    3    3  502    0 -0.13214733702E+04  0.12880248046E+04 -0.11791275180E+04  0.21898953101E+04  0.25500000920E-02 0. -1.
       -2    1    3    3    0  502  0.13214733702E+04 -0.12880248046E+04 -0.12017536121E+04  0.22021606457E+04  0.25500000920E-02 0.  1.
</event>
<event>
 5   0  0.4824268E-07  0.3721954E+04  0.7818609E-02  0.8063114E-01
        2   -1    0    0  501    0  0.00000000000E+00  0.00000000000E+00  0.14908712108E+04  0.14908712108E+04  0.25500000920E-02 0.  1.
       -2   -1    0    0    0  501  0.00000000000E+00  0.00000000000E+00 -0.23229612998E+04  0.23229612998E+04  0.25500000920E-02 0. -1.
    10030    2    1    2    0    0  0.00000000000E+00  0.00000000000E+00 -0.83209008893E+03  0.38138325106E+04  0.37219543929E+04 0.  0.
        1    1    3    3  502    0  0.79133199223E+03 -0.16131500122E+04  0.80453748992E+02  0.17985916962E+04  0.50400001928E-02 0. -1.
       -1    1    3    3    0  502 -0.79133199223E+03  0.16131500122E+04 -0.91254383792E+03  0.20152408144E+04  0.50400001928E-02 0.  1.
</event>
<event>
 5   0  0.4824268E-07  0.3736093E+04  0.7818609E-02  0.8060010E-01
       -2   -1    0    0    0  501  0.00000000000E+00  0.00000000000E+00  0.14719033209E+04  0.14719033209E+04  0.25500000920E-02 0.  1.
        2   -1    0    0  501    0  0.00000000000E+00  0.00000000000E+00 -0.23708058242E+04  0.23708058242E+04  0.25500000920E-02 0. -1.
    10030    2    1    2    0    0  0.00000000000E+00  0.00000000000E+00 -0.89890250336E+03  0.38427091451E+04  0.37360925930E+04 0.  0.
        1    1    3    3  502    0  0.11830527947E+04  0.13836299464E+04 -0.88039621736E+03  0.20221630110E+04  0.50400001928E-02 0. -1.
       -1    1    3    3    0  502 -0.11830527947E+04 -0.13836299464E+04 -0.18506286004E+02  0.18205461341E+04  0.50400001928E-02 0.  1.
</event>
<event>
 5   0  0.1496000E-07  0.3752233E+04  0.7818609E-02  0.8056484E-01
       -1   -1    0    0    0  501  0.00000000000E+00  0.00000000000E+00  0.26386134296E+04  0.26386134297E+04  0.50400001928E-02 0.  1.
        1   -1    0    0  501    0  0.00000000000E+00  0.00000000000E+00 -0.13339628389E+04  0.13339628389E+04  0.50400001928E-02 0. -1.
    10030    2    1    2    0    0  0.00000000000E+00  0.00000000000E+00  0.13046505907E+04  0.39725762686E+04  0.37522325416E+04 0.  0.
        2    1    3    3  502    0 -0.95035696137E+03  0.45379849103E+03  0.22961449075E+04  0.25261418924E+04  0.25500000920E-02 0.  1.
       -2    1    3    3    0  502  0.95035696137E+03 -0.45379849103E+03 -0.99149431673E+03  0.14464343762E+04  0.25500000920E-02 0. -1.
</event>
<event>
 5   0  0.4857514E-07  0.3701279E+04  0.7818609E-02  0.8067678E-01
        2   -1    0    0  501    0  0.00000000000E+00  0.00000000000E+00  0.18797990137E+04  0.18797990137E+04  0.25500000920E-02 0. -1.
       -2   -1    0    0    0  501  0.00000000000E+00  0.00000000000E+00 -0.18219321944E+04  0.18219321944E+04  0.25500000920E-02 0.  1.
    10030    2    1    2    0    0  0.00000000000E+00  0.00000000000E+00  0.57866819259E+02  0.37017312081E+04  0.37012788828E+04 0.  0.
        5    1    3    3  502    0 -0.18426619397E+04 -0.14632017361E+03 -0.60696932306E+02  0.18494644697E+04  0.46999998093E+01 0.  1.
       -5    1    3    3    0  502  0.18426619397E+04  0.14632017361E+03  0.11856375156E+03  0.18522667384E+04  0.46999998093E+01 0. -1.
</event>
<event>
 5   0  0.1522273E-07  0.3639529E+04  0.7818609E-02  0.8081497E-01
        1   -1    0    0  501    0  0.00000000000E+00  0.00000000000E+00  0.19876623531E+04  0.19876623531E+04  0.50400001928E-02 0. -1.
       -1   -1    0    0    0  501  0.00000000000E+00  0.00000000000E+00 -0.16660487742E+04  0.16660487742E+04  0.50400001928E-02 0.  1.
    10030    2    1    2    0    0  0.00000000000E+00  0.00000000000E+00  0.32161357896E+03  0.36537111273E+04  0.36395287755E+04 0.  0.
        4    1    3    3  502    0  0.17148855897E+04  0.69058726150E+02 -0.44647949180E+03  0.17733999106E+04  0.12699999809E+01 0.  1.
       -4    1    3    3    0  502 -0.17148855897E+04 -0.69058726150E+02  0.76809307076E+03  0.18803112167E+04  0.12699999809E+01 0. -1.
</event>
<event>
 5   0  0.1496287E-07  0.3636179E+04  0.7818609E-02  0.8082254E-01
        1   -1    0    0  501    0  0.00000000000E+00  0.00000000000E+00  0.19623255224E+04  0.19623255224E+04  0.50400001928E-02 0. -1.
       -1   -1    0    0    0  501  0.00000000000E+00  0.00000000000E+00 -0.16844549356E+04  0.16844549356E+04  0.50400001928E-02 0.  1.
    10030    2    1    2    0    0  0.00000000000E+00  0.00000000000E+00  0.27787058683E+03  0.36467804580E+04  0.36361787147E+04 0.  0.
        1    1    3    3  502    0  0.95299331605E+03  0.13498333892E+04 -0.62169701889E+03  0.17654329844E+04  0.50400001928E-02 0.  1.
       -1    1    3    3    0  502 -0.95299331605E+03 -0.13498333892E+04  0.89956760573E+03  0.18813474736E+04  0.50400001928E-02 0. -1.
</event>
<event>
 5   0  0.1496287E-07  0.3745265E+04  0.7818609E-02  0.8058004E-01
        1   -1    0    0  501    0  0.00000000000E+00  0.00000000000E+00  0.17491305488E+04  0.17491305488E+04  0.50400001928E-02 0.  1.
       -1   -1    0    0    0  501  0.00000000000E+00  0.00000000000E+00 -0.20048543100E+04  0.20048543100E+04  0.50400001928E-02 0. -1.
    10030    2    1    2    0    0  0.00000000000E+00  0.00000000000E+00 -0.25572376121E+03  0.37539848588E+04  0.37452647007E+04 0.  0.
        1    1    3    3  502    0 -0.93397948047E+03 -0.19429358301E+03  0.14873130730E+04  0.17669657166E+04  0.50400001928E-02 0.  1.
       -1    1    3    3    0  502  0.93397948047E+03  0.19429358301E+03 -0.17430368342E+04  0.19870191423E+04  0.50400001928E-02 0. -1.
</event>
<event>
 5   0  0.1496000E-07  0.3703200E+04  0.7818609E-02  0.8067253E-01
        1   -1    0    0  501    0  0.00000000000E+00  0.00000000000E+00  0.30918935609E+04  0.30918935609E+04  0.50400001928E-02 0.  1.
       -1   -1    0    0    0  501  0.00000000000E+00  0.00000000000E+00 -0.11088423366E+04  0.11088423366E+04  0.50400001928E-02 0. -1.
    10030    2    1    2    0    0  0.00000000000E+00  0.00000000000E+00  0.19830512243E+04  0.42007358976E+04  0.37031999571E+04 0.  0.
        2    1    3    3  502    0 -0.51732355614E+03  0.15367312274E+04 -0.22598608632E+02  0.16216279549E+04  0.25500000920E-02 0. -1.
       -2    1    3    3    0  502  0.51732355614E+03 -0.15367312274E+04  0.20056498330E+04  0.25791079426E+04  0.25500000920E-02 0.  1.
</event>
<event>
 5   0  0.1496000E-07  0.3560649E+04  0.7818609E-02  0.8099566E-01
        1   -1    0    0  501    0  0.00000000000E+00  0.00000000000E+00  0.15793776009E+04  0.15793776009E+04  0.50400001928E-02 0. -1.
       -1   -1    0    0    0  501  0.00000000000E+00  0.00000000000E+00 -0.20068377919E+04  0.20068377919E+04  0.50400001928E-02 0.  1.
    10030    2    1    2    0    0  0.00000000000E+00  0.00000000000E+00 -0.42746019098E+03  0.35862153928E+04  0.35606486247E+04 0.  0.
        3    1    3    3  502    0  0.10983161101E+04 -0.10954826730E+04  0.66614101535E+03  0.16882311533E+04  0.10100000352E+00 0. -1.
       -3    1    3    3    0  502 -0.10983161101E+04  0.10954826730E+04 -0.10936012063E+04  0.18979842395E+04  0.10100000352E+00 0.  1.
</event>
<event>
 5   0  0.4793557E-07  0.3686693E+04  0.7818609E-02  0.8070917E-01
       -2   -1    0    0    0  501  0.00000000000E+00  0.00000000000E+00  0.13233536684E+04  0.13233536684E+04  0.25500000920E-02 0.  1.
        2   -1    0    0  501    0  0.00000000000E+00  0.00000000000E+00 -0.25676631841E+04  0.25676631841E+04  0.25500000920E-02 0. -1.
    10030    2    1    2    0    0  0.00000000000E+00  0.00000000000E+00 -0.12443095157E+04  0.38910168524E+04  0.36866930948E+04 0.  0.
        3    1    3    3  502    0  0.50608866586E+03 -0.15947911243E+04 -0.14386189920E+04  0.22066057831E+04  0.10100000352E+00 0. -1.
       -3    1    3    3    0  502 -0.50608866586E+03  0.15947911243E+04  0.19430947625E+03  0.16844110693E+04  0.10100000352E+00 0.  1.
</event>
<event>
 5   0  0.1496000E-07  0.3152046E+04  0.7818609E-02  0.8201598E-01
        1   -1    0    0  501    0  0.00000000000E+00  0.00000000000E+00  0.15078707552E+04  0.15078707552E+04  0.50400001928E-02 0.  1.
       -1   -1    0    0    0  501  0.00000000000E+00  0.00000000000E+00 -0.16472554253E+04  0.16472554253E+04  0.50400001928E-02 0. -1.
    10030    2    1    2    0    0  0.00000000000E+00  0.00000000000E+00 -0.13938467018E+03  0.31551261805E+04  0.31520458640E+04 0.  0.
        3    1    3    3  502    0  0.14503010495E+04 -0.58611170258E+03 -0.26209935154E+03  0.15860630953E+04  0.10100000352E+00 0. -1.
       -3    1    3    3    0  502 -0.14503010495E+04  0.58611170258E+03  0.12271468136E+03  0.15690630852E+04  0.10100000352E+00 0.  1.
</event>
<event>
 5   0  0.4687817E-07  0.3766996E+04  0.7818609E-02  0.8053275E-01
        2   -1    0    0  501    0  0.00000000000E+00  0.00000000000E+00  0.20305054233E+04  0.20305054233E+04  0.25500000920E-02 0.  1.
       -2   -1    0    0    0  501  0.00000000000E+00  0.00000000000E+00 -0.17471335305E+04  0.17471335305E+04  0.25500000920E-02 0. -1.
    10030    2    1    2    0    0  0.00000000000E+00  0.00000000000E+00  0.28337189288E+03  0.37776389538E+04  0.37669956777E+04 0.  0.
        4    1    3    3  502    0  0.31294045378E+03  0.62538174871E+03  0.18954920919E+04  0.20203776732E+04  0.12699999809E+01 0.  1.
       -4    1    3    3    0  502 -0.31294045378E+03 -0.62538174871E+03 -0.16121201990E+04  0.17572612806E+04  0.12699999809E+01 0. -1.
</event>
<event>
 5   0  0.4793557E-07  0.3661256E+04  0.7818609E-02  0.8076603E-01
       -2   -1    0    0    0  501  0.00000000000E+00  0.00000000000E+00  0.13203475553E+04  0.13203475553E+04  0.25500000920E-02 0.  1.
        2   -1    0    0  501    0  0.00000000000E+00  0.00000000000E+00 -0.25381187912E+04  0.25381187912E+04  0.25500000920E-02 0. -1.
    10030    2    1    2    0    0  0.00000000000E+00  0.00000000000E+00 -0.12177712359E+04  0.38584663465E+04  0.36612560363E+04 0.  0.
        3    1    3    3  502    0  0.34498409695E+03  0.64310732342E+03 -0.23781843896E+04  0.24876418668E+04  0.10100000352E+00 0. -1.
       -3    1    3    3    0  502 -0.34498409695E+03 -0.64310732342E+03  0.11604131536E+04  0.13708244796E+04  0.10100000352E+00 0.  1.
</event>
<event>
 5   0  0.4758908E-07  0.3866253E+04  0.7818609E-02  0.8032085E-01
       -2   -1    0    0    0  501  0.00000000000E+00  0.00000000000E+00  0.19388494952E+04  0.19388494952E+04  0.25500000920E-02 0. -1.
        2   -1    0    0  501    0  0.00000000000E+00  0.00000000000E+00 -0.19274203953E+04  0.19274203953E+04  0.25500000920E-02 0.  1.
    10030    2    1    2    0    0  0.00000000000E+00  0.00000000000E+00  0.11429099898E+02  0.38662698905E+04  0.38662529977E+04 0.  0.
        2    1    3    3  502    0  0.15592714110E+04  0.11309063368E+04 -0.15769235922E+03  0.19326518973E+04  0.25500000920E-02 0.  1.
       -2    1    3    3    0  502 -0.15592714110E+04 -0.11309063368E+04  0.16912145912E+03  0.19336179932E+04  0.25500000920E-02 0. -1.
</event>
<event>
 5   0  0.1496000E-07  0.3718853E+04  0.7818609E-02  0.8063797E-01
        1   -1    0    0  501    0  0.00000000000E+00  0.00000000000E+00  0.19996615293E+04  0.19996615293E+04  0.50400001928E-02 0.  1.
       -1   -1    0    0    0  501  0.00000000000E+00  0.00000000000E+00 -0.17290258109E+04  0.17290258109E+04  0.50400001928E-02 0. -1.
    10030    2    1    2    0    0  0.00000000000E+00  0.00000000000E+00  0.27063571841E+03  0.37286873402E+04  0.37188527248E+04 0.  0.
        5    1    3    3  502    0  0.13337617459E+04 -0.67993941367E+03  0.12410517324E+04  0.19446000858E+04  0.46999998093E+01 0.  1.
       -5    1    3    3    0  502 -0.13337617459E+04  0.67993941367E+03 -0.97041601394E+03  0.17840872544E+04  0.46999998093E+01 0. -1.
</event>
<event>
 5   0  0.1496287E-07  0.3680012E+04  0.7818609E-02  0.8072406E-01
       -1   -1    0    0    0  501  0.00000000000E+00  0.00000000000E+00  0.12261360968E+04  0.12261360968E+04  0.50400001928E-02 0. -1.
        1   -1    0    0  501    0  0.00000000000E+00  0.00000000000E+00 -0.27612125472E+04  0.27612125472E+04  0.50400001928E-02 0.  1.
    10030    2    1    2    0    0  0.00000000000E+00  0.00000000000E+00 -0.15350764504E+04  0.39873486440E+04  0.36800121603E+04 0.  0.
        1    1    3    3  502    0  0.59325784937E+03  0.12809857689E+04 -0.20462434597E+04  0.24859589120E+04  0.50400001928E-02 0.  1.
       -1    1    3    3    0  502 -0.59325784937E+03 -0.12809857689E+04  0.51116700930E+03  0.15013897320E+04  0.50400001928E-02 0. -1.
</event>
<event>
 5   0  0.4687817E-07  0.3674435E+04  0.7818609E-02  0.8073651E-01
       -2   -1    0    0    0  501  0.00000000000E+00  0.00000000000E+00  0.15801141087E+04  0.15801141087E+04  0.25500000920E-02 0.  1.
        2   -1    0    0  501    0  0.00000000000E+00  0.00000000000E+00 -0.21361542869E+04  0.21361542869E+04  0.25500000920E-02 0. -1.
    10030    2    1    2    0    0  0.00000000000E+00  0.00000000000E+00 -0.55604017819E+03  0.37162683957E+04  0.36744346652E+04 0.  0.
        4    1    3    3  502    0  0.94489413353E+03  0.98734394989E+03  0.96384091349E+03  0.16723229109E+04  0.12699999809E+01 0.  1.
       -4    1    3    3    0  502 -0.94489413353E+03 -0.98734394989E+03 -0.15198810917E+04  0.20439454848E+04  0.12699999809E+01 0. -1.
</event>
<event>
 5   0  0.4687817E-07  0.3698517E+04  0.7818609E-02  0.8068290E-01
        2   -1    0    0  501    0  0.00000000000E+00  0.00000000000E+00  0.19062962558E+04  0.19062962558E+04  0.25500000920E-02 0.  1.
       -2   -1    0    0    0  501  0.00000000000E+00  0.00000000000E+00 -0.17939277044E+04  0.17939277044E+04  0.25500000920E-02 0. -1.
    10030    2    1    2    0    0  0.00000000000E+00  0.00000000000E+00  0.11236855136E+03  0.37002239602E+04  0.36985173603E+04 0.  0.
        4    1    3    3  502    0  0.15286091381E+04 -0.26117197985E+03 -0.95170270971E+03  0.18195044272E+04  0.12699999809E+01 0. -1.
       -4    1    3    3    0  502 -0.15286091381E+04  0.26117197985E+03  0.10640712611E+04  0.18807195330E+04  0.12699999809E+01 0.  1.
</event>
<event>
 5   0  0.4857514E-07  0.3684504E+04  0.7818609E-02  0.8071405E-01
        2   -1    0    0  501    0  0.00000000000E+00  0.00000000000E+00  0.27332181491E+04  0.27332181491E+04  0.25500000920E-02 0. -1.
       -2   -1    0    0    0  501  0.00000000000E+00  0.00000000000E+00 -0.12417203560E+04  0.12417203560E+04  0.25500000920E-02 0.  1.
    10030    2    1    2    0    0  0.00000000000E+00  0.00000000000E+00  0.14914977931E+04  0.39749385052E+04  0.36845040987E+04 0.  0.
        5    1    3    3  502    0 -0.14656799424E+04  0.22781229869E+03  0.19244640327E+04  0.24297530821E+04  0.46999998093E+01 0. -1.
       -5    1    3    3    0  502  0.14656799424E+04 -0.22781229869E+03 -0.43296623957E+03  0.15451854230E+04  0.46999998093E+01 0.  1.
</event>
<event>
 5   0  0.4793557E-07  0.3688084E+04  0.7818609E-02  0.8070608E-01
       -2   -1    0    0    0  501  0.00000000000E+00  0.00000000000E+00  0.18543171998E+04  0.18543171998E+04  0.25500000920E-02 0. -1.
        2   -1    0    0  501    0  0.00000000000E+00  0.00000000000E+00 -0.18338235996E+04  0.18338235996E+04  0.25500000920E-02 0.  1.
    10030    2    1    2    0    0  0.00000000000E+00  0.00000000000E+00  0.20493600172E+02  0.36881407994E+04  0.36880838614E+04 0.  0.
        3    1    3    3  502    0  0.12752600421E+04  0.74493065568E+02 -0.13196809614E+04  0.18366804953E+04  0.10100000352E+00 0.  1.
       -3    1    3    3    0  502 -0.12752600421E+04 -0.74493065568E+02  0.13401745616E+04  0.18514603041E+04  0.10100000352E+00 0. -1.
</event>
<event>
 5   0  0.4687817E-07  0.3705752E+04  0.7818609E-02  0.8066688E-01
        2   -1    0    0  501    0  0.00000000000E+00  0.00000000000E+00  0.18906517818E+04  0.18906517818E+04  0.25500000920E-02 0. -1.
       -2   -1    0    0    0  501  0.00000000000E+00  0.00000000000E+00 -0.18158550102E+04  0.18158550102E+04  0.25500000920E-02 0.  1.
    10030    2    1    2    0    0  0.00000000000E+00  0.00000000000E+00  0.74796771542E+02  0.37065067920E+04  0.37057520211E+04 0.  0.
        4    1    3    3  502    0 -0.65631196546E+03 -0.14924260646E+04 -0.84315978938E+03  0.18354838592E+04  0.12699999809E+01 0.  1.
       -4    1    3    3    0  502  0.65631196546E+03  0.14924260646E+04  0.91795656092E+03  0.18710229327E+04  0.12699999809E+01 0. -1.
</event>
<event>
 5   0  0.1496000E-07  0.3683587E+04  0.7818609E-02  0.8071609E-01
        1   -1    0    0  501    0  0.00000000000E+00  0.00000000000E+00  0.12803298429E+04  0.12803298429E+04  0.50400001928E-02 0. -1.
       -1   -1    0    0    0  501  0.00000000000E+00  0.00000000000E+00 -0.26494754721E+04  0.26494754721E+04  0.50400001928E-02 0.  1.
    10030    2    1    2    0    0  0.00000000000E+00  0.00000000000E+00 -0.13691456291E+04  0.39298053150E+04  0.36835865757E+04 0.  0.
        5    1    3    3  502    0 -0.40913252202E+03  0.17108192933E+04 -0.12668461648E+04  0.21677669087E+04  0.46999998093E+01 0. -1.
       -5    1    3    3    0  502  0.40913252202E+03 -0.17108192933E+04 -0.10229946430E+03  0.17620384063E+04  0.46999998093E+01 0.  1.
</event>
<event>
 5   0  0.1496000E-07  0.3693837E+04  0.7818609E-02  0.8069329E-01
        1   -1    0    0  501    0  0.00000000000E+00  0.00000000000E+00  0.14668671730E+04  0.14668671730E+04  0.50400001928E-02 0.  1.
       -1   -1    0    0    0  501  0.00000000000E+00  0.00000000000E+00 -0.23254371032E+04  0.23254371032E+04  0.50400001928E-02 0. -1.
    10030    2    1    2    0    0  0.00000000000E+00  0.00000000000E+00 -0.85856993028E+03  0.37923042762E+04  0.36938366772E+04 0.  0.
        2    1    3    3  502    0  0.10811907463E+04 -0.96414973774E+03 -0.16054906736E+04  0.21624427043E+04  0.25500000920E-02 0. -1.
       -2    1    3    3    0  502 -0.10811907463E+04  0.96414973774E+03  0.74692074329E+03  0.16298615719E+04  0.25500000920E-02 0.  1.
</event>
<event>
 5   0  0.4687817E-07  0.3691662E+04  0.7818609E-02  0.8069812E-01
       -2   -1    0    0    0  501  0.00000000000E+00  0.00000000000E+00  0.17287012623E+04  0.17287012623E+04  0.25500000920E-02 0.  1.
        2   -1    0    0  501    0  0.00000000000E+00  0.00000000000E+00 -0.19708970888E+04  0.19708970888E+04  0.25500000920E-02 0. -1.
    10030    2    1    2    0    0  0.00000000000E+00  0.00000000000E+00 -0.24219582647E+03  0.36995983511E+04  0.36916621109E+04 0.  0.
        4    1    3    3  502    0 -0.62327298997E+02  0.43071815881E+02  0.17271420038E+04  0.17288033398E+04  0.12699999809E+01 0.  1.
       -4    1    3    3    0  502  0.62327298997E+02 -0.43071815881E+02 -0.19693378303E+04  0.19707950112E+04  0.12699999809E+01 0. -1.
</event>
<event>
 5   0  0.4793557E-07  0.3632172E+04  0.7818609E-02  0.8083162E-01
       -2   -1    0    0    0  501  0.00000000000E+00  0.00000000000E+00  0.12990811526E+04  0.12990811526E+04  0.25500000920E-02 0.  1.
        2   -1    0    0  501    0  0.00000000000E+00  0.00000000000E+00 -0.25388468771E+04  0.25388468771E+04  0.25500000920E-02 0. -1.
    10030    2    1    2    0    0  0.00000000000E+00  0.00000000000E+00 -0.12397657245E+04  0.38379280297E+04  0.36321718723E+04 0.  0.
        3    1    3    3  502    0  0.15593519552E+04  0.22590483222E+03 -0.15741225820E+04  0.22272120300E+04  0.10100000352E+00 0. -1.
       -3    1    3    3    0  502 -0.15593519552E+04 -0.22590483222E+03  0.33435685748E+03  0.16107159997E+04  0.10100000352E+00 0.  1.
</event>
<event>
 5   0  0.4758908E-07  0.3721621E+04  0.7818609E-02  0.8063187E-01
       -2   -1    0    0    0  501  0.00000000000E+00  0.00000000000E+00  0.16194741062E+04  0.16194741062E+04  0.25500000920E-02 0.  1.
        2   -1    0    0  501    0  0.00000000000E+00  0.00000000000E+00 -0.21381110098E+04  0.21381110098E+04  0.25500000920E-02 0. -1.
    10030    2    1    2    0    0  0.00000000000E+00  0.00000000000E+00 -0.51863690360E+03  0.37575851160E+04  0.37216208386E+04 0.  0.
        2    1    3    3  502    0  0.11391292562E+04 -0.12677047483E+04  0.49484323832E+03  0.17747001498E+04  0.25500000920E-02 0.  1.
       -2    1    3    3    0  502 -0.11391292562E+04  0.12677047483E+04 -0.10134801419E+04  0.19828849662E+04  0.25500000920E-02 0. -1.
</event>
<event>
 5   0  0.4687817E-07  0.3637078E+04  0.7818609E-02  0.8082051E-01
       -2   -1    0    0    0  501  0.00000000000E+00  0.00000000000E+00  0.22993700648E+04  0.22993700648E+04  0.25500000920E-02 0.  1.
        2   -1    0    0  501    0  0.00000000000E+00  0.00000000000E+00 -0.14382567650E+04  0.14382567650E+04  0.25500000920E-02 0. -1.
    10030    2    1    2    0    0  0.00000000000E+00  0.00000000000E+00  0.86111329985E+03  0.37376268298E+04  0.36370782509E+04 0.  0.
        4    1    3    3  502    0 -0.12299959392E+04 -0.13369392859E+04  0.34590041109E+03  0.18493094311E+04  0.12699999809E+01 0.  1.
       -4    1    3    3    0  502  0.12299959392E+04  0.13369392859E+04  0.51521288877E+03  0.18883173987E+04  0.12699999809E+01 0. -1.
</event>
<event>
 5   0  0.1496287E-07  0.3771067E+04  0.7818609E-02  0.8052393E-01
        1   -1    0    0  501    0  0.00000000000E+00  0.00000000000E+00  0.27559719915E+04  0.27559719915E+04  0.50400001928E-02 0. -1.
       -1   -1    0    0    0  501  0.00000000000E+00  0.00000000000E+00 -0.12900115388E+04  0.12900115388E+04  0.50400001928E-02 0.  1.
    10030    2    1    2    0    0  0.00000000000E+00  0.00000000000E+00  0.14659604527E+04  0.40459835303E+04  0.37710665174E+04 0.  0.
        1    1    3    3  502    0 -0.51560712250E+03  0.42878154089E+03  0.26237030940E+04  0.27080476805E+04  0.50400001928E-02 0. -1.
       -1    1    3    3    0  502  0.51560712250E+03 -0.42878154089E+03 -0.11577426413E+04  0.13379358498E+04  0.50400001928E-02 0.  1.
</event>
<event>
 5   0  0.4758908E-07  0.3696887E+04  0.7818609E-02  0.8068652E-01
        2   -1    0    0  501    0  0.00000000000E+00  0.00000000000E+00  0.17148157496E+04  0.17148157496E+04  0.25500000920E-02 0. -1.
       -2   -1    0    0    0  501  0.00000000000E+00  0.00000000000E+00 -0.19924841247E+04  0.19924841247E+04  0.25500000920E-02 0.  1.
    10030    2    1    2    0    0  0.00000000000E+00  0.00000000000E+00 -0.27766837505E+03  0.37072998743E+04  0.36968868838E+04 0.  0.
        2    1    3    3  502    0 -0.99277807065E+03  0.15054302016E+04  0.26828316738E+03  0.18231577681E+04  0.25500000920E-02 0. -1.
       -2    1    3    3    0  502  0.99277807065E+03 -0.15054302016E+04 -0.54595154242E+03  0.18841421062E+04  0.25500000920E-02 0.  1.
</event>
<event>
 5   0  0.1496000E-07  0.3708835E+04  0.7818609E-02  0.8066007E-01
       -1   -1    0    0    0  501  0.00000000000E+00  0.00000000000E+00  0.18634034838E+04  0.18634034838E+04  0.50400001928E-02 0. -1.
        1   -1    0    0  501    0  0.00000000000E+00  0.00000000000E+00 -0.18454747335E+04  0.18454747335E+04  0.50400001928E-02 0.  1.
    10030    2    1    2    0    0  0.00000000000E+00  0.00000000000E+00  0.17928750273E+02  0.37088782173E+04  0.37088348831E+04 0.  0.
        5    1    3    3  502    0  0.86257075546E+03  0.14580687704E+04  0.76319405052E+03  0.18580850616E+04  0.46999998093E+01 0. -1.
       -5    1    3    3    0  502 -0.86257075546E+03 -0.14580687704E+04 -0.74526530024E+03  0.18507931557E+04  0.46999998093E+01 0.  1.
</event>
<event>
 5   0  0.1496000E-07  0.3686342E+04  0.7818609E-02  0.8070995E-01
        1   -1    0    0  501    0  0.00000000000E+00  0.00000000000E+00  0.13600168896E+04  0.13600168896E+04  0.50400001928E-02 0. -1.
       -1   -1    0    0    0  501  0.00000000000E+00  0.00000000000E+00 -0.24979689010E+04  0.24979689010E+04  0.50400001928E-02 0.  1.
    10030    2    1    2    0    0  0.00000000000E+00  0.00000000000E+00 -0.11379520114E+04  0.38579857907E+04  0.36863423038E+04 0.  0.
        3    1    3    3  502    0  0.34897693238E+03  0.11277535017E+04  0.91244240983E+03  0.14920335188E+04  0.10100000352E+00 0. -1.
       -3    1    3    3    0  502 -0.34897693238E+03 -0.11277535017E+04 -0.20503944212E+04  0.23659522718E+04  0.10100000352E+00 0.  1.
</event>
<event>
 5   0  0.4857514E-07  0.3711969E+04  0.7818609E-02  0.8065315E-01
        2   -1    0    0  501    0  0.00000000000E+00  0.00000000000E+00  0.17497614017E+04  0.17497614017E+04  0.25500000920E-02 0. -1.
       -2   -1    0    0    0  501  0.00000000000E+00  0.00000000000E+00 -0.19686558250E+04  0.19686558250E+04  0.25500000920E-02 0.  1.
    10030    2    1    2    0    0  0.00000000000E+00  0.00000000000E+00 -0.21889442332E+03  0.37184172266E+04  0.37119687368E+04 0.  0.
        5    1    3    3  502    0 -0.17974150768E+04  0.32316749618E+03  0.22206227380E+03  0.18396934343E+04  0.46999998093E+01 0. -1.
       -5    1    3    3    0  502  0.17974150768E+04 -0.32316749618E+03 -0.44095669712E+03  0.18787237923E+04  0.46999998093E+01 0.  1.
</event>
<event>
 5   0  0.1496000E-07  0.3346834E+04  0.7818609E-02  0.8151080E-01
        1   -1    0    0  501    0  0.00000000000E+00  0.00000000000E+00  0.15070083698E+04  0.15070083698E+04  0.50400001928E-02 0. -1.
       -1   -1    0    0    0  501  0.00000000000E+00  0.00000000000E+00 -0.18582006634E+04  0.18582006634E+04  0.50400001928E-02 0.  1.
    10030    2    1    2    0    0  0.00000000000E+00  0.00000000000E+00 -0.35119229358E+03  0.33652090332E+04  0.33468336992E+04 0.  0.
        5    1    3    3  502    0 -0.52907258903E+03 -0.13823825821E+04  0.60933219815E+03  0.16006896094E+04  0.46999998093E+01 0. -1.
       -5    1    3    3    0  502  0.52907258903E+03  0.13823825821E+04 -0.96052449173E+03  0.17645194238E+04  0.46999998093E+01 0.  1.
</event>
<event>
 5   0  0.4793557E-07  0.3708849E+04  0.7818609E-02  0.8066004E-01
       -2   -1    0    0    0  501  0.00000000000E+00  0.00000000000E+00  0.14638605807E+04  0.14638605807E+04  0.25500000920E-02 0. -1.
        2   -1    0    0  501    0  0.00000000000E+00  0.00000000000E+00 -0.23491923381E+04  0.23491923381E+04  0.25500000920E-02 0.  1.
    10030    2    1    2    0    0  0.00000000000E+00  0.00000000000E+00 -0.88533175736E+03  0.38130529188E+04  0.37088489105E+04 0.  0.
        3    1    3    3  502    0 -0.36690491449E+03 -0.23262737744E+03  0.14108049280E+04  0.14761792805E+04  0.10100000352E+00 0. -1.
       -3    1    3    3    0  502  0.36690491449E+03  0.23262737744E+03 -0.22961366854E+04  0.23368736383E+04  0.10100000352E+00 0.  1.
</event>
<event>
 5   0  0.1496287E-07  0.3717404E+04  0.7818609E-02  0.8064116E-01
       -1   -1    0    0    0  501  0.00000000000E+00  0.00000000000E+00  0.18393401353E+04  0.18393401354E+04  0.50400001928E-02 0.  1.
        1   -1    0    0  501    0  0.00000000000E+00  0.00000000000E+00 -0.18782676876E+04  0.18782676876E+04  0.50400001928E-02 0. -1.
    10030    2    1    2    0    0  0.00000000000E+00  0.00000000000E+00 -0.38927552260E+02  0.37176078230E+04  0.37174040097E+04 0.  0.
        1    1    3    3  502    0 -0.54669267472E+03  0.16701510150E+04 -0.62488597429E+03  0.18651433656E+04  0.50400001928E-02 0. -1.
       -1    1    3    3    0  502  0.54669267472E+03 -0.16701510150E+04  0.58595842203E+03  0.18524644574E+04  0.50400001928E-02 0.  1.
</event>
<event>
 5   0  0.1496000E-07  0.3687767E+04  0.7818609E-02  0.8070678E-01
       -1   -1    0    0    0  501  0.00000000000E+00  0.00000000000E+00  0.16105721422E+04  0.16105721422E+04  0.50400001928E-02 0.  1.
        1   -1    0    0  501    0  0.00000000000E+00  0.00000000000E+00 -0.21109931177E+04  0.21109931177E+04  0.50400001928E-02 0. -1.
    10030    2    1    2    0    0  0.00000000000E+00  0.00000000000E+00 -0.50042097551E+03  0.37215652599E+04  0.36877671878E+04 0.  0.
        5    1    3    3  502    0  0.12261510065E+04  0.66919101871E+03  0.96440730173E+03  0.16974588195E+04  0.46999998093E+01 0.  1.
       -5    1    3    3    0  502 -0.12261510065E+04 -0.66919101871E+03 -0.14648282772E+04  0.20241064404E+04  0.46999998093E+01 0. -1.
</event>
<event>
 5   0  0.4793557E-07  0.3692041E+04  0.7818609E-02  0.8069728E-01
       -2   -1    0    0    0  501  0.00000000000E+00  0.00000000000E+00  0.16895135556E+04  0.16895135556E+04  0.25500000920E-02 0.  1.
        2   -1    0    0  501    0  0.00000000000E+00  0.00000000000E+00 -0.20170252358E+04  0.20170252358E+04  0.25500000920E-02 0. -1.
    10030    2    1    2    0    0  0.00000000000E+00  0.00000000000E+00 -0.32751168020E+03  0.37065387915E+04  0.36920408871E+04 0.  0.
        3    1    3    3  502    0 -0.27400828501E+03 -0.12686092331E+04  0.11541601467E+04  0.17368176591E+04  0.10100000352E+00 0.  1.
       -3    1    3    3    0  502  0.27400828501E+03  0.12686092331E+04 -0.14816718269E+04  0.19697211324E+04  0.10100000352E+00 0. -1.
</event>
<event>
 5   0  0.4857514E-07  0.3711757E+04  0.7818609E-02  0.8065361E-01
        2   -1    0    0  501    0  0.00000000000E+00  0.00000000000E+00  0.21783712810E+04  0.21783712810E+04  0.25500000920E-02 0.  1.
       -2   -1    0    0    0  501  0.00000000000E+00  0.00000000000E+00 -0.15811282945E+04  0.15811282945E+04  0.25500000920E-02 0. -1.
    10030    2    1    2    0    0  0.00000000000E+00  0.00000000000E+00  0.59724298642E+03  0.37594995755E+04  0.37117567099E+04 0.  0.
        5    1    3    3  502    0  0.12371874355E+04  0.12640131663E+04 -0.27065806147E+03  0.17893126925E+04  0.46999998093E+01 0. -1.
       -5    1    3    3    0  502 -0.12371874355E+04 -0.12640131663E+04  0.86790104789E+03  0.19701868830E+04  0.46999998093E+01 0.  1.
</event>
<event>
 5   0  0.4857514E-07  0.3689569E+04  0.7818609E-02  0.8070277E-01
        2   -1    0    0  501    0  0.00000000000E+00  0.00000000000E+00  0.22502867454E+04  0.22502867454E+04  0.25500000920E-02 0. -1.
       -2   -1    0    0    0  501  0.00000000000E+00  0.00000000000E+00 -0.15123537030E+04  0.15123537030E+04  0.25500000920E-02 0.  1.
    10030    2    1    2    0    0  0.00000000000E+00  0.00000000000E+00  0.73793304241E+03  0.37626404484E+04  0.36895688053E+04 0.  0.
        5    1    3    3  502    0  0.77895679641E+03  0.15518837902E+04 -0.26634036606E+03  0.17567231625E+04  0.46999998093E+01 0.  1.
       -5    1    3    3    0  502 -0.77895679641E+03 -0.15518837902E+04  0.10042734085E+04  0.20059172859E+04  0.46999998093E+01 0. -1.
</event>
<event>
 5   0  0.1522273E-07  0.3761763E+04  0.7818609E-02  0.8054411E-01
       -1   -1    0    0    0  501  0.00000000000E+00  0.00000000000E+00  0.16262865805E+04  0.16262865805E+04  0.50400001928E-02 0. -1.
        1   -1    0    0  501    0  0.00000000000E+00  0.00000000000E+00 -0.21753333694E+04  0.21753333694E+04  0.50400001928E-02 0.  1.
    10030    2    1    2    0    0  0.00000000000E+00  0.00000000000E+00 -0.54904678897E+03  0.38016199499E+04  0.37617631328E+04 0.  0.
        4    1    3    3  502    0 -0.84266677868E+03 -0.16454958536E+04 -0.62456002183E+03  0.19513638148E+04  0.12699999809E+01 0.  1.
       -4    1    3    3    0  502  0.84266677868E+03  0.16454958536E+04  0.75513232861E+02  0.18502561351E+04  0.12699999809E+01 0. -1.
</event>
<event>
 5   0  0.1496000E-07  0.3557084E+04  0.7818609E-02  0.8100393E-01
        3   -1    0    0  501    0  0.00000000000E+00  0.00000000000E+00  0.19912989898E+04  0.19912989923E+04  0.10100000352E+00 0.  1.
       -3   -1    0    0    0  501  0.00000000000E+00  0.00000000000E+00 -0.15885166585E+04  0.15885166617E+04  0.10100000352E+00 0. -1.
    10030    2    1    2    0    0  0.00000000000E+00  0.00000000000E+00  0.40278233131E+03  0.35798156540E+04  0.35570839897E+04 0.  0.
        5    1    3    3  502    0 -0.37613327163E+03 -0.10406872152E+03 -0.15448872368E+04  0.15934256184E+04  0.46999998093E+01 0. -1.
       -5    1    3    3    0  502  0.37613327163E+03  0.10406872152E+03  0.19476695681E+04  0.19863900356E+04  0.46999998093E+01 0.  1.
</event>
<event>
 5   0  0.1522273E-07  0.3871925E+04  0.7818609E-02  0.8030894E-01
       -1   -1    0    0    0  501  0.00000000000E+00  0.00000000000E+00  0.16974591140E+04  0.16974591140E+04  0.50400001928E-02 0. -1.
        1   -1    0    0  501    0  0.00000000000E+00  0.00000000000E+00 -0.22079772341E+04  0.22079772341E+04  0.50400001928E-02 0.  1.
    10030    2    1    2    0    0  0.00000000000E+00  0.00000000000E+00 -0.51051812013E+03  0.39054363481E+04  0.38719251437E+04 0.  0.
        4    1    3    3  502    0  0.14847941761E+03 -0.13380031991E+04 -0.16585771176E+04  0.21361597240E+04  0.12699999809E+01 0.  1.
       -4    1    3    3    0  502 -0.14847941761E+03  0.13380031991E+04  0.11480589975E+04  0.17692766242E+04  0.12699999809E+01 0. -1.
</event>
<event>
 5   0  0.1496000E-07  0.3683319E+04  0.7818609E-02  0.8071669E-01
        1   -1    0    0  501    0  0.00000000000E+00  0.00000000000E+00  0.25146016872E+04  0.25146016872E+04  0.50400001928E-02 0. -1.
       -1   -1    0    0    0  501  0.00000000000E+00  0.00000000000E+00 -0.13488061571E+04  0.13488061571E+04  0.50400001928E-02 0.  1.
    10030    2    1    2    0    0  0.00000000000E+00  0.00000000000E+00  0.11657955301E+04  0.38634078444E+04  0.36833192848E+04 0.  0.
        3    1    3    3  502    0 -0.66654544858E+03 -0.69038354609E+03  0.22316287766E+04  0.24292137169E+04  0.10100000352E+00 0. -1.
       -3    1    3    3    0  502  0.66654544858E+03  0.69038354609E+03 -0.10658332465E+04  0.14341941275E+04  0.10100000352E+00 0.  1.
</event>
<event>
 5   0  0.1496287E-07  0.3665662E+04  0.7818609E-02  0.8075615E-01
       -1   -1    0    0    0  501  0.00000000000E+00  0.00000000000E+00  0.19323888530E+04  0.19323888530E+04  0.50400001928E-02 0. -1.
        1   -1    0    0  501    0  0.00000000000E+00  0.00000000000E+00 -0.17384019957E+04  0.17384019958E+04  0.50400001928E-02 0.  1.
    10030    2    1    2    0    0  0.00000000000E+00  0.00000000000E+00  0.19398685729E+03  0.36707908488E+04  0.36656615439E+04 0.  0.
        1    1    3    3  502    0  0.20615694694E+03 -0.50277004145E+03  0.18498685032E+04  0.19280279771E+04  0.50400001928E-02 0. -1.
       -1    1    3    3    0  502 -0.20615694694E+03  0.50277004145E+03 -0.16558816460E+04  0.17427628716E+04  0.50400001928E-02 0.  1.
</event>
<event>
 5   0  0.4793557E-07  0.3689666E+04  0.7818609E-02  0.8070256E-01
        2   -1    0    0  501    0  0.00000000000E+00  0.00000000000E+00  0.11968010009E+04  0.11968010009E+04  0.25500000920E-02 0.  1.
       -2   -1    0    0    0  501  0.00000000000E+00  0.00000000000E+00 -0.28437551616E+04  0.28437551616E+04  0.25500000920E-02 0. -1.
    10030    2    1    2    0    0  0.00000000000E+00  0.00000000000E+00 -0.16469541607E+04  0.40405561625E+04  0.36896661224E+04 0.  0.
        3    1    3    3  502    0  0.12757519951E+04  0.26059872003E+03 -0.22546502478E+04  0.26036325770E+04  0.10100000352E+00 0. -1.
       -3    1    3    3    0  502 -0.12757519951E+04 -0.26059872003E+03  0.60769608709E+03  0.14369235854E+04  0.10100000352E+00 0.  1.
</event>
<event>
 5   0  0.4857514E-07  0.3739771E+04  0.7818609E-02  0.8059205E-01
        2   -1    0    0  501    0  0.00000000000E+00  0.00000000000E+00  0.32630125974E+04  0.32630125974E+04  0.25500000920E-02 0. -1.
       -2   -1    0    0    0  501  0.00000000000E+00  0.00000000000E+00 -0.10715469631E+04  0.10715469631E+04  0.25500000920E-02 0.  1.
    10030    2    1    2    0    0  0.00000000000E+00  0.00000000000E+00  0.21914656343E+04  0.43345595605E+04  0.37397707092E+04 0.  0.
        5    1    3    3  502    0  0.13202015013E+03 -0.52751240990E+03  0.31693372338E+04  0.32156522284E+04  0.46999998093E+01 0. -1.
       -5    1    3    3    0  502 -0.13202015013E+03  0.52751240990E+03 -0.97787159950E+03  0.11189073321E+04  0.46999998093E+01 0.  1.
</event>
<event>
 5   0  0.4857514E-07  0.3698218E+04  0.7818609E-02  0.8068357E-01
       -2   -1    0    0    0  501  0.00000000000E+00  0.00000000000E+00  0.19857027329E+04  0.19857027329E+04  0.25500000920E-02 0. -1.
        2   -1    0    0  501    0  0.00000000000E+00  0.00000000000E+00 -0.17219118144E+04  0.17219118144E+04  0.25500000920E-02 0.  1.
    10030    2    1    2    0    0  0.00000000000E+00  0.00000000000E+00  0.26379091850E+03  0.37076145474E+04  0.36982184877E+04 0.  0.
        5    1    3    3  502    0 -0.71319663335E+03 -0.37999171930E+03 -0.15355017560E+04  0.17351745956E+04  0.46999998093E+01 0.  1.
       -5    1    3    3    0  502  0.71319663335E+03  0.37999171930E+03  0.17992926745E+04  0.19724399517E+04  0.46999998093E+01 0. -1.
</event>
<event>
 5   0  0.1496287E-07  0.3679771E+04  0.7818609E-02  0.8072460E-01
        1   -1    0    0  501    0  0.00000000000E+00  0.00000000000E+00  0.24729194159E+04  0.24729194159E+04  0.50400001928E-02 0. -1.
       -1   -1    0    0    0  501  0.00000000000E+00  0.00000000000E+00 -0.13688994456E+04  0.13688994456E+04  0.50400001928E-02 0.  1.
    10030    2    1    2    0    0  0.00000000000E+00  0.00000000000E+00  0.11040199703E+04  0.38418188615E+04  0.36797706545E+04 0.  0.
        1    1    3    3  502    0  0.14798227880E+04  0.10667917898E+04  0.80183360800E+03  0.19927010166E+04  0.50400001928E-02 0. -1.
       -1    1    3    3    0  502 -0.14798227880E+04 -0.10667917898E+04  0.30218636228E+03  0.18491178449E+04  0.50400001928E-02 0.  1.
</event>
<event>
 5   0  0.4824268E-07  0.2990695E+04  0.7818609E-02  0.8246393E-01
       -2   -1    0    0    0  501  0.00000000000E+00  0.00000000000E+00  0.91712123225E+03  0.91712123225E+03  0.25500000920E-02 0. -1.
        2   -1    0    0  501    0  0.00000000000E+00  0.00000000000E+00 -0.24381332692E+04  0.24381332692E+04  0.25500000920E-02 0.  1.
    10030    2    1    2    0    0  0.00000000000E+00  0.00000000000E+00 -0.15210120369E+04  0.33552545014E+04  0.29906947609E+04 0.  0.
        1    1    3    3  502    0  0.48485861962E+03  0.58216392649E+03 -0.22068675630E+04  0.23332953432E+04  0.50400001928E-02 0.  1.
       -1    1    3    3    0  502 -0.48485861962E+03 -0.58216392649E+03  0.68585552605E+03  0.10219591582E+04  0.50400001928E-02 0. -1.
</event>
<event>
 5   0  0.4824268E-07  0.3650216E+04  0.7818609E-02  0.8079085E-01
        2   -1    0    0  501    0  0.00000000000E+00  0.00000000000E+00  0.21094363100E+04  0.21094363100E+04  0.25500000920E-02 0.  1.
       -2   -1    0    0    0  501  0.00000000000E+00  0.00000000000E+00 -0.15791042777E+04  0.15791042777E+04  0.25500000920E-02 0. -1.
    10030    2    1    2    0    0  0.00000000000E+00  0.00000000000E+00  0.53033203225E+03  0.36885405877E+04  0.36502163776E+04 0.  0.
        1    1    3    3  502    0 -0.14392767992E+04  0.73962599183E+03  0.11180988951E+04  0.19669035187E+04  0.50400001928E-02 0.  1.
       -1    1    3    3    0  502  0.14392767992E+04 -0.73962599183E+03 -0.58776686290E+03  0.17216370691E+04  0.50400001928E-02 0. -1.
</event>
<event>
 5   0  0.1496000E-07  0.3706223E+04  0.7818609E-02  0.8066584E-01
       -1   -1    0    0    0  501  0.00000000000E+00  0.00000000000E+00  0.19751687869E+04  0.19751687869E+04  0.50400001928E-02 0.  1.
        1   -1    0    0  501    0  0.00000000000E+00  0.00000000000E+00 -0.17385971336E+04  0.17385971336E+04  0.50400001928E-02 0. -1.
    10030    2    1    2    0    0  0.00000000000E+00  0.00000000000E+00  0.23657165330E+03  0.37137659205E+04  0.37062233021E+04 0.  0.
        3    1    3    3  502    0 -0.85748731222E+03  0.15148667351E+04  0.75512393774E+03  0.18974503649E+04  0.10100000352E+00 0.  1.
       -3    1    3    3    0  502  0.85748731222E+03 -0.15148667351E+04 -0.51855228444E+03  0.18163155556E+04  0.10100000352E+00 0. -1.
</event>
<event>
 5   0  0.4687817E-07  0.3072117E+04  0.7818609E-02  0.8223432E-01
        2   -1    0    0  501    0  0.00000000000E+00  0.00000000000E+00  0.16913990451E+04  0.16913990451E+04  0.25500000920E-02 0.  1.
       -2   -1    0    0    0  501  0.00000000000E+00  0.00000000000E+00 -0.13949849430E+04  0.13949849430E+04  0.25500000920E-02 0. -1.
    10030    2    1    2    0    0  0.00000000000E+00  0.00000000000E+00  0.29641410217E+03  0.30863839881E+04  0.30721173158E+04 0.  0.
        4    1    3    3  502    0 -0.61429931952E+03 -0.34781195983E+03  0.15187776869E+04  0.16748206138E+04  0.12699999809E+01 0.  1.
       -4    1    3    3    0  502  0.61429931952E+03  0.34781195983E+03 -0.12223635847E+04  0.14115633743E+04  0.12699999809E+01 0. -1.
</event>
<event>
 5   0  0.1496000E-07  0.3758812E+04  0.7818609E-02  0.8055052E-01
        1   -1    0    0  501    0  0.00000000000E+00  0.00000000000E+00  0.16680259232E+04  0.16680259232E+04  0.50400001928E-02 0. -1.
       -1   -1    0    0    0  501  0.00000000000E+00  0.00000000000E+00 -0.21175731981E+04  0.21175731981E+04  0.50400001928E-02 0.  1.
    10030    2    1    2    0    0  0.00000000000E+00  0.00000000000E+00 -0.44954727487E+03  0.37855991214E+04  0.37588120404E+04 0.  0.
        2    1    3    3  502    0 -0.12803969896E+04  0.26819008524E+03 -0.15837693007E+04  0.20541829448E+04  0.25500000920E-02 0.  1.
       -2    1    3    3    0  502  0.12803969896E+04 -0.26819008524E+03  0.11342220258E+04  0.17314161766E+04  0.25500000920E-02 0. -1.
</event>
<event>
 5   0  0.4758908E-07  0.3646346E+04  0.7818609E-02  0.8079957E-01
        2   -1    0    0  501    0  0.00000000000E+00  0.00000000000E+00  0.19943931589E+04  0.19943931589E+04  0.25500000920E-02 0.  1.
       -2   -1    0    0    0  501  0.00000000000E+00  0.00000000000E+00 -0.16666526144E+04  0.16666526144E+04  0.25500000920E-02 0. -1.
    10030    2    1    2    0    0  0.00000000000E+00  0.00000000000E+00  0.32774054448E+03  0.36610457733E+04  0.36463464303E+04 0.  0.
        2    1    3    3  502    0 -0.70012332305E+03 -0.89846613121E+03  0.15931772689E+04  0.19584759040E+04  0.25500000920E-02 0.  1.
       -2    1    3    3    0  502  0.70012332305E+03  0.89846613121E+03 -0.12654367244E+04  0.17025698693E+04  0.25500000920E-02 0. -1.
</event>
<event>
 5   0  0.1496000E-07  0.3713649E+04  0.7818609E-02  0.8064944E-01
        1   -1    0    0  501    0  0.00000000000E+00  0.00000000000E+00  0.10909155769E+04  0.10909155769E+04  0.50400001928E-02 0.  1.
       -1   -1    0    0    0  501  0.00000000000E+00  0.00000000000E+00 -0.31604613175E+04  0.31604613175E+04  0.50400001928E-02 0. -1.
    10030    2    1    2    0    0  0.00000000000E+00  0.00000000000E+00 -0.20695457405E+04  0.42513768944E+04  0.37136486002E+04 0.  0.
        3    1    3    3  502    0  0.15842871460E+04  0.36026608887E+03 -0.20638430118E+04  0.26266338541E+04  0.10100000352E+00 0. -1.
       -3    1    3    3    0  502 -0.15842871460E+04 -0.36026608887E+03 -0.57027287584E+01  0.16247430403E+04  0.10100000352E+00 0.  1.
</event>
<event>
 5   0  0.4758908E-07  0.3707674E+04  0.7818609E-02  0.8066263E-01
       -2   -1    0    0    0  501  0.00000000000E+00  0.00000000000E+00  0.19806565084E+04  0.19806565084E+04  0.25500000920E-02 0. -1.
        2   -1    0    0  501    0  0.00000000000E+00  0.00000000000E+00 -0.17351379837E+04  0.17351379837E+04  0.25500000920E-02 0.  1.
    10030    2    1    2    0    0  0.00000000000E+00  0.00000000000E+00  0.24551852469E+03  0.37157944920E+04  0.37076743872E+04 0.  0.
        2    1    3    3  502    0  0.45729017243E+03  0.11185488326E+04 -0.12861811839E+04  0.17648024905E+04  0.25500000920E-02 0. -1.
       -2    1    3    3    0  502 -0.45729017243E+03 -0.11185488326E+04  0.15316997086E+04  0.19509920015E+04  0.25500000920E-02 0.  1.
</event>
<event>
 5   0  0.4857514E-07  0.3204340E+04  0.7818609E-02  0.8187672E-01
        2   -1    0    0  501    0  0.00000000000E+00  0.00000000000E+00  0.18342718215E+04  0.18342718215E+04  0.25500000920E-02 0. -1.
       -2   -1    0    0    0  501  0.00000000000E+00  0.00000000000E+00 -0.13994375580E+04  0.13994375580E+04  0.25500000920E-02 0.  1.
    10030    2    1    2    0    0  0.00000000000E+00  0.00000000000E+00  0.43483426350E+03  0.32337093796E+04  0.32043401060E+04 0.  0.
        5    1    3    3  502    0  0.58586424907E+03  0.12654217530E+04 -0.57873553745E+03  0.15097966895E+04  0.46999998093E+01 0.  1.
       -5    1    3    3    0  502 -0.58586424907E+03 -0.12654217530E+04  0.10135698009E+04  0.17239126900E+04  0.46999998093E+01 0. -1.
</event>
<event>
 5   0  0.4857514E-07  0.3698354E+04  0.7818609E-02  0.8068327E-01
       -2   -1    0    0    0  501  0.00000000000E+00  0.00000000000E+00  0.12759318838E+04  0.12759318838E+04  0.25500000920E-02 0.  1.
        2   -1    0    0  501    0  0.00000000000E+00  0.00000000000E+00 -0.26799677836E+04  0.26799677836E+04  0.25500000920E-02 0. -1.
    10030    2    1    2    0    0  0.00000000000E+00  0.00000000000E+00 -0.14040358998E+04  0.39558996673E+04  0.36983544138E+04 0.  0.
        5    1    3    3  502    0  0.12246221203E+04  0.12678802275E+04 -0.12996905897E+04  0.21900770141E+04  0.46999998093E+01 0. -1.
       -5    1    3    3    0  502 -0.12246221203E+04 -0.12678802275E+04 -0.10434531007E+03  0.17658226532E+04  0.46999998093E+01 0.  1.
</event>
<event>
 5   0  0.1496000E-07  0.3500140E+04  0.7818609E-02  0.8113757E-01
        1   -1    0    0  501    0  0.00000000000E+00  0.00000000000E+00  0.20952030647E+04  0.20952030648E+04  0.50400001928E-02 0.  1.
       -1   -1    0    0    0  501  0.00000000000E+00  0.00000000000E+00 -0.14617893881E+04  0.14617893881E+04  0.50400001928E-02 0. -1.
    10030    2    1    2    0    0  0.00000000000E+00  0.00000000000E+00  0.63341367667E+03  0.35569924528E+04  0.35001403434E+04 0.  0.
        2    1    3    3  502    0 -0.46728304871E+03 -0.13658373001E+04 -0.68874749976E+03  0.15994493104E+04  0.25500000920E-02 0. -1.
       -2    1    3    3    0  502  0.46728304871E+03  0.13658373001E+04  0.13221611764E+04  0.19575431424E+04  0.25500000920E-02 0.  1.
</event>
<event>
 5   0  0.1496000E-07  0.3795880E+04  0.7818609E-02  0.8047040E-01
        1   -1    0    0  501    0  0.00000000000E+00  0.00000000000E+00  0.14357559141E+04  0.14357559142E+04  0.50400001928E-02 0.  1.
       -1   -1    0    0    0  501  0.00000000000E+00  0.00000000000E+00 -0.25089052816E+04  0.25089052816E+04  0.50400001928E-02 0. -1.
    10030    2    1    2    0    0  0.00000000000E+00  0.00000000000E+00 -0.10731493674E+04  0.39446611957E+04  0.37958796588E+04 0.  0.
        3    1    3    3  502    0 -0.12649227186E+04  0.12704897648E+04 -0.11838874552E+04  0.21484327412E+04  0.10100000352E+00 0. -1.
       -3    1    3    3    0  502  0.12649227186E+04 -0.12704897648E+04  0.11073808778E+03  0.17962284545E+04  0.10100000352E+00 0.  1.
</event>
<event>
 5   0  0.1496000E-07  0.3592577E+04  0.7818609E-02  0.8092194E-01
        1   -1    0    0  501    0  0.00000000000E+00  0.00000000000E+00  0.20517694116E+04  0.20517694116E+04  0.50400001928E-02 0. -1.
       -1   -1    0    0    0  501  0.00000000000E+00  0.00000000000E+00 -0.15726193813E+04  0.15726193813E+04  0.50400001928E-02 0.  1.
    10030    2    1    2    0    0  0.00000000000E+00  0.00000000000E+00  0.47915003025E+03  0.36243887929E+04  0.35925769819E+04 0.  0.
        3    1    3    3  502    0 -0.67090439462E+03 -0.38569963446E+03 -0.13958205611E+04  0.15959924698E+04  0.10100000352E+00 0.  1.
       -3    1    3    3    0  502  0.67090439462E+03  0.38569963446E+03  0.18749705914E+04  0.20283963231E+04  0.10100000352E+00 0. -1.
</event>
<event>
 5   0  0.1496000E-07  0.3660753E+04  0.7818609E-02  0.8076715E-01
       -1   -1    0    0    0  501  0.00000000000E+00  0.00000000000E+00  0.13621397660E+04  0.13621397660E+04  0.50400001928E-02 0. -1.
        1   -1    0    0  501    0  0.00000000000E+00  0.00000000000E+00 -0.24595705463E+04  0.24595705463E+04  0.50400001928E-02 0.  1.
    10030    2    1    2    0    0  0.00000000000E+00  0.00000000000E+00 -0.10974307803E+04  0.38217103123E+04  0.36607533915E+04 0.  0.
        5    1    3    3  502    0  0.87745098657E+03 -0.13199702331E+04  0.40696618898E+03  0.16364245229E+04  0.46999998093E+01 0. -1.
       -5    1    3    3    0  502 -0.87745098657E+03  0.13199702331E+04 -0.15043969693E+04  0.21852857894E+04  0.46999998093E+01 0.  1.
</event>
<event>
 5   0  0.4824268E-07  0.3602490E+04  0.7818609E-02  0.8089922E-01
       -2   -1    0    0    0  501  0.00000000000E+00  0.00000000000E+00  0.15948048037E+04  0.15948048037E+04  0.25500000920E-02 0. -1.
        2   -1    0    0  501    0  0.00000000000E+00  0.00000000000E+00 -0.20344077365E+04  0.20344077365E+04  0.25500000920E-02 0.  1.
    10030    2    1    2    0    0  0.00000000000E+00  0.00000000000E+00 -0.43960293280E+03  0.36292125401E+04  0.36024898228E+04 0.  0.
        1    1    3    3  502    0 -0.33109558727E+03 -0.10913322823E+04 -0.16243647992E+04  0.19847396402E+04  0.50400001928E-02 0.  1.
       -1    1    3    3    0  502  0.33109558727E+03  0.10913322823E+04  0.11847618665E+04  0.16444728999E+04  0.50400001928E-02 0. -1.
</event>
<event>
 5   0  0.1496000E-07  0.3646370E+04  0.7818609E-02  0.8079952E-01
        1   -1    0    0  501    0  0.00000000000E+00  0.00000000000E+00  0.24598503155E+04  0.24598503155E+04  0.50400001928E-02 0.  1.
       -1   -1    0    0    0  501  0.00000000000E+00  0.00000000000E+00 -0.13513031774E+04  0.13513031774E+04  0.50400001928E-02 0. -1.
    10030    2    1    2    0    0  0.00000000000E+00  0.00000000000E+00  0.11085471381E+04  0.38111534929E+04  0.36463700017E+04 0.  0.
        5    1    3    3  502    0  0.17543155441E+03  0.69028617202E+03 -0.11998766846E+04  0.13953484790E+04  0.46999998093E+01 0. -1.
       -5    1    3    3    0  502 -0.17543155441E+03 -0.69028617202E+03  0.23084238228E+04  0.24158050139E+04  0.46999998093E+01 0.  1.
</event>
<event>
 5   0  0.4824268E-07  0.3690367E+04  0.7818609E-02  0.8070100E-01
       -2   -1    0    0    0  501  0.00000000000E+00  0.00000000000E+00  0.17667574145E+04  0.17667574145E+04  0.25500000920E-02 0.  1.
        2   -1    0    0  501    0  0.00000000000E+00  0.00000000000E+00 -0.19270907419E+04  0.19270907419E+04  0.25500000920E-02 0. -1.
    10030    2    1    2    0    0  0.00000000000E+00  0.00000000000E+00 -0.16033332739E+03  0.36938481564E+04  0.36903668418E+04 0.  0.
        1    1    3    3  502    0  0.83895893696E+03  0.13780026575E+04 -0.97653277550E+03  0.18858312978E+04  0.50400001928E-02 0. -1.
       -1    1    3    3    0  502 -0.83895893696E+03 -0.13780026575E+04  0.81619944811E+03  0.18080168586E+04  0.50400001928E-02 0.  1.
</event>
<event>
 5   0  0.4793557E-07  0.3658823E+04  0.7818609E-02  0.8077149E-01
        2   -1    0    0  501    0  0.00000000000E+00  0.00000000000E+00  0.23935761845E+04  0.23935761845E+04  0.25500000920E-02 0. -1.
       -2   -1    0    0    0  501  0.00000000000E+00  0.00000000000E+00 -0.13982198675E+04  0.13982198675E+04  0.25500000920E-02 0.  1.
    10030    2    1    2    0    0  0.00000000000E+00  0.00000000000E+00  0.99535631704E+03  0.37917960520E+04  0.36588226387E+04 0.  0.
        3    1    3    3  502    0 -0.15396831167E+04  0.66302026975E+03  0.12567780209E+04  0.20951637125E+04  0.10100000352E+00 0. -1.
       -3    1    3    3    0  502  0.15396831167E+04 -0.66302026975E+03 -0.26142170384E+03  0.16966323395E+04  0.10100000352E+00 0.  1.
</event>
<event>
 5   0  0.4758908E-07  0.3642784E+04  0.7818609E-02  0.8080761E-01
       -2   -1    0    0    0  501  0.00000000000E+00  0.00000000000E+00  0.18652506071E+04  0.18652506071E+04  0.25500000920E-02 0. -1.
        2   -1    0    0  501    0  0.00000000000E+00  0.00000000000E+00 -0.17785644393E+04  0.17785644393E+04  0.25500000920E-02 0.  1.
    10030    2    1    2    0    0  0.00000000000E+00  0.00000000000E+00  0.86686167828E+02  0.36438150465E+04  0.36427837708E+04 0.  0.
        2    1    3    3  502    0  0.12692496606E+04  0.38460347408E+03 -0.12054308941E+04  0.17921992561E+04  0.25500000920E-02 0.  1.
       -2    1    3    3    0  502 -0.12692496606E+04 -0.38460347408E+03  0.12921170620E+04  0.18516157903E+04  0.25500000920E-02 0. -1.
</event>
<event>
 5   0  0.1522273E-07  0.3655217E+04  0.7818609E-02  0.8077959E-01
        1   -1    0    0  501    0  0.00000000000E+00  0.00000000000E+00  0.13231238030E+04  0.13231238031E+04  0.50400001928E-02 0. -1.
       -1   -1    0    0    0  501  0.00000000000E+00  0.00000000000E+00 -0.25244449138E+04  0.25244449138E+04  0.50400001928E-02 0.  1.
    10030    2    1    2    0    0  0.00000000000E+00  0.00000000000E+00 -0.12013211107E+04  0.38475687168E+04  0.36552171782E+04 0.  0.
        4    1    3    3  502    0  0.65237568202E+03  0.58316263593E+03 -0.22896147180E+04  0.24511242034E+04  0.12699999809E+01 0.  1.
       -4    1    3    3    0  502 -0.65237568202E+03 -0.58316263593E+03  0.10882936073E+04  0.13964445134E+04  0.12699999809E+01 0. -1.
</event>
<event>
 5   0  0.4857514E-07  0.3656447E+04  0.7818609E-02  0.8077683E-01
       -2   -1    0    0    0  501  0.00000000000E+00  0.00000000000E+00  0.13296721791E+04  0.13296721791E+04  0.25500000920E-02 0.  1.
        2   -1    0    0  501    0  0.00000000000E+00  0.00000000000E+00 -0.25137037239E+04  0.25137037239E+04  0.25500000920E-02 0. -1.
    10030    2    1    2    0    0  0.00000000000E+00  0.00000000000E+00 -0.11840315448E+04  0.38433759030E+04  0.36564474059E+04 0.  0.
        5    1    3    3  502    0 -0.88670964884E+03 -0.12465044672E+04 -0.16443743753E+04  0.22458888139E+04  0.46999998093E+01 0. -1.
       -5    1    3    3    0  502  0.88670964884E+03  0.12465044672E+04  0.46034283046E+03  0.15974870891E+04  0.46999998093E+01 0.  1.
</event>
<event>
 5   0  0.4857514E-07  0.3705622E+04  0.7818609E-02  0.8066717E-01
       -2   -1    0    0    0  501  0.00000000000E+00  0.00000000000E+00  0.12689416613E+04  0.12689416613E+04  0.25500000920E-02 0. -1.
        2   -1    0    0  501    0  0.00000000000E+00  0.00000000000E+00 -0.27053315603E+04  0.27053315603E+04  0.25500000920E-02 0.  1.
    10030    2    1    2    0    0  0.00000000000E+00  0.00000000000E+00 -0.14363898991E+04  0.39742732216E+04  0.37056216345E+04 0.  0.
        5    1    3    3  502    0 -0.15167783372E+04 -0.52571039910E+03 -0.17104141441E+04  0.23457464872E+04  0.46999998093E+01 0.  1.
       -5    1    3    3    0  502  0.15167783372E+04  0.52571039910E+03  0.27402424508E+03  0.16285267344E+04  0.46999998093E+01 0. -1.
</event>
<event>
 5   0  0.4824268E-07  0.3417839E+04  0.7818609E-02  0.8133542E-01
       -2   -1    0    0    0  501  0.00000000000E+00  0.00000000000E+00  0.15539387149E+04  0.15539387149E+04  0.25500000920E-02 0. -1.
        2   -1    0    0  501    0  0.00000000000E+00  0.00000000000E+00 -0.18793575100E+04  0.18793575100E+04  0.25500000920E-02 0.  1.
    10030    2    1    2    0    0  0.00000000000E+00  0.00000000000E+00 -0.32541879511E+03  0.34332962249E+04  0.34178393139E+04 0.  0.
        1    1    3    3  502    0 -0.53997600286E+03  0.14117326143E+04  0.63829462490E+03  0.16407263898E+04  0.50400001928E-02 0. -1.
       -1    1    3    3    0  502  0.53997600286E+03 -0.14117326143E+04 -0.96371342001E+03  0.17925698351E+04  0.50400001928E-02 0.  1.
</event>
<event>
 5   0  0.4687817E-07  0.3731473E+04  0.7818609E-02  0.8061023E-01
        2   -1    0    0  501    0  0.00000000000E+00  0.00000000000E+00  0.18947178794E+04  0.18947178794E+04  0.25500000920E-02 0. -1.
       -2   -1    0    0    0  501  0.00000000000E+00  0.00000000000E+00 -0.18371983584E+04  0.18371983584E+04  0.25500000920E-02 0.  1.
    10030    2    1    2    0    0  0.00000000000E+00  0.00000000000E+00  0.57519521031E+02  0.37319162378E+04  0.37314729412E+04 0.  0.
        4    1    3    3  502    0  0.12857440492E+04 -0.13312889311E+04 -0.20685894609E+03  0.18623265596E+04  0.12699999809E+01 0.  1.
       -4    1    3    3    0  502 -0.12857440492E+04  0.13312889311E+04  0.26437846712E+03  0.18695896782E+04  0.12699999809E+01 0. -1.
</event>
<event>
 5   0  0.1496000E-07  0.3475485E+04  0.7818609E-02  0.8119624E-01
        1   -1    0    0  501    0  0.00000000000E+00  0.00000000000E+00  0.15068927805E+04  0.15068927805E+04  0.50400001928E-02 0. -1.
       -1   -1    0    0    0  501  0.00000000000E+00  0.00000000000E+00 -0.20039573625E+04  0.20039573625E+04  0.50400001928E-02 0.  1.
    10030    2    1    2    0    0  0.00000000000E+00  0.00000000000E+00 -0.49706458195E+03  0.35108501430E+04  0.34754849342E+04 0.  0.
        2    1    3    3  502    0 -0.70635692550E+03 -0.15064193383E+04  0.25807813697E+03  0.16836993953E+04  0.25500000920E-02 0.  1.
       -2    1    3    3    0  502  0.70635692550E+03  0.15064193383E+04 -0.75514271892E+03  0.18271507477E+04  0.25500000920E-02 0. -1.
</event>
<event>
 5   0  0.1496000E-07  0.3765518E+04  0.7818609E-02  0.8053595E-01
        1   -1    0    0  501    0  0.00000000000E+00  0.00000000000E+00  0.13618451371E+04  0.13618451371E+04  0.50400001928E-02 0. -1.
       -1   -1    0    0    0  501  0.00000000000E+00  0.00000000000E+00 -0.26029252299E+04  0.26029252299E+04  0.50400001928E-02 0.  1.
    10030    2    1    2    0    0  0.00000000000E+00  0.00000000000E+00 -0.12410800929E+04  0.39647703670E+04  0.37655177953E+04 0.  0.
        2    1    3    3  502    0  0.12701328318E+04 -0.42301810294E+03 -0.20144497982E+04  0.24187165430E+04  0.25500000920E-02 0.  1.
       -2    1    3    3    0  502 -0.12701328318E+04  0.42301810294E+03  0.77336970533E+03  0.15460538241E+04  0.25500000920E-02 0. -1.
</event>
<event>
 5   0  0.4857514E-07  0.3713529E+04  0.7818609E-02  0.8064970E-01
        2   -1    0    0  501    0  0.00000000000E+00  0.00000000000E+00  0.22712429756E+04  0.22712429756E+04  0.25500000920E-02 0.  1.
       -2   -1    0    0    0  501  0.00000000000E+00  0.00000000000E+00 -0.15179244897E+04  0.15179244897E+04  0.25500000920E-02 0. -1.
    10030    2    1    2    0    0  0.00000000000E+00  0.00000000000E+00  0.75331848593E+03  0.37891674654E+04  0.37135294989E+04 0.  0.
        5    1    3    3  502    0  0.14413727163E+03  0.10067488791E+03 -0.15094058428E+04  0.15196180686E+04  0.46999998093E+01 0. -1.
       -5    1    3    3    0  502 -0.14413727163E+03 -0.10067488791E+03  0.22627243288E+04  0.22695493967E+04  0.46999998093E+01 0.  1.
</event>
<event>
 5   0  0.4793557E-07  0.3701552E+04  0.7818609E-02  0.8067618E-01
        2   -1    0    0  501    0  0.00000000000E+00  0.00000000000E+00  0.22235753575E+04  0.22235753575E+04  0.25500000920E-02 0. -1.
       -2   -1    0    0    0  501  0.00000000000E+00  0.00000000000E+00 -0.15404793403E+04  0.15404793403E+04  0.25500000920E-02 0.  1.
    10030    2    1    2    0    0  0.00000000000E+00  0.00000000000E+00  0.68309601713E+03  0.37640546978E+04  0.37015520528E+04 0.  0.
        3    1    3    3  502    0  0.34791791119E+03 -0.83414166948E+03  0.19839149957E+04  0.21800820898E+04  0.10100000352E+00 0. -1.
       -3    1    3    3    0  502 -0.34791791119E+03  0.83414166948E+03 -0.13008189786E+04  0.15839726080E+04  0.10100000352E+00 0.  1.
</event>
<event>
 5   0  0.1496000E-07  0.3718746E+04  0.7818609E-02  0.8063820E-01
       -1   -1    0    0    0  501  0.00000000000E+00  0.00000000000E+00  0.16776794888E+04  0.16776794888E+04  0.50400001928E-02 0. -1.
        1   -1    0    0  501    0  0.00000000000E+00  0.00000000000E+00 -0.20607438839E+04  0.20607438839E+04  0.50400001928E-02 0.  1.
    10030    2    1    2    0    0  0.00000000000E+00  0.00000000000E+00 -0.38306439514E+03  0.37384233727E+04  0.37187458884E+04 0.  0.
        2    1    3    3  502    0  0.63232236008E+03 -0.14775718295E+04  0.74841134761E+03  0.17728986501E+04  0.25500000920E-02 0. -1.
       -2    1    3    3    0  502 -0.63232236008E+03  0.14775718295E+04 -0.11314757428E+04  0.19655247225E+04  0.25500000920E-02 0.  1.
</event>
<event>
 5   0  0.4687817E-07  0.3734299E+04  0.7818609E-02  0.8060403E-01
        2   -1    0    0  501    0  0.00000000000E+00  0.00000000000E+00  0.19546192421E+04  0.19546192421E+04  0.25500000920E-02 0.  1.
       -2   -1    0    0    0  501  0.00000000000E+00  0.00000000000E+00 -0.17835942035E+04  0.17835942035E+04  0.25500000920E-02 0. -1.
    10030    2    1    2    0    0  0.00000000000E+00  0.00000000000E+00  0.17102503860E+03  0.37382134455E+04  0.37342991579E+04 0.  0.
        4    1    3    3  502    0  0.12162916240E+03 -0.49150667068E+03 -0.17135561631E+04  0.17867984770E+04  0.12699999809E+01 0. -1.
       -4    1    3    3    0  502 -0.12162916240E+03  0.49150667068E+03  0.18845812017E+04  0.19514149685E+04  0.12699999809E+01 0.  1.
</event>
<event>
 5   0  0.1522273E-07  0.3679274E+04  0.7818609E-02  0.8072571E-01
       -1   -1    0    0    0  501  0.00000000000E+00  0.00000000000E+00  0.15051110420E+04  0.15051110420E+04  0.50400001928E-02 0.  1.
        1   -1    0    0  501    0  0.00000000000E+00  0.00000000000E+00 -0.22485148181E+04  0.22485148181E+04  0.50400001928E-02 0. -1.
    10030    2    1    2    0    0  0.00000000000E+00  0.00000000000E+00 -0.74340377611E+03  0.37536258601E+04  0.36792741028E+04 0.  0.
        4    1    3    3  502    0 -0.67069048300E+03 -0.29022517994E+03  0.13506702880E+04  0.15356979582E+04  0.12699999809E+01 0.  1.
       -4    1    3    3    0  502  0.67069048300E+03  0.29022517994E+03 -0.20940740641E+04  0.22179279019E+04  0.12699999809E+01 0. -1.
</event>
<event>
 5   0  0.1496000E-07  0.3705732E+04  0.7818609E-02  0.8066693E-01
       -1   -1    0    0    0  501  0.00000000000E+00  0.00000000000E+00  0.13834561002E+04  0.13834561002E+04  0.50400001928E-02 0. -1.
        1   -1    0    0  501    0  0.00000000000E+00  0.00000000000E+00 -0.24815473314E+04  0.24815473314E+04  0.50400001928E-02 0.  1.
    10030    2    1    2    0    0  0.00000000000E+00  0.00000000000E+00 -0.10980912312E+04  0.38650034316E+04  0.37057316651E+04 0.  0.
        3    1    3    3  502    0 -0.10748634746E+04 -0.14479398562E+04 -0.10501237549E+03  0.18063468453E+04  0.10100000352E+00 0. -1.
       -3    1    3    3    0  502  0.10748634746E+04  0.14479398562E+04 -0.99307885568E+03  0.20586565863E+04  0.10100000352E+00 0.  1.
</event>
<event>
 5   0  0.4824268E-07  0.3684019E+04  0.7818609E-02  0.8071513E-01
       -2   -1    0    0    0  501  0.00000000000E+00  0.00000000000E+00  0.16432714601E+04  0.16432714601E+04  0.25500000920E-02 0.  1.
        2   -1    0    0  501    0  0.00000000000E+00  0.00000000000E+00 -0.20647829114E+04  0.20647829114E+04  0.25500000920E-02 0. -1.
    10030    2    1    2    0    0  0.00000000000E+00  0.00000000000E+00 -0.42151145134E+03  0.37080543716E+04  0.36840189086E+04 0.  0.
        1    1    3    3  502    0  0.17085696918E+04 -0.62941735420E+03  0.69669647761E+02  0.18221499547E+04  0.50400001928E-02 0.  1.
       -1    1    3    3    0  502 -0.17085696918E+04  0.62941735420E+03 -0.49118109910E+03  0.18859044169E+04  0.50400001928E-02 0. -1.
</event>
<event>
 5   0  0.1496000E-07  0.3557609E+04  0.7818609E-02  0.8100271E-01
        1   -1    0    0  501    0  0.00000000000E+00  0.00000000000E+00  0.17339736991E+04  0.17339736991E+04  0.50400001928E-02 0.  1.
       -1   -1    0    0    0  501  0.00000000000E+00  0.00000000000E+00 -0.18247944123E+04  0.18247944123E+04  0.50400001928E-02 0. -1.
    10030    2    1    2    0    0  0.00000000000E+00  0.00000000000E+00 -0.90820713217E+02  0.35587681114E+04  0.35576090382E+04 0.  0.
        2    1    3    3  502    0 -0.16123544468E+04  0.24985478484E+03  0.66336211723E+03  0.17612959927E+04  0.25500000920E-02 0.  1.
       -2    1    3    3    0  502  0.16123544468E+04 -0.24985478484E+03 -0.75418283045E+03  0.17974721186E+04  0.25500000920E-02 0. -1.
</event>
<event>
 5   0  0.4824268E-07  0.3098272E+04  0.7818609E-02  0.8216212E-01
       -2   -1    0    0    0  501  0.00000000000E+00  0.00000000000E+00  0.17705957730E+04  0.17705957730E+04  0.25500000920E-02 0. -1.
        2   -1    0    0  501    0  0.00000000000E+00  0.00000000000E+00 -0.13553756168E+04  0.13553756168E+04  0.25500000920E-02 0.  1.
    10030    2    1    2    0    0  0.00000000000E+00  0.00000000000E+00  0.41522015613E+03  0.31259713898E+04  0.30982719945E+04 0.  0.
        1    1    3    3  502    0 -0.12662062611E+03 -0.13211967337E+04  0.10136445910E+04  0.16700505828E+04  0.50400001928E-02 0. -1.
       -1    1    3    3    0  502  0.12662062611E+03  0.13211967337E+04 -0.59842443489E+03  0.14559208070E+04  0.50400001928E-02 0.  1.
</event>
<event>
 5   0  0.4793557E-07  0.3637172E+04  0.7818609E-02  0.8082030E-01
        2   -1    0    0  501    0  0.00000000000E+00  0.00000000000E+00  0.13088183018E+04  0.13088183018E+04  0.25500000920E-02 0.  1.
       -2   -1    0    0    0  501  0.00000000000E+00  0.00000000000E+00 -0.25269013077E+04  0.25269013077E+04  0.25500000920E-02 0. -1.
    10030    2    1    2    0    0  0.00000000000E+00  0.00000000000E+00 -0.12180830059E+04  0.38357196095E+04  0.36371718014E+04 0.  0.
        3    1    3    3  502    0 -0.26661522053E+03 -0.81731226435E+03 -0.22990740232E+04  0.24545517692E+04  0.10100000352E+00 0. -1.
       -3    1    3    3    0  502  0.26661522053E+03  0.81731226435E+03  0.10809910173E+04  0.13811678403E+04  0.10100000352E+00 0.  1.
</event>
<event>
 5   0  0.1496000E-07  0.3710714E+04  0.7818609E-02  0.8065592E-01
        1   -1    0    0  501    0  0.00000000000E+00  0.00000000000E+00  0.21946983258E+04  0.21946983258E+04  0.50400001928E-02 0. -1.
       -1   -1    0    0    0  501  0.00000000000E+00  0.00000000000E+00 -0.15684837649E+04  0.15684837649E+04  0.50400001928E-02 0.  1.
    10030    2    1    2    0    0  0.00000000000E+00  0.00000000000E+00  0.62621456091E+03  0.37631820908E+04  0.37107135125E+04 0.  0.
        3    1    3    3  502    0 -0.18233128702E+04 -0.75901191726E+02 -0.26467341353E+02  0.18250839279E+04  0.10100000352E+00 0.  1.
       -3    1    3    3    0  502  0.18233128702E+04  0.75901191726E+02  0.65268190226E+03  0.19380981629E+04  0.10100000352E+00 0. -1.
</event>
<event>
 5   0  0.1496287E-07  0.3694745E+04  0.7818609E-02  0.8069127E-01
       -1   -1    0    0    0  501  0.00000000000E+00  0.00000000000E+00  0.18646991715E+04  0.18646991715E+04  0.50400001928E-02 0. -1.
        1   -1    0    0  501    0  0.00000000000E+00  0.00000000000E+00 -0.18302063617E+04  0.18302063617E+04  0.50400001928E-02 0.  1.
    10030    2    1    2    0    0  0.00000000000E+00  0.00000000000E+00  0.34492809815E+02  0.36949055331E+04  0.36947445304E+04 0.  0.
        1    1    3    3  502    0 -0.13693112586E+04  0.11609856995E+04  0.45302125253E+03  0.18515208270E+04  0.50400001928E-02 0.  1.
       -1    1    3    3    0  502  0.13693112586E+04 -0.11609856995E+04 -0.41852844271E+03  0.18433847062E+04  0.50400001928E-02 0. -1.
</event>
<event>
 5   0  0.4824268E-07  0.3235486E+04  0.7818609E-02  0.8179508E-01
        2   -1    0    0  501    0  0.00000000000E+00  0.00000000000E+00  0.24578932273E+04  0.24578932273E+04  0.25500000920E-02 0. -1.
       -2   -1    0    0    0  501  0.00000000000E+00  0.00000000000E+00 -0.10647705472E+04  0.10647705472E+04  0.25500000920E-02 0.  1.
    10030    2    1    2    0    0  0.00000000000E+00  0.00000000000E+00  0.13931226801E+04  0.35226637745E+04  0.32354859398E+04 0.  0.
        1    1    3    3  502    0 -0.86821059022E+02 -0.68412637689E+03  0.22898457387E+04  0.23914347792E+04  0.50400001928E-02 0. -1.
       -1    1    3    3    0  502  0.86821059022E+02  0.68412637689E+03 -0.89672305868E+03  0.11312289953E+04  0.50400001928E-02 0.  1.
</event>
<event>
 5   0  0.1496000E-07  0.3698355E+04  0.7818609E-02  0.8068326E-01
        1   -1    0    0  501    0  0.00000000000E+00  0.00000000000E+00  0.17071599311E+04  0.17071599311E+04  0.50400001928E-02 0. -1.
       -1   -1    0    0    0  501  0.00000000000E+00  0.00000000000E+00 -0.20030097092E+04  0.20030097092E+04  0.50400001928E-02 0.  1.
    10030    2    1    2    0    0  0.00000000000E+00  0.00000000000E+00 -0.29584977811E+03  0.37101696403E+04  0.36983552653E+04 0.  0.
        2    1    3    3  502    0  0.12589208995E+03 -0.14485455284E+04  0.99823303113E+03  0.17636899247E+04  0.25500000920E-02 0. -1.
       -2    1    3    3    0  502 -0.12589208995E+03  0.14485455284E+04 -0.12940828092E+04  0.19464797156E+04  0.25500000920E-02 0.  1.
</event>
<event>
 5   0  0.1496287E-07  0.3700967E+04  0.7818609E-02  0.8067748E-01
       -1   -1    0    0    0  501  0.00000000000E+00  0.00000000000E+00  0.30395752712E+04  0.30395752712E+04  0.50400001928E-02 0.  1.
        1   -1    0    0  501    0  0.00000000000E+00  0.00000000000E+00 -0.11265682576E+04  0.11265682576E+04  0.50400001928E-02 0. -1.
    10030    2    1    2    0    0  0.00000000000E+00  0.00000000000E+00  0.19130070136E+04  0.41661435288E+04  0.37009669099E+04 0.  0.
        1    1    3    3  502    0  0.88000485745E+03 -0.45875219178E+02  0.27882258411E+04  0.29241608072E+04  0.50400001928E-02 0.  1.
       -1    1    3    3    0  502 -0.88000485745E+03  0.45875219178E+02 -0.87521882750E+03  0.12419827217E+04  0.50400001928E-02 0. -1.
</event>
<event>
 5   0  0.4793557E-07  0.3653406E+04  0.7818609E-02  0.8078367E-01
       -2   -1    0    0    0  501  0.00000000000E+00  0.00000000000E+00  0.15573056128E+04  0.15573056128E+04  0.25500000920E-02 0. -1.
        2   -1    0    0  501    0  0.00000000000E+00  0.00000000000E+00 -0.21427035920E+04  0.21427035920E+04  0.25500000920E-02 0.  1.
    10030    2    1    2    0    0  0.00000000000E+00  0.00000000000E+00 -0.58539797919E+03  0.37000092049E+04  0.36534062629E+04 0.  0.
        3    1    3    3  502    0 -0.11754329264E+04 -0.75306525358E+03 -0.14859020239E+04  0.20387875503E+04  0.10100000352E+00 0.  1.
       -3    1    3    3    0  502  0.11754329264E+04  0.75306525358E+03  0.90050404468E+03  0.16612216545E+04  0.10100000352E+00 0. -1.
</event>
<event>
 5   0  0.1522273E-07  0.3804675E+04  0.7818609E-02  0.8045152E-01
        1   -1    0    0  501    0  0.00000000000E+00  0.00000000000E+00  0.12813040912E+04  0.12813040912E+04  0.50400001928E-02 0.  1.
       -1   -1    0    0    0  501  0.00000000000E+00  0.00000000000E+00 -0.28243793704E+04  0.28243793704E+04  0.50400001928E-02 0. -1.
    10030    2    1    2    0    0  0.00000000000E+00  0.00000000000E+00 -0.15430752792E+04  0.41056834616E+04  0.38046754618E+04 0.  0.
        4    1    3    3  502    0  0.52286546584E+03  0.29317367723E+03  0.11767207041E+04  0.13206105893E+04  0.12699999809E+01 0.  1.
       -4    1    3    3    0  502 -0.52286546584E+03 -0.29317367723E+03 -0.27197959832E+04  0.27850728722E+04  0.12699999809E+01 0. -1.
</event>
<event>
 5   0  0.1496287E-07  0.3629444E+04  0.7818609E-02  0.8083780E-01
       -1   -1    0    0    0  501  0.00000000000E+00  0.00000000000E+00  0.18178556445E+04  0.18178556445E+04  0.50400001928E-02 0.  1.
        1   -1    0    0  501    0  0.00000000000E+00  0.00000000000E+00 -0.18115936169E+04  0.18115936169E+04  0.50400001928E-02 0. -1.
    10030    2    1    2    0    0  0.00000000000E+00  0.00000000000E+00  0.62620275241E+01  0.36294492614E+04  0.36294438593E+04 0.  0.
        1    1    3    3  502    0 -0.67329294202E+03 -0.15808096192E+04  0.58702677407E+03  0.18157320484E+04  0.50400001928E-02 0. -1.
       -1    1    3    3    0  502  0.67329294202E+03  0.15808096192E+04 -0.58076474655E+03  0.18137172130E+04  0.50400001928E-02 0.  1.
</event>
<event>
 5   0  0.1496287E-07  0.3713234E+04  0.7818609E-02  0.8065035E-01
        1   -1    0    0  501    0  0.00000000000E+00  0.00000000000E+00  0.16562726033E+04  0.16562726033E+04  0.50400001928E-02 0.  1.
       -1   -1    0    0    0  501  0.00000000000E+00  0.00000000000E+00 -0.20811951528E+04  0.20811951528E+04  0.50400001928E-02 0. -1.
    10030    2    1    2    0    0  0.00000000000E+00  0.00000000000E+00 -0.42492254956E+03  0.37374677561E+04  0.37132339079E+04 0.  0.
        1    1    3    3  502    0 -0.17226882035E+03 -0.82489557805E+03 -0.18776152319E+04  0.20580496156E+04  0.50400001928E-02 0. -1.
       -1    1    3    3    0  502  0.17226882035E+03  0.82489557805E+03  0.14526926824E+04  0.16794181405E+04  0.50400001928E-02 0.  1.
</event>
<event>
 5   0  0.4758908E-07  0.3687923E+04  0.7818609E-02  0.8070644E-01
        2   -1    0    0  501    0  0.00000000000E+00  0.00000000000E+00  0.21691261645E+04  0.21691261645E+04  0.25500000920E-02 0.  1.
       -2   -1    0    0    0  501  0.00000000000E+00  0.00000000000E+00 -0.15675407149E+04  0.15675407149E+04  0.25500000920E-02 0. -1.
    10030    2    1    2    0    0  0.00000000000E+00  0.00000000000E+00  0.60158544964E+03  0.37366668794E+04  0.36879227641E+04 0.  0.
        2    1    3    3  502    0  0.16252989287E+04  0.26034085704E+03  0.11429338841E+04  0.20039141281E+04  0.25500000920E-02 0.  1.
       -2    1    3    3    0  502 -0.16252989287E+04 -0.26034085704E+03 -0.54134843449E+03  0.17327527512E+04  0.25500000920E-02 0. -1.
</event>
<event>
 5   0  0.4687817E-07  0.3686478E+04  0.7818609E-02  0.8070965E-01
       -2   -1    0    0    0  501  0.00000000000E+00  0.00000000000E+00  0.17197696452E+04  0.17197696452E+04  0.25500000920E-02 0.  1.
        2   -1    0    0  501    0  0.00000000000E+00  0.00000000000E+00 -0.19755722107E+04  0.19755722107E+04  0.25500000920E-02 0. -1.
    10030    2    1    2    0    0  0.00000000000E+00  0.00000000000E+00 -0.25580256552E+03  0.36953418559E+04  0.36864775164E+04 0.  0.
        4    1    3    3  502    0  0.18296565069E+04 -0.19919086500E+03 -0.26625810027E+02  0.18406603382E+04  0.12699999809E+01 0. -1.
       -4    1    3    3    0  502 -0.18296565069E+04  0.19919086500E+03 -0.22917675550E+03  0.18546815177E+04  0.12699999809E+01 0.  1.
</event>
<event>
 5   0  0.4793557E-07  0.3743354E+04  0.7818609E-02  0.8058421E-01
        2   -1    0    0  501    0  0.00000000000E+00  0.00000000000E+00  0.27142835504E+04  0.27142835504E+04  0.25500000920E-02 0.  1.
       -2   -1    0    0    0  501  0.00000000000E+00  0.00000000000E+00 -0.12906443015E+04  0.12906443015E+04  0.25500000920E-02 0. -1.
    10030    2    1    2    0    0  0.00000000000E+00  0.00000000000E+00  0.14236392488E+04  0.40049278519E+04  0.37433538957E+04 0.  0.
        3    1    3    3  502    0  0.40378555948E+03 -0.17342972307E+04  0.13285968584E+04  0.22217108913E+04  0.10100000352E+00 0. -1.
       -3    1    3    3    0  502 -0.40378555948E+03  0.17342972307E+04  0.95042390421E+02  0.17832169606E+04  0.10100000352E+00 0.  1.
</event>
<event>
 5   0  0.1496000E-07  0.3654363E+04  0.7818609E-02  0.8078151E-01
       -1   -1    0    0    0  501  0.00000000000E+00  0.00000000000E+00  0.19566936856E+04  0.19566936857E+04  0.50400001928E-02 0. -1.
        1   -1    0    0  501    0  0.00000000000E+00  0.00000000000E+00 -0.17062420708E+04  0.17062420708E+04  0.50400001928E-02 0.  1.
    10030    2    1    2    0    0  0.00000000000E+00  0.00000000000E+00  0.25045161486E+03  0.36629357565E+04  0.36543634664E+04 0.  0.
        3    1    3    3  502    0 -0.37716737294E+03  0.11094318305E+04 -0.12800253757E+04  0.17353844491E+04  0.10100000352E+00 0.  1.
       -3    1    3    3    0  502  0.37716737294E+03 -0.11094318305E+04  0.15304769905E+04  0.19275513073E+04  0.10100000352E+00 0. -1.
</event>
<event>
 5   0  0.4857514E-07  0.3687378E+04  0.7818609E-02  0.8070765E-01
        2   -1    0    0  501    0  0.00000000000E+00  0.00000000000E+00  0.21506224010E+04  0.21506224010E+04  0.25500000920E-02 0.  1.
       -2   -1    0    0    0  501  0.00000000000E+00  0.00000000000E+00 -0.15805607627E+04  0.15805607627E+04  0.25500000920E-02 0. -1.
    10030    2    1    2    0    0  0.00000000000E+00  0.00000000000E+00  0.57006163834E+03  0.37311831637E+04  0.36873781375E+04 0.  0.
        5    1    3    3  502    0  0.12187093353E+04 -0.19704946160E+03  0.16706360996E+04  0.20772886177E+04  0.46999998093E+01 0.  1.
       -5    1    3    3    0  502 -0.12187093353E+04  0.19704946160E+03 -0.11005744612E+04  0.16538945459E+04  0.46999998093E+01 0. -1.
</event>
<event>
 5   0  0.4758908E-07  0.3772981E+04  0.7818609E-02  0.8051978E-01
       -2   -1    0    0    0  501  0.00000000000E+00  0.00000000000E+00  0.17066467195E+04  0.17066467195E+04  0.25500000920E-02 0.  1.
        2   -1    0    0  501    0  0.00000000000E+00  0.00000000000E+00 -0.20852854936E+04  0.20852854936E+04  0.25500000920E-02 0. -1.
    10030    2    1    2    0    0  0.00000000000E+00  0.00000000000E+00 -0.37863877419E+03  0.37919322131E+04  0.37729805973E+04 0.  0.
        2    1    3    3  502    0 -0.28042616266E+02 -0.51363540860E+03 -0.20134396791E+04  0.20781114173E+04  0.25500000920E-02 0. -1.
       -2    1    3    3    0  502  0.28042616266E+02  0.51363540860E+03  0.16348009049E+04  0.17138207958E+04  0.25500000920E-02 0.  1.
</event>
<event>
 5   0  0.1496000E-07  0.3698308E+04  0.7818609E-02  0.8068337E-01
        1   -1    0    0  501    0  0.00000000000E+00  0.00000000000E+00  0.30680715192E+04  0.30680715192E+04  0.50400001928E-02 0. -1.
       -1   -1    0    0    0  501  0.00000000000E+00  0.00000000000E+00 -0.11145015037E+04  0.11145015037E+04  0.50400001928E-02 0.  1.
    10030    2    1    2    0    0  0.00000000000E+00  0.00000000000E+00  0.19535700156E+04  0.41825730229E+04  0.36983078950E+04 0.  0.
        3    1    3    3  502    0  0.11078828679E+04 -0.67108830944E+03 -0.51571886351E+03  0.13941771495E+04  0.10100000352E+00 0.  1.
       -3    1    3    3    0  502 -0.11078828679E+04  0.67108830944E+03  0.24692888791E+04  0.27883958733E+04  0.10100000352E+00 0. -1.
</event>
<event>
 5   0  0.4857514E-07  0.3710188E+04  0.7818609E-02  0.8065708E-01
        2   -1    0    0  501    0  0.00000000000E+00  0.00000000000E+00  0.20618503519E+04  0.20618503519E+04  0.25500000920E-02 0. -1.
       -2   -1    0    0    0  501  0.00000000000E+00  0.00000000000E+00 -0.16690705126E+04  0.16690705126E+04  0.25500000920E-02 0.  1.
    10030    2    1    2    0    0  0.00000000000E+00  0.00000000000E+00  0.39277983924E+03  0.37309208645E+04  0.37101879326E+04 0.  0.
        5    1    3    3  502    0  0.76338756950E+03 -0.15883912806E+04 -0.38616081315E+03  0.18041312882E+04  0.46999998093E+01 0. -1.
       -5    1    3    3    0  502 -0.76338756950E+03  0.15883912806E+04  0.77894065239E+03  0.19267895763E+04  0.46999998093E+01 0.  1.
</event>
<event>
 5   0  0.4857514E-07  0.3674331E+04  0.7818609E-02  0.8073674E-01
        2   -1    0    0  501    0  0.00000000000E+00  0.00000000000E+00  0.33274874257E+04  0.33274874257E+04  0.25500000920E-02 0. -1.
       -2   -1    0    0    0  501  0.00000000000E+00  0.00000000000E+00 -0.10143318499E+04  0.10143318499E+04  0.25500000920E-02 0.  1.
    10030    2    1    2    0    0  0.00000000000E+00  0.00000000000E+00  0.23131555758E+04  0.43418192756E+04  0.36743306743E+04 0.  0.
        5    1    3    3  502    0 -0.14255899881E+04 -0.73393826666E+03  0.96907566564E+02  0.16063577932E+04  0.46999998093E+01 0.  1.
       -5    1    3    3    0  502  0.14255899881E+04  0.73393826666E+03  0.22162480092E+04  0.27354614824E+04  0.46999998093E+01 0. -1.
</event>
<event>
 5   0  0.4824268E-07  0.3561140E+04  0.7818609E-02  0.8099452E-01
        2   -1    0    0  501    0  0.00000000000E+00  0.00000000000E+00  0.11369067017E+04  0.11369067017E+04  0.25500000920E-02 0. -1.
       -2   -1    0    0    0  501  0.00000000000E+00  0.00000000000E+00 -0.27886445340E+04  0.27886445340E+04  0.25500000920E-02 0.  1.
    10030    2    1    2    0    0  0.00000000000E+00  0.00000000000E+00 -0.16517378322E+04  0.39255512357E+04  0.35611395139E+04 0.  0.
        1    1    3    3  502    0 -0.12364413005E+04 -0.61257311661E+03 -0.20663678159E+04  0.24847351697E+04  0.50400001928E-02 0.  1.
       -1    1    3    3    0  502  0.12364413005E+04  0.61257311661E+03  0.41462998370E+03  0.14408160660E+04  0.50400001928E-02 0. -1.
</event>
<event>
 5   0  0.4687817E-07  0.3699844E+04  0.7818609E-02  0.8067996E-01
        2   -1    0    0  501    0  0.00000000000E+00  0.00000000000E+00  0.14891782908E+04  0.14891782908E+04  0.25500000920E-02 0.  1.
       -2   -1    0    0    0  501  0.00000000000E+00  0.00000000000E+00 -0.22980535734E+04  0.22980535734E+04  0.25500000920E-02 0. -1.
    10030    2    1    2    0    0  0.00000000000E+00  0.00000000000E+00 -0.80887528262E+03  0.37872318641E+04  0.36998440467E+04 0.  0.
        4    1    3    3  502    0 -0.14762403941E+04  0.53635164082E+03 -0.14048919258E+04  0.21072925094E+04  0.12699999809E+01 0. -1.
       -4    1    3    3    0  502  0.14762403941E+04 -0.53635164082E+03  0.59601664319E+03  0.16799393548E+04  0.12699999809E+01 0.  1.
</event>
<event>
 5   0  0.1496000E-07  0.3698665E+04  0.7818609E-02  0.8068258E-01
        1   -1    0    0  501    0  0.00000000000E+00  0.00000000000E+00  0.20285465922E+04  0.20285465922E+04  0.50400001928E-02 0. -1.
       -1   -1    0    0    0  501  0.00000000000E+00  0.00000000000E+00 -0.16859516919E+04  0.16859516919E+04  0.50400001928E-02 0.  1.
    10030    2    1    2    0    0  0.00000000000E+00  0.00000000000E+00  0.34259490030E+03  0.37144982842E+04  0.36986654671E+04 0.  0.
        3    1    3    3  502    0  0.16048792927E+04  0.77018763668E+03 -0.33205160464E+03  0.18108243477E+04  0.10100000352E+00 0.  1.
       -3    1    3    3    0  502 -0.16048792927E+04 -0.77018763668E+03  0.67464650495E+03  0.19036739365E+04  0.10100000352E+00 0. -1.
</event>
<event>
 5   0  0.1522273E-07  0.3724479E+04  0.7818609E-02  0.8062559E-01
       -1   -1    0    0    0  501  0.00000000000E+00  0.00000000000E+00  0.14044174083E+04  0.14044174083E+04  0.50400001928E-02 0.  1.
        1   -1    0    0  501    0  0.00000000000E+00  0.00000000000E+00 -0.24693059273E+04  0.24693059273E+04  0.50400001928E-02 0. -1.
    10030    2    1    2    0    0  0.00000000000E+00  0.00000000000E+00 -0.10648885190E+04  0.38737233356E+04  0.37244791479E+04 0.  0.
        4    1    3    3  502    0 -0.16999984460E+04  0.22252828119E+03  0.22361026008E+03  0.17290218951E+04  0.12699999809E+01 0.  1.
       -4    1    3    3    0  502  0.16999984460E+04 -0.22252828119E+03 -0.12884987791E+04  0.21447014405E+04  0.12699999809E+01 0. -1.
</event>
<event>
 5   0  0.4824268E-07  0.3709858E+04  0.7818609E-02  0.8065781E-01
        2   -1    0    0  501    0  0.00000000000E+00  0.00000000000E+00  0.12410085703E+04  0.12410085703E+04  0.25500000920E-02 0. -1.
       -2   -1    0    0    0  501  0.00000000000E+00  0.00000000000E+00 -0.27725531105E+04  0.27725531105E+04  0.25500000920E-02 0.  1.
    10030    2    1    2    0    0  0.00000000000E+00  0.00000000000E+00 -0.15315445403E+04  0.40135616808E+04  0.37098583109E+04 0.  0.
        1    1    3    3  502    0  0.87988034727E+03 -0.95069224915E+03  0.67060605072E+03  0.14586698233E+04  0.50400001928E-02 0. -1.
       -1    1    3    3    0  502 -0.87988034727E+03  0.95069224915E+03 -0.22021505910E+04  0.25548918575E+04  0.50400001928E-02 0.  1.
</event>
<event>
 5   0  0.1496287E-07  0.3713511E+04  0.7818609E-02  0.8064974E-01
        1   -1    0    0  501    0  0.00000000000E+00  0.00000000000E+00  0.33573352450E+04  0.33573352450E+04  0.50400001928E-02 0. -1.
       -1   -1    0    0    0  501  0.00000000000E+00  0.00000000000E+00 -0.10268682364E+04  0.10268682365E+04  0.50400001928E-02 0.  1.
    10030    2    1    2    0    0  0.00000000000E+00  0.00000000000E+00  0.23304670085E+04  0.43842034814E+04  0.37135109652E+04 0.  0.
        1    1    3    3  502    0 -0.12366495803E+04  0.99564316806E+03  0.23018926802E+04  0.27963042419E+04  0.50400001928E-02 0. -1.
       -1    1    3    3    0  502  0.12366495803E+04 -0.99564316806E+03  0.28574328360E+02  0.15878992395E+04  0.50400001928E-02 0.  1.
</event>
<event>
 5   0  0.4687817E-07  0.3637551E+04  0.7818609E-02  0.8081944E-01
        2   -1    0    0  501    0  0.00000000000E+00  0.00000000000E+00  0.23772962734E+04  0.23772962734E+04  0.25500000920E-02 0. -1.
       -2   -1    0    0    0  501  0.00000000000E+00  0.00000000000E+00 -0.13914736487E+04  0.13914736487E+04  0.25500000920E-02 0.  1.
    10030    2    1    2    0    0  0.00000000000E+00  0.00000000000E+00  0.98582262465E+03  0.37687699221E+04  0.36375514399E+04 0.  0.
        4    1    3    3  502    0 -0.15018728863E+04 -0.98647331652E+03  0.78447297129E+03  0.19606507151E+04  0.12699999809E+01 0. -1.
       -4    1    3    3    0  502  0.15018728863E+04  0.98647331652E+03  0.20134965335E+03  0.18081192070E+04  0.12699999809E+01 0.  1.
</event>
<event>
 5   0  0.4857514E-07  0.3715899E+04  0.7818609E-02  0.8064447E-01
       -2   -1    0    0    0  501  0.00000000000E+00  0.00000000000E+00  0.18485673571E+04  0.18485673571E+04  0.25500000920E-02 0.  1.
        2   -1    0    0  501    0  0.00000000000E+00  0.00000000000E+00 -0.18673795238E+04  0.18673795238E+04  0.25500000920E-02 0. -1.
    10030    2    1    2    0    0  0.00000000000E+00  0.00000000000E+00 -0.18812166647E+02  0.37159468809E+04  0.37158992618E+04 0.  0.
        5    1    3    3  502    0  0.65000810011E+03 -0.10282061009E+04  0.13949752656E+04  0.18508636897E+04  0.46999998093E+01 0.  1.
       -5    1    3    3    0  502 -0.65000810011E+03  0.10282061009E+04 -0.14137874323E+04  0.18650831911E+04  0.46999998093E+01 0. -1.
</event>
<event>
 5   0  0.4857514E-07  0.3699967E+04  0.7818609E-02  0.8067969E-01
        2   -1    0    0  501    0  0.00000000000E+00  0.00000000000E+00  0.16504576383E+04  0.16504576383E+04  0.25500000920E-02 0. -1.
       -2   -1    0    0    0  501  0.00000000000E+00  0.00000000000E+00 -0.20736298354E+04  0.20736298354E+04  0.25500000920E-02 0.  1.
    10030    2    1    2    0    0  0.00000000000E+00  0.00000000000E+00 -0.42317219713E+03  0.37240874737E+04  0.36999665949E+04 0.  0.
        5    1    3    3  502    0  0.19655961589E+03 -0.11797082863E+04  0.12090218351E+04  0.17006184791E+04  0.46999998093E+01 0. -1.
       -5    1    3    3    0  502 -0.19655961589E+03  0.11797082863E+04 -0.16321940323E+04  0.20234689947E+04  0.46999998093E+01 0.  1.
</event>
<event>
 5   0  0.1522273E-07  0.3710298E+04  0.7818609E-02  0.8065683E-01
       -1   -1    0    0    0  501  0.00000000000E+00  0.00000000000E+00  0.22525673203E+04  0.22525673203E+04  0.50400001928E-02 0. -1.
        1   -1    0    0  501    0  0.00000000000E+00  0.00000000000E+00 -0.15278471617E+04  0.15278471617E+04  0.50400001928E-02 0.  1.
    10030    2    1    2    0    0  0.00000000000E+00  0.00000000000E+00  0.72472015862E+03  0.37804144821E+04  0.37102984176E+04 0.  0.
        4    1    3    3  502    0 -0.32400221193E+03  0.18266324332E+04  0.36610300890E+03  0.18909247752E+04  0.12699999809E+01 0. -1.
       -4    1    3    3    0  502  0.32400221193E+03 -0.18266324332E+04  0.35861714972E+03  0.18894897069E+04  0.12699999809E+01 0.  1.
</event>
<event>
 5   0  0.1522273E-07  0.3702214E+04  0.7818609E-02  0.8067471E-01
        1   -1    0    0  501    0  0.00000000000E+00  0.00000000000E+00  0.22870446065E+04  0.22870446065E+04  0.50400001928E-02 0.  1.
       -1   -1    0    0    0  501  0.00000000000E+00  0.00000000000E+00 -0.14982639284E+04  0.14982639284E+04  0.50400001928E-02 0. -1.
    10030    2    1    2    0    0  0.00000000000E+00  0.00000000000E+00  0.78878067805E+03  0.37853085349E+04  0.37022136279E+04 0.  0.
        4    1    3    3  502    0  0.10650750654E+04 -0.12196425554E+04 -0.52278410033E+03  0.17015339216E+04  0.12699999809E+01 0. -1.
       -4    1    3    3    0  502 -0.10650750654E+04  0.12196425554E+04  0.13115647784E+04  0.20837746132E+04  0.12699999809E+01 0.  1.
</event>
<event>
 5   0  0.1496287E-07  0.3713457E+04  0.7818609E-02  0.8064986E-01
       -1   -1    0    0    0  501  0.00000000000E+00  0.00000000000E+00  0.18336708035E+04  0.18336708035E+04  0.50400001928E-02 0. -1.
        1   -1    0    0  501    0  0.00000000000E+00  0.00000000000E+00 -0.18800759954E+04  0.18800759954E+04  0.50400001928E-02 0.  1.
    10030    2    1    2    0    0  0.00000000000E+00  0.00000000000E+00 -0.46405191926E+02  0.37137467989E+04  0.37134568591E+04 0.  0.
        1    1    3    3  502    0 -0.60663557930E+03  0.23872294121E+02  0.17316035618E+04  0.18349461866E+04  0.50400001928E-02 0. -1.
       -1    1    3    3    0  502  0.60663557930E+03 -0.23872294121E+02 -0.17780087537E+04  0.18788006123E+04  0.50400001928E-02 0.  1.
</event>
<event>
 5   0  0.4857514E-07  0.3675917E+04  0.7818609E-02  0.8073320E-01
       -2   -1    0    0    0  501  0.00000000000E+00  0.00000000000E+00  0.13853768334E+04  0.13853768334E+04  0.25500000920E-02 0.  1.
        2   -1    0    0  501    0  0.00000000000E+00  0.00000000000E+00 -0.24383917038E+04  0.24383917038E+04  0.25500000920E-02 0. -1.
    10030    2    1    2    0    0  0.00000000000E+00  0.00000000000E+00 -0.10530148704E+04  0.38237685373E+04  0.36759169617E+04 0.  0.
        5    1    3    3  502    0  0.14793584504E+04  0.10713134226E+04 -0.31369268789E+03  0.18532779248E+04  0.46999998093E+01 0. -1.
       -5    1    3    3    0  502 -0.14793584504E+04 -0.10713134226E+04 -0.73932218255E+03  0.19704906125E+04  0.46999998093E+01 0.  1.
</event>
<event>
 5   0  0.4687817E-07  0.3729227E+04  0.7818609E-02  0.8061515E-01
        2   -1    0    0  501    0  0.00000000000E+00  0.00000000000E+00  0.13056167728E+04  0.13056167728E+04  0.25500000920E-02 0.  1.
       -2   -1    0    0    0  501  0.00000000000E+00  0.00000000000E+00 -0.26629438346E+04  0.26629438346E+04  0.25500000920E-02 0. -1.
    10030    2    1    2    0    0  0.00000000000E+00  0.00000000000E+00 -0.13573270618E+04  0.39685606074E+04  0.37292273385E+04 0.  0.
        4    1    3    3  502    0 -0.16080200120E+04  0.22614273405E+03 -0.16539483668E+04  0.23178472142E+04  0.12699999809E+01 0. -1.
       -4    1    3    3    0  502  0.16080200120E+04 -0.22614273405E+03  0.29662130507E+03  0.16507133933E+04  0.12699999809E+01 0.  1.
</event>
<event>
 5   0  0.4824268E-07  0.3447918E+04  0.7818609E-02  0.8126245E-01
       -2   -1    0    0    0  501  0.00000000000E+00  0.00000000000E+00  0.12321119885E+04  0.12321119885E+04  0.25500000920E-02 0. -1.
        2   -1    0    0  501    0  0.00000000000E+00  0.00000000000E+00 -0.24121469384E+04  0.24121469384E+04  0.25500000920E-02 0.  1.
    10030    2    1    2    0    0  0.00000000000E+00  0.00000000000E+00 -0.11800349499E+04  0.36442589269E+04  0.34479183058E+04 0.  0.
        1    1    3    3  502    0 -0.20411551288E+03 -0.12698120099E+04 -0.18034109082E+04  0.22150342180E+04  0.50400001928E-02 0.  1.
       -1    1    3    3    0  502  0.20411551288E+03  0.12698120099E+04  0.62337595829E+03  0.14292247089E+04  0.50400001928E-02 0. -1.
</event>
<event>
 5   0  0.4824268E-07  0.3694120E+04  0.7818609E-02  0.8069266E-01
       -2   -1    0    0    0  501  0.00000000000E+00  0.00000000000E+00  0.23901030324E+04  0.23901030324E+04  0.25500000920E-02 0. -1.
        2   -1    0    0  501    0  0.00000000000E+00  0.00000000000E+00 -0.14273988325E+04  0.14273988325E+04  0.25500000920E-02 0.  1.
    10030    2    1    2    0    0  0.00000000000E+00  0.00000000000E+00  0.96270419985E+03  0.38175018649E+04  0.36941198021E+04 0.  0.
        1    1    3    3  502    0 -0.18432654303E+03  0.59433195746E+03 -0.13158196620E+04  0.14555370600E+04  0.50400001928E-02 0.  1.
       -1    1    3    3    0  502  0.18432654303E+03 -0.59433195746E+03  0.22785238619E+04  0.23619648048E+04  0.50400001928E-02 0. -1.
</event>
<event>
 5   0  0.1496000E-07  0.3584225E+04  0.7818609E-02  0.8094115E-01
        1   -1    0    0  501    0  0.00000000000E+00  0.00000000000E+00  0.25332195881E+04  0.25332195881E+04  0.50400001928E-02 0. -1.
       -1   -1    0    0    0  501  0.00000000000E+00  0.00000000000E+00 -0.12678205215E+04  0.12678205216E+04  0.50400001928E-02 0.  1.
    10030    2    1    2    0    0  0.00000000000E+00  0.00000000000E+00  0.12653990666E+04  0.38010401097E+04  0.35842253162E+04 0.  0.
        2    1    3    3  502    0 -0.97941240173E+03 -0.61198244411E+03  0.20859584252E+04  0.23843224858E+04  0.25500000920E-02 0. -1.
       -2    1    3    3    0  502  0.97941240173E+03  0.61198244411E+03 -0.82055935868E+03  0.14167176238E+04  0.25500000920E-02 0.  1.
</event>
<event>
 5   0  0.1496000E-07  0.3619902E+04  0.7818609E-02  0.8085948E-01
       -1   -1    0    0    0  501  0.00000000000E+00  0.00000000000E+00  0.20013527548E+04  0.20013527548E+04  0.50400001928E-02 0.  1.
        1   -1    0    0  501    0  0.00000000000E+00  0.00000000000E+00 -0.16368539303E+04  0.16368539303E+04  0.50400001928E-02 0. -1.
    10030    2    1    2    0    0  0.00000000000E+00  0.00000000000E+00  0.36449882455E+03  0.36382066851E+04  0.36199017238E+04 0.  0.
        5    1    3    3  502    0 -0.13370990534E+04 -0.95938947736E+03  0.93947679801E+03  0.18949672271E+04  0.46999998093E+01 0.  1.
       -5    1    3    3    0  502  0.13370990534E+04  0.95938947736E+03 -0.57497797345E+03  0.17432394580E+04  0.46999998093E+01 0. -1.
</event>
<event>
 5   0  0.4857514E-07  0.3638111E+04  0.7818609E-02  0.8081817E-01
        2   -1    0    0  501    0  0.00000000000E+00  0.00000000000E+00  0.20931572095E+04  0.20931572095E+04  0.25500000920E-02 0.  1.
       -2   -1    0    0    0  501  0.00000000000E+00  0.00000000000E+00 -0.15808479022E+04  0.15808479022E+04  0.25500000920E-02 0. -1.
    10030    2    1    2    0    0  0.00000000000E+00  0.00000000000E+00  0.51230930728E+03  0.36740051117E+04  0.36381111492E+04 0.  0.
        5    1    3    3  502    0 -0.88560995656E+03 -0.45153578668E+03 -0.12822766770E+04  0.16224811642E+04  0.46999998093E+01 0. -1.
       -5    1    3    3    0  502  0.88560995656E+03  0.45153578668E+03  0.17945859843E+04  0.20515239474E+04  0.46999998093E+01 0.  1.
</event>
<event>
 5   0  0.1522273E-07  0.3687885E+04  0.7818609E-02  0.8070652E-01
       -1   -1    0    0    0  501  0.00000000000E+00  0.00000000000E+00  0.27734712672E+04  0.27734712672E+04  0.50400001928E-02 0.  1.
        1   -1    0    0  501    0  0.00000000000E+00  0.00000000000E+00 -0.12259449276E+04  0.12259449277E+04  0.50400001928E-02 0. -1.
    10030    2    1    2    0    0  0.00000000000E+00  0.00000000000E+00  0.15475263395E+04  0.39994161948E+04  0.36878845058E+04 0.  0.
        4    1    3    3  502    0 -0.18091202072E+04  0.59287060573E+02  0.39235716088E+03  0.18521275967E+04  0.12699999809E+01 0.  1.
       -4    1    3    3    0  502  0.18091202072E+04 -0.59287060573E+02  0.11551691786E+04  0.21472885982E+04  0.12699999809E+01 0. -1.
</event>
<event>
 5   0  0.4758908E-07  0.3686123E+04  0.7818609E-02  0.8071044E-01
       -2   -1    0    0    0  501  0.00000000000E+00  0.00000000000E+00  0.18566372067E+04  0.18566372067E+04  0.25500000920E-02 0. -1.
        2   -1    0    0  501    0  0.00000000000E+00  0.00000000000E+00 -0.18295853205E+04  0.18295853205E+04  0.25500000920E-02 0.  1.
    10030    2    1    2    0    0  0.00000000000E+00  0.00000000000E+00  0.27051886202E+02  0.36862225271E+04  0.36861232637E+04 0.  0.
        2    1    3    3  502    0 -0.56153356443E+03  0.14147746237E+04  0.10527694971E+04  0.18507379052E+04  0.25500000920E-02 0. -1.
       -2    1    3    3    0  502  0.56153356443E+03 -0.14147746237E+04 -0.10257176109E+04  0.18354846219E+04  0.25500000920E-02 0.  1.
</event>
<event>
 5   0  0.1496287E-07  0.3654324E+04  0.7818609E-02  0.8078160E-01
        1   -1    0    0  501    0  0.00000000000E+00  0.00000000000E+00  0.19466182305E+04  0.19466182305E+04  0.50400001928E-02 0. -1.
       -1   -1    0    0    0  501  0.00000000000E+00  0.00000000000E+00 -0.17150364635E+04  0.17150364635E+04  0.50400001928E-02 0.  1.
    10030    2    1    2    0    0  0.00000000000E+00  0.00000000000E+00  0.23158176698E+03  0.36616546940E+04  0.36543241486E+04 0.  0.
        1    1    3    3  502    0 -0.82235428552E+03 -0.20692703420E+03  0.17375046540E+04  0.19333928186E+04  0.50400001928E-02 0. -1.
       -1    1    3    3    0  502  0.82235428552E+03  0.20692703420E+03 -0.15059228870E+04  0.17282618754E+04  0.50400001928E-02 0.  1.
</event>
<event>
 5   0  0.4793557E-07  0.3690242E+04  0.7818609E-02  0.8070128E-01
        2   -1    0    0  501    0  0.00000000000E+00  0.00000000000E+00  0.17548229553E+04  0.17548229553E+04  0.25500000920E-02 0. -1.
       -2   -1    0    0    0  501  0.00000000000E+00  0.00000000000E+00 -0.19400652179E+04  0.19400652179E+04  0.25500000920E-02 0.  1.
    10030    2    1    2    0    0  0.00000000000E+00  0.00000000000E+00 -0.18524226262E+03  0.36948881732E+04  0.36902417152E+04 0.  0.
        3    1    3    3  502    0 -0.86216366632E+02  0.14933591042E+03 -0.19319797807E+04  0.19396598566E+04  0.10100000352E+00 0.  1.
       -3    1    3    3    0  502  0.86216366632E+02 -0.14933591042E+03  0.17467375181E+04  0.17552283166E+04  0.10100000352E+00 0. -1.
</event>
<event>
 5   0  0.4857514E-07  0.3673914E+04  0.7818609E-02  0.8073768E-01
        2   -1    0    0  501    0  0.00000000000E+00  0.00000000000E+00  0.20373626862E+04  0.20373626862E+04  0.25500000920E-02 0.  1.
       -2   -1    0    0    0  501  0.00000000000E+00  0.00000000000E+00 -0.16562639590E+04  0.16562639590E+04  0.25500000920E-02 0. -1.
    10030    2    1    2    0    0  0.00000000000E+00  0.00000000000E+00  0.38109872716E+03  0.36936266451E+04  0.36739136563E+04 0.  0.
        5    1    3    3  502    0  0.17548286801E+03  0.43140477686E+03  0.19770148365E+04  0.20311361530E+04  0.46999998093E+01 0.  1.
       -5    1    3    3    0  502 -0.17548286801E+03 -0.43140477686E+03 -0.15959161093E+04  0.16624904921E+04  0.46999998093E+01 0. -1.
</event>
<event>
 5   0  0.1496287E-07  0.3626147E+04  0.7818609E-02  0.8084528E-01
        1   -1    0    0  501    0  0.00000000000E+00  0.00000000000E+00  0.19179531693E+04  0.19179531693E+04  0.50400001928E-02 0. -1.
       -1   -1    0    0    0  501  0.00000000000E+00  0.00000000000E+00 -0.17139293030E+04  0.17139293030E+04  0.50400001928E-02 0.  1.
    10030    2    1    2    0    0  0.00000000000E+00  0.00000000000E+00  0.20402386633E+03  0.36318824722E+04  0.36261473431E+04 0.  0.
        1    1    3    3  502    0  0.42240632900E+03 -0.11253527833E+04  0.14615054480E+04  0.18923118580E+04  0.50400001928E-02 0. -1.
       -1    1    3    3    0  502 -0.42240632900E+03  0.11253527833E+04 -0.12574815816E+04  0.17395706142E+04  0.50400001928E-02 0.  1.
</event>
<event>
 5   0  0.1522273E-07  0.3693101E+04  0.7818609E-02  0.8069492E-01
        1   -1    0    0  501    0  0.00000000000E+00  0.00000000000E+00  0.24745104620E+04  0.24745104620E+04  0.50400001928E-02 0.  1.
       -1   -1    0    0    0  501  0.00000000000E+00  0.00000000000E+00 -0.13779488867E+04  0.13779488867E+04  0.50400001928E-02 0. -1.
    10030    2    1    2    0    0  0.00000000000E+00  0.00000000000E+00  0.10965615753E+04  0.38524593487E+04  0.36931011013E+04 0.  0.
        4    1    3    3  502    0  0.38470632672E+03  0.18053107880E+04  0.49507680808E+03  0.19110857275E+04  0.12699999809E+01 0. -1.
       -4    1    3    3    0  502 -0.38470632672E+03 -0.18053107880E+04  0.60148476720E+03  0.19413736212E+04  0.12699999809E+01 0.  1.
</event>
<event>
 5   0  0.1496000E-07  0.3681952E+04  0.7818609E-02  0.8071973E-01
        3   -1    0    0  501    0  0.00000000000E+00  0.00000000000E+00  0.17189525118E+04  0.17189525147E+04  0.10100000352E+00 0.  1.
       -3   -1    0    0    0  501  0.00000000000E+00  0.00000000000E+00 -0.19716617152E+04  0.19716617178E+04  0.10100000352E+00 0. -1.
    10030    2    1    2    0    0  0.00000000000E+00  0.00000000000E+00 -0.25270920340E+03  0.36906142325E+04  0.36819521278E+04 0.  0.
        5    1    3    3  502    0  0.69370917625E+03 -0.33648576033E+03 -0.18020278303E+04  0.19600462952E+04  0.46999998093E+01 0. -1.
       -5    1    3    3    0  502 -0.69370917625E+03  0.33648576033E+03  0.15493186269E+04  0.17305679373E+04  0.46999998093E+01 0.  1.
</event>
<event>
 5   0  0.1496000E-07  0.3718985E+04  0.7818609E-02  0.8063767E-01
       -1   -1    0    0    0  501  0.00000000000E+00  0.00000000000E+00  0.17958617363E+04  0.17958617363E+04  0.50400001928E-02 0.  1.
        1   -1    0    0  501    0  0.00000000000E+00  0.00000000000E+00 -0.19253779375E+04  0.19253779375E+04  0.50400001928E-02 0. -1.
    10030    2    1    2    0    0  0.00000000000E+00  0.00000000000E+00 -0.12951620119E+03  0.37212396739E+04  0.37189851121E+04 0.  0.
        5    1    3    3  502    0  0.60169701683E+03 -0.11006325815E+04 -0.14382734370E+04  0.19084244677E+04  0.46999998093E+01 0. -1.
       -5    1    3    3    0  502 -0.60169701683E+03  0.11006325815E+04  0.13087572358E+04  0.18128152062E+04  0.46999998093E+01 0.  1.
</event>
<event>
 5   0  0.4857514E-07  0.3371254E+04  0.7818609E-02  0.8144998E-01
        2   -1    0    0  501    0  0.00000000000E+00  0.00000000000E+00  0.12892246097E+04  0.12892246097E+04  0.25500000920E-02 0. -1.
       -2   -1    0    0    0  501  0.00000000000E+00  0.00000000000E+00 -0.22039119875E+04  0.22039119875E+04  0.25500000920E-02 0.  1.
    10030    2    1    2    0    0  0.00000000000E+00  0.00000000000E+00 -0.91468737778E+03  0.34931365971E+04  0.33712535187E+04 0.  0.
        5    1    3    3  502    0  0.10723267940E+04  0.71040561065E+03 -0.15861115031E+04  0.20421392399E+04  0.46999998093E+01 0.  1.
       -5    1    3    3    0  502 -0.10723267940E+04 -0.71040561065E+03  0.67142412531E+03  0.14509973573E+04  0.46999998093E+01 0. -1.
</event>
<event>
 5   0  0.4857514E-07  0.3686185E+04  0.7818609E-02  0.8071030E-01
        2   -1    0    0  501    0  0.00000000000E+00  0.00000000000E+00  0.17513292968E+04  0.17513292968E+04  0.25500000920E-02 0.  1.
       -2   -1    0    0    0  501  0.00000000000E+00  0.00000000000E+00 -0.19396639632E+04  0.19396639632E+04  0.25500000920E-02 0. -1.
    10030    2    1    2    0    0  0.00000000000E+00  0.00000000000E+00 -0.18833466641E+03  0.36909932600E+04  0.36861851960E+04 0.  0.
        5    1    3    3  502    0  0.10100339416E+04 -0.95912125054E+03 -0.13027570678E+04  0.19071654894E+04  0.46999998093E+01 0. -1.
       -5    1    3    3    0  502 -0.10100339416E+04  0.95912125054E+03  0.11144224014E+04  0.17838277706E+04  0.46999998093E+01 0.  1.
</event>
<event>
 5   0  0.4793557E-07  0.3716779E+04  0.7818609E-02  0.8064254E-01
        2   -1    0    0  501    0  0.00000000000E+00  0.00000000000E+00  0.11213824430E+04  0.11213824430E+04  0.25500000920E-02 0. -1.
       -2   -1    0    0    0  501  0.00000000000E+00  0.00000000000E+00 -0.30797800438E+04  0.30797800438E+04  0.25500000920E-02 0.  1.
    10030    2    1    2    0    0  0.00000000000E+00  0.00000000000E+00 -0.19583976009E+04  0.42011624868E+04  0.37167788578E+04 0.  0.
        3    1    3    3  502    0 -0.10623559345E+04 -0.12321919042E+04  0.36026934422E+02  0.16273275548E+04  0.10100000352E+00 0.  1.
       -3    1    3    3    0  502  0.10623559345E+04  0.12321919042E+04 -0.19944245353E+04  0.25738349321E+04  0.10100000352E+00 0. -1.
</event>
<event>
 5   0  0.4857514E-07  0.3713042E+04  0.7818609E-02  0.8065078E-01
        2   -1    0    0  501    0  0.00000000000E+00  0.00000000000E+00  0.22240797966E+04  0.22240797966E+04  0.25500000920E-02 0. -1.
       -2   -1    0    0    0  501  0.00000000000E+00  0.00000000000E+00 -0.15497065112E+04  0.15497065112E+04  0.25500000920E-02 0.  1.
    10030    2    1    2    0    0  0.00000000000E+00  0.00000000000E+00  0.67437328537E+03  0.37737863079E+04  0.37130423872E+04 0.  0.
        5    1    3    3  502    0 -0.54695346370E+03 -0.15284791449E+04 -0.57823817389E+03  0.17233073039E+04  0.46999998093E+01 0.  1.
       -5    1    3    3    0  502  0.54695346370E+03  0.15284791449E+04  0.12526114593E+04  0.20504790040E+04  0.46999998093E+01 0. -1.
</event>
<event>
 5   0  0.1496000E-07  0.3644332E+04  0.7818609E-02  0.8080412E-01
       -1   -1    0    0    0  501  0.00000000000E+00  0.00000000000E+00  0.15753929897E+04  0.15753929897E+04  0.50400001928E-02 0.  1.
        1   -1    0    0  501    0  0.00000000000E+00  0.00000000000E+00 -0.21075941049E+04  0.21075941049E+04  0.50400001928E-02 0. -1.
    10030    2    1    2    0    0  0.00000000000E+00  0.00000000000E+00 -0.53220111520E+03  0.36829870947E+04  0.36443320256E+04 0.  0.
        2    1    3    3  502    0  0.13839944280E+04  0.11732224880E+04 -0.95797866301E+02  0.18168843701E+04  0.25500000920E-02 0.  1.
       -2    1    3    3    0  502 -0.13839944280E+04 -0.11732224880E+04 -0.43640324890E+03  0.18661027246E+04  0.25500000920E-02 0. -1.
</event>
<event>
 5   0  0.4793557E-07  0.3758816E+04  0.7818609E-02  0.8055051E-01
       -2   -1    0    0    0  501  0.00000000000E+00  0.00000000000E+00  0.19264383841E+04  0.19264383841E+04  0.25500000920E-02 0. -1.
        2   -1    0    0  501    0  0.00000000000E+00  0.00000000000E+00 -0.18335254310E+04  0.18335254310E+04  0.25500000920E-02 0.  1.
    10030    2    1    2    0    0  0.00000000000E+00  0.00000000000E+00  0.92912953090E+02  0.37599638150E+04  0.37588156477E+04 0.  0.
        3    1    3    3  502    0  0.69157679430E+03  0.18347849095E+03 -0.16919555401E+04  0.18370237829E+04  0.10100000352E+00 0.  1.
       -3    1    3    3    0  502 -0.69157679430E+03 -0.18347849095E+03  0.17848684932E+04  0.19229400321E+04  0.10100000352E+00 0. -1.
</event>
<event>
 5   0  0.4687817E-07  0.3607381E+04  0.7818609E-02  0.8088803E-01
        2   -1    0    0  501    0  0.00000000000E+00  0.00000000000E+00  0.19692680534E+04  0.19692680534E+04  0.25500000920E-02 0.  1.
       -2   -1    0    0    0  501  0.00000000000E+00  0.00000000000E+00 -0.16520344999E+04  0.16520344999E+04  0.25500000920E-02 0. -1.
    10030    2    1    2    0    0  0.00000000000E+00  0.00000000000E+00  0.31723355348E+03  0.36213025533E+04  0.36073806363E+04 0.  0.
        4    1    3    3  502    0 -0.15250802609E+04 -0.94813237740E+03 -0.10771928463E+02  0.17958124776E+04  0.12699999809E+01 0. -1.
       -4    1    3    3    0  502  0.15250802609E+04  0.94813237740E+03  0.32800548194E+03  0.18254900757E+04  0.12699999809E+01 0.  1.
</event>
<event>
 5   0  0.4793557E-07  0.3092689E+04  0.7818609E-02  0.8217747E-01
       -2   -1    0    0    0  501  0.00000000000E+00  0.00000000000E+00  0.12880774595E+04  0.12880774595E+04  0.25500000920E-02 0.  1.
        2   -1    0    0  501    0  0.00000000000E+00  0.00000000000E+00 -0.18563955368E+04  0.18563955368E+04  0.25500000920E-02 0. -1.
    10030    2    1    2    0    0  0.00000000000E+00  0.00000000000E+00 -0.56831807731E+03  0.31444729963E+04  0.30926889575E+04 0.  0.
        3    1    3    3  502    0 -0.16689449709E+03 -0.13656934053E+04 -0.10018168299E+04  0.17019427786E+04  0.10100000352E+00 0. -1.
       -3    1    3    3    0  502  0.16689449709E+03  0.13656934053E+04  0.43349875262E+03  0.14425302178E+04  0.10100000352E+00 0.  1.
</event>
<event>
 5   0  0.1496000E-07  0.3727365E+04  0.7818609E-02  0.8061924E-01
       -1   -1    0    0    0  501  0.00000000000E+00  0.00000000000E+00  0.14744162038E+04  0.14744162038E+04  0.50400001928E-02 0. -1.
        1   -1    0    0  501    0  0.00000000000E+00  0.00000000000E+00 -0.23557202452E+04  0.23557202452E+04  0.50400001928E-02 0.  1.
    10030    2    1    2    0    0  0.00000000000E+00  0.00000000000E+00 -0.88130404137E+03  0.38301364491E+04  0.37273648071E+04 0.  0.
        2    1    3    3  502    0  0.28062275668E+03  0.11697263995E+02 -0.23338477996E+04  0.23506874546E+04  0.25500000920E-02 0.  1.
       -2    1    3    3    0  502 -0.28062275668E+03 -0.11697263995E+02  0.14525437582E+04  0.14794489944E+04  0.25500000920E-02 0. -1.
</event>
<event>
 5   0  0.4758908E-07  0.3676754E+04  0.7818609E-02  0.8073133E-01
       -2   -1    0    0    0  501  0.00000000000E+00  0.00000000000E+00  0.12019851219E+04  0.12019851219E+04  0.25500000920E-02 0. -1.
        2   -1    0    0  501    0  0.00000000000E+00  0.00000000000E+00 -0.28117067484E+04  0.28117067484E+04  0.25500000920E-02 0.  1.
    10030    2    1    2    0    0  0.00000000000E+00  0.00000000000E+00 -0.16097216265E+04  0.40136918703E+04  0.36767538284E+04 0.  0.
        2    1    3    3  502    0  0.73217959715E+03 -0.14241907736E+04 -0.17904995932E+04  0.24021438582E+04  0.25500000920E-02 0.  1.
       -2    1    3    3    0  502 -0.73217959715E+03  0.14241907736E+04  0.18077796667E+03  0.16115480121E+04  0.25500000920E-02 0. -1.
</event>
<event>
 5   0  0.1522273E-07  0.3638777E+04  0.7818609E-02  0.8081667E-01
       -1   -1    0    0    0  501  0.00000000000E+00  0.00000000000E+00  0.23370384965E+04  0.23370384965E+04  0.50400001928E-02 0. -1.
        1   -1    0    0  501    0  0.00000000000E+00  0.00000000000E+00 -0.14163974534E+04  0.14163974534E+04  0.50400001928E-02 0.  1.
    10030    2    1    2    0    0  0.00000000000E+00  0.00000000000E+00  0.92064104311E+03  0.37534359498E+04  0.36387774732E+04 0.  0.
        4    1    3    3  502    0  0.15249948769E+04  0.97065526478E+03  0.24793775325E+03  0.18246248272E+04  0.12699999809E+01 0. -1.
       -4    1    3    3    0  502 -0.15249948769E+04 -0.97065526478E+03  0.67270328986E+03  0.19288111226E+04  0.12699999809E+01 0.  1.
</event>
<event>
 5   0  0.1522273E-07  0.3793568E+04  0.7818609E-02  0.8047537E-01
        1   -1    0    0  501    0  0.00000000000E+00  0.00000000000E+00  0.16691672826E+04  0.16691672826E+04  0.50400001928E-02 0.  1.
       -1   -1    0    0    0  501  0.00000000000E+00  0.00000000000E+00 -0.21554400760E+04  0.21554400760E+04  0.50400001928E-02 0. -1.
    10030    2    1    2    0    0  0.00000000000E+00  0.00000000000E+00 -0.48627279342E+03  0.38246073586E+04  0.37935682699E+04 0.  0.
        4    1    3    3  502    0 -0.10434900709E+04 -0.13143368556E+04  0.64808485245E+03  0.17989909636E+04  0.12699999809E+01 0.  1.
       -4    1    3    3    0  502  0.10434900709E+04  0.13143368556E+04 -0.11343576459E+04  0.20256163950E+04  0.12699999809E+01 0. -1.
</event>
<event>
 5   0  0.4687817E-07  0.3699056E+04  0.7818609E-02  0.8068171E-01
        2   -1    0    0  501    0  0.00000000000E+00  0.00000000000E+00  0.29476608066E+04  0.29476608066E+04  0.25500000920E-02 0.  1.
       -2   -1    0    0    0  501  0.00000000000E+00  0.00000000000E+00 -0.11604978604E+04  0.11604978604E+04  0.25500000920E-02 0. -1.
    10030    2    1    2    0    0  0.00000000000E+00  0.00000000000E+00  0.17871629461E+04  0.41081586670E+04  0.36990561279E+04 0.  0.
        4    1    3    3  502    0 -0.82681721365E+03  0.12988488545E+03  0.27253101673E+04  0.28509321123E+04  0.12699999809E+01 0.  1.
       -4    1    3    3    0  502  0.82681721365E+03 -0.12988488545E+03 -0.93814722119E+03  0.12572265547E+04  0.12699999809E+01 0. -1.
</event>
<event>
 5   0  0.1496000E-07  0.3048985E+04  0.7818609E-02  0.8229880E-01
       -1   -1    0    0    0  501  0.00000000000E+00  0.00000000000E+00  0.17648497776E+04  0.17648497777E+04  0.50400001928E-02 0.  1.
        1   -1    0    0  501    0  0.00000000000E+00  0.00000000000E+00 -0.13168693778E+04  0.13168693778E+04  0.50400001928E-02 0. -1.
    10030    2    1    2    0    0  0.00000000000E+00  0.00000000000E+00  0.44798039984E+03  0.30817191555E+04  0.30489845055E+04 0.  0.
        5    1    3    3  502    0 -0.92245156259E+03  0.56035682767E+03  0.13121818512E+04  0.16990467799E+04  0.46999998093E+01 0.  1.
       -5    1    3    3    0  502  0.92245156259E+03 -0.56035682767E+03 -0.86420145136E+03  0.13826723756E+04  0.46999998093E+01 0. -1.
</event>
<event>
 5   0  0.1496000E-07  0.3718842E+04  0.7818609E-02  0.8063799E-01
       -1   -1    0    0    0  501  0.00000000000E+00  0.00000000000E+00  0.16871408416E+04  0.16871408416E+04  0.50400001928E-02 0.  1.
        1   -1    0    0  501    0  0.00000000000E+00  0.00000000000E+00 -0.20492931721E+04  0.20492931721E+04  0.50400001928E-02 0. -1.
    10030    2    1    2    0    0  0.00000000000E+00  0.00000000000E+00 -0.36215233049E+03  0.37364340136E+04  0.37188418665E+04 0.  0.
        2    1    3    3  502    0 -0.71612576322E+03  0.16955674449E+04  0.84106351114E+02  0.18425143004E+04  0.25500000920E-02 0.  1.
       -2    1    3    3    0  502  0.71612576322E+03 -0.16955674449E+04 -0.44625868160E+03  0.18939197132E+04  0.25500000920E-02 0. -1.
</event>
<event>
 5   0  0.4793557E-07  0.3670629E+04  0.7818609E-02  0.8074502E-01
        2   -1    0    0  501    0  0.00000000000E+00  0.00000000000E+00  0.19855867432E+04  0.19855867432E+04  0.25500000920E-02 0.  1.
       -2   -1    0    0    0  501  0.00000000000E+00  0.00000000000E+00 -0.16964148159E+04  0.16964148159E+04  0.25500000920E-02 0. -1.
    10030    2    1    2    0    0  0.00000000000E+00  0.00000000000E+00  0.28917192730E+03  0.36820015591E+04  0.36706287033E+04 0.  0.
        3    1    3    3  502    0 -0.17763301040E+04 -0.45877645502E+02 -0.31610311203E+03  0.18048198204E+04  0.10100000352E+00 0. -1.
       -3    1    3    3    0  502  0.17763301040E+04  0.45877645502E+02  0.60527503933E+03  0.18771817387E+04  0.10100000352E+00 0.  1.
</event>
<event>
 5   0  0.4793557E-07  0.3724900E+04  0.7818609E-02  0.8062466E-01
        2   -1    0    0  501    0  0.00000000000E+00  0.00000000000E+00  0.24186935974E+04  0.24186935974E+04  0.25500000920E-02 0. -1.
       -2   -1    0    0    0  501  0.00000000000E+00  0.00000000000E+00 -0.14341298891E+04  0.14341298891E+04  0.25500000920E-02 0.  1.
    10030    2    1    2    0    0  0.00000000000E+00  0.00000000000E+00  0.98456370827E+03  0.38528234865E+04  0.37249004178E+04 0.  0.
        3    1    3    3  502    0 -0.11359033883E+04  0.12418247413E+04 -0.33280700423E+03  0.17155657107E+04  0.10100000352E+00 0. -1.
       -3    1    3    3    0  502  0.11359033883E+04 -0.12418247413E+04  0.13173707125E+04  0.21372577757E+04  0.10100000352E+00 0.  1.
</event>
<event>
 5   0  0.4687817E-07  0.3690684E+04  0.7818609E-02  0.8070029E-01
       -2   -1    0    0    0  501  0.00000000000E+00  0.00000000000E+00  0.28867514073E+04  0.28867514073E+04  0.25500000920E-02 0. -1.
        2   -1    0    0  501    0  0.00000000000E+00  0.00000000000E+00 -0.11796263359E+04  0.11796263359E+04  0.25500000920E-02 0.  1.
    10030    2    1    2    0    0  0.00000000000E+00  0.00000000000E+00  0.17071250714E+04  0.40663777432E+04  0.36906844814E+04 0.  0.
        4    1    3    3  502    0  0.54167966747E+03  0.89376593874E+03  0.25292518301E+04  0.27366678367E+04  0.12699999809E+01 0. -1.
       -4    1    3    3    0  502 -0.54167966747E+03 -0.89376593874E+03 -0.82212675864E+03  0.13297099065E+04  0.12699999809E+01 0.  1.
</event>
<event>
 5   0  0.1496287E-07  0.3668394E+04  0.7818609E-02  0.8075002E-01
        1   -1    0    0  501    0  0.00000000000E+00  0.00000000000E+00  0.10906772850E+04  0.10906772850E+04  0.50400001928E-02 0. -1.
       -1   -1    0    0    0  501  0.00000000000E+00  0.00000000000E+00 -0.30845769065E+04  0.30845769065E+04  0.50400001928E-02 0.  1.
    10030    2    1    2    0    0  0.00000000000E+00  0.00000000000E+00 -0.19938996215E+04  0.41752541915E+04  0.36683936352E+04 0.  0.
        1    1    3    3  502    0  0.54851888798E+03  0.17429901308E+04 -0.11783099132E+04  0.21742359160E+04  0.50400001928E-02 0.  1.
       -1    1    3    3    0  502 -0.54851888798E+03 -0.17429901308E+04 -0.81558970825E+03  0.20010182755E+04  0.50400001928E-02 0. -1.
</event>
<event>
 5   0  0.4687817E-07  0.3711440E+04  0.7818609E-02  0.8065431E-01
        2   -1    0    0  501    0  0.00000000000E+00  0.00000000000E+00  0.21439206544E+04  0.21439206544E+04  0.25500000920E-02 0. -1.
       -2   -1    0    0    0  501  0.00000000000E+00  0.00000000000E+00 -0.16062610445E+04  0.16062610445E+04  0.25500000920E-02 0.  1.
    10030    2    1    2    0    0  0.00000000000E+00  0.00000000000E+00  0.53765960989E+03  0.37501816990E+04  0.37114397367E+04 0.  0.
        4    1    3    3  502    0 -0.16633620826E+04  0.35105130329E+03 -0.48303707604E+03  0.17672964847E+04  0.12699999809E+01 0.  1.
       -4    1    3    3    0  502  0.16633620826E+04 -0.35105130329E+03  0.10206966859E+04  0.19828852142E+04  0.12699999809E+01 0. -1.
</event>
<event>
 5   0  0.1496000E-07  0.3670087E+04  0.7818609E-02  0.8074623E-01
       -1   -1    0    0    0  501  0.00000000000E+00  0.00000000000E+00  0.16516348898E+04  0.16516348898E+04  0.50400001928E-02 0.  1.
        1   -1    0    0  501    0  0.00000000000E+00  0.00000000000E+00 -0.20388192662E+04  0.20388192662E+04  0.50400001928E-02 0. -1.
    10030    2    1    2    0    0  0.00000000000E+00  0.00000000000E+00 -0.38718437646E+03  0.36904541560E+04  0.36700872110E+04 0.  0.
        3    1    3    3  502    0  0.39848829896E+01  0.17044625202E+04  0.49001628346E+03  0.17735062251E+04  0.10100000352E+00 0.  1.
       -3    1    3    3    0  502 -0.39848829896E+01 -0.17044625202E+04 -0.87720065993E+03  0.19169479310E+04  0.10100000352E+00 0. -1.
</event>
<event>
 5   0  0.4793557E-07  0.3760752E+04  0.7818609E-02  0.8054630E-01
        2   -1    0    0  501    0  0.00000000000E+00  0.00000000000E+00  0.17339713120E+04  0.17339713120E+04  0.25500000920E-02 0. -1.
       -2   -1    0    0    0  501  0.00000000000E+00  0.00000000000E+00 -0.20391424432E+04  0.20391424432E+04  0.25500000920E-02 0.  1.
    10030    2    1    2    0    0  0.00000000000E+00  0.00000000000E+00 -0.30517113115E+03  0.37731137552E+04  0.37607523171E+04 0.  0.
        3    1    3    3  502    0 -0.59488778696E+03  0.10776651598E+04 -0.15787221799E+04  0.20019034460E+04  0.10100000352E+00 0.  1.
       -3    1    3    3    0  502  0.59488778696E+03 -0.10776651598E+04  0.12735510487E+04  0.17712103092E+04  0.10100000352E+00 0. -1.
</event>
<event>
 5   0  0.4793557E-07  0.3707401E+04  0.7818609E-02  0.8066324E-01
        2   -1    0    0  501    0  0.00000000000E+00  0.00000000000E+00  0.23308594240E+04  0.23308594240E+04  0.25500000920E-02 0.  1.
       -2   -1    0    0    0  501  0.00000000000E+00  0.00000000000E+00 -0.14742225523E+04  0.14742225523E+04  0.25500000920E-02 0. -1.
    10030    2    1    2    0    0  0.00000000000E+00  0.00000000000E+00  0.85663687166E+03  0.38050819763E+04  0.37074009921E+04 0.  0.
        3    1    3    3  502    0  0.40365448669E+03  0.95399968019E+03  0.20060764433E+04  0.22577411368E+04  0.10100000352E+00 0.  1.
       -3    1    3    3    0  502 -0.40365448669E+03 -0.95399968019E+03 -0.11494395716E+04  0.15473408395E+04  0.10100000352E+00 0. -1.
</event>
<event>
 5   0  0.1496287E-07  0.3672750E+04  0.7818609E-02  0.8074028E-01
        1   -1    0    0  501    0  0.00000000000E+00  0.00000000000E+00  0.21319844929E+04  0.21319844929E+04  0.50400001928E-02 0.  1.
       -1   -1    0    0    0  501  0.00000000000E+00  0.00000000000E+00 -0.15817529278E+04  0.15817529278E+04  0.50400001928E-02 0. -1.
    10030    2    1    2    0    0  0.00000000000E+00  0.00000000000E+00  0.55023156512E+03  0.37137374207E+04  0.36727497675E+04 0.  0.
        1    1    3    3  502    0 -0.11261256371E+03  0.10060830360E+04  0.18243329410E+04  0.20864024886E+04  0.50400001928E-02 0.  1.
       -1    1    3    3    0  502  0.11261256371E+03 -0.10060830360E+04 -0.12741013759E+04  0.16273349320E+04  0.50400001928E-02 0. -1.
</event>
<event>
 5   0  0.1496287E-07  0.3708979E+04  0.7818609E-02  0.8065975E-01
       -1   -1    0    0    0  501  0.00000000000E+00  0.00000000000E+00  0.13603311373E+04  0.13603311373E+04  0.50400001928E-02 0.  1.
        1   -1    0    0  501    0  0.00000000000E+00  0.00000000000E+00 -0.25281568459E+04  0.25281568459E+04  0.50400001928E-02 0. -1.
    10030    2    1    2    0    0  0.00000000000E+00  0.00000000000E+00 -0.11678257087E+04  0.38884879832E+04  0.37089785534E+04 0.  0.
        1    1    3    3  502    0 -0.89002409406E+03  0.99794807593E+03 -0.19310488724E+04  0.23488280052E+04  0.50400001928E-02 0. -1.
       -1    1    3    3    0  502  0.89002409406E+03 -0.99794807593E+03  0.76322316372E+03  0.15396599780E+04  0.50400001928E-02 0.  1.
</event>
<event>
 5   0  0.4824268E-07  0.3706413E+04  0.7818609E-02  0.8066542E-01
       -2   -1    0    0    0  501  0.00000000000E+00  0.00000000000E+00  0.14267108059E+04  0.14267108059E+04  0.25500000920E-02 0. -1.
        2   -1    0    0  501    0  0.00000000000E+00  0.00000000000E+00 -0.24071978220E+04  0.24071978220E+04  0.25500000920E-02 0.  1.
    10030    2    1    2    0    0  0.00000000000E+00  0.00000000000E+00 -0.98048701616E+03  0.38339086279E+04  0.37064134386E+04 0.  0.
        1    1    3    3  502    0 -0.74684963671E+03 -0.96861202298E+03  0.94990581983E+03  0.15486493139E+04  0.50400001928E-02 0. -1.
       -1    1    3    3    0  502  0.74684963671E+03  0.96861202298E+03 -0.19303928360E+04  0.22852593140E+04  0.50400001928E-02 0.  1.
</event>
<event>
 5   0  0.1522273E-07  0.3671130E+04  0.7818609E-02  0.8074390E-01
       -1   -1    0    0    0  501  0.00000000000E+00  0.00000000000E+00  0.16936368140E+04  0.16936368140E+04  0.50400001928E-02 0.  1.
        1   -1    0    0  501    0  0.00000000000E+00  0.00000000000E+00 -0.19893864130E+04  0.19893864130E+04  0.50400001928E-02 0. -1.
    10030    2    1    2    0    0  0.00000000000E+00  0.00000000000E+00 -0.29574959907E+03  0.36830232270E+04  0.36711295626E+04 0.  0.
        4    1    3    3  502    0 -0.11204869711E+04  0.11979974752E+04  0.67857039248E+03  0.17751474287E+04  0.12699999809E+01 0. -1.
       -4    1    3    3    0  502  0.11204869711E+04 -0.11979974752E+04 -0.97431999154E+03  0.19078757983E+04  0.12699999809E+01 0.  1.
</event>
<event>
 5   0  0.4857514E-07  0.3714193E+04  0.7818609E-02  0.8064824E-01
       -2   -1    0    0    0  501  0.00000000000E+00  0.00000000000E+00  0.12543370875E+04  0.12543370875E+04  0.25500000920E-02 0.  1.
        2   -1    0    0  501    0  0.00000000000E+00  0.00000000000E+00 -0.27495058691E+04  0.27495058691E+04  0.25500000920E-02 0. -1.
    10030    2    1    2    0    0  0.00000000000E+00  0.00000000000E+00 -0.14951687816E+04  0.40038429566E+04  0.37141928781E+04 0.  0.
        5    1    3    3  502    0  0.34741604709E+03 -0.76139801336E+03  0.10395178983E+04  0.13345577527E+04  0.46999998093E+01 0.  1.
       -5    1    3    3    0  502 -0.34741604709E+03  0.76139801336E+03 -0.25346866798E+04  0.26692852038E+04  0.46999998093E+01 0. -1.
</event>
<event>
 5   0  0.1496000E-07  0.3429776E+04  0.7818609E-02  0.8130637E-01
        1   -1    0    0  501    0  0.00000000000E+00  0.00000000000E+00  0.24628641798E+04  0.24628641798E+04  0.50400001928E-02 0. -1.
       -1   -1    0    0    0  501  0.00000000000E+00  0.00000000000E+00 -0.11940732771E+04  0.11940732771E+04  0.50400001928E-02 0.  1.
    10030    2    1    2    0    0  0.00000000000E+00  0.00000000000E+00  0.12687909027E+04  0.36569374568E+04  0.34297756790E+04 0.  0.
        2    1    3    3  502    0 -0.16039268174E+03  0.16512313497E+04  0.17141299830E+03  0.16678348835E+04  0.25500000920E-02 0.  1.
       -2    1    3    3    0  502  0.16039268174E+03 -0.16512313497E+04  0.10973779044E+04  0.19891025734E+04  0.25500000920E-02 0. -1.
</event>
<event>
 5   0  0.1496000E-07  0.3762810E+04  0.7818609E-02  0.8054183E-01
        1   -1    0    0  501    0  0.00000000000E+00  0.00000000000E+00  0.19460947594E+04  0.19460947594E+04  0.50400001928E-02 0. -1.
       -1   -1    0    0    0  501  0.00000000000E+00  0.00000000000E+00 -0.18188651901E+04  0.18188651902E+04  0.50400001928E-02 0.  1.
    10030    2    1    2    0    0  0.00000000000E+00  0.00000000000E+00  0.12722956925E+03  0.37649599496E+04  0.37628095964E+04 0.  0.
        5    1    3    3  502    0  0.62900874478E+03  0.19123523928E+03  0.18274151338E+04  0.19420842101E+04  0.46999998093E+01 0. -1.
       -5    1    3    3    0  502 -0.62900874478E+03 -0.19123523928E+03 -0.17001855645E+04  0.18228757395E+04  0.46999998093E+01 0.  1.
</event>
<event>
 5   0  0.1496000E-07  0.3827150E+04  0.7818609E-02  0.8040354E-01
        1   -1    0    0  501    0  0.00000000000E+00  0.00000000000E+00  0.15100798166E+04  0.15100798166E+04  0.50400001928E-02 0. -1.
       -1   -1    0    0    0  501  0.00000000000E+00  0.00000000000E+00 -0.24248844280E+04  0.24248844280E+04  0.50400001928E-02 0.  1.
    10030    2    1    2    0    0  0.00000000000E+00  0.00000000000E+00 -0.91480461147E+03  0.39349642446E+04  0.38271498702E+04 0.  0.
        3    1    3    3  502    0 -0.99248950434E+03 -0.15647663095E+04 -0.94860552303E+03  0.20816775610E+04  0.10100000352E+00 0. -1.
       -3    1    3    3    0  502  0.99248950434E+03  0.15647663095E+04  0.33800911559E+02  0.18532866836E+04  0.10100000352E+00 0.  1.
</event>
<event>
 5   0  0.4857514E-07  0.3698930E+04  0.7818609E-02  0.8068199E-01
       -2   -1    0    0    0  501  0.00000000000E+00  0.00000000000E+00  0.20555594789E+04  0.20555594790E+04  0.25500000920E-02 0.  1.
        2   -1    0    0  501    0  0.00000000000E+00  0.00000000000E+00 -0.16640335565E+04  0.16640335565E+04  0.25500000920E-02 0. -1.
    10030    2    1    2    0    0  0.00000000000E+00  0.00000000000E+00  0.39152592246E+03  0.37195930354E+04  0.36989295480E+04 0.  0.
        5    1    3    3  502    0  0.11575360408E+04 -0.12324286040E+04  0.94943493862E+03  0.19391283461E+04  0.46999998093E+01 0.  1.
       -5    1    3    3    0  502 -0.11575360408E+04  0.12324286040E+04 -0.55790901616E+03  0.17804646894E+04  0.46999998093E+01 0. -1.
</event>
<event>
 5   0  0.1496000E-07  0.2971214E+04  0.7818609E-02  0.8251999E-01
       -1   -1    0    0    0  501  0.00000000000E+00  0.00000000000E+00  0.17303682073E+04  0.17303682073E+04  0.50400001928E-02 0.  1.
        1   -1    0    0  501    0  0.00000000000E+00  0.00000000000E+00 -0.12754672316E+04  0.12754672316E+04  0.50400001928E-02 0. -1.
    10030    2    1    2    0    0  0.00000000000E+00  0.00000000000E+00  0.45490097564E+03  0.30058354389E+04  0.29712138577E+04 0.  0.
        2    1    3    3  502    0 -0.67043307667E+03 -0.11955559677E+04 -0.35210655375E+03  0.14152079732E+04  0.25500000920E-02 0. -1.
       -2    1    3    3    0  502  0.67043307667E+03  0.11955559677E+04  0.80700752939E+03  0.15906274657E+04  0.25500000920E-02 0.  1.
</event>
<event>
 5   0  0.1496000E-07  0.3730597E+04  0.7818609E-02  0.8061215E-01
        1   -1    0    0  501    0  0.00000000000E+00  0.00000000000E+00  0.18979785258E+04  0.18979785258E+04  0.50400001928E-02 0. -1.
       -1   -1    0    0    0  501  0.00000000000E+00  0.00000000000E+00 -0.18331809286E+04  0.18331809287E+04  0.50400001928E-02 0.  1.
    10030    2    1    2    0    0  0.00000000000E+00  0.00000000000E+00  0.64797597155E+02  0.37311594545E+04  0.37305967547E+04 0.  0.
        3    1    3    3  502    0  0.10457070067E+04 -0.12576064291E+04  0.92934003952E+03  0.18811565574E+04  0.10100000352E+00 0. -1.
       -3    1    3    3    0  502 -0.10457070067E+04  0.12576064291E+04 -0.86454244236E+03  0.18500028970E+04  0.10100000352E+00 0.  1.
</event>
<event>
 5   0  0.4793557E-07  0.3673565E+04  0.7818609E-02  0.8073846E-01
       -2   -1    0    0    0  501  0.00000000000E+00  0.00000000000E+00  0.22603045846E+04  0.22603045846E+04  0.25500000920E-02 0. -1.
        2   -1    0    0  501    0  0.00000000000E+00  0.00000000000E+00 -0.14926173409E+04  0.14926173409E+04  0.25500000920E-02 0.  1.
    10030    2    1    2    0    0  0.00000000000E+00  0.00000000000E+00  0.76768724372E+03  0.37529219254E+04  0.36735649272E+04 0.  0.
        3    1    3    3  502    0  0.10400557734E+04 -0.15011388870E+04  0.18303748529E+03  0.18353846194E+04  0.10100000352E+00 0.  1.
       -3    1    3    3    0  502 -0.10400557734E+04  0.15011388870E+04  0.58464975843E+03  0.19175373060E+04  0.10100000352E+00 0. -1.
</event>
<event>
 5   0  0.4857514E-07  0.3709037E+04  0.7818609E-02  0.8065962E-01
        2   -1    0    0  501    0  0.00000000000E+00  0.00000000000E+00  0.18256584628E+04  0.18256584628E+04  0.25500000920E-02 0.  1.
       -2   -1    0    0    0  501  0.00000000000E+00  0.00000000000E+00 -0.18838347008E+04  0.18838347008E+04  0.25500000920E-02 0. -1.
    10030    2    1    2    0    0  0.00000000000E+00  0.00000000000E+00 -0.58176237954E+02  0.37094931636E+04  0.37090369445E+04 0.  0.
        5    1    3    3  502    0  0.17220191993E+04 -0.23025144053E+03  0.61972183994E+03  0.18445712503E+04  0.46999998093E+01 0.  1.
       -5    1    3    3    0  502 -0.17220191993E+04  0.23025144053E+03 -0.67789807790E+03  0.18649219133E+04  0.46999998093E+01 0. -1.
</event>
<event>
 5   0  0.4824268E-07  0.3716246E+04  0.7818609E-02  0.8064371E-01
        2   -1    0    0  501    0  0.00000000000E+00  0.00000000000E+00  0.16314369425E+04  0.16314369425E+04  0.25500000920E-02 0.  1.
       -2   -1    0    0    0  501  0.00000000000E+00  0.00000000000E+00 -0.21163072033E+04  0.21163072033E+04  0.25500000920E-02 0. -1.
    10030    2    1    2    0    0  0.00000000000E+00  0.00000000000E+00 -0.48487026076E+03  0.37477441458E+04  0.37162463606E+04 0.  0.
        1    1    3    3  502    0 -0.15927907623E+04 -0.89639546201E+03  0.95237889323E+02  0.18301850978E+04  0.50400001928E-02 0.  1.
       -1    1    3    3    0  502  0.15927907623E+04  0.89639546201E+03 -0.58010815009E+03  0.19175590480E+04  0.50400001928E-02 0. -1.
</event>
<event>
 5   0  0.1522273E-07  0.3731443E+04  0.7818609E-02  0.8061029E-01
        1   -1    0    0  501    0  0.00000000000E+00  0.00000000000E+00  0.15181927391E+04  0.15181927391E+04  0.50400001928E-02 0. -1.
       -1   -1    0    0    0  501  0.00000000000E+00  0.00000000000E+00 -0.22928029769E+04  0.22928029769E+04  0.50400001928E-02 0.  1.
    10030    2    1    2    0    0  0.00000000000E+00  0.00000000000E+00 -0.77461023784E+03  0.38109957160E+04  0.37314430622E+04 0.  0.
        4    1    3    3  502    0 -0.13161000745E+04  0.79338987223E+03 -0.14678439734E+04  0.21251245701E+04  0.12699999809E+01 0. -1.
       -4    1    3    3    0  502  0.13161000745E+04 -0.79338987223E+03  0.69323373560E+03  0.16858711459E+04  0.12699999809E+01 0.  1.
</event>
<event>
 5   0  0.1496000E-07  0.3702069E+04  0.7818609E-02  0.8067504E-01
        1   -1    0    0  501    0  0.00000000000E+00  0.00000000000E+00  0.32357913297E+04  0.32357913297E+04  0.50400001928E-02 0. -1.
       -1   -1    0    0    0  501  0.00000000000E+00  0.00000000000E+00 -0.10588841995E+04  0.10588841995E+04  0.50400001928E-02 0.  1.
    10030    2    1    2    0    0  0.00000000000E+00  0.00000000000E+00  0.21769071302E+04  0.42946755291E+04  0.37020687794E+04 0.  0.
        5    1    3    3  502    0 -0.16676713579E+04 -0.22902431854E+03  0.19532705017E+03  0.16946252220E+04  0.46999998093E+01 0.  1.
       -5    1    3    3    0  502  0.16676713579E+04  0.22902431854E+03  0.19815800800E+04  0.26000503072E+04  0.46999998093E+01 0. -1.
</event>
<event>
 5   0  0.1496000E-07  0.3720542E+04  0.7818609E-02  0.8063425E-01
        1   -1    0    0  501    0  0.00000000000E+00  0.00000000000E+00  0.24875286440E+04  0.24875286440E+04  0.50400001928E-02 0.  1.
       -1   -1    0    0    0  501  0.00000000000E+00  0.00000000000E+00 -0.13911831299E+04  0.13911831299E+04  0.50400001928E-02 0. -1.
    10030    2    1    2    0    0  0.00000000000E+00  0.00000000000E+00  0.10963455141E+04  0.38787117739E+04  0.37205418340E+04 0.  0.
        3    1    3    3  502    0 -0.14557868487E+04 -0.11186229334E+04  0.86088354800E+03  0.20277458197E+04  0.10100000352E+00 0.  1.
       -3    1    3    3    0  502  0.14557868487E+04  0.11186229334E+04  0.23546196611E+03  0.18509659542E+04  0.10100000352E+00 0. -1.
</event>
<event>
 5   0  0.4758908E-07  0.3545532E+04  0.7818609E-02  0.8103083E-01
       -2   -1    0    0    0  501  0.00000000000E+00  0.00000000000E+00  0.26783852578E+04  0.26783852578E+04  0.25500000920E-02 0.  1.
        2   -1    0    0  501    0  0.00000000000E+00  0.00000000000E+00 -0.11733558202E+04  0.11733558202E+04  0.25500000920E-02 0. -1.
    10030    2    1    2    0    0  0.00000000000E+00  0.00000000000E+00  0.15050294376E+04  0.38517410780E+04  0.35455317971E+04 0.  0.
        2    1    3    3  502    0  0.16066644309E+04  0.63412744314E+03  0.31904191170E+03  0.17564953599E+04  0.25500000920E-02 0.  1.
       -2    1    3    3    0  502 -0.16066644309E+04 -0.63412744314E+03  0.11859875259E+04  0.20952457181E+04  0.25500000920E-02 0. -1.
</event>
<event>
 5   0  0.1496000E-07  0.3704998E+04  0.7818609E-02  0.8066855E-01
        1   -1    0    0  501    0  0.00000000000E+00  0.00000000000E+00  0.13630376708E+04  0.13630376708E+04  0.50400001928E-02 0. -1.
       -1   -1    0    0    0  501  0.00000000000E+00  0.00000000000E+00 -0.25177240590E+04  0.25177240590E+04  0.50400001928E-02 0.  1.
    10030    2    1    2    0    0  0.00000000000E+00  0.00000000000E+00 -0.11546863882E+04  0.38807617298E+04  0.37049981037E+04 0.  0.
        3    1    3    3  502    0 -0.17110348055E+04  0.24345334834E+01  0.16634385963E+03  0.17191033483E+04  0.10100000352E+00 0.  1.
       -3    1    3    3    0  502  0.17110348055E+04 -0.24345334834E+01 -0.13210302478E+04  0.21616583815E+04  0.10100000352E+00 0. -1.
</event>
<event>
 5   0  0.1496000E-07  0.3690109E+04  0.7818609E-02  0.8070157E-01
        1   -1    0    0  501    0  0.00000000000E+00  0.00000000000E+00  0.20200196786E+04  0.20200196786E+04  0.50400001928E-02 0. -1.
       -1   -1    0    0    0  501  0.00000000000E+00  0.00000000000E+00 -0.16852441285E+04  0.16852441286E+04  0.50400001928E-02 0.  1.
    10030    2    1    2    0    0  0.00000000000E+00  0.00000000000E+00  0.33477555001E+03  0.37052638071E+04  0.36901091056E+04 0.  0.
        2    1    3    3  502    0 -0.26035023028E+01 -0.17746365753E+04 -0.33954653157E+03  0.18068297097E+04  0.25500000920E-02 0.  1.
       -2    1    3    3    0  502  0.26035023028E+01  0.17746365753E+04  0.67432208159E+03  0.18984340974E+04  0.25500000920E-02 0. -1.
</event>
<event>
 5   0  0.1522273E-07  0.3700636E+04  0.7818609E-02  0.8067821E-01
        1   -1    0    0  501    0  0.00000000000E+00  0.00000000000E+00  0.19384613228E+04  0.19384613229E+04  0.50400001928E-02 0.  1.
       -1   -1    0    0    0  501  0.00000000000E+00  0.00000000000E+00 -0.17661827701E+04  0.17661827701E+04  0.50400001928E-02 0. -1.
    10030    2    1    2    0    0  0.00000000000E+00  0.00000000000E+00  0.17227855275E+03  0.37046440930E+04  0.37006361556E+04 0.  0.
        4    1    3    3  502    0 -0.16517364744E+04  0.66473082045E+03 -0.41796834354E+03  0.18288793273E+04  0.12699999809E+01 0. -1.
       -4    1    3    3    0  502  0.16517364744E+04 -0.66473082045E+03  0.59024689629E+03  0.18757647657E+04  0.12699999809E+01 0.  1.
</event>
<event>
 5   0  0.4793557E-07  0.3682508E+04  0.7818609E-02  0.8071849E-01
        2   -1    0    0  501    0  0.00000000000E+00  0.00000000000E+00  0.15722814185E+04  0.15722814185E+04  0.25500000920E-02 0.  1.
       -2   -1    0    0    0  501  0.00000000000E+00  0.00000000000E+00 -0.21562396585E+04  0.21562396585E+04  0.25500000920E-02 0. -1.
    10030    2    1    2    0    0  0.00000000000E+00  0.00000000000E+00 -0.58395823996E+03  0.37285210770E+04  0.36825075961E+04 0.  0.
        3    1    3    3  502    0  0.18338380458E+03  0.35497606761E+03 -0.21118185087E+04  0.21492824505E+04  0.10100000352E+00 0. -1.
       -3    1    3    3    0  502 -0.18338380458E+03 -0.35497606761E+03  0.15278602687E+04  0.15792386264E+04  0.10100000352E+00 0.  1.
</event>
<event>
 5   0  0.4793557E-07  0.3697347E+04  0.7818609E-02  0.8068550E-01
       -2   -1    0    0    0  501  0.00000000000E+00  0.00000000000E+00  0.15019156795E+04  0.15019156795E+04  0.25500000920E-02 0.  1.
        2   -1    0    0  501    0  0.00000000000E+00  0.00000000000E+00 -0.22754895578E+04  0.22754895578E+04  0.25500000920E-02 0. -1.
    10030    2    1    2    0    0  0.00000000000E+00  0.00000000000E+00 -0.77357387830E+03  0.37774052373E+04  0.36973468570E+04 0.  0.
        3    1    3    3  502    0 -0.47993218329E+03  0.17852839405E+04 -0.39133145940E+03  0.18896332898E+04  0.10100000352E+00 0. -1.
       -3    1    3    3    0  502  0.47993218329E+03 -0.17852839405E+04 -0.38224241889E+03  0.18877719475E+04  0.10100000352E+00 0.  1.
</event>
<event>
 5   0  0.1496000E-07  0.3674883E+04  0.7818609E-02  0.8073551E-01
       -1   -1    0    0    0  501  0.00000000000E+00  0.00000000000E+00  0.26792953022E+04  0.26792953022E+04  0.50400001928E-02 0. -1.
        1   -1    0    0  501    0  0.00000000000E+00  0.00000000000E+00 -0.12601044260E+04  0.12601044260E+04  0.50400001928E-02 0.  1.
    10030    2    1    2    0    0  0.00000000000E+00  0.00000000000E+00  0.14191908762E+04  0.39393997282E+04  0.36748833281E+04 0.  0.
        2    1    3    3  502    0 -0.94723405565E+03 -0.15600040958E+04  0.48137017994E+03  0.18874804331E+04  0.25500000920E-02 0.  1.
       -2    1    3    3    0  502  0.94723405565E+03  0.15600040958E+04  0.93782069622E+03  0.20519192951E+04  0.25500000920E-02 0. -1.
</event>
<event>
 5   0  0.1496000E-07  0.3693968E+04  0.7818609E-02  0.8069300E-01
        1   -1    0    0  501    0  0.00000000000E+00  0.00000000000E+00  0.25127699794E+04  0.25127699794E+04  0.50400001928E-02 0.  1.
       -1   -1    0    0    0  501  0.00000000000E+00  0.00000000000E+00 -0.13576055043E+04  0.13576055044E+04  0.50400001928E-02 0. -1.
    10030    2    1    2    0    0  0.00000000000E+00  0.00000000000E+00  0.11551644751E+04  0.38703754838E+04  0.36939682485E+04 0.  0.
        5    1    3    3  502    0 -0.41753313110E+03  0.12385790340E+03 -0.13030304466E+04  0.13738941482E+04  0.46999998093E+01 0. -1.
       -5    1    3    3    0  502  0.41753313110E+03 -0.12385790340E+03  0.24581949217E+04  0.24964813356E+04  0.46999998093E+01 0.  1.
</event>
<event>
 5   0  0.4857514E-07  0.3153538E+04  0.7818609E-02  0.8201196E-01
        2   -1    0    0  501    0  0.00000000000E+00  0.00000000000E+00  0.12737889127E+04  0.12737889127E+04  0.25500000920E-02 0. -1.
       -2   -1    0    0    0  501  0.00000000000E+00  0.00000000000E+00 -0.19518154570E+04  0.19518154570E+04  0.25500000920E-02 0.  1.
    10030    2    1    2    0    0  0.00000000000E+00  0.00000000000E+00 -0.67802654434E+03  0.32256043698E+04  0.31535382597E+04 0.  0.
        5    1    3    3  502    0 -0.69295298254E+03 -0.13751143976E+04  0.79363472852E+01  0.15398728902E+04  0.46999998093E+01 0.  1.
       -5    1    3    3    0  502  0.69295298254E+03  0.13751143976E+04 -0.68596289162E+03  0.16857314795E+04  0.46999998093E+01 0. -1.
</event>
<event>
 5   0  0.4824268E-07  0.3761031E+04  0.7818609E-02  0.8054570E-01
        2   -1    0    0  501    0  0.00000000000E+00  0.00000000000E+00  0.20689865571E+04  0.20689865571E+04  0.25500000920E-02 0.  1.
       -2   -1    0    0    0  501  0.00000000000E+00  0.00000000000E+00 -0.17092131671E+04  0.17092131672E+04  0.25500000920E-02 0. -1.
    10030    2    1    2    0    0  0.00000000000E+00  0.00000000000E+00  0.35977338990E+03  0.37781997242E+04  0.37610312766E+04 0.  0.
        1    1    3    3  502    0 -0.13277775018E+04  0.14564210032E+03 -0.11498377998E+04  0.17624788457E+04  0.50400001928E-02 0. -1.
       -1    1    3    3    0  502  0.13277775018E+04 -0.14564210032E+03  0.15096111897E+04  0.20157208785E+04  0.50400001928E-02 0.  1.
</event>
<event>
 5   0  0.1496000E-07  0.3628192E+04  0.7818609E-02  0.8084064E-01
       -3   -1    0    0    0  501  0.00000000000E+00  0.00000000000E+00  0.12905078017E+04  0.12905078057E+04  0.10100000352E+00 0.  1.
        3   -1    0    0  501    0  0.00000000000E+00  0.00000000000E+00 -0.25501152512E+04  0.25501152532E+04  0.10100000352E+00 0. -1.
    10030    2    1    2    0    0  0.00000000000E+00  0.00000000000E+00 -0.12596074494E+04  0.38406230588E+04  0.36281916368E+04 0.  0.
        5    1    3    3  502    0 -0.14603900897E+04 -0.61628254309E+03  0.30411006592E+03  0.16140162357E+04  0.46999998093E+01 0.  1.
       -5    1    3    3    0  502  0.14603900897E+04  0.61628254309E+03 -0.15637175154E+04  0.22266068231E+04  0.46999998093E+01 0. -1.
</event>
<event>
 5   0  0.1522273E-07  0.4257211E+04  0.7818609E-02  0.7954578E-01
       -1   -1    0    0    0  501  0.00000000000E+00  0.00000000000E+00  0.19901062264E+04  0.19901062264E+04  0.50400001928E-02 0.  1.
        1   -1    0    0  501    0  0.00000000000E+00  0.00000000000E+00 -0.22767435511E+04  0.22767435511E+04  0.50400001928E-02 0. -1.
    10030    2    1    2    0    0  0.00000000000E+00  0.00000000000E+00 -0.28663732472E+03  0.42668497775E+04  0.42572110669E+04 0.  0.
        4    1    3    3  502    0  0.14597078103E+04 -0.33098720973E+03  0.13736008301E+04  0.20315216656E+04  0.12699999809E+01 0.  1.
       -4    1    3    3    0  502 -0.14597078103E+04  0.33098720973E+03 -0.16602381548E+04  0.22353281119E+04  0.12699999809E+01 0. -1.
</event>
<event>
 5   0  0.4687817E-07  0.3605474E+04  0.7818609E-02  0.8089239E-01
       -2   -1    0    0    0  501  0.00000000000E+00  0.00000000000E+00  0.17250591027E+04  0.17250591027E+04  0.25500000920E-02 0.  1.
        2   -1    0    0  501    0  0.00000000000E+00  0.00000000000E+00 -0.18839123264E+04  0.18839123264E+04  0.25500000920E-02 0. -1.
    10030    2    1    2    0    0  0.00000000000E+00  0.00000000000E+00 -0.15885322373E+03  0.36089714291E+04  0.36054736761E+04 0.  0.
        4    1    3    3  502    0  0.13134979602E+04 -0.92300509040E+02 -0.13119058935E+04  0.18587347744E+04  0.12699999809E+01 0. -1.
       -4    1    3    3    0  502 -0.13134979602E+04  0.92300509040E+02  0.11530526697E+04  0.17502366547E+04  0.12699999809E+01 0.  1.
</event>
<event>
 5   0  0.4793557E-07  0.3717124E+04  0.7818609E-02  0.8064178E-01
        2   -1    0    0  501    0  0.00000000000E+00  0.00000000000E+00  0.98139469524E+03  0.98139469524E+03  0.25500000920E-02 0.  1.
       -2   -1    0    0    0  501  0.00000000000E+00  0.00000000000E+00 -0.35197379157E+04  0.35197379157E+04  0.25500000920E-02 0. -1.
    10030    2    1    2    0    0  0.00000000000E+00  0.00000000000E+00 -0.25383432205E+04  0.45011326110E+04  0.37171236832E+04 0.  0.
        3    1    3    3  502    0  0.22783432160E+03 -0.16650112288E+04 -0.22303700790E+04  0.27926191236E+04  0.10100000352E+00 0. -1.
       -3    1    3    3    0  502 -0.22783432160E+03  0.16650112288E+04 -0.30797314150E+03  0.17085134873E+04  0.10100000352E+00 0.  1.
</event>
<event>
 5   0  0.4857514E-07  0.3658194E+04  0.7818609E-02  0.8077290E-01
       -2   -1    0    0    0  501  0.00000000000E+00  0.00000000000E+00  0.13712312298E+04  0.13712312298E+04  0.25500000920E-02 0.  1.
        2   -1    0    0  501    0  0.00000000000E+00  0.00000000000E+00 -0.24398476262E+04  0.24398476262E+04  0.25500000920E-02 0. -1.
    10030    2    1    2    0    0  0.00000000000E+00  0.00000000000E+00 -0.10686163964E+04  0.38110788560E+04  0.36581936859E+04 0.  0.
        5    1    3    3  502    0  0.11349148019E+04  0.16448757075E+03  0.95019512772E+03  0.14892886353E+04  0.46999998093E+01 0.  1.
       -5    1    3    3    0  502 -0.11349148019E+04 -0.16448757075E+03 -0.20188115242E+04  0.23217902206E+04  0.46999998093E+01 0. -1.
</event>
<event>
 5   0  0.4857514E-07  0.3731150E+04  0.7818609E-02  0.8061094E-01
        2   -1    0    0  501    0  0.00000000000E+00  0.00000000000E+00  0.21029701910E+04  0.21029701910E+04  0.25500000920E-02 0. -1.
       -2   -1    0    0    0  501  0.00000000000E+00  0.00000000000E+00 -0.16549781272E+04  0.16549781272E+04  0.25500000920E-02 0.  1.
    10030    2    1    2    0    0  0.00000000000E+00  0.00000000000E+00  0.44799206376E+03  0.37579483182E+04  0.37311497790E+04 0.  0.
        5    1    3    3  502    0 -0.56457819451E+03 -0.82186535452E+03  0.18120695151E+04  0.20682913761E+04  0.46999998093E+01 0. -1.
       -5    1    3    3    0  502  0.56457819451E+03  0.82186535452E+03 -0.13640774514E+04  0.16896569421E+04  0.46999998093E+01 0.  1.
</event>
<event>
 5   0  0.4857514E-07  0.3704401E+04  0.7818609E-02  0.8066987E-01
       -2   -1    0    0    0  501  0.00000000000E+00  0.00000000000E+00  0.32559944341E+04  0.32559944341E+04  0.25500000920E-02 0.  1.
        2   -1    0    0  501    0  0.00000000000E+00  0.00000000000E+00 -0.10536399460E+04  0.10536399460E+04  0.25500000920E-02 0. -1.
    10030    2    1    2    0    0  0.00000000000E+00  0.00000000000E+00  0.22023544882E+04  0.43096343801E+04  0.37044005182E+04 0.  0.
        5    1    3    3  502    0  0.17582301440E+04 -0.37785672006E+03  0.16168520158E+04  0.24183427117E+04  0.46999998093E+01 0.  1.
       -5    1    3    3    0  502 -0.17582301440E+04  0.37785672006E+03  0.58550247232E+03  0.18912916684E+04  0.46999998093E+01 0. -1.
</event>
<event>
 5   0  0.1496000E-07  0.3687090E+04  0.7818609E-02  0.8070829E-01
       -1   -1    0    0    0  501  0.00000000000E+00  0.00000000000E+00  0.15051832165E+04  0.15051832165E+04  0.50400001928E-02 0. -1.
        1   -1    0    0  501    0  0.00000000000E+00  0.00000000000E+00 -0.22579701974E+04  0.22579701974E+04  0.50400001928E-02 0.  1.
    10030    2    1    2    0    0  0.00000000000E+00  0.00000000000E+00 -0.75278698088E+03  0.37631534139E+04  0.36870903675E+04 0.  0.
        5    1    3    3  502    0 -0.16335914707E+03 -0.47601503816E+03  0.14337097140E+04  0.15194808856E+04  0.46999998093E+01 0. -1.
       -5    1    3    3    0  502  0.16335914707E+03  0.47601503816E+03 -0.21864966949E+04  0.22436725283E+04  0.46999998093E+01 0.  1.
</event>
<event>
 5   0  0.4824268E-07  0.3778037E+04  0.7818609E-02  0.8050885E-01
        2   -1    0    0  501    0  0.00000000000E+00  0.00000000000E+00  0.21815138378E+04  0.21815138378E+04  0.25500000920E-02 0. -1.
       -2   -1    0    0    0  501  0.00000000000E+00  0.00000000000E+00 -0.16357402447E+04  0.16357402447E+04  0.25500000920E-02 0.  1.
    10030    2    1    2    0    0  0.00000000000E+00  0.00000000000E+00  0.54577359307E+03  0.38172540825E+04  0.37780365159E+04 0.  0.
        1    1    3    3  502    0  0.13420690636E+04 -0.12940027001E+04  0.58067596693E+03  0.19526333342E+04  0.50400001928E-02 0. -1.
       -1    1    3    3    0  502 -0.13420690636E+04  0.12940027001E+04 -0.34902373866E+02  0.18646207483E+04  0.50400001928E-02 0.  1.
</event>
<event>
 5   0  0.1496000E-07  0.3700962E+04  0.7818609E-02  0.8067749E-01
        1   -1    0    0  501    0  0.00000000000E+00  0.00000000000E+00  0.21223879875E+04  0.21223879875E+04  0.50400001928E-02 0. -1.
       -1   -1    0    0    0  501  0.00000000000E+00  0.00000000000E+00 -0.16134088383E+04  0.16134088383E+04  0.50400001928E-02 0.  1.
    10030    2    1    2    0    0  0.00000000000E+00  0.00000000000E+00  0.50897914916E+03  0.37357968258E+04  0.37009617871E+04 0.  0.
        2    1    3    3  502    0  0.13386237792E+04 -0.89533245562E+03 -0.66554193431E+03  0.17425498256E+04  0.25500000920E-02 0.  1.
       -2    1    3    3    0  502 -0.13386237792E+04  0.89533245562E+03  0.11745210835E+04  0.19932470002E+04  0.25500000920E-02 0. -1.
</event>
<event>
 5   0  0.1522273E-07  0.3706515E+04  0.7818609E-02  0.8066519E-01
        1   -1    0    0  501    0  0.00000000000E+00  0.00000000000E+00  0.23107279336E+04  0.23107279336E+04  0.50400001928E-02 0.  1.
       -1   -1    0    0    0  501  0.00000000000E+00  0.00000000000E+00 -0.14863559044E+04  0.14863559044E+04  0.50400001928E-02 0. -1.
    10030    2    1    2    0    0  0.00000000000E+00  0.00000000000E+00  0.82437202913E+03  0.37970838380E+04  0.37065154027E+04 0.  0.
        4    1    3    3  502    0  0.10346424076E+04  0.14831125408E+04  0.82762535523E+03  0.19887365491E+04  0.12699999809E+01 0. -1.
       -4    1    3    3    0  502 -0.10346424076E+04 -0.14831125408E+04 -0.32533260973E+01  0.18083472889E+04  0.12699999809E+01 0.  1.
</event>
<event>
 5   0  0.1496000E-07  0.3696560E+04  0.7818609E-02  0.8068724E-01
        1   -1    0    0  501    0  0.00000000000E+00  0.00000000000E+00  0.14354900678E+04  0.14354900678E+04  0.50400001928E-02 0. -1.
       -1   -1    0    0    0  501  0.00000000000E+00  0.00000000000E+00 -0.23797725128E+04  0.23797725128E+04  0.50400001928E-02 0.  1.
    10030    2    1    2    0    0  0.00000000000E+00  0.00000000000E+00 -0.94428244504E+03  0.38152625806E+04  0.36965604584E+04 0.  0.
        3    1    3    3  502    0  0.13180384923E+04  0.65187668006E+03  0.68362603549E+03  0.16215773925E+04  0.10100000352E+00 0. -1.
       -3    1    3    3    0  502 -0.13180384923E+04 -0.65187668006E+03 -0.16279084805E+04  0.21936851881E+04  0.10100000352E+00 0.  1.
</event>
<event>
 5   0  0.4824268E-07  0.3643420E+04  0.7818609E-02  0.8080618E-01
        2   -1    0    0  501    0  0.00000000000E+00  0.00000000000E+00  0.16268414747E+04  0.16268414747E+04  0.25500000920E-02 0. -1.
       -2   -1    0    0    0  501  0.00000000000E+00  0.00000000000E+00 -0.20399208663E+04  0.20399208663E+04  0.25500000920E-02 0.  1.
    10030    2    1    2    0    0  0.00000000000E+00  0.00000000000E+00 -0.41307939158E+03  0.36667623410E+04  0.36434202999E+04 0.  0.
        1    1    3    3  502    0 -0.41868538401E+03  0.72457725857E+02 -0.19893515564E+04  0.20342239768E+04  0.50400001928E-02 0.  1.
       -1    1    3    3    0  502  0.41868538401E+03 -0.72457725857E+02  0.15762721648E+04  0.16325383642E+04  0.50400001928E-02 0. -1.
</event>
<event>
 5   0  0.1522273E-07  0.3705280E+04  0.7818609E-02  0.8066793E-01
       -1   -1    0    0    0  501  0.00000000000E+00  0.00000000000E+00  0.15740022255E+04  0.15740022255E+04  0.50400001928E-02 0.  1.
        1   -1    0    0  501    0  0.00000000000E+00  0.00000000000E+00 -0.21806034997E+04  0.21806034997E+04  0.50400001928E-02 0. -1.
    10030    2    1    2    0    0  0.00000000000E+00  0.00000000000E+00 -0.60660127428E+03  0.37546057252E+04  0.37052798876E+04 0.  0.
        4    1    3    3  502    0  0.18915402041E+03 -0.17970430344E+04 -0.71755857066E+03  0.19442311658E+04  0.12699999809E+01 0. -1.
       -4    1    3    3    0  502 -0.18915402041E+03  0.17970430344E+04  0.11095729638E+03  0.18103745594E+04  0.12699999809E+01 0.  1.
</event>
<event>
 5   0  0.1522273E-07  0.3700947E+04  0.7818609E-02  0.8067752E-01
        1   -1    0    0  501    0  0.00000000000E+00  0.00000000000E+00  0.22581464447E+04  0.22581464447E+04  0.50400001928E-02 0.  1.
       -1   -1    0    0    0  501  0.00000000000E+00  0.00000000000E+00 -0.15163998341E+04  0.15163998342E+04  0.50400001928E-02 0. -1.
    10030    2    1    2    0    0  0.00000000000E+00  0.00000000000E+00  0.74174661052E+03  0.37745462788E+04  0.37009473891E+04 0.  0.
        4    1    3    3  502    0  0.10744013316E+04  0.14938805336E+04  0.57029700763E+03  0.19264624470E+04  0.12699999809E+01 0. -1.
       -4    1    3    3    0  502 -0.10744013316E+04 -0.14938805336E+04  0.17144960289E+03  0.18480838318E+04  0.12699999809E+01 0.  1.
</event>
<event>
 5   0  0.1496000E-07  0.3709260E+04  0.7818609E-02  0.8065913E-01
       -1   -1    0    0    0  501  0.00000000000E+00  0.00000000000E+00  0.12263235226E+04  0.12263235226E+04  0.50400001928E-02 0.  1.
        1   -1    0    0  501    0  0.00000000000E+00  0.00000000000E+00 -0.28048496817E+04  0.28048496817E+04  0.50400001928E-02 0. -1.
    10030    2    1    2    0    0  0.00000000000E+00  0.00000000000E+00 -0.15785261591E+04  0.40311732043E+04  0.37092603803E+04 0.  0.
        5    1    3    3  502    0 -0.16460954791E+04 -0.30157370125E+03 -0.16580493045E+04  0.23557857733E+04  0.46999998093E+01 0. -1.
       -5    1    3    3    0  502  0.16460954791E+04  0.30157370125E+03  0.79523145393E+02  0.16753874311E+04  0.46999998093E+01 0.  1.
</event>
<event>
 5   0  0.4758908E-07  0.3673386E+04  0.7818609E-02  0.8073885E-01
       -2   -1    0    0    0  501  0.00000000000E+00  0.00000000000E+00  0.20532545591E+04  0.20532545591E+04  0.25500000920E-02 0. -1.
        2   -1    0    0  501    0  0.00000000000E+00  0.00000000000E+00 -0.16429730582E+04  0.16429730582E+04  0.25500000920E-02 0.  1.
    10030    2    1    2    0    0  0.00000000000E+00  0.00000000000E+00  0.41028150088E+03  0.36962276174E+04  0.36733864062E+04 0.  0.
        2    1    3    3  502    0 -0.12774933668E+04  0.10091899626E+04 -0.65043350806E+03  0.17531450115E+04  0.25500000920E-02 0.  1.
       -2    1    3    3    0  502  0.12774933668E+04 -0.10091899626E+04  0.10607150089E+04  0.19430826059E+04  0.25500000920E-02 0. -1.
</event>
<event>
 5   0  0.4687817E-07  0.3649372E+04  0.7818609E-02  0.8079275E-01
        2   -1    0    0  501    0  0.00000000000E+00  0.00000000000E+00  0.18363425729E+04  0.18363425729E+04  0.25500000920E-02 0.  1.
       -2   -1    0    0    0  501  0.00000000000E+00  0.00000000000E+00 -0.18131031153E+04  0.18131031153E+04  0.25500000920E-02 0. -1.
    10030    2    1    2    0    0  0.00000000000E+00  0.00000000000E+00  0.23239457556E+02  0.36494456882E+04  0.36493716937E+04 0.  0.
        4    1    3    3  502    0  0.25192880683E+03 -0.83174901229E+03  0.16160843353E+04  0.18349399812E+04  0.12699999809E+01 0.  1.
       -4    1    3    3    0  502 -0.25192880683E+03  0.83174901229E+03 -0.15928448777E+04  0.18145057069E+04  0.12699999809E+01 0. -1.
</event>
<event>
 5   0  0.4857514E-07  0.3698894E+04  0.7818609E-02  0.8068207E-01
        2   -1    0    0  501    0  0.00000000000E+00  0.00000000000E+00  0.20982918259E+04  0.20982918259E+04  0.25500000920E-02 0.  1.
       -2   -1    0    0    0  501  0.00000000000E+00  0.00000000000E+00 -0.16301132846E+04  0.16301132846E+04  0.25500000920E-02 0. -1.
    10030    2    1    2    0    0  0.00000000000E+00  0.00000000000E+00  0.46817854131E+03  0.37284051104E+04  0.36988935536E+04 0.  0.
        5    1    3    3  502    0  0.16029206736E+04 -0.36225883757E+03  0.10892953891E+04  0.19715914095E+04  0.46999998093E+01 0.  1.
       -5    1    3    3    0  502 -0.16029206736E+04  0.36225883757E+03 -0.62111684780E+03  0.17568137010E+04  0.46999998093E+01 0. -1.
</event>
<event>
 5   0  0.4793557E-07  0.3714849E+04  0.7818609E-02  0.8064679E-01
        2   -1    0    0  501    0  0.00000000000E+00  0.00000000000E+00  0.25637059521E+04  0.25637059521E+04  0.25500000920E-02 0.  1.
       -2   -1    0    0    0  501  0.00000000000E+00  0.00000000000E+00 -0.13457180279E+04  0.13457180279E+04  0.25500000920E-02 0. -1.
    10030    2    1    2    0    0  0.00000000000E+00  0.00000000000E+00  0.12179879243E+04  0.39094239800E+04  0.37148487549E+04 0.  0.
        3    1    3    3  502    0 -0.68023643154E+03 -0.39032508109E+03  0.23809149016E+04  0.25067570785E+04  0.10100000352E+00 0.  1.
       -3    1    3    3    0  502  0.68023643154E+03  0.39032508109E+03 -0.11629269774E+04  0.14026669015E+04  0.10100000352E+00 0. -1.
</event>
<event>
 5   0  0.4857514E-07  0.3703083E+04  0.7818609E-02  0.8067279E-01
        2   -1    0    0  501    0  0.00000000000E+00  0.00000000000E+00  0.11645868916E+04  0.11645868916E+04  0.25500000920E-02 0. -1.
       -2   -1    0    0    0  501  0.00000000000E+00  0.00000000000E+00 -0.29437100027E+04  0.29437100027E+04  0.25500000920E-02 0.  1.
    10030    2    1    2    0    0  0.00000000000E+00  0.00000000000E+00 -0.17791231110E+04  0.41082968943E+04  0.37030830841E+04 0.  0.
        5    1    3    3  502    0  0.12796844736E+04 -0.19075736914E+03  0.57983264928E+03  0.14178182947E+04  0.46999998093E+01 0. -1.
       -5    1    3    3    0  502 -0.12796844736E+04  0.19075736914E+03 -0.23589557603E+04  0.26904785996E+04  0.46999998093E+01 0.  1.
</event>
<event>
 5   0  0.4758908E-07  0.3699419E+04  0.7818609E-02  0.8068091E-01
        2   -1    0    0  501    0  0.00000000000E+00  0.00000000000E+00  0.22911165235E+04  0.22911165235E+04  0.25500000920E-02 0.  1.
       -2   -1    0    0    0  501  0.00000000000E+00  0.00000000000E+00 -0.14933442342E+04  0.14933442343E+04  0.25500000920E-02 0. -1.
    10030    2    1    2    0    0  0.00000000000E+00  0.00000000000E+00  0.79777228921E+03  0.37844607577E+04  0.36994192249E+04 0.  0.
        2    1    3    3  502    0  0.10895282480E+04 -0.14724059274E+04  0.13533098668E+03  0.18366723971E+04  0.25500000920E-02 0.  1.
       -2    1    3    3    0  502 -0.10895282480E+04  0.14724059274E+04  0.66244130253E+03  0.19477883606E+04  0.25500000920E-02 0. -1.
</event>
<event>
 5   0  0.1496287E-07  0.3724902E+04  0.7818609E-02  0.8062466E-01
        1   -1    0    0  501    0  0.00000000000E+00  0.00000000000E+00  0.10117940636E+04  0.10117940636E+04  0.50400001928E-02 0. -1.
       -1   -1    0    0    0  501  0.00000000000E+00  0.00000000000E+00 -0.34282897722E+04  0.34282897722E+04  0.50400001928E-02 0.  1.
    10030    2    1    2    0    0  0.00000000000E+00  0.00000000000E+00 -0.24164957086E+04  0.44400838358E+04  0.37249017382E+04 0.  0.
        1    1    3    3  502    0 -0.40459739177E+03  0.14239953420E+04 -0.25553987774E+04  0.29532227642E+04  0.50400001928E-02 0.  1.
       -1    1    3    3    0  502  0.40459739177E+03 -0.14239953420E+04  0.13890306885E+03  0.14868610715E+04  0.50400001928E-02 0. -1.
</event>
<event>
 5   0  0.1522273E-07  0.3738728E+04  0.7818609E-02  0.8059433E-01
        1   -1    0    0  501    0  0.00000000000E+00  0.00000000000E+00  0.18152493413E+04  0.18152493413E+04  0.50400001928E-02 0. -1.
       -1   -1    0    0    0  501  0.00000000000E+00  0.00000000000E+00 -0.19250920692E+04  0.19250920692E+04  0.50400001928E-02 0.  1.
    10030    2    1    2    0    0  0.00000000000E+00  0.00000000000E+00 -0.10984272792E+03  0.37403414105E+04  0.37387281851E+04 0.  0.
        4    1    3    3  502    0 -0.12559071483E+04  0.13581322939E+04 -0.32465670108E+03  0.18780920317E+04  0.12699999809E+01 0.  1.
       -4    1    3    3    0  502  0.12559071483E+04 -0.13581322939E+04  0.21481397315E+03  0.18622493788E+04  0.12699999809E+01 0. -1.
</event>
<event>
 5   0  0.4687817E-07  0.3694768E+04  0.7818609E-02  0.8069122E-01
       -2   -1    0    0    0  501  0.00000000000E+00  0.00000000000E+00  0.29462674463E+04  0.29462674463E+04  0.25500000920E-02 0. -1.
        2   -1    0    0  501    0  0.00000000000E+00  0.00000000000E+00 -0.11583566503E+04  0.11583566503E+04  0.25500000920E-02 0.  1.
    10030    2    1    2    0    0  0.00000000000E+00  0.00000000000E+00  0.17879107960E+04  0.41046240966E+04  0.36947684583E+04 0.  0.
        4    1    3    3  502    0 -0.13028620203E+04  0.12917055368E+04  0.65343424306E+03  0.19475447519E+04  0.12699999809E+01 0.  1.
       -4    1    3    3    0  502  0.13028620203E+04 -0.12917055368E+04  0.11344765529E+04  0.21570793448E+04  0.12699999809E+01 0. -1.
</event>
<event>
 5   0  0.4687817E-07  0.3656578E+04  0.7818609E-02  0.8077653E-01
       -2   -1    0    0    0  501  0.00000000000E+00  0.00000000000E+00  0.12175059754E+04  0.12175059754E+04  0.25500000920E-02 0.  1.
        2   -1    0    0  501    0  0.00000000000E+00  0.00000000000E+00 -0.27454815308E+04  0.27454815308E+04  0.25500000920E-02 0. -1.
    10030    2    1    2    0    0  0.00000000000E+00  0.00000000000E+00 -0.15279755553E+04  0.39629875062E+04  0.36565777274E+04 0.  0.
        4    1    3    3  502    0 -0.91081213819E+03 -0.11936214989E+04 -0.18946365086E+04  0.24174284160E+04  0.12699999809E+01 0. -1.
       -4    1    3    3    0  502  0.91081213819E+03  0.11936214989E+04  0.36666095329E+03  0.15455590902E+04  0.12699999809E+01 0.  1.
</event>
<event>
 5   0  0.1496000E-07  0.3711118E+04  0.7818609E-02  0.8065502E-01
        1   -1    0    0  501    0  0.00000000000E+00  0.00000000000E+00  0.17389014956E+04  0.17389014956E+04  0.50400001928E-02 0. -1.
       -1   -1    0    0    0  501  0.00000000000E+00  0.00000000000E+00 -0.19800425904E+04  0.19800425904E+04  0.50400001928E-02 0.  1.
    10030    2    1    2    0    0  0.00000000000E+00  0.00000000000E+00 -0.24114109472E+03  0.37189440860E+04  0.37111179026E+04 0.  0.
        2    1    3    3  502    0 -0.12451327308E+04  0.12981603326E+04 -0.57707843133E+03  0.18890725985E+04  0.25500000920E-02 0.  1.
       -2    1    3    3    0  502  0.12451327308E+04 -0.12981603326E+04  0.33593733661E+03  0.18298714875E+04  0.25500000920E-02 0. -1.
</event>
<event>
 5   0  0.1496000E-07  0.3691909E+04  0.7818609E-02  0.8069757E-01
       -1   -1    0    0    0  501  0.00000000000E+00  0.00000000000E+00  0.24432464006E+04  0.24432464006E+04  0.50400001928E-02 0.  1.
        1   -1    0    0  501    0  0.00000000000E+00  0.00000000000E+00 -0.13946802708E+04  0.13946802708E+04  0.50400001928E-02 0. -1.
    10030    2    1    2    0    0  0.00000000000E+00  0.00000000000E+00  0.10485661297E+04  0.38379266714E+04  0.36919087484E+04 0.  0.
        2    1    3    3  502    0  0.75742913000E+03 -0.16640994460E+04  0.26002095476E+03  0.18467638588E+04  0.25500000920E-02 0.  1.
       -2    1    3    3    0  502 -0.75742913000E+03  0.16640994460E+04  0.78854517499E+03  0.19911628126E+04  0.25500000920E-02 0. -1.
</event>
<event>
 5   0  0.4758908E-07  0.3725918E+04  0.7818609E-02  0.8062242E-01
        2   -1    0    0  501    0  0.00000000000E+00  0.00000000000E+00  0.19517432979E+04  0.19517432979E+04  0.25500000920E-02 0. -1.
       -2   -1    0    0    0  501  0.00000000000E+00  0.00000000000E+00 -0.17782136069E+04  0.17782136069E+04  0.25500000920E-02 0.  1.
    10030    2    1    2    0    0  0.00000000000E+00  0.00000000000E+00  0.17352969102E+03  0.37299569048E+04  0.37259181363E+04 0.  0.
        2    1    3    3  502    0 -0.16309743211E+04 -0.76712872389E+03  0.55850039699E+03  0.18869251200E+04  0.25500000920E-02 0. -1.
       -2    1    3    3    0  502  0.16309743211E+04  0.76712872389E+03 -0.38497070597E+03  0.18430317848E+04  0.25500000920E-02 0.  1.
</event>
<event>
 5   0  0.4793557E-07  0.3699950E+04  0.7818609E-02  0.8067973E-01
        2   -1    0    0  501    0  0.00000000000E+00  0.00000000000E+00  0.21829138113E+04  0.21829138113E+04  0.25500000920E-02 0. -1.
       -2   -1    0    0    0  501  0.00000000000E+00  0.00000000000E+00 -0.15678161447E+04  0.15678161447E+04  0.25500000920E-02 0.  1.
    10030    2    1    2    0    0  0.00000000000E+00  0.00000000000E+00  0.61509766663E+03  0.37507299561E+04  0.36999500083E+04 0.  0.
        3    1    3    3  502    0  0.86653047767E+02  0.63483875477E+02 -0.15646519922E+04  0.15683350471E+04  0.10100000352E+00 0.  1.
       -3    1    3    3    0  502 -0.86653047767E+02 -0.63483875477E+02  0.21797496588E+04  0.21823949089E+04  0.10100000352E+00 0. -1.
</event>
<event>
 5   0  0.4758908E-07  0.3504599E+04  0.7818609E-02  0.8112701E-01
       -2   -1    0    0    0  501  0.00000000000E+00  0.00000000000E+00  0.20247251731E+04  0.20247251731E+04  0.25500000920E-02 0.  1.
        2   -1    0    0  501    0  0.00000000000E+00  0.00000000000E+00 -0.15165288993E+04  0.15165288993E+04  0.25500000920E-02 0. -1.
    10030    2    1    2    0    0  0.00000000000E+00  0.00000000000E+00  0.50819627373E+03  0.35412540724E+04  0.35045993997E+04 0.  0.
        2    1    3    3  502    0 -0.94461081226E+03  0.11158820869E+03  0.17411604079E+04  0.19840315221E+04  0.25500000920E-02 0.  1.
       -2    1    3    3    0  502  0.94461081226E+03 -0.11158820869E+03 -0.12329641341E+04  0.15572225503E+04  0.25500000920E-02 0. -1.
</event>
<event>
 5   0  0.4824268E-07  0.3203818E+04  0.7818609E-02  0.8187809E-01
       -2   -1    0    0    0  501  0.00000000000E+00  0.00000000000E+00  0.16452639896E+04  0.16452639896E+04  0.25500000920E-02 0. -1.
        2   -1    0    0  501    0  0.00000000000E+00  0.00000000000E+00 -0.15596968777E+04  0.15596968778E+04  0.25500000920E-02 0.  1.
    10030    2    1    2    0    0  0.00000000000E+00  0.00000000000E+00  0.85567111854E+02  0.32049608674E+04  0.32038184141E+04 0.  0.
        1    1    3    3  502    0  0.44000691784E+03  0.14958548354E+04 -0.32466926391E+03  0.15926700560E+04  0.50400001928E-02 0.  1.
       -1    1    3    3    0  502 -0.44000691784E+03 -0.14958548354E+04  0.41023637576E+03  0.16122908114E+04  0.50400001928E-02 0. -1.
</event>
<event>
 5   0  0.1496000E-07  0.3740576E+04  0.7818609E-02  0.8059029E-01
        1   -1    0    0  501    0  0.00000000000E+00  0.00000000000E+00  0.21589934842E+04  0.21589934842E+04  0.50400001928E-02 0.  1.
       -1   -1    0    0    0  501  0.00000000000E+00  0.00000000000E+00 -0.16201887711E+04  0.16201887711E+04  0.50400001928E-02 0. -1.
    10030    2    1    2    0    0  0.00000000000E+00  0.00000000000E+00  0.53880471309E+03  0.37791822553E+04  0.37405758915E+04 0.  0.
        5    1    3    3  502    0 -0.68848919077E+02  0.10857859203E+04 -0.12675756816E+04  0.16704614443E+04  0.46999998093E+01 0. -1.
       -5    1    3    3    0  502  0.68848919077E+02 -0.10857859203E+04  0.18063803947E+04  0.21087208110E+04  0.46999998093E+01 0.  1.
</event>
<event>
 5   0  0.4857514E-07  0.3727052E+04  0.7818609E-02  0.8061993E-01
        2   -1    0    0  501    0  0.00000000000E+00  0.00000000000E+00  0.22728163621E+04  0.22728163621E+04  0.25500000920E-02 0.  1.
       -2   -1    0    0    0  501  0.00000000000E+00  0.00000000000E+00 -0.15279408390E+04  0.15279408390E+04  0.25500000920E-02 0. -1.
    10030    2    1    2    0    0  0.00000000000E+00  0.00000000000E+00  0.74487552306E+03  0.38007572011E+04  0.37270518854E+04 0.  0.
        5    1    3    3  502    0  0.15656640519E+04  0.91305198126E+03 -0.69419446841E+02  0.18137830613E+04  0.46999998093E+01 0. -1.
       -5    1    3    3    0  502 -0.15656640519E+04 -0.91305198126E+03  0.81429496990E+03  0.19869741397E+04  0.46999998093E+01 0.  1.
</event>
<event>
 5   0  0.4687817E-07  0.3717435E+04  0.7818609E-02  0.8064109E-01
       -2   -1    0    0    0  501  0.00000000000E+00  0.00000000000E+00  0.12401455684E+04  0.12401455684E+04  0.25500000920E-02 0. -1.
        2   -1    0    0  501    0  0.00000000000E+00  0.00000000000E+00 -0.27858263769E+04  0.27858263769E+04  0.25500000920E-02 0.  1.
    10030    2    1    2    0    0  0.00000000000E+00  0.00000000000E+00 -0.15456808085E+04  0.40259719453E+04  0.37174347261E+04 0.  0.
        4    1    3    3  502    0 -0.90372960423E+02 -0.41281363572E+03 -0.27331093561E+04  0.27655868699E+04  0.12699999809E+01 0.  1.
       -4    1    3    3    0  502  0.90372960423E+02  0.41281363572E+03  0.11874285476E+04  0.12603850754E+04  0.12699999809E+01 0. -1.
</event>
<event>
 5   0  0.4758908E-07  0.3336503E+04  0.7818609E-02  0.8153669E-01
        2   -1    0    0  501    0  0.00000000000E+00  0.00000000000E+00  0.19751373013E+04  0.19751373013E+04  0.25500000920E-02 0.  1.
       -2   -1    0    0    0  501  0.00000000000E+00  0.00000000000E+00 -0.14090482109E+04  0.14090482109E+04  0.25500000920E-02 0. -1.
    10030    2    1    2    0    0  0.00000000000E+00  0.00000000000E+00  0.56608909035E+03  0.33841855122E+04  0.33365033677E+04 0.  0.
        2    1    3    3  502    0 -0.32949874919E+03  0.10392678732E+04 -0.99770287636E+03  0.14778559360E+04  0.25500000920E-02 0. -1.
       -2    1    3    3    0  502  0.32949874919E+03 -0.10392678732E+04  0.15637919667E+04  0.19063295762E+04  0.25500000920E-02 0.  1.
</event>
<event>
 5   0  0.1496000E-07  0.3696301E+04  0.7818609E-02  0.8068782E-01
        1   -1    0    0  501    0  0.00000000000E+00  0.00000000000E+00  0.20000376621E+04  0.20000376621E+04  0.50400001928E-02 0.  1.
       -1   -1    0    0    0  501  0.00000000000E+00  0.00000000000E+00 -0.17077978181E+04  0.17077978181E+04  0.50400001928E-02 0. -1.
    10030    2    1    2    0    0  0.00000000000E+00  0.00000000000E+00  0.29223984408E+03  0.37078354802E+04  0.36963008295E+04 0.  0.
        5    1    3    3  502    0 -0.16933471648E+03  0.15738835252E+04 -0.81071950995E+03  0.17785026879E+04  0.46999998093E+01 0. -1.
       -5    1    3    3    0  502  0.16933471648E+03 -0.15738835252E+04  0.11029593540E+04  0.19293327923E+04  0.46999998093E+01 0.  1.
</event>
<event>
 5   0  0.1496000E-07  0.3701559E+04  0.7818609E-02  0.8067616E-01
       -1   -1    0    0    0  501  0.00000000000E+00  0.00000000000E+00  0.18697316799E+04  0.18697316799E+04  0.50400001928E-02 0.  1.
        1   -1    0    0  501    0  0.00000000000E+00  0.00000000000E+00 -0.18320192937E+04  0.18320192938E+04  0.50400001928E-02 0. -1.
    10030    2    1    2    0    0  0.00000000000E+00  0.00000000000E+00  0.37712386163E+02  0.37017509737E+04  0.37015588672E+04 0.  0.
        5    1    3    3  502    0  0.27259093373E+03 -0.18240830921E+04  0.17306366930E+03  0.18524465087E+04  0.46999998093E+01 0.  1.
       -5    1    3    3    0  502 -0.27259093373E+03  0.18240830921E+04 -0.13535128314E+03  0.18493044649E+04  0.46999998093E+01 0. -1.
</event>
<event>
 5   0  0.4824268E-07  0.3954337E+04  0.7818609E-02  0.8013822E-01
        2   -1    0    0  501    0  0.00000000000E+00  0.00000000000E+00  0.26138154408E+04  0.26138154408E+04  0.25500000920E-02 0.  1.
       -2   -1    0    0    0  501  0.00000000000E+00  0.00000000000E+00 -0.14955894065E+04  0.14955894065E+04  0.25500000920E-02 0. -1.
    10030    2    1    2    0    0  0.00000000000E+00  0.00000000000E+00  0.11182260343E+04  0.41094048473E+04  0.39543366998E+04 0.  0.
        1    1    3    3  502    0  0.14354397622E+04  0.44830274632E+03  0.18930907313E+04  0.24176962548E+04  0.50400001928E-02 0.  1.
       -1    1    3    3    0  502 -0.14354397622E+04 -0.44830274632E+03 -0.77486469707E+03  0.16917085925E+04  0.50400001928E-02 0. -1.
</event>
<event>
 5   0  0.4857514E-07  0.3687109E+04  0.7818609E-02  0.8070825E-01
       -2   -1    0    0    0  501  0.00000000000E+00  0.00000000000E+00  0.30377588597E+04  0.30377588597E+04  0.25500000920E-02 0. -1.
        2   -1    0    0  501    0  0.00000000000E+00  0.00000000000E+00 -0.11188158397E+04  0.11188158397E+04  0.25500000920E-02 0.  1.
    10030    2    1    2    0    0  0.00000000000E+00  0.00000000000E+00  0.19189430200E+04  0.41565746994E+04  0.36871087478E+04 0.  0.
        5    1    3    3  502    0 -0.11796665043E+04  0.11643334442E+04  0.18693189746E+04  0.24983316332E+04  0.46999998093E+01 0. -1.
       -5    1    3    3    0  502  0.11796665043E+04 -0.11643334442E+04  0.49624045345E+02  0.16582430662E+04  0.46999998093E+01 0.  1.
</event>
<event>
 5   0  0.4857514E-07  0.3703667E+04  0.7818609E-02  0.8067150E-01
        2   -1    0    0  501    0  0.00000000000E+00  0.00000000000E+00  0.12232640535E+04  0.12232640535E+04  0.25500000920E-02 0.  1.
       -2   -1    0    0    0  501  0.00000000000E+00  0.00000000000E+00 -0.28033914984E+04  0.28033914984E+04  0.25500000920E-02 0. -1.
    10030    2    1    2    0    0  0.00000000000E+00  0.00000000000E+00 -0.15801274449E+04  0.40266555519E+04  0.37036673976E+04 0.  0.
        5    1    3    3  502    0 -0.10464331773E+02 -0.18476539449E+04 -0.92468161360E+03  0.20661541033E+04  0.46999998093E+01 0.  1.
       -5    1    3    3    0  502  0.10464331773E+02  0.18476539449E+04 -0.65544583127E+03  0.19605014486E+04  0.46999998093E+01 0. -1.
</event>
<event>
 5   0  0.1522273E-07  0.3628681E+04  0.7818609E-02  0.8083953E-01
       -1   -1    0    0    0  501  0.00000000000E+00  0.00000000000E+00  0.16921326212E+04  0.16921326212E+04  0.50400001928E-02 0. -1.
        1   -1    0    0  501    0  0.00000000000E+00  0.00000000000E+00 -0.19453743987E+04  0.19453743987E+04  0.50400001928E-02 0.  1.
    10030    2    1    2    0    0  0.00000000000E+00  0.00000000000E+00 -0.25324177741E+03  0.36375070199E+04  0.36286810168E+04 0.  0.
        4    1    3    3  502    0  0.22345638725E+03 -0.78067406724E+03  0.14998066143E+04  0.17055222806E+04  0.12699999809E+01 0. -1.
       -4    1    3    3    0  502 -0.22345638725E+03  0.78067406724E+03 -0.17530483917E+04  0.19319847393E+04  0.12699999809E+01 0.  1.
</event>
<event>
 5   0  0.1522273E-07  0.3669019E+04  0.7818609E-02  0.8074863E-01
        1   -1    0    0  501    0  0.00000000000E+00  0.00000000000E+00  0.13720647605E+04  0.13720647605E+04  0.50400001928E-02 0.  1.
       -1   -1    0    0    0  501  0.00000000000E+00  0.00000000000E+00 -0.24528173943E+04  0.24528173944E+04  0.50400001928E-02 0. -1.
    10030    2    1    2    0    0  0.00000000000E+00  0.00000000000E+00 -0.10807526339E+04  0.38248821548E+04  0.36690185667E+04 0.  0.
        4    1    3    3  502    0  0.14644915878E+04 -0.57165761837E+03  0.44524779562E+03  0.16339446917E+04  0.12699999809E+01 0.  1.
       -4    1    3    3    0  502 -0.14644915878E+04  0.57165761837E+03 -0.15260004295E+04  0.21909374631E+04  0.12699999809E+01 0. -1.
</event>
<event>
 5   0  0.1496000E-07  0.3664150E+04  0.7818609E-02  0.8075953E-01
        1   -1    0    0  501    0  0.00000000000E+00  0.00000000000E+00  0.19159976974E+04  0.19159976974E+04  0.50400001928E-02 0.  1.
       -1   -1    0    0    0  501  0.00000000000E+00  0.00000000000E+00 -0.17518281013E+04  0.17518281013E+04  0.50400001928E-02 0. -1.
    10030    2    1    2    0    0  0.00000000000E+00  0.00000000000E+00  0.16416959607E+03  0.36678257987E+04  0.36641498923E+04 0.  0.
        2    1    3    3  502    0  0.45558956004E+03 -0.17262757700E+04 -0.32931257477E+03  0.18154990094E+04  0.25500000920E-02 0. -1.
       -2    1    3    3    0  502 -0.45558956004E+03  0.17262757700E+04  0.49348217084E+03  0.18523267893E+04  0.25500000920E-02 0.  1.
</event>
<event>
 5   0  0.4824268E-07  0.3734853E+04  0.7818609E-02  0.8060282E-01
        2   -1    0    0  501    0  0.00000000000E+00  0.00000000000E+00  0.18486729425E+04  0.18486729426E+04  0.25500000920E-02 0. -1.
       -2   -1    0    0    0  501  0.00000000000E+00  0.00000000000E+00 -0.18863700798E+04  0.18863700798E+04  0.25500000920E-02 0.  1.
    10030    2    1    2    0    0  0.00000000000E+00  0.00000000000E+00 -0.37697137252E+02  0.37350430224E+04  0.37348527822E+04 0.  0.
        1    1    3    3  502    0 -0.50260806285E+03 -0.15093380007E+03 -0.18111132426E+04  0.18856105257E+04  0.50400001928E-02 0.  1.
       -1    1    3    3    0  502  0.50260806285E+03  0.15093380007E+03  0.17734161054E+04  0.18494324967E+04  0.50400001928E-02 0. -1.
</event>
<event>
 5   0  0.4857514E-07  0.3728568E+04  0.7818609E-02  0.8061660E-01
        2   -1    0    0  501    0  0.00000000000E+00  0.00000000000E+00  0.24516323459E+04  0.24516323459E+04  0.25500000920E-02 0.  1.
       -2   -1    0    0    0  501  0.00000000000E+00  0.00000000000E+00 -0.14176489539E+04  0.14176489539E+04  0.25500000920E-02 0. -1.
    10030    2    1    2    0    0  0.00000000000E+00  0.00000000000E+00  0.10339833920E+04  0.38692812997E+04  0.37285675697E+04 0.  0.
        5    1    3    3  502    0 -0.17606865341E+04 -0.57443298565E+03  0.29553312348E+03  0.18754605417E+04  0.46999998093E+01 0.  1.
       -5    1    3    3    0  502  0.17606865341E+04  0.57443298565E+03  0.73845026848E+03  0.19938207581E+04  0.46999998093E+01 0. -1.
</event>
<event>
 5   0  0.4793557E-07  0.3679611E+04  0.7818609E-02  0.8072495E-01
       -2   -1    0    0    0  501  0.00000000000E+00  0.00000000000E+00  0.23693812993E+04  0.23693812993E+04  0.25500000920E-02 0.  1.
        2   -1    0    0  501    0  0.00000000000E+00  0.00000000000E+00 -0.14285943355E+04  0.14285943355E+04  0.25500000920E-02 0. -1.
    10030    2    1    2    0    0  0.00000000000E+00  0.00000000000E+00  0.94078696383E+03  0.37979756349E+04  0.36796112310E+04 0.  0.
        3    1    3    3  502    0  0.46495165409E+03  0.68010294647E+03 -0.12275660901E+04  0.14783905351E+04  0.10100000352E+00 0. -1.
       -3    1    3    3    0  502 -0.46495165409E+03 -0.68010294647E+03  0.21683530539E+04  0.23195850998E+04  0.10100000352E+00 0.  1.
</event>
<event>
 5   0  0.1496287E-07  0.3683443E+04  0.7818609E-02  0.8071641E-01
       -1   -1    0    0    0  501  0.00000000000E+00  0.00000000000E+00  0.23270571638E+04  0.23270571638E+04  0.50400001928E-02 0. -1.
        1   -1    0    0  501    0  0.00000000000E+00  0.00000000000E+00 -0.14576086812E+04  0.14576086813E+04  0.50400001928E-02 0.  1.
    10030    2    1    2    0    0  0.00000000000E+00  0.00000000000E+00  0.86944848256E+03  0.37846658451E+04  0.36834433476E+04 0.  0.
        1    1    3    3  502    0 -0.11233855330E+03  0.15100823872E+04 -0.64240162764E+03  0.16448855941E+04  0.50400001928E-02 0.  1.
       -1    1    3    3    0  502  0.11233855330E+03 -0.15100823872E+04  0.15118501102E+04  0.21397802509E+04  0.50400001928E-02 0. -1.
</event>
<event>
 5   0  0.4824268E-07  0.3672774E+04  0.7818609E-02  0.8074022E-01
       -2   -1    0    0    0  501  0.00000000000E+00  0.00000000000E+00  0.21888603653E+04  0.21888603653E+04  0.25500000920E-02 0. -1.
        2   -1    0    0  501    0  0.00000000000E+00  0.00000000000E+00 -0.15406722951E+04  0.15406722952E+04  0.25500000920E-02 0.  1.
    10030    2    1    2    0    0  0.00000000000E+00  0.00000000000E+00  0.64818807016E+03  0.37295326605E+04  0.36727736237E+04 0.  0.
        1    1    3    3  502    0  0.11512447983E+04  0.13998688088E+04  0.62415898206E+03  0.19169172394E+04  0.50400001928E-02 0. -1.
       -1    1    3    3    0  502 -0.11512447983E+04 -0.13998688088E+04  0.24029088101E+02  0.18126154211E+04  0.50400001928E-02 0.  1.
</event>
<event>
 5   0  0.1522273E-07  0.3463114E+04  0.7818609E-02  0.8122587E-01
        1   -1    0    0  501    0  0.00000000000E+00  0.00000000000E+00  0.18391617944E+04  0.18391617944E+04  0.50400001928E-02 0. -1.
       -1   -1    0    0    0  501  0.00000000000E+00  0.00000000000E+00 -0.16302481559E+04  0.16302481559E+04  0.50400001928E-02 0.  1.
    10030    2    1    2    0    0  0.00000000000E+00  0.00000000000E+00  0.20891363854E+03  0.34694099503E+04  0.34631142769E+04 0.  0.
        4    1    3    3  502    0  0.15115793270E+04  0.64416953698E+02  0.94816769022E+03  0.17855097836E+04  0.12699999809E+01 0. -1.
       -4    1    3    3    0  502 -0.15115793270E+04 -0.64416953698E+02 -0.73925405169E+03  0.16839001667E+04  0.12699999809E+01 0.  1.
</event>
<event>
 5   0  0.4793557E-07  0.3697660E+04  0.7818609E-02  0.8068481E-01
        2   -1    0    0  501    0  0.00000000000E+00  0.00000000000E+00  0.21159051256E+04  0.21159051256E+04  0.25500000920E-02 0.  1.
       -2   -1    0    0    0  501  0.00000000000E+00  0.00000000000E+00 -0.16154659448E+04  0.16154659448E+04  0.25500000920E-02 0. -1.
    10030    2    1    2    0    0  0.00000000000E+00  0.00000000000E+00  0.50043918086E+03  0.37313710704E+04  0.36976601644E+04 0.  0.
        3    1    3    3  502    0 -0.13195709969E+04 -0.86021605282E+03  0.12269974423E+04  0.19966877590E+04  0.10100000352E+00 0.  1.
       -3    1    3    3    0  502  0.13195709969E+04  0.86021605282E+03 -0.72655826140E+03  0.17346833114E+04  0.10100000352E+00 0. -1.
</event>
<event>
 5   0  0.4687817E-07  0.3818058E+04  0.7818609E-02  0.8042291E-01
       -2   -1    0    0    0  501  0.00000000000E+00  0.00000000000E+00  0.19440014077E+04  0.19440014077E+04  0.25500000920E-02 0. -1.
        2   -1    0    0  501    0  0.00000000000E+00  0.00000000000E+00 -0.18746855490E+04  0.18746855490E+04  0.25500000920E-02 0.  1.
    10030    2    1    2    0    0  0.00000000000E+00  0.00000000000E+00  0.69315858692E+02  0.38186869566E+04  0.38180578027E+04 0.  0.
        4    1    3    3  502    0  0.18543595167E+04 -0.36389276987E+03 -0.23616809381E+03  0.19044275115E+04  0.12699999809E+01 0.  1.
       -4    1    3    3    0  502 -0.18543595167E+04  0.36389276987E+03  0.30548395250E+03  0.19142594451E+04  0.12699999809E+01 0. -1.
</event>
<event>
 5   0  0.1496287E-07  0.3698052E+04  0.7818609E-02  0.8068394E-01
       -1   -1    0    0    0  501  0.00000000000E+00  0.00000000000E+00  0.13118520665E+04  0.13118520665E+04  0.50400001928E-02 0. -1.
        1   -1    0    0  501    0  0.00000000000E+00  0.00000000000E+00 -0.26061606750E+04  0.26061606750E+04  0.50400001928E-02 0.  1.
    10030    2    1    2    0    0  0.00000000000E+00  0.00000000000E+00 -0.12943086085E+04  0.39180127414E+04  0.36980520640E+04 0.  0.
        1    1    3    3  502    0  0.10398905636E+04 -0.93614979405E+03  0.63352382530E+03  0.15359366062E+04  0.50400001928E-02 0.  1.
       -1    1    3    3    0  502 -0.10398905636E+04  0.93614979405E+03 -0.19278324338E+04  0.23820761352E+04  0.50400001928E-02 0. -1.
</event>
<event>
 5   0  0.4824268E-07  0.3722134E+04  0.7818609E-02  0.8063074E-01
        2   -1    0    0  501    0  0.00000000000E+00  0.00000000000E+00  0.29254110633E+04  0.29254110633E+04  0.25500000920E-02 0. -1.
       -2   -1    0    0    0  501  0.00000000000E+00  0.00000000000E+00 -0.11839601270E+04  0.11839601270E+04  0.25500000920E-02 0.  1.
    10030    2    1    2    0    0  0.00000000000E+00  0.00000000000E+00  0.17414509363E+04  0.41093711902E+04  0.37221338256E+04 0.  0.
        1    1    3    3  502    0 -0.14657947312E+04 -0.28360672132E+03  0.20974401125E+04  0.25745372384E+04  0.50400001928E-02 0. -1.
       -1    1    3    3    0  502  0.14657947312E+04  0.28360672132E+03 -0.35598917619E+03  0.15348339519E+04  0.50400001928E-02 0.  1.
</event>
<event>
 5   0  0.1496000E-07  0.3783015E+04  0.7818609E-02  0.8049810E-01
       -1   -1    0    0    0  501  0.00000000000E+00  0.00000000000E+00  0.16455449916E+04  0.16455449916E+04  0.50400001928E-02 0. -1.
        1   -1    0    0  501    0  0.00000000000E+00  0.00000000000E+00 -0.21742341585E+04  0.21742341585E+04  0.50400001928E-02 0.  1.
    10030    2    1    2    0    0  0.00000000000E+00  0.00000000000E+00 -0.52868916687E+03  0.38197791501E+04  0.37830147397E+04 0.  0.
        5    1    3    3  502    0 -0.66577485086E+03  0.68239407829E+03  0.13851964897E+04  0.16815793871E+04  0.46999998093E+01 0. -1.
       -5    1    3    3    0  502  0.66577485086E+03 -0.68239407829E+03 -0.19138856566E+04  0.21381997630E+04  0.46999998093E+01 0.  1.
</event>
<event>
 5   0  0.1496000E-07  0.3695147E+04  0.7818609E-02  0.8069038E-01
       -1   -1    0    0    0  501  0.00000000000E+00  0.00000000000E+00  0.17896792123E+04  0.17896792124E+04  0.50400001928E-02 0.  1.
        1   -1    0    0  501    0  0.00000000000E+00  0.00000000000E+00 -0.19073403907E+04  0.19073403908E+04  0.50400001928E-02 0. -1.
    10030    2    1    2    0    0  0.00000000000E+00  0.00000000000E+00 -0.11766117840E+03  0.36970196031E+04  0.36951467891E+04 0.  0.
        5    1    3    3  502    0 -0.11714751131E+03 -0.13892698293E+04  0.11541002940E+04  0.18099071182E+04  0.46999998093E+01 0. -1.
       -5    1    3    3    0  502  0.11714751131E+03  0.13892698293E+04 -0.12717614724E+04  0.18871124849E+04  0.46999998093E+01 0.  1.
</event>
<event>
 5   0  0.1496287E-07  0.3119622E+04  0.7818609E-02  0.8210373E-01
        1   -1    0    0  501    0  0.00000000000E+00  0.00000000000E+00  0.26997794981E+04  0.26997794981E+04  0.50400001928E-02 0. -1.
       -1   -1    0    0    0  501  0.00000000000E+00  0.00000000000E+00 -0.90118868348E+03  0.90118868349E+03  0.50400001928E-02 0.  1.
    10030    2    1    2    0    0  0.00000000000E+00  0.00000000000E+00  0.17985908146E+04  0.36009681816E+04  0.31196222410E+04 0.  0.
        1    1    3    3  502    0  0.40995762953E+03  0.55361731448E+03 -0.71608157688E+03  0.99364491328E+03  0.50400001928E-02 0.  1.
       -1    1    3    3    0  502 -0.40995762953E+03 -0.55361731448E+03  0.25146723915E+04  0.26073232683E+04  0.50400001928E-02 0. -1.
</event>
<event>
 5   0  0.1496000E-07  0.3724196E+04  0.7818609E-02  0.8062621E-01
       -1   -1    0    0    0  501  0.00000000000E+00  0.00000000000E+00  0.11778760304E+04  0.11778760304E+04  0.50400001928E-02 0. -1.
        1   -1    0    0  501    0  0.00000000000E+00  0.00000000000E+00 -0.29437815358E+04  0.29437815358E+04  0.50400001928E-02 0.  1.
    10030    2    1    2    0    0  0.00000000000E+00  0.00000000000E+00 -0.17659055054E+04  0.41216575663E+04  0.37241964018E+04 0.  0.
        3    1    3    3  502    0 -0.36854937494E+03 -0.13480666656E+04  0.47894626989E+03  0.14773293189E+04  0.10100000352E+00 0. -1.
       -3    1    3    3    0  502  0.36854937494E+03  0.13480666656E+04 -0.22448517753E+04  0.26443282474E+04  0.10100000352E+00 0.  1.
</event>
<event>
 5   0  0.1496000E-07  0.3697953E+04  0.7818609E-02  0.8068416E-01
        1   -1    0    0  501    0  0.00000000000E+00  0.00000000000E+00  0.20392930350E+04  0.20392930350E+04  0.50400001928E-02 0. -1.
       -1   -1    0    0    0  501  0.00000000000E+00  0.00000000000E+00 -0.16764211532E+04  0.16764211532E+04  0.50400001928E-02 0.  1.
    10030    2    1    2    0    0  0.00000000000E+00  0.00000000000E+00  0.36287188186E+03  0.37157141882E+04  0.36979529372E+04 0.  0.
        3    1    3    3  502    0  0.16433375087E+04  0.78424299107E+03 -0.14122746148E+03  0.18263462001E+04  0.10100000352E+00 0.  1.
       -3    1    3    3    0  502 -0.16433375087E+04 -0.78424299107E+03  0.50409934334E+03  0.18893679881E+04  0.10100000352E+00 0. -1.
</event>
<event>
 5   0  0.1522273E-07  0.3700644E+04  0.7818609E-02  0.8067819E-01
       -1   -1    0    0    0  501  0.00000000000E+00  0.00000000000E+00  0.12719654967E+04  0.12719654967E+04  0.50400001928E-02 0.  1.
        1   -1    0    0  501    0  0.00000000000E+00  0.00000000000E+00 -0.26916544562E+04  0.26916544562E+04  0.50400001928E-02 0. -1.
    10030    2    1    2    0    0  0.00000000000E+00  0.00000000000E+00 -0.14196889595E+04  0.39636199529E+04  0.37006440506E+04 0.  0.
        4    1    3    3  502    0 -0.10657955543E+04  0.82211263321E+03 -0.20696719980E+04  0.24688728476E+04  0.12699999809E+01 0. -1.
       -4    1    3    3    0  502  0.10657955543E+04 -0.82211263321E+03  0.64998303856E+03  0.14947471053E+04  0.12699999809E+01 0.  1.
</event>
<event>
 5   0  0.1496000E-07  0.3636292E+04  0.7818609E-02  0.8082229E-01
        1   -1    0    0  501    0  0.00000000000E+00  0.00000000000E+00  0.11809070473E+04  0.11809070473E+04  0.50400001928E-02 0.  1.
       -1   -1    0    0    0  501  0.00000000000E+00  0.00000000000E+00 -0.27992509865E+04  0.27992509865E+04  0.50400001928E-02 0. -1.
    10030    2    1    2    0    0  0.00000000000E+00  0.00000000000E+00 -0.16183439392E+04  0.39801580338E+04  0.36362921868E+04 0.  0.
        3    1    3    3  502    0 -0.51443700071E+03 -0.11793685004E+04 -0.22152086114E+04  0.25617776425E+04  0.10100000352E+00 0. -1.
       -3    1    3    3    0  502  0.51443700071E+03  0.11793685004E+04  0.59686467213E+03  0.14183803913E+04  0.10100000352E+00 0.  1.
</event>
<event>
 5   0  0.1496287E-07  0.3669919E+04  0.7818609E-02  0.8074661E-01
        1   -1    0    0  501    0  0.00000000000E+00  0.00000000000E+00  0.36379689427E+04  0.36379689427E+04  0.50400001928E-02 0. -1.
       -1   -1    0    0    0  501  0.00000000000E+00  0.00000000000E+00 -0.92553718084E+03  0.92553718085E+03  0.50400001928E-02 0.  1.
    10030    2    1    2    0    0  0.00000000000E+00  0.00000000000E+00  0.27124317619E+04  0.45635061236E+04  0.36699185382E+04 0.  0.
        1    1    3    3  502    0 -0.70877098649E+03  0.16431232485E+04  0.18611174358E+04  0.25818536811E+04  0.50400001928E-02 0.  1.
       -1    1    3    3    0  502  0.70877098649E+03 -0.16431232485E+04  0.85131432611E+03  0.19816524425E+04  0.50400001928E-02 0. -1.
</event>
<event>
 5   0  0.1496000E-07  0.3505216E+04  0.7818609E-02  0.8112555E-01
        1   -1    0    0  501    0  0.00000000000E+00  0.00000000000E+00  0.22773224581E+04  0.22773224581E+04  0.50400001928E-02 0. -1.
       -1   -1    0    0    0  501  0.00000000000E+00  0.00000000000E+00 -0.13487920791E+04  0.13487920791E+04  0.50400001928E-02 0.  1.
    10030    2    1    2    0    0  0.00000000000E+00  0.00000000000E+00  0.92853037893E+03  0.36261145372E+04  0.35052158239E+04 0.  0.
        5    1    3    3  502    0  0.14102440964E+04  0.87211655485E+03 -0.12297295720E+03  0.16626846168E+04  0.46999998093E+01 0.  1.
       -5    1    3    3    0  502 -0.14102440964E+04 -0.87211655485E+03  0.10515033361E+04  0.19634299204E+04  0.46999998093E+01 0. -1.
</event>
<event>
 5   0  0.4793557E-07  0.3671487E+04  0.7818609E-02  0.8074310E-01
       -2   -1    0    0    0  501  0.00000000000E+00  0.00000000000E+00  0.34415745749E+04  0.34415745749E+04  0.25500000920E-02 0. -1.
        2   -1    0    0  501    0  0.00000000000E+00  0.00000000000E+00 -0.97918970953E+03  0.97918970954E+03  0.25500000920E-02 0.  1.
    10030    2    1    2    0    0  0.00000000000E+00  0.00000000000E+00  0.24623848654E+04  0.44207642845E+04  0.36714871147E+04 0.  0.
        3    1    3    3  502    0  0.11925736050E+04  0.13364356416E+04  0.17153200101E+04  0.24800433010E+04  0.10100000352E+00 0.  1.
       -3    1    3    3    0  502 -0.11925736050E+04 -0.13364356416E+04  0.74706485525E+03  0.19407209835E+04  0.10100000352E+00 0. -1.
</event>
<event>
 5   0  0.4758908E-07  0.3683620E+04  0.7818609E-02  0.8071602E-01
        2   -1    0    0  501    0  0.00000000000E+00  0.00000000000E+00  0.35823377159E+04  0.35823377159E+04  0.25500000920E-02 0. -1.
       -2   -1    0    0    0  501  0.00000000000E+00  0.00000000000E+00 -0.94694134625E+03  0.94694134625E+03  0.25500000920E-02 0.  1.
    10030    2    1    2    0    0  0.00000000000E+00  0.00000000000E+00  0.26353963696E+04  0.45292790621E+04  0.36836197955E+04 0.  0.
        2    1    3    3  502    0  0.69588445687E+03 -0.11763686722E+04  0.28356930835E+04  0.31478967096E+04  0.25500000920E-02 0. -1.
       -2    1    3    3    0  502 -0.69588445687E+03  0.11763686722E+04 -0.20029671392E+03  0.13813823525E+04  0.25500000920E-02 0.  1.
</event>
<event>
 5   0  0.1496000E-07  0.3646661E+04  0.7818609E-02  0.8079886E-01
        1   -1    0    0  501    0  0.00000000000E+00  0.00000000000E+00  0.16545898010E+04  0.16545898010E+04  0.50400001928E-02 0.  1.
       -1   -1    0    0    0  501  0.00000000000E+00  0.00000000000E+00 -0.20092803372E+04  0.20092803372E+04  0.50400001928E-02 0. -1.
    10030    2    1    2    0    0  0.00000000000E+00  0.00000000000E+00 -0.35469053623E+03  0.36638701382E+04  0.36466613516E+04 0.  0.
        5    1    3    3  502    0 -0.11588468094E+04  0.37001781521E+03 -0.15419422250E+04  0.19640384484E+04  0.46999998093E+01 0. -1.
       -5    1    3    3    0  502  0.11588468094E+04 -0.37001781521E+03  0.11872516888E+04  0.16998316899E+04  0.46999998093E+01 0.  1.
</event>
<event>
 5   0  0.4793557E-07  0.3712175E+04  0.7818609E-02  0.8065269E-01
       -2   -1    0    0    0  501  0.00000000000E+00  0.00000000000E+00  0.13998940317E+04  0.13998940317E+04  0.25500000920E-02 0. -1.
        2   -1    0    0  501    0  0.00000000000E+00  0.00000000000E+00 -0.24609437884E+04  0.24609437884E+04  0.25500000920E-02 0.  1.
    10030    2    1    2    0    0  0.00000000000E+00  0.00000000000E+00 -0.10610497567E+04  0.38608378200E+04  0.37121748459E+04 0.  0.
        3    1    3    3  502    0  0.15864009992E+03  0.27665587905E+03 -0.24322353797E+04  0.24530540371E+04  0.10100000352E+00 0.  1.
       -3    1    3    3    0  502 -0.15864009992E+03 -0.27665587905E+03  0.13711856229E+04  0.14077837829E+04  0.10100000352E+00 0. -1.
</event>
<event>
 5   0  0.4824268E-07  0.3715228E+04  0.7818609E-02  0.8064595E-01
        2   -1    0    0  501    0  0.00000000000E+00  0.00000000000E+00  0.19453973661E+04  0.19453973661E+04  0.25500000920E-02 0. -1.
       -2   -1    0    0    0  501  0.00000000000E+00  0.00000000000E+00 -0.17737919714E+04  0.17737919714E+04  0.25500000920E-02 0.  1.
    10030    2    1    2    0    0  0.00000000000E+00  0.00000000000E+00  0.17160539470E+03  0.37191893375E+04  0.37152282456E+04 0.  0.
        1    1    3    3  502    0 -0.10895394526E+04 -0.13184511517E+04  0.81136547050E+03  0.18930725250E+04  0.50400001928E-02 0. -1.
       -1    1    3    3    0  502  0.10895394526E+04  0.13184511517E+04 -0.63976007580E+03  0.18261168125E+04  0.50400001928E-02 0.  1.
</event>
<event>
 5   0  0.4687817E-07  0.3711786E+04  0.7818609E-02  0.8065355E-01
        2   -1    0    0  501    0  0.00000000000E+00  0.00000000000E+00  0.19274930279E+04  0.19274930279E+04  0.25500000920E-02 0. -1.
       -2   -1    0    0    0  501  0.00000000000E+00  0.00000000000E+00 -0.17869524763E+04  0.17869524763E+04  0.25500000920E-02 0.  1.
    10030    2    1    2    0    0  0.00000000000E+00  0.00000000000E+00  0.14054055166E+03  0.37144455042E+04  0.37117857909E+04 0.  0.
        4    1    3    3  502    0  0.13191933755E+04 -0.12408457927E+04 -0.33544270824E+03  0.18418721092E+04  0.12699999809E+01 0.  1.
       -4    1    3    3    0  502 -0.13191933755E+04  0.12408457927E+04  0.47598325990E+03  0.18725733950E+04  0.12699999809E+01 0. -1.
</event>
<event>
 5   0  0.4758908E-07  0.3689355E+04  0.7818609E-02  0.8070325E-01
       -2   -1    0    0    0  501  0.00000000000E+00  0.00000000000E+00  0.24306547556E+04  0.24306547556E+04  0.25500000920E-02 0.  1.
        2   -1    0    0  501    0  0.00000000000E+00  0.00000000000E+00 -0.13999660650E+04  0.13999660650E+04  0.25500000920E-02 0. -1.
    10030    2    1    2    0    0  0.00000000000E+00  0.00000000000E+00  0.10306886905E+04  0.38306208206E+04  0.36893545092E+04 0.  0.
        2    1    3    3  502    0 -0.17410769482E+04 -0.24081384853E+03  0.10966885407E+04  0.20717301959E+04  0.25500000920E-02 0.  1.
       -2    1    3    3    0  502  0.17410769482E+04  0.24081384853E+03 -0.65999850215E+02  0.17588906247E+04  0.25500000920E-02 0. -1.
</event>
<event>
 5   0  0.1496000E-07  0.3720617E+04  0.7818609E-02  0.8063408E-01
        1   -1    0    0  501    0  0.00000000000E+00  0.00000000000E+00  0.22669651196E+04  0.22669651197E+04  0.50400001928E-02 0.  1.
       -1   -1    0    0    0  501  0.00000000000E+00  0.00000000000E+00 -0.15265994116E+04  0.15265994117E+04  0.50400001928E-02 0. -1.
    10030    2    1    2    0    0  0.00000000000E+00  0.00000000000E+00  0.74036570800E+03  0.37935645313E+04  0.37206169477E+04 0.  0.
        5    1    3    3  502    0  0.16087783061E+04 -0.52617823150E+03 -0.41676192747E+03  0.17431992897E+04  0.46999998093E+01 0. -1.
       -5    1    3    3    0  502 -0.16087783061E+04  0.52617823150E+03  0.11571276355E+04  0.20503652416E+04  0.46999998093E+01 0.  1.
</event>
<event>
 5   0  0.4758908E-07  0.3721979E+04  0.7818609E-02  0.8063108E-01
        2   -1    0    0  501    0  0.00000000000E+00  0.00000000000E+00  0.15742445220E+04  0.15742445220E+04  0.25500000920E-02 0. -1.
       -2   -1    0    0    0  501  0.00000000000E+00  0.00000000000E+00 -0.21999638988E+04  0.21999638988E+04  0.25500000920E-02 0.  1.
    10030    2    1    2    0    0  0.00000000000E+00  0.00000000000E+00 -0.62571937678E+03  0.37742084208E+04  0.37219785686E+04 0.  0.
        2    1    3    3  502    0 -0.13808998326E+04  0.84463510841E+03  0.61816840369E+03  0.17327507003E+04  0.25500000920E-02 0. -1.
       -2    1    3    3    0  502  0.13808998326E+04 -0.84463510841E+03 -0.12438877805E+04  0.20414577205E+04  0.25500000920E-02 0.  1.
</event>
<event>
 5   0  0.1496000E-07  0.3357452E+04  0.7818609E-02  0.8148429E-01
       -1   -1    0    0    0  501  0.00000000000E+00  0.00000000000E+00  0.97707974528E+03  0.97707974530E+03  0.50400001928E-02 0.  1.
        1   -1    0    0  501    0  0.00000000000E+00  0.00000000000E+00 -0.28842276115E+04  0.28842276115E+04  0.50400001928E-02 0. -1.
    10030    2    1    2    0    0  0.00000000000E+00  0.00000000000E+00 -0.19071478662E+04  0.38613073568E+04  0.33574516408E+04 0.  0.
        5    1    3    3  502    0 -0.12082196545E+04 -0.48391975677E+02 -0.22927828416E+04  0.25921056625E+04  0.46999998093E+01 0. -1.
       -5    1    3    3    0  502  0.12082196545E+04  0.48391975677E+02  0.38563497534E+03  0.12692016944E+04  0.46999998093E+01 0.  1.
</event>
<event>
 5   0  0.1522273E-07  0.3666667E+04  0.7818609E-02  0.8075389E-01
        1   -1    0    0  501    0  0.00000000000E+00  0.00000000000E+00  0.18276883438E+04  0.18276883438E+04  0.50400001928E-02 0.  1.
       -1   -1    0    0    0  501  0.00000000000E+00  0.00000000000E+00 -0.18389960689E+04  0.18389960689E+04  0.50400001928E-02 0. -1.
    10030    2    1    2    0    0  0.00000000000E+00  0.00000000000E+00 -0.11307725057E+02  0.36666844127E+04  0.36666669767E+04 0.  0.
        4    1    3    3  502    0 -0.87641949962E+03  0.15812784797E+04 -0.30988761695E+03  0.18342804359E+04  0.12699999809E+01 0.  1.
       -4    1    3    3    0  502  0.87641949962E+03 -0.15812784797E+04  0.29857989190E+03  0.18324039768E+04  0.12699999809E+01 0. -1.
</event>
<event>
 5   0  0.1496000E-07  0.3693971E+04  0.7818609E-02  0.8069299E-01
        1   -1    0    0  501    0  0.00000000000E+00  0.00000000000E+00  0.22095920460E+04  0.22095920460E+04  0.50400001928E-02 0.  1.
       -1   -1    0    0    0  501  0.00000000000E+00  0.00000000000E+00 -0.15438847292E+04  0.15438847292E+04  0.50400001928E-02 0. -1.
    10030    2    1    2    0    0  0.00000000000E+00  0.00000000000E+00  0.66570731682E+03  0.37534767752E+04  0.36939709893E+04 0.  0.
        2    1    3    3  502    0  0.96361329221E+03 -0.14483013667E+04 -0.29781198254E+03  0.17648850961E+04  0.25500000920E-02 0. -1.
       -2    1    3    3    0  502 -0.96361329221E+03  0.14483013667E+04  0.96351929936E+03  0.19885916790E+04  0.25500000920E-02 0.  1.
</event>
<event>
 5   0  0.1522273E-07  0.3729496E+04  0.7818609E-02  0.8061456E-01
        1   -1    0    0  501    0  0.00000000000E+00  0.00000000000E+00  0.11248149334E+04  0.11248149334E+04  0.50400001928E-02 0.  1.
       -1   -1    0    0    0  501  0.00000000000E+00  0.00000000000E+00 -0.30914281943E+04  0.30914281943E+04  0.50400001928E-02 0. -1.
    10030    2    1    2    0    0  0.00000000000E+00  0.00000000000E+00 -0.19666132609E+04  0.42162431277E+04  0.37294957291E+04 0.  0.
        4    1    3    3  502    0 -0.79468935155E+03  0.18324242176E+03  0.91251131187E+03  0.12238412715E+04  0.12699999809E+01 0.  1.
       -4    1    3    3    0  502  0.79468935155E+03 -0.18324242176E+03 -0.28791245727E+04  0.29924018562E+04  0.12699999809E+01 0. -1.
</event>
<event>
 5   0  0.4824268E-07  0.3705464E+04  0.7818609E-02  0.8066752E-01
       -2   -1    0    0    0  501  0.00000000000E+00  0.00000000000E+00  0.31623533227E+04  0.31623533227E+04  0.25500000920E-02 0. -1.
        2   -1    0    0  501    0  0.00000000000E+00  0.00000000000E+00 -0.10854627626E+04  0.10854627626E+04  0.25500000920E-02 0.  1.
    10030    2    1    2    0    0  0.00000000000E+00  0.00000000000E+00  0.20768905601E+04  0.42478160853E+04  0.37054644913E+04 0.  0.
        1    1    3    3  502    0  0.75476859586E+03 -0.72816211021E+03 -0.71242695744E+03  0.12678516718E+04  0.50400001928E-02 0.  1.
       -1    1    3    3    0  502 -0.75476859586E+03  0.72816211021E+03  0.27893175175E+04  0.29799644135E+04  0.50400001928E-02 0. -1.
</event>
<event>
 5   0  0.4687817E-07  0.3688185E+04  0.7818609E-02  0.8070585E-01
       -2   -1    0    0    0  501  0.00000000000E+00  0.00000000000E+00  0.15122185204E+04  0.15122185204E+04  0.25500000920E-02 0. -1.
        2   -1    0    0  501    0  0.00000000000E+00  0.00000000000E+00 -0.22488004623E+04  0.22488004623E+04  0.25500000920E-02 0.  1.
    10030    2    1    2    0    0  0.00000000000E+00  0.00000000000E+00 -0.73658194191E+03  0.37610189826E+04  0.36881853032E+04 0.  0.
        4    1    3    3  502    0 -0.47206262606E+03 -0.13795834512E+04 -0.15195598461E+04  0.21059813296E+04  0.12699999809E+01 0.  1.
       -4    1    3    3    0  502  0.47206262606E+03  0.13795834512E+04  0.78297790421E+03  0.16550376531E+04  0.12699999809E+01 0. -1.
</event>
<event>
 5   0  0.1496000E-07  0.3704925E+04  0.7818609E-02  0.8066871E-01
        1   -1    0    0  501    0  0.00000000000E+00  0.00000000000E+00  0.17051029809E+04  0.17051029809E+04  0.50400001928E-02 0. -1.
       -1   -1    0    0    0  501  0.00000000000E+00  0.00000000000E+00 -0.20125573602E+04  0.20125573602E+04  0.50400001928E-02 0.  1.
    10030    2    1    2    0    0  0.00000000000E+00  0.00000000000E+00 -0.30745437928E+03  0.37176603411E+04  0.37049251297E+04 0.  0.
        3    1    3    3  502    0  0.10115829468E+04  0.14428780424E+04 -0.72702323458E+03  0.19062423501E+04  0.10100000352E+00 0.  1.
       -3    1    3    3    0  502 -0.10115829468E+04 -0.14428780424E+04  0.41956885530E+03  0.18114179910E+04  0.10100000352E+00 0. -1.
</event>
<event>
 5   0  0.4793557E-07  0.3677296E+04  0.7818609E-02  0.8073012E-01
        2   -1    0    0  501    0  0.00000000000E+00  0.00000000000E+00  0.24986615926E+04  0.24986615926E+04  0.25500000920E-02 0. -1.
       -2   -1    0    0    0  501  0.00000000000E+00  0.00000000000E+00 -0.13529750531E+04  0.13529750531E+04  0.25500000920E-02 0.  1.
    10030    2    1    2    0    0  0.00000000000E+00  0.00000000000E+00  0.11456865395E+04  0.38516366457E+04  0.36772961811E+04 0.  0.
        3    1    3    3  502    0 -0.10223539924E+04  0.22207876851E+03  0.21565119325E+04  0.23968876466E+04  0.10100000352E+00 0. -1.
       -3    1    3    3    0  502  0.10223539924E+04 -0.22207876851E+03 -0.10108253930E+04  0.14547489991E+04  0.10100000352E+00 0.  1.
</event>
<event>
 5   0  0.1496000E-07  0.3736666E+04  0.7818609E-02  0.8059885E-01
       -1   -1    0    0    0  501  0.00000000000E+00  0.00000000000E+00  0.12840272373E+04  0.12840272373E+04  0.50400001928E-02 0. -1.
        1   -1    0    0  501    0  0.00000000000E+00  0.00000000000E+00 -0.27185308216E+04  0.27185308216E+04  0.50400001928E-02 0.  1.
    10030    2    1    2    0    0  0.00000000000E+00  0.00000000000E+00 -0.14345035844E+04  0.40025580589E+04  0.37366656903E+04 0.  0.
        3    1    3    3  502    0 -0.56661776745E+03  0.10904770264E+02 -0.26242412600E+04  0.26847377543E+04  0.10100000352E+00 0.  1.
       -3    1    3    3    0  502  0.56661776745E+03 -0.10904770264E+02  0.11897376756E+04  0.13178203047E+04  0.10100000352E+00 0. -1.
</event>
<event>
 5   0  0.1496000E-07  0.3700805E+04  0.7818609E-02  0.8067784E-01
        1   -1    0    0  501    0  0.00000000000E+00  0.00000000000E+00  0.22132453279E+04  0.22132453279E+04  0.50400001928E-02 0. -1.
       -1   -1    0    0    0  501  0.00000000000E+00  0.00000000000E+00 -0.15470443783E+04  0.15470443783E+04  0.50400001928E-02 0.  1.
    10030    2    1    2    0    0  0.00000000000E+00  0.00000000000E+00  0.66620094964E+03  0.37602897062E+04  0.37008046380E+04 0.  0.
        2    1    3    3  502    0 -0.20207049560E+03  0.17017776736E+04 -0.37604971909E+03  0.17545065195E+04  0.25500000920E-02 0.  1.
       -2    1    3    3    0  502  0.20207049560E+03 -0.17017776736E+04  0.10422506687E+04  0.20057831867E+04  0.25500000920E-02 0. -1.
</event>
<event>
 5   0  0.4758908E-07  0.3632197E+04  0.7818609E-02  0.8083156E-01
       -2   -1    0    0    0  501  0.00000000000E+00  0.00000000000E+00  0.15452784070E+04  0.15452784070E+04  0.25500000920E-02 0.  1.
        2   -1    0    0  501    0  0.00000000000E+00  0.00000000000E+00 -0.21343820997E+04  0.21343820997E+04  0.25500000920E-02 0. -1.
    10030    2    1    2    0    0  0.00000000000E+00  0.00000000000E+00 -0.58910369264E+03  0.36796605067E+04  0.36321974456E+04 0.  0.
        2    1    3    3  502    0  0.56856554197E+03 -0.74850476374E+03  0.12796805737E+04  0.15877999016E+04  0.25500000920E-02 0.  1.
       -2    1    3    3    0  502 -0.56856554197E+03  0.74850476374E+03 -0.18687842664E+04  0.20918606051E+04  0.25500000920E-02 0. -1.
</event>
<event>
 5   0  0.1496000E-07  0.3618752E+04  0.7818609E-02  0.8086210E-01
       -3   -1    0    0    0  501  0.00000000000E+00  0.00000000000E+00  0.24726437062E+04  0.24726437083E+04  0.10100000352E+00 0. -1.
        3   -1    0    0  501    0  0.00000000000E+00  0.00000000000E+00 -0.13240244653E+04  0.13240244691E+04  0.10100000352E+00 0.  1.
    10030    2    1    2    0    0  0.00000000000E+00  0.00000000000E+00  0.11486192409E+04  0.37966681774E+04  0.36187515926E+04 0.  0.
        3    1    3    3  502    0 -0.45519762115E+03  0.65067147031E+03 -0.11314350357E+04  0.13822892197E+04  0.10100000352E+00 0.  1.
       -3    1    3    3    0  502  0.45519762115E+03 -0.65067147031E+03  0.22800542767E+04  0.24143789577E+04  0.10100000352E+00 0. -1.
</event>
<event>
 5   0  0.1496287E-07  0.3705454E+04  0.7818609E-02  0.8066754E-01
        1   -1    0    0  501    0  0.00000000000E+00  0.00000000000E+00  0.21104349317E+04  0.21104349317E+04  0.50400001928E-02 0.  1.
       -1   -1    0    0    0  501  0.00000000000E+00  0.00000000000E+00 -0.16264878225E+04  0.16264878225E+04  0.50400001928E-02 0. -1.
    10030    2    1    2    0    0  0.00000000000E+00  0.00000000000E+00  0.48394710923E+03  0.37369227542E+04  0.37054536654E+04 0.  0.
        1    1    3    3  502    0 -0.97607016172E+03 -0.10897265795E+04  0.13884570415E+04  0.20169357786E+04  0.50400001928E-02 0.  1.
       -1    1    3    3    0  502  0.97607016172E+03  0.10897265795E+04 -0.90450993229E+03  0.17199869756E+04  0.50400001928E-02 0. -1.
</event>
<event>
 5   0  0.4687817E-07  0.3725507E+04  0.7818609E-02  0.8062333E-01
        2   -1    0    0  501    0  0.00000000000E+00  0.00000000000E+00  0.19621681965E+04  0.19621681965E+04  0.25500000920E-02 0. -1.
       -2   -1    0    0    0  501  0.00000000000E+00  0.00000000000E+00 -0.17683752785E+04  0.17683752785E+04  0.25500000920E-02 0.  1.
    10030    2    1    2    0    0  0.00000000000E+00  0.00000000000E+00  0.19379291804E+03  0.37305434750E+04  0.37255065325E+04 0.  0.
        4    1    3    3  502    0  0.63009918618E+03 -0.17007217438E+04 -0.32837608432E+03  0.18431798338E+04  0.12699999809E+01 0. -1.
       -4    1    3    3    0  502 -0.63009918618E+03  0.17007217438E+04  0.52216900236E+03  0.18873636412E+04  0.12699999809E+01 0.  1.
</event>
<event>
 5   0  0.1496287E-07  0.3667898E+04  0.7818609E-02  0.8075113E-01
       -1   -1    0    0    0  501  0.00000000000E+00  0.00000000000E+00  0.25062978313E+04  0.25062978313E+04  0.50400001928E-02 0.  1.
        1   -1    0    0  501    0  0.00000000000E+00  0.00000000000E+00 -0.13419671038E+04  0.13419671038E+04  0.50400001928E-02 0. -1.
    10030    2    1    2    0    0  0.00000000000E+00  0.00000000000E+00  0.11643307275E+04  0.38482649351E+04  0.36678981675E+04 0.  0.
        1    1    3    3  502    0  0.97575455209E+03  0.59985017086E+03 -0.92055572389E+03  0.14694692968E+04  0.50400001928E-02 0. -1.
       -1    1    3    3    0  502 -0.97575455209E+03 -0.59985017086E+03  0.20848864514E+04  0.23787956383E+04  0.50400001928E-02 0.  1.
</event>
<event>
 5   0  0.4687817E-07  0.3698013E+04  0.7818609E-02  0.8068402E-01
        2   -1    0    0  501    0  0.00000000000E+00  0.00000000000E+00  0.26999182383E+04  0.26999182383E+04  0.25500000920E-02 0. -1.
       -2   -1    0    0    0  501  0.00000000000E+00  0.00000000000E+00 -0.12662699234E+04  0.12662699234E+04  0.25500000920E-02 0.  1.
    10030    2    1    2    0    0  0.00000000000E+00  0.00000000000E+00  0.14336483149E+04  0.39661881617E+04  0.36980131209E+04 0.  0.
        4    1    3    3  502    0  0.14139798454E+04  0.69752910111E+03  0.17527560666E+04  0.23575498493E+04  0.12699999809E+01 0. -1.
       -4    1    3    3    0  502 -0.14139798454E+04 -0.69752910111E+03 -0.31910775166E+03  0.16086383124E+04  0.12699999809E+01 0.  1.
</event>
<event>
 5   0  0.4857514E-07  0.3661221E+04  0.7818609E-02  0.8076610E-01
       -2   -1    0    0    0  501  0.00000000000E+00  0.00000000000E+00  0.29889864096E+04  0.29889864096E+04  0.25500000920E-02 0.  1.
        2   -1    0    0  501    0  0.00000000000E+00  0.00000000000E+00 -0.11211609128E+04  0.11211609128E+04  0.25500000920E-02 0. -1.
    10030    2    1    2    0    0  0.00000000000E+00  0.00000000000E+00  0.18678254968E+04  0.41101473224E+04  0.36612209610E+04 0.  0.
        5    1    3    3  502    0  0.88321519289E+03  0.21890637271E+03 -0.84928993314E+03  0.12447106320E+04  0.46999998093E+01 0. -1.
       -5    1    3    3    0  502 -0.88321519289E+03 -0.21890637271E+03  0.27171154299E+04  0.28654366904E+04  0.46999998093E+01 0.  1.
</event>
<event>
 5   0  0.1522273E-07  0.3702346E+04  0.7818609E-02  0.8067442E-01
       -1   -1    0    0    0  501  0.00000000000E+00  0.00000000000E+00  0.13756947092E+04  0.13756947092E+04  0.50400001928E-02 0. -1.
        1   -1    0    0  501    0  0.00000000000E+00  0.00000000000E+00 -0.24909904227E+04  0.24909904227E+04  0.50400001928E-02 0.  1.
    10030    2    1    2    0    0  0.00000000000E+00  0.00000000000E+00 -0.11152957135E+04  0.38666851320E+04  0.37023464696E+04 0.  0.
        4    1    3    3  502    0 -0.38526562024E+03 -0.11861334680E+04 -0.19863986865E+04  0.23454474108E+04  0.12699999809E+01 0.  1.
       -4    1    3    3    0  502  0.38526562024E+03  0.11861334680E+04  0.87110297302E+03  0.15212377212E+04  0.12699999809E+01 0. -1.
</event>
<event>
 5   0  0.4857514E-07  0.3722229E+04  0.7818609E-02  0.8063053E-01
        2   -1    0    0  501    0  0.00000000000E+00  0.00000000000E+00  0.10837638800E+04  0.10837638800E+04  0.25500000920E-02 0.  1.
       -2   -1    0    0    0  501  0.00000000000E+00  0.00000000000E+00 -0.31960357171E+04  0.31960357171E+04  0.25500000920E-02 0. -1.
    10030    2    1    2    0    0  0.00000000000E+00  0.00000000000E+00 -0.21122718371E+04  0.42797995971E+04  0.37222294767E+04 0.  0.
        5    1    3    3  502    0  0.12213558197E+04  0.60217439419E+03  0.40251896294E+03  0.14199886073E+04  0.46999998093E+01 0.  1.
       -5    1    3    3    0  502 -0.12213558197E+04 -0.60217439419E+03 -0.25147908000E+04  0.28598109898E+04  0.46999998093E+01 0. -1.
</event>
<event>
 5   0  0.1496000E-07  0.3525605E+04  0.7818609E-02  0.8107748E-01
        1   -1    0    0  501    0  0.00000000000E+00  0.00000000000E+00  0.18766304545E+04  0.18766304545E+04  0.50400001928E-02 0.  1.
       -1   -1    0    0    0  501  0.00000000000E+00  0.00000000000E+00 -0.16558791620E+04  0.16558791620E+04  0.50400001928E-02 0. -1.
    10030    2    1    2    0    0  0.00000000000E+00  0.00000000000E+00  0.22075129252E+03  0.35325096166E+04  0.35256053463E+04 0.  0.
        2    1    3    3  502    0  0.34693674413E+03  0.31576720874E+03 -0.15921868981E+04  0.16598593775E+04  0.25500000920E-02 0. -1.
       -2    1    3    3    0  502 -0.34693674413E+03 -0.31576720874E+03  0.18129381907E+04  0.18726502390E+04  0.25500000920E-02 0.  1.
</event>
<event>
 5   0  0.4758908E-07  0.3729194E+04  0.7818609E-02  0.8061523E-01
       -2   -1    0    0    0  501  0.00000000000E+00  0.00000000000E+00  0.21127144104E+04  0.21127144104E+04  0.25500000920E-02 0. -1.
        2   -1    0    0  501    0  0.00000000000E+00  0.00000000000E+00 -0.16456188337E+04  0.16456188337E+04  0.25500000920E-02 0.  1.
    10030    2    1    2    0    0  0.00000000000E+00  0.00000000000E+00  0.46709557674E+03  0.37583332441E+04  0.37291943495E+04 0.  0.
        2    1    3    3  502    0  0.14217952627E+04  0.94461377894E+03 -0.52259844352E+03  0.17851907723E+04  0.25500000920E-02 0.  1.
       -2    1    3    3    0  502 -0.14217952627E+04 -0.94461377894E+03  0.98969402026E+03  0.19731424718E+04  0.25500000920E-02 0. -1.
</event>
<event>
 5   0  0.1496000E-07  0.3716719E+04  0.7818609E-02  0.8064267E-01
        1   -1    0    0  501    0  0.00000000000E+00  0.00000000000E+00  0.13809801598E+04  0.13809801598E+04  0.50400001928E-02 0.  1.
       -1   -1    0    0    0  501  0.00000000000E+00  0.00000000000E+00 -0.25007604489E+04  0.25007604489E+04  0.50400001928E-02 0. -1.
    10030    2    1    2    0    0  0.00000000000E+00  0.00000000000E+00 -0.11197802891E+04  0.38817406087E+04  0.37167192869E+04 0.  0.
        5    1    3    3  502    0  0.33853225288E+03 -0.68844509447E+03  0.12078679232E+04  0.14309184967E+04  0.46999998093E+01 0.  1.
       -5    1    3    3    0  502 -0.33853225288E+03  0.68844509447E+03 -0.23276482123E+04  0.24508221120E+04  0.46999998093E+01 0. -1.
</event>
</LesHouchesEvents>
